Generated by trjconv : CNT in water t= 447.00000
33518
    1C        C    1   2.844   2.771   4.746
    1C        C    2   2.899   2.719   4.866
    1C        C    3   2.845   2.773   4.983
    1C        C    4   2.850   2.772   4.258
    1C        C    5   2.904   2.727   4.380
    1C        C    6   2.852   2.773   4.503
    1C        C    7   3.016   2.641   4.626
    1C        C    8   2.902   2.725   4.626
    1C        C    9   3.081   2.601   4.745
    1C        C   10   3.009   2.631   4.863
    1C        C   11   3.181   2.489   4.977
    1C        C   12   3.061   2.562   4.973
    1C        C   13   2.856   2.777   3.770
    1C        C   14   2.906   2.726   3.893
    1C        C   15   2.858   2.778   4.015
    1C        C   16   3.020   2.643   4.139
    1C        C   17   2.906   2.726   4.137
    1C        C   18   3.083   2.610   4.262
    1C        C   19   3.022   2.649   4.383
    1C        C   20   3.211   2.554   4.503
    1C        C   21   3.080   2.607   4.504
    1C        C   22   3.278   2.527   4.625
    1C        C   23   3.210   2.541   4.748
    1C        C   24   3.413   2.471   4.860
    1C        C   25   3.273   2.500   4.868
    1C        C   26   3.487   2.464   4.979
    1C        C   27   2.855   2.774   3.282
    1C        C   28   2.906   2.725   3.404
    1C        C   29   2.854   2.774   3.526
    1C        C   30   3.020   2.641   3.650
    1C        C   31   2.909   2.729   3.648
    1C        C   32   3.080   2.604   3.772
    1C        C   33   3.021   2.645   3.894
    1C        C   34   3.206   2.542   4.016
    1C        C   35   3.079   2.605   4.017
    1C        C   36   3.278   2.526   4.136
    1C        C   37   3.213   2.556   4.259
    1C        C   38   3.415   2.495   4.379
    1C        C   39   3.279   2.533   4.382
    1C        C   40   3.488   2.493   4.500
    1C        C   41   3.415   2.493   4.621
    1C        C   42   3.631   2.475   4.743
    1C        C   43   3.489   2.473   4.740
    1C        C   44   3.705   2.479   4.863
    1C        C   45   3.625   2.474   4.978
    1C        C   46   2.843   2.758   2.793
    1C        C   47   2.900   2.715   2.915
    1C        C   48   2.849   2.765   3.037
    1C        C   49   3.021   2.643   3.160
    1C        C   50   2.905   2.723   3.160
    1C        C   51   3.082   2.608   3.283
    1C        C   52   3.022   2.644   3.406
    1C        C   53   3.208   2.543   3.529
    1C        C   54   3.081   2.604   3.528
    1C        C   55   3.276   2.522   3.651
    1C        C   56   3.207   2.543   3.772
    1C        C   57   3.413   2.495   3.893
    1C        C   58   3.274   2.520   3.894
    1C        C   59   3.486   2.491   4.015
    1C        C   60   3.416   2.494   4.137
    1C        C   61   3.628   2.493   4.258
    1C        C   62   3.487   2.486   4.258
    1C        C   63   3.701   2.496   4.379
    1C        C   64   3.629   2.494   4.500
    1C        C   65   3.834   2.544   4.621
    1C        C   66   3.700   2.499   4.622
    1C        C   67   3.903   2.562   4.742
    1C        C   68   3.840   2.521   4.862
    1C        C   69   4.045   2.590   4.981
    1C        C   70   3.918   2.531   4.978
    1C        C   71   2.828   2.731   2.308
    1C        C   72   2.886   2.691   2.430
    1C        C   73   2.838   2.748   2.550
    1C        C   74   3.009   2.622   2.673
    1C        C   75   2.896   2.707   2.672
    1C        C   76   3.072   2.585   2.794
    1C        C   77   3.013   2.630   2.914
    1C        C   78   3.206   2.545   3.036
    1C        C   79   3.076   2.600   3.037
    1C        C   80   3.275   2.527   3.158
    1C        C   81   3.210   2.548   3.282
    1C        C   82   3.413   2.496   3.402
    1C        C   83   3.275   2.524   3.405
    1C        C   84   3.483   2.492   3.524
    1C        C   85   3.415   2.495   3.648
    1C        C   86   3.624   2.495   3.770
    1C        C   87   3.483   2.487   3.771
    1C        C   88   3.697   2.503   3.891
    1C        C   89   3.627   2.499   4.014
    1C        C   90   3.833   2.546   4.136
    1C        C   91   3.698   2.506   4.136
    1C        C   92   3.903   2.564   4.258
    1C        C   93   3.837   2.534   4.380
    1C        C   94   4.027   2.637   4.497
    1C        C   95   3.902   2.570   4.500
    1C        C   96   4.087   2.673   4.620
    1C        C   97   4.029   2.629   4.741
    1C        C   98   4.186   2.766   4.860
    1C        C   99   4.094   2.657   4.865
    1C        C  100   4.211   2.845   4.973
    1C        C  101   2.826   2.731   2.068
    1C        C  102   2.989   2.588   2.190
    1C        C  103   2.876   2.676   2.187
    1C        C  104   3.065   2.567   2.309
    1C        C  105   3.005   2.615   2.428
    1C        C  106   3.198   2.530   2.551
    1C        C  107   3.072   2.592   2.551
    1C        C  108   3.272   2.515   2.671
    1C        C  109   3.204   2.535   2.793
    1C        C  110   3.411   2.487   2.914
    1C        C  111   3.273   2.517   2.915
    1C        C  112   3.483   2.481   3.036
    1C        C  113   3.412   2.491   3.157
    1C        C  114   3.623   2.490   3.281
    1C        C  115   3.482   2.482   3.280
    1C        C  116   3.694   2.503   3.403
    1C        C  117   3.625   2.495   3.526
    1C        C  118   3.834   2.530   3.648
    1C        C  119   3.695   2.502   3.648
    1C        C  120   3.901   2.562   3.768
    1C        C  121   3.833   2.541   3.890
    1C        C  122   4.022   2.634   4.010
    1C        C  123   3.897   2.569   4.012
    1C        C  124   4.082   2.675   4.132
    1C        C  125   4.025   2.635   4.254
    1C        C  126   4.191   2.769   4.374
    1C        C  127   4.088   2.673   4.375
    1C        C  128   4.234   2.824   4.497
    1C        C  129   4.186   2.773   4.619
    1C        C  130   4.320   2.938   4.737
    1C        C  131   4.239   2.822   4.741
    1C        C  132   4.350   3.005   4.857
    1C        C  133   4.285   2.963   4.974
    1C        C  134   3.174   2.467   2.077
    1C        C  135   3.039   2.505   2.085
    1C        C  136   3.259   2.477   2.188
    1C        C  137   3.196   2.513   2.309
    1C        C  138   3.405   2.475   2.427
    1C        C  139   3.266   2.500   2.431
    1C        C  140   3.480   2.469   2.547
    1C        C  141   3.409   2.482   2.669
    1C        C  142   3.622   2.484   2.791
    1C        C  143   3.480   2.480   2.791
    1C        C  144   3.692   2.494   2.913
    1C        C  145   3.624   2.483   3.036
    1C        C  146   3.829   2.534   3.155
    1C        C  147   3.693   2.495   3.158
    1C        C  148   3.896   2.560   3.276
    1C        C  149   3.830   2.541   3.400
    1C        C  150   4.021   2.623   3.521
    1C        C  151   3.896   2.556   3.524
    1C        C  152   4.079   2.667   3.642
    1C        C  153   4.023   2.633   3.767
    1C        C  154   4.188   2.768   3.885
    1C        C  155   4.081   2.676   3.889
    1C        C  156   4.239   2.817   4.007
    1C        C  157   4.189   2.767   4.129
    1C        C  158   4.329   2.928   4.249
    1C        C  159   4.240   2.818   4.251
    1C        C  160   4.368   2.989   4.371
    1C        C  161   4.325   2.932   4.493
    1C        C  162   4.435   3.116   4.611
    1C        C  163   4.363   2.994   4.614
    1C        C  164   4.469   3.183   4.731
    1C        C  165   4.431   3.121   4.852
    1C        C  166   4.511   3.318   4.967
    1C        C  167   4.470   3.185   4.970
    1C        C  168   3.474   2.429   2.072
    1C        C  169   3.399   2.455   2.188
    1C        C  170   3.618   2.461   2.304
    1C        C  171   3.476   2.460   2.306
    1C        C  172   3.690   2.478   2.424
    1C        C  173   3.621   2.475   2.547
    1C        C  174   3.828   2.528   2.663
    1C        C  175   3.692   2.490   2.668
    1C        C  176   3.893   2.553   2.786
    1C        C  177   3.829   2.530   2.910
    1C        C  178   4.020   2.622   3.029
    1C        C  179   3.894   2.559   3.032
    1C        C  180   4.080   2.660   3.152
    1C        C  181   4.023   2.623   3.276
    1C        C  182   4.187   2.752   3.397
    1C        C  183   4.082   2.658   3.399
    1C        C  184   4.239   2.807   3.517
    1C        C  185   4.187   2.758   3.640
    1C        C  186   4.330   2.919   3.759
    1C        C  187   4.240   2.810   3.760
    1C        C  188   4.373   2.978   3.880
    1C        C  189   4.330   2.925   4.004
    1C        C  190   4.440   3.106   4.124
    1C        C  191   4.371   2.982   4.126
    1C        C  192   4.470   3.173   4.245
    1C        C  193   4.438   3.111   4.368
    1C        C  194   4.502   3.315   4.491
    1C        C  195   4.460   3.180   4.489
    1C        C  196   4.526   3.389   4.609
    1C        C  197   4.512   3.319   4.730
    1C        C  198   4.555   3.533   4.851
    1C        C  199   4.533   3.392   4.850
    1C        C  200   4.580   3.617   4.964
    1C        C  201   3.613   2.418   2.068
    1C        C  202   3.825   2.506   2.183
    1C        C  203   3.690   2.458   2.182
    1C        C  204   3.897   2.536   2.302
    1C        C  205   3.827   2.516   2.422
    1C        C  206   4.021   2.613   2.540
    1C        C  207   3.895   2.548   2.541
    1C        C  208   4.079   2.653   2.663
    1C        C  209   4.017   2.621   2.786
    1C        C  210   4.191   2.747   2.906
    1C        C  211   4.079   2.661   2.906
    1C        C  212   4.240   2.798   3.029
    1C        C  213   4.187   2.751   3.151
    1C        C  214   4.323   2.913   3.270
    1C        C  215   4.235   2.802   3.274
    1C        C  216   4.364   2.974   3.391
    1C        C  217   4.330   2.914   3.514
    1C        C  218   4.430   3.102   3.637
    1C        C  219   4.371   2.974   3.636
    1C        C  220   4.459   3.169   3.758
    1C        C  221   4.438   3.104   3.882
    1C        C  222   4.499   3.310   4.002
    1C        C  223   4.466   3.172   4.002
    1C        C  224   4.518   3.380   4.123
    1C        C  225   4.512   3.308   4.245
    1C        C  226   4.517   3.521   4.366
    1C        C  227   4.519   3.380   4.366
    1C        C  228   4.523   3.597   4.485
    1C        C  229   4.534   3.530   4.608
    1C        C  230   4.508   3.743   4.727
    1C        C  231   4.538   3.604   4.729
    1C        C  232   4.496   3.820   4.844
    1C        C  233   4.540   3.752   4.958
    1C        C  234   4.015   2.608   2.063
    1C        C  235   3.890   2.547   2.066
    1C        C  236   4.084   2.645   2.179
    1C        C  237   4.022   2.604   2.300
    1C        C  238   4.198   2.733   2.421
    1C        C  239   4.084   2.648   2.419
    1C        C  240   4.245   2.789   2.542
    1C        C  241   4.186   2.746   2.663
    1C        C  242   4.332   2.903   2.785
    1C        C  243   4.239   2.797   2.783
    1C        C  244   4.379   2.960   2.905
    1C        C  245   4.332   2.905   3.027
    1C        C  246   4.433   3.093   3.147
    1C        C  247   4.368   2.968   3.148
    1C        C  248   4.454   3.162   3.269
    1C        C  249   4.424   3.102   3.393
    1C        C  250   4.490   3.305   3.511
    1C        C  251   4.453   3.169   3.514
    1C        C  252   4.504   3.373   3.635
    1C        C  253   4.497   3.305   3.759
    1C        C  254   4.525   3.518   3.879
    1C        C  255   4.515   3.377   3.879
    1C        C  256   4.522   3.591   3.999
    1C        C  257   4.528   3.521   4.122
    1C        C  258   4.494   3.731   4.243
    1C        C  259   4.517   3.592   4.243
    1C        C  260   4.477   3.805   4.362
    1C        C  261   4.500   3.737   4.483
    1C        C  262   4.425   3.937   4.601
    1C        C  263   4.482   3.808   4.604
    1C        C  264   4.397   4.007   4.721
    1C        C  265   4.430   3.945   4.844
    1C        C  266   4.319   4.132   4.957
    1C        C  267   4.388   4.012   4.959
    1C        C  268   4.259   2.773   2.060
    1C        C  269   4.196   2.731   2.178
    1C        C  270   4.343   2.886   2.298
    1C        C  271   4.252   2.777   2.298
    1C        C  272   4.375   2.956   2.416
    1C        C  273   4.329   2.902   2.539
    1C        C  274   4.447   3.078   2.661
    1C        C  275   4.374   2.957   2.661
    1C        C  276   4.469   3.149   2.781
    1C        C  277   4.444   3.085   2.905
    1C        C  278   4.503   3.292   3.023
    1C        C  279   4.469   3.155   3.025
    1C        C  280   4.511   3.364   3.145
    1C        C  281   4.497   3.296   3.268
    1C        C  282   4.520   3.511   3.389
    1C        C  283   4.510   3.370   3.388
    1C        C  284   4.516   3.584   3.510
    1C        C  285   4.515   3.513   3.632
    1C        C  286   4.501   3.724   3.752
    1C        C  287   4.522   3.585   3.754
    1C        C  288   4.483   3.795   3.873
    1C        C  289   4.496   3.730   3.998
    1C        C  290   4.432   3.933   4.117
    1C        C  291   4.476   3.799   4.120
    1C        C  292   4.404   4.003   4.237
    1C        C  293   4.429   3.938   4.359
    1C        C  294   4.325   4.126   4.477
    1C        C  295   4.395   4.003   4.480
    1C        C  296   4.283   4.186   4.598
    1C        C  297   4.322   4.128   4.720
    1C        C  298   4.201   4.315   4.837
    1C        C  299   4.281   4.196   4.838
    1C        C  300   4.168   4.399   4.948
    1C        C  301   4.348   2.879   2.062
    1C        C  302   4.464   3.068   2.177
    1C        C  303   4.391   2.945   2.178
    1C        C  304   4.487   3.140   2.298
    1C        C  305   4.446   3.078   2.419
    1C        C  306   4.504   3.283   2.536
    1C        C  307   4.477   3.144   2.540
    1C        C  308   4.512   3.355   2.657
    1C        C  309   4.501   3.286   2.780
    1C        C  310   4.525   3.501   2.899
    1C        C  311   4.516   3.360   2.900
    1C        C  312   4.518   3.575   3.020
    1C        C  313   4.513   3.505   3.142
    1C        C  314   4.489   3.717   3.262
    1C        C  315   4.511   3.577   3.264
    1C        C  316   4.481   3.790   3.382
    1C        C  317   4.498   3.724   3.506
    1C        C  318   4.429   3.923   3.625
    1C        C  319   4.479   3.791   3.629
    1C        C  320   4.397   3.986   3.748
    1C        C  321   4.428   3.925   3.872
    1C        C  322   4.318   4.108   3.988
    1C        C  323   4.396   3.990   3.993
    1C        C  324   4.277   4.169   4.109
    1C        C  325   4.325   4.121   4.232
    1C        C  326   4.184   4.281   4.352
    1C        C  327   4.281   4.178   4.354
    1C        C  328   4.136   4.336   4.472
    1C        C  329   4.191   4.293   4.595
    1C        C  330   4.022   4.431   4.711
    1C        C  331   4.139   4.350   4.714
    1C        C  332   3.968   4.490   4.827
    1C        C  333   4.052   4.477   4.938
    1C        C  334   4.550   3.267   2.061
    1C        C  335   4.529   3.129   2.065
    1C        C  336   4.531   3.349   2.174
    1C        C  337   4.513   3.279   2.295
    1C        C  338   4.524   3.495   2.411
    1C        C  339   4.523   3.354   2.415
    1C        C  340   4.523   3.567   2.532
    1C        C  341   4.524   3.495   2.654
    1C        C  342   4.488   3.706   2.771
    1C        C  343   4.520   3.568   2.775
    1C        C  344   4.475   3.779   2.891
    1C        C  345   4.493   3.714   3.015
    1C        C  346   4.423   3.914   3.138
    1C        C  347   4.472   3.781   3.137
    1C        C  348   4.397   3.983   3.259
    1C        C  349   4.432   3.923   3.381
    1C        C  350   4.319   4.103   3.502
    1C        C  351   4.398   3.986   3.503
    1C        C  352   4.274   4.161   3.623
    1C        C  353   4.319   4.104   3.744
    1C        C  354   4.173   4.260   3.865
    1C        C  355   4.274   4.161   3.865
    1C        C  356   4.119   4.308   3.986
    1C        C  357   4.173   4.264   4.109
    1C        C  358   4.009   4.400   4.227
    1C        C  359   4.125   4.320   4.230
    1C        C  360   3.954   4.444   4.350
    1C        C  361   4.020   4.417   4.472
    1C        C  362   3.825   4.514   4.592
    1C        C  363   3.952   4.452   4.590
    1C        C  364   3.758   4.554   4.710
    1C        C  365   3.839   4.547   4.826
    1C        C  366   3.627   4.590   4.949
    1C        C  367   3.764   4.566   4.942
    1C        C  368   4.508   3.561   2.050
    1C        C  369   4.519   3.489   2.170
    1C        C  370   4.499   3.706   2.285
    1C        C  371   4.517   3.566   2.289
    1C        C  372   4.482   3.774   2.407
    1C        C  373   4.503   3.707   2.530
    1C        C  374   4.422   3.907   2.648
    1C        C  375   4.476   3.776   2.650
    1C        C  376   4.392   3.971   2.770
    1C        C  377   4.427   3.912   2.893
    1C        C  378   4.312   4.090   3.011
    1C        C  379   4.395   3.976   3.015
    1C        C  380   4.272   4.151   3.132
    1C        C  381   4.317   4.099   3.256
    1C        C  382   4.172   4.253   3.377
    1C        C  383   4.273   4.154   3.379
    1C        C  384   4.118   4.303   3.497
    1C        C  385   4.169   4.256   3.620
    1C        C  386   4.006   4.390   3.741
    1C        C  387   4.121   4.307   3.743
    1C        C  388   3.943   4.424   3.863
    1C        C  389   4.005   4.392   3.986
    1C        C  390   3.812   4.484   4.106
    1C        C  391   3.944   4.433   4.106
    1C        C  392   3.751   4.511   4.230
    1C        C  393   3.824   4.499   4.351
    1C        C  394   3.616   4.557   4.471
    1C        C  395   3.755   4.532   4.470
    1C        C  396   3.543   4.570   4.591
    1C        C  397   3.618   4.571   4.711
    1C        C  398   3.410   4.555   4.839
    1C        C  399   3.549   4.579   4.833
    1C        C  400   3.339   4.526   4.956
    1C        C  401   4.501   3.700   2.051
    1C        C  402   4.452   3.917   2.164
    1C        C  403   4.491   3.781   2.165
    1C        C  404   4.414   3.979   2.285
    1C        C  405   4.436   3.908   2.405
    1C        C  406   4.325   4.093   2.523
    1C        C  407   4.401   3.973   2.525
    1C        C  408   4.277   4.148   2.644
    1C        C  409   4.317   4.091   2.767
    1C        C  410   4.169   4.245   2.888
    1C        C  411   4.270   4.146   2.888
    1C        C  412   4.117   4.292   3.010
    1C        C  413   4.173   4.251   3.133
    1C        C  414   4.001   4.377   3.253
    1C        C  415   4.118   4.298   3.255
    1C        C  416   3.939   4.416   3.374
    1C        C  417   4.001   4.383   3.497
    1C        C  418   3.811   4.473   3.616
    1C        C  419   3.940   4.417   3.619
    1C        C  420   3.747   4.500   3.740
    1C        C  421   3.813   4.479   3.863
    1C        C  422   3.605   4.529   3.985
    1C        C  423   3.743   4.500   3.984
    1C        C  424   3.538   4.536   4.109
    1C        C  425   3.612   4.537   4.230
    1C        C  426   3.401   4.548   4.356
    1C        C  427   3.542   4.555   4.351
    1C        C  428   3.330   4.548   4.478
    1C        C  429   3.402   4.558   4.599
    1C        C  430   3.193   4.520   4.721
    1C        C  431   3.332   4.552   4.721
    1C        C  432   3.123   4.496   4.842
    1C        C  433   3.204   4.494   4.957
    1C        C  434   4.381   4.124   2.051
    1C        C  435   4.451   4.003   2.054
    1C        C  436   4.301   4.161   2.164
    1C        C  437   4.338   4.099   2.286
    1C        C  438   4.184   4.255   2.401
    1C        C  439   4.284   4.155   2.404
    1C        C  440   4.123   4.295   2.523
    1C        C  441   4.175   4.246   2.644
    1C        C  442   4.003   4.375   2.767
    1C        C  443   4.117   4.291   2.765
    1C        C  444   3.941   4.413   2.888
    1C        C  445   4.002   4.375   3.010
    1C        C  446   3.810   4.469   3.127
    1C        C  447   3.939   4.412   3.130
    1C        C  448   3.744   4.496   3.249
    1C        C  449   3.811   4.475   3.372
    1C        C  450   3.607   4.530   3.495
    1C        C  451   3.745   4.500   3.494
    1C        C  452   3.539   4.538   3.619
    1C        C  453   3.611   4.535   3.740
    1C        C  454   3.397   4.545   3.864
    1C        C  455   3.538   4.543   3.862
    1C        C  456   3.329   4.536   3.987
    1C        C  457   3.396   4.539   4.111
    1C        C  458   3.190   4.508   4.237
    1C        C  459   3.328   4.539   4.235
    1C        C  460   3.126   4.486   4.360
    1C        C  461   3.193   4.513   4.481
    1C        C  462   2.995   4.430   4.602
    1C        C  463   3.123   4.490   4.602
    1C        C  464   2.930   4.402   4.724
    1C        C  465   2.990   4.444   4.846
    1C        C  466   2.801   4.336   4.959
    1C        C  467   2.907   4.427   4.962
    1C        C  468   4.120   4.275   2.039
    1C        C  469   4.187   4.248   2.159
    1C        C  470   4.008   4.373   2.279
    1C        C  471   4.129   4.298   2.279
    1C        C  472   3.941   4.402   2.400
    1C        C  473   4.002   4.368   2.523
    1C        C  474   3.811   4.462   2.640
    1C        C  475   3.941   4.407   2.644
    1C        C  476   3.745   4.491   2.762
    1C        C  477   3.813   4.473   2.884
    1C        C  478   3.605   4.523   3.007
    1C        C  479   3.742   4.492   3.005
    1C        C  480   3.534   4.534   3.129
    1C        C  481   3.606   4.525   3.250
    1C        C  482   3.395   4.535   3.375
    1C        C  483   3.537   4.537   3.373
    1C        C  484   3.326   4.531   3.498
    1C        C  485   3.398   4.540   3.620
    1C        C  486   3.189   4.503   3.746
    1C        C  487   3.327   4.535   3.742
    1C        C  488   3.123   4.484   3.869
    1C        C  489   3.192   4.499   3.991
    1C        C  490   3.003   4.410   4.116
    1C        C  491   3.127   4.478   4.114
    1C        C  492   2.941   4.380   4.240
    1C        C  493   2.998   4.426   4.360
    1C        C  494   2.826   4.298   4.485
    1C        C  495   2.936   4.387   4.481
    1C        C  496   2.772   4.251   4.607
    1C        C  497   2.819   4.313   4.725
    1C        C  498   2.664   4.164   4.844
    1C        C  499   2.754   4.272   4.843
    1C        C  500   2.589   4.121   4.954
    1C        C  501   4.003   4.349   2.045
    1C        C  502   3.813   4.460   2.155
    1C        C  503   3.944   4.406   2.158
    1C        C  504   3.741   4.474   2.276
    1C        C  505   3.809   4.453   2.398
    1C        C  506   3.602   4.508   2.519
    1C        C  507   3.741   4.480   2.519
    1C        C  508   3.532   4.521   2.641
    1C        C  509   3.606   4.515   2.762
    1C        C  510   3.394   4.525   2.882
    1C        C  511   3.535   4.528   2.884
    1C        C  512   3.326   4.516   3.005
    1C        C  513   3.393   4.533   3.128
    1C        C  514   3.188   4.498   3.254
    1C        C  515   3.325   4.531   3.252
    1C        C  516   3.121   4.471   3.376
    1C        C  517   3.189   4.498   3.497
    1C        C  518   3.001   4.412   3.626
    1C        C  519   3.126   4.478   3.622
    1C        C  520   2.943   4.371   3.748
    1C        C  521   3.001   4.413   3.870
    1C        C  522   2.836   4.282   3.996
    1C        C  523   2.944   4.373   3.993
    1C        C  524   2.789   4.232   4.119
    1C        C  525   2.838   4.283   4.241
    1C        C  526   2.694   4.131   4.364
    1C        C  527   2.779   4.244   4.363
    1C        C  528   2.653   4.072   4.486
    1C        C  529   2.686   4.139   4.606
    1C        C  530   2.582   3.957   4.731
    1C        C  531   2.637   4.088   4.728
    1C        C  532   2.540   3.900   4.854
    1C        C  533   2.537   3.991   4.964
    1C        C  534   3.618   4.556   2.040
    1C        C  535   3.751   4.511   2.041
    1C        C  536   3.534   4.528   2.152
    1C        C  537   3.602   4.500   2.274
    1C        C  538   3.391   4.517   2.398
    1C        C  539   3.533   4.514   2.397
    1C        C  540   3.317   4.520   2.518
    1C        C  541   3.391   4.521   2.638
    1C        C  542   3.184   4.485   2.764
    1C        C  543   3.322   4.512   2.761
    1C        C  544   3.120   4.463   2.889
    1C        C  545   3.189   4.483   3.011
    1C        C  546   2.995   4.402   3.136
    1C        C  547   3.121   4.465   3.134
    1C        C  548   2.938   4.364   3.259
    1C        C  549   2.998   4.402   3.381
    1C        C  550   2.834   4.276   3.508
    1C        C  551   2.941   4.369   3.506
    1C        C  552   2.784   4.224   3.630
    1C        C  553   2.834   4.281   3.750
    1C        C  554   2.705   4.116   3.876
    1C        C  555   2.787   4.231   3.873
    1C        C  556   2.665   4.058   3.998
    1C        C  557   2.701   4.122   4.119
    1C        C  558   2.599   3.941   4.245
    1C        C  559   2.658   4.069   4.243
    1C        C  560   2.570   3.874   4.366
    1C        C  561   2.593   3.944   4.487
    1C        C  562   2.530   3.747   4.616
    1C        C  563   2.562   3.885   4.611
    1C        C  564   2.510   3.679   4.738
    1C        C  565   2.515   3.759   4.856
    1C        C  566   2.522   3.547   4.976
    1C        C  567   2.526   3.686   4.975
    1C        C  568   3.323   4.473   2.041
    1C        C  569   3.392   4.514   2.155
    1C        C  570   3.181   4.473   2.276
    1C        C  571   3.319   4.508   2.277
    1C        C  572   3.115   4.456   2.400
    1C        C  573   3.180   4.486   2.522
    1C        C  574   2.987   4.399   2.644
    1C        C  575   3.114   4.461   2.644
    1C        C  576   2.933   4.359   2.769
    1C        C  577   2.998   4.392   2.890
    1C        C  578   2.828   4.270   3.015
    1C        C  579   2.936   4.361   3.014
    1C        C  580   2.782   4.219   3.138
    1C        C  581   2.831   4.272   3.259
    1C        C  582   2.706   4.110   3.383
    1C        C  583   2.786   4.226   3.385
    1C        C  584   2.669   4.051   3.506
    1C        C  585   2.703   4.109   3.630
    1C        C  586   2.593   3.934   3.755
    1C        C  587   2.664   4.056   3.755
    1C        C  588   2.570   3.869   3.878
    1C        C  589   2.598   3.933   4.001
    1C        C  590   2.536   3.735   4.126
    1C        C  591   2.572   3.871   4.126
    1C        C  592   2.520   3.669   4.250
    1C        C  593   2.531   3.739   4.372
    1C        C  594   2.504   3.533   4.498
    1C        C  595   2.521   3.673   4.497
    1C        C  596   2.512   3.463   4.621
    1C        C  597   2.513   3.536   4.742
    1C        C  598   2.535   3.324   4.862
    1C        C  599   2.523   3.464   4.863
    1C        C  600   2.531   3.249   4.981
    1C        C  601   3.189   4.439   2.039
    1C        C  602   2.978   4.391   2.155
    1C        C  603   3.112   4.440   2.157
    1C        C  604   2.923   4.357   2.282
    1C        C  605   2.986   4.397   2.401
    1C        C  606   2.823   4.265   2.527
    1C        C  607   2.924   4.363   2.523
    1C        C  608   2.777   4.214   2.651
    1C        C  609   2.825   4.268   2.772
    1C        C  610   2.692   4.105   2.895
    1C        C  611   2.776   4.219   2.894
    1C        C  612   2.654   4.047   3.018
    1C        C  613   2.698   4.106   3.140
    1C        C  614   2.598   3.923   3.264
    1C        C  615   2.662   4.049   3.264
    1C        C  616   2.567   3.864   3.388
    1C        C  617   2.599   3.928   3.510
    1C        C  618   2.535   3.729   3.637
    1C        C  619   2.569   3.866   3.633
    1C        C  620   2.517   3.662   3.760
    1C        C  621   2.529   3.734   3.881
    1C        C  622   2.507   3.524   4.010
    1C        C  623   2.523   3.664   4.004
    1C        C  624   2.508   3.454   4.133
    1C        C  625   2.513   3.528   4.253
    1C        C  626   2.534   3.321   4.378
    1C        C  627   2.508   3.460   4.377
    1C        C  628   2.554   3.253   4.500
    1C        C  629   2.531   3.323   4.621
    1C        C  630   2.594   3.117   4.743
    1C        C  631   2.548   3.252   4.742
    1C        C  632   2.614   3.048   4.866
    1C        C  633   2.563   3.113   4.983
    1C        C  634   2.774   4.305   2.053
    1C        C  635   2.887   4.389   2.045
    1C        C  636   2.743   4.229   2.167
    1C        C  637   2.808   4.274   2.284
    1C        C  638   2.682   4.105   2.408
    1C        C  639   2.762   4.222   2.407
    1C        C  640   2.645   4.046   2.530
    1C        C  641   2.690   4.103   2.651
    1C        C  642   2.588   3.918   2.776
    1C        C  643   2.656   4.042   2.774
    1C        C  644   2.556   3.856   2.899
    1C        C  645   2.586   3.924   3.020
    1C        C  646   2.524   3.722   3.148
    1C        C  647   2.566   3.857   3.143
    1C        C  648   2.510   3.657   3.272
    1C        C  649   2.526   3.729   3.392
    1C        C  650   2.504   3.519   3.520
    1C        C  651   2.514   3.660   3.515
    1C        C  652   2.511   3.449   3.642
    1C        C  653   2.506   3.521   3.763
    1C        C  654   2.530   3.315   3.889
    1C        C  655   2.507   3.454   3.887
    1C        C  656   2.549   3.247   4.011
    1C        C  657   2.535   3.315   4.133
    1C        C  658   2.611   3.122   4.259
    1C        C  659   2.551   3.250   4.258
    1C        C  660   2.641   3.058   4.381
    1C        C  661   2.602   3.120   4.502
    1C        C  662   2.711   2.937   4.623
    1C        C  663   2.629   3.052   4.623
    1C        C  664   2.749   2.876   4.744
    1C        C  665   2.696   2.930   4.865
    1C        C  666   2.743   2.868   4.981
    1C        C  667   2.671   4.024   2.050
    1C        C  668   2.680   4.103   2.166
    1C        C  669   2.590   3.909   2.291
    1C        C  670   2.647   4.039   2.288
    1C        C  671   2.560   3.846   2.414
    1C        C  672   2.584   3.918   2.533
    1C        C  673   2.518   3.716   2.657
    1C        C  674   2.559   3.851   2.655
    1C        C  675   2.506   3.650   2.781
    1C        C  676   2.514   3.722   2.903
    1C        C  677   2.499   3.512   3.030
    1C        C  678   2.505   3.653   3.026
    1C        C  679   2.500   3.443   3.152
    1C        C  680   2.501   3.516   3.273
    1C        C  681   2.533   3.309   3.399
    1C        C  682   2.509   3.448   3.397
    1C        C  683   2.549   3.240   3.521
    1C        C  684   2.532   3.309   3.643
    1C        C  685   2.604   3.114   3.770
    1C        C  686   2.550   3.245   3.768
    1C        C  687   2.634   3.051   3.893
    1C        C  688   2.600   3.115   4.014
    1C        C  689   2.718   2.940   4.137
    1C        C  690   2.639   3.057   4.137
    1C        C  691   2.760   2.881   4.259
    1C        C  692   2.720   2.940   4.381
    1C        C  693   2.760   2.880   4.503
    1C        C  694   2.628   3.891   2.056
    1C        C  695   2.529   3.700   2.176
    1C        C  696   2.581   3.832   2.173
    1C        C  697   2.500   3.636   2.298
    1C        C  698   2.517   3.712   2.416
    1C        C  699   2.484   3.503   2.542
    1C        C  700   2.494   3.644   2.538
    1C        C  701   2.495   3.435   2.665
    1C        C  702   2.497   3.509   2.785
    1C        C  703   2.526   3.301   2.910
    1C        C  704   2.502   3.440   2.908
    1C        C  705   2.543   3.233   3.033
    1C        C  706   2.525   3.304   3.154
    1C        C  707   2.600   3.107   3.279
    1C        C  708   2.548   3.239   3.278
    1C        C  709   2.635   3.046   3.402
    1C        C  710   2.604   3.109   3.524
    1C        C  711   2.711   2.931   3.649
    1C        C  712   2.634   3.050   3.648
    1C        C  713   2.762   2.882   3.771
    1C        C  714   2.719   2.938   3.894
    1C        C  715   2.761   2.881   4.016
    1C        C  716   2.448   3.496   2.062
    1C        C  717   2.490   3.629   2.062
    1C        C  718   2.465   3.418   2.181
    1C        C  719   2.476   3.495   2.300
    1C        C  720   2.512   3.288   2.425
    1C        C  721   2.483   3.426   2.423
    1C        C  722   2.535   3.223   2.549
    1C        C  723   2.516   3.295   2.669
    1C        C  724   2.594   3.096   2.790
    1C        C  725   2.539   3.226   2.790
    1C        C  726   2.623   3.035   2.914
    1C        C  727   2.592   3.101   3.035
    1C        C  728   2.712   2.928   3.157
    1C        C  729   2.629   3.042   3.158
    1C        C  730   2.757   2.876   3.280
    1C        C  731   2.715   2.930   3.403
    1C        C  732   2.754   2.873   3.527
    1C        C  733   2.495   3.198   2.069
    1C        C  734   2.487   3.277   2.184
    1C        C  735   2.579   3.083   2.305
    1C        C  736   2.521   3.213   2.306
    1C        C  737   2.618   3.022   2.426
    1C        C  738   2.588   3.093   2.545
    1C        C  739   2.696   2.911   2.670
    1C        C  740   2.623   3.031   2.668
    1C        C  741   2.743   2.858   2.792
    1C        C  742   2.705   2.920   2.913
    1C        C  743   2.754   2.870   3.035
    1C        C  744   2.556   3.073   2.073
    1C        C  745   2.685   2.892   2.188
    1C        C  746   2.608   3.010   2.187
    1C        C  747   2.731   2.836   2.310
    1C        C  748   2.689   2.900   2.428
    1C        C  749   2.740   2.850   2.550
    1C        C  750   2.742   2.842   2.071
    1C        C  751   3.660   2.347   1.947
    1C        O  752   3.670   2.222   1.957
    1C        O  753   3.643   2.391   1.815
    1C        C  754   4.642   3.055   2.003
    1C        O  755   4.658   3.055   1.878
    1C        O  756   4.771   3.061   2.056
    1C        C  757   4.444   4.230   1.968
    1C        O  758   4.517   4.318   2.021
    1C        O  759   4.439   4.234   1.828
    1C        C  760   3.592   4.675   1.956
    1C        O  761   3.646   4.788   1.970
    1C        O  762   3.533   4.662   1.830
    1C        C  763   2.872   4.508   1.958
    1C        O  764   2.924   4.516   1.844
    1C        O  765   2.747   4.571   1.960
    1C        C  766   2.332   3.475   1.972
    1C        O  767   2.339   3.489   1.847
    1C        O  768   2.204   3.485   2.029
    1C        C  769   4.671   3.602   5.080
    1C        O  770   4.629   3.562   5.192
    1C        O  771   4.809   3.583   5.068
    1C        C  772   4.274   4.454   5.036
    1C        O  773   4.267   4.452   5.162
    1C        O  774   4.373   4.543   4.994
    1C        C  775   4.147   2.546   5.079
    1C        O  776   4.196   2.431   5.067
    1C        O  777   4.119   2.580   5.212
    1C        C  778   2.900   4.518   5.078
    1C        O  779   2.822   4.616   5.071
    1C        O  780   2.955   4.479   5.201
    1C        C  781   2.524   3.048   5.111
    1C        O  782   2.405   3.010   5.126
    1C        O  783   2.595   3.054   5.230
    1C        C  784   2.436   3.976   5.071
    1C        O  785   2.311   3.987   5.056
    1C        O  786   2.482   3.989   5.202
    1C        C  787   2.949   2.430   1.995
    1C        O  788   2.948   2.459   1.872
    1C        O  789   2.917   2.296   2.014
    1C        C  790   3.189   2.374   5.070
    1C        O  791   3.201   2.257   5.025
    1C        O  792   3.238   2.380   5.201
    1C        H  793   4.254   3.035   5.046
    1C        H  794   4.171   2.814   5.067
    1C        H  795   4.476   3.136   5.065
    1C        H  796   4.529   3.366   5.061
    1C        H  797   4.575   3.814   5.038
    1C        H  798   4.414   3.974   5.056
    1C        H  799   4.275   4.161   5.051
    1C        H  800   4.061   4.569   4.991
    1C        H  801   3.813   4.557   5.037
    1C        H  802   3.599   4.665   5.020
    1C        H  803   3.398   4.483   5.035
    1C        H  804   3.163   4.467   5.052
    1C        H  805   3.894   2.468   5.061
    1C        H  806   3.673   2.449   5.071
    1C        H  807   2.986   2.524   5.039
    1C        H  808   3.435   2.454   5.072
    1C        H  809   2.910   2.785   5.067
    1C        H  810   2.687   2.871   5.072
    1C        H  811   2.481   3.301   5.060
    1C        H  812   2.492   3.510   5.072
    1C        H  813   2.512   3.735   5.069
    1C        H  814   2.588   4.180   5.043
    1C        H  815   2.776   4.303   5.058
    1C        H  816   2.740   2.905   1.984
    1C        H  817   2.900   2.741   1.991
    1C        H  818   3.215   2.434   1.985
    1C        H  819   3.429   2.443   1.976
    1C        H  820   3.831   2.558   1.977
    1C        H  821   4.073   2.587   1.975
    1C        H  822   4.249   2.715   1.970
    1C        H  823   4.382   2.922   1.970
    1C        H  824   4.559   3.312   1.964
    1C        H  825   4.494   3.513   1.956
    1C        H  826   4.486   3.741   1.953
    1C        H  827   3.809   4.522   1.951
    1C        H  828   3.942   4.341   1.957
    1C        H  829   4.177   4.292   1.950
    1C        H  830   4.527   3.992   1.979
    1C        H  831   2.684   3.822   1.996
    1C        H  832   2.751   4.038   1.981
    1C        H  833   2.698   4.308   1.979
    1C        H  834   3.380   4.455   1.952
    1C        H  835   3.139   4.454   1.946
    1C        H  836   2.525   3.007   1.995
    1C        H  837   2.461   3.232   1.973
    1C        H  838   2.501   3.682   1.970
    2V3OU   H29  839   2.802   3.544   5.080
    2V3OU   C27  840   2.780   3.499   5.180
    2V3OU   H27  841   2.723   3.568   5.248
    2V3OU   H28  842   2.726   3.401   5.174
    2V3OU   O11  843   2.900   3.474   5.255
    2V3OU   C15  844   2.916   3.389   5.362
    2V3OU   C13  845   3.050   3.374   5.402
    2V3OU   C14  846   3.075   3.266   5.486
    2V3OU   C16  847   2.970   3.188   5.534
    2V3OU    H6  848   2.994   3.102   5.598
    2V3OU   C12  849   3.214   3.228   5.521
    2V3OU    O2  850   3.243   3.125   5.586
    2V3OU   C10  851   3.326   3.298   5.455
    2V3OU    C8  852   3.459   3.266   5.478
    2V3OU   O10  853   3.489   3.150   5.542
    2V3OU   H26  854   3.400   3.115   5.559
    2V3OU    C6  855   3.564   3.343   5.419
    2V3OU    C5  856   3.534   3.462   5.353
    2V3OU    C4  857   3.705   3.296   5.428
    2V3OU    H4  858   3.714   3.228   5.518
    2V3OU    H5  859   3.711   3.223   5.341
    2V3OU    C2  860   3.817   3.400   5.421
    2V3OU    O6  861   3.809   3.471   5.545
    2V3OU   H21  862   3.762   3.552   5.521
    2V3OU    C3  863   3.778   3.493   5.305
    2V3OU    H2  864   3.855   3.574   5.289
    2V3OU    H3  865   3.775   3.443   5.206
    2V3OU   C25  866   3.952   3.328   5.414
    2V3OU    O7  867   4.003   3.293   5.308
    2V3OU   C26  868   4.025   3.290   5.542
    2V3OU   H22  869   4.065   3.383   5.589
    2V3OU   H23  870   4.119   3.235   5.515
    2V3OU    O8  871   3.953   3.211   5.634
    2V3OU   H24  872   3.929   3.276   5.703
    2V3OU    C1  873   3.643   3.560   5.322
    2V3OU    H1  874   3.620   3.620   5.229
    2V3OU    O3  875   3.657   3.657   5.426
    2V3OU   C19  876   3.615   3.790   5.396
    2V3OU    H9  877   3.515   3.800   5.344
    2V3OU    O4  878   3.716   3.845   5.314
    2V3OU   C20  879   3.848   3.872   5.361
    2V3OU   H10  880   3.896   3.772   5.379
    2V3OU   C24  881   3.609   3.851   5.536
    2V3OU   H16  882   3.541   3.794   5.605
    2V3OU   H17  883   3.563   3.952   5.520
    2V3OU   C23  884   3.749   3.871   5.593
    2V3OU   H15  885   3.795   3.769   5.616
    2V3OU    N1  886   3.737   3.947   5.715
    2V3OU   H19  887   3.804   3.914   5.781
    2V3OU   H20  888   3.646   3.935   5.755
    2V3OU   C21  889   3.846   3.946   5.496
    2V3OU   H11  890   3.951   3.923   5.531
    2V3OU    O5  891   3.836   4.087   5.496
    2V3OU   H18  892   3.787   4.104   5.578
    2V3OU   C22  893   3.917   3.948   5.249
    2V3OU   H12  894   3.867   4.047   5.234
    2V3OU   H13  895   3.904   3.892   5.153
    2V3OU   H14  896   4.027   3.960   5.269
    2V3OU   C11  897   3.158   3.469   5.372
    2V3OU    O1  898   3.131   3.589   5.346
    2V3OU    C9  899   3.296   3.417   5.384
    2V3OU    C7  900   3.397   3.499   5.333
    2V3OU    O9  901   3.377   3.617   5.265
    2V3OU   H25  902   3.282   3.635   5.266
    2V3OU   C17  903   2.811   3.312   5.418
    2V3OU    H7  904   2.710   3.339   5.388
    2V3OU   C18  905   2.835   3.211   5.511
    2V3OU    H8  906   2.752   3.144   5.536
    3SOL     OW  907   3.831   3.939   4.028
    3SOL    HW1  908   3.853   3.897   3.940
    3SOL    HW2  909   3.763   4.011   4.014
    4SOL     OW  910   6.777   0.164   0.560
    4SOL    HW1  911   6.799   0.204   0.650
    4SOL    HW2  912   6.698   0.211   0.522
    5SOL     OW  913   4.990   1.876   1.386
    5SOL    HW1  914   4.926   1.951   1.400
    5SOL    HW2  915   5.075   1.894   1.437
    6SOL     OW  916   5.884   0.616   2.603
    6SOL    HW1  917   5.795   0.570   2.610
    6SOL    HW2  918   5.901   0.667   2.687
    7SOL     OW  919   2.239   3.931   4.195
    7SOL    HW1  920   2.238   3.972   4.103
    7SOL    HW2  921   2.312   3.973   4.249
    8SOL     OW  922   1.754   3.430   5.287
    8SOL    HW1  923   1.712   3.375   5.215
    8SOL    HW2  924   1.773   3.373   5.367
    9SOL     OW  925   6.895   0.967   6.483
    9SOL    HW1  926   6.920   1.042   6.544
    9SOL    HW2  927   6.830   1.000   6.415
   10SOL     OW  928   4.889   4.439   2.702
   10SOL    HW1  929   4.843   4.386   2.773
   10SOL    HW2  930   4.951   4.380   2.650
   11SOL     OW  931   2.407   1.525   0.130
   11SOL    HW1  932   2.504   1.551   0.125
   11SOL    HW2  933   2.399   1.433   0.168
   12SOL     OW  934   3.103   4.862   3.046
   12SOL    HW1  935   3.191   4.892   3.008
   12SOL    HW2  936   3.109   4.860   3.146
   13SOL     OW  937   4.829   6.420   1.250
   13SOL    HW1  938   4.894   6.374   1.311
   13SOL    HW2  939   4.856   6.515   1.238
   14SOL     OW  940   4.368   5.283   4.870
   14SOL    HW1  941   4.439   5.343   4.906
   14SOL    HW2  942   4.316   5.243   4.945
   15SOL     OW  943   6.751   5.951   6.039
   15SOL    HW1  944   6.654   5.961   6.015
   15SOL    HW2  945   6.778   6.027   6.099
   16SOL     OW  946   1.069   3.961   5.129
   16SOL    HW1  947   1.039   3.914   5.046
   16SOL    HW2  948   0.993   3.965   5.194
   17SOL     OW  949   6.141   1.977   5.238
   17SOL    HW1  950   6.057   1.923   5.230
   17SOL    HW2  951   6.206   1.928   5.295
   18SOL     OW  952   2.519   1.328   5.701
   18SOL    HW1  953   2.544   1.347   5.796
   18SOL    HW2  954   2.598   1.343   5.642
   19SOL     OW  955   2.329   0.945   2.932
   19SOL    HW1  956   2.421   0.907   2.919
   19SOL    HW2  957   2.277   0.936   2.847
   20SOL     OW  958   6.228   1.728   5.662
   20SOL    HW1  959   6.200   1.815   5.620
   20SOL    HW2  960   6.170   1.709   5.741
   21SOL     OW  961   2.645   4.572   3.091
   21SOL    HW1  962   2.720   4.637   3.075
   21SOL    HW2  963   2.568   4.596   3.033
   22SOL     OW  964   1.751   6.904   6.678
   22SOL    HW1  965   1.791   6.813   6.692
   22SOL    HW2  966   1.756   6.927   6.581
   23SOL     OW  967   5.974   4.625   1.172
   23SOL    HW1  968   5.998   4.624   1.075
   23SOL    HW2  969   5.986   4.534   1.211
   24SOL     OW  970   4.563   1.196   1.059
   24SOL    HW1  971   4.602   1.145   0.983
   24SOL    HW2  972   4.615   1.280   1.074
   25SOL     OW  973   1.346   0.813   4.789
   25SOL    HW1  974   1.319   0.909   4.796
   25SOL    HW2  975   1.274   0.762   4.743
   26SOL     OW  976   1.236   2.737   6.765
   26SOL    HW1  977   1.262   2.661   6.825
   26SOL    HW2  978   1.301   2.745   6.690
   27SOL     OW  979   6.220   0.924   1.128
   27SOL    HW1  980   6.305   0.956   1.086
   27SOL    HW2  981   6.175   0.858   1.066
   28SOL     OW  982   2.719   0.639   5.265
   28SOL    HW1  983   2.806   0.591   5.259
   28SOL    HW2  984   2.689   0.666   5.173
   29SOL     OW  985   0.869   0.509   0.953
   29SOL    HW1  986   0.878   0.606   0.972
   29SOL    HW2  987   0.944   0.459   0.996
   30SOL     OW  988   4.415   0.426   5.246
   30SOL    HW1  989   4.505   0.427   5.290
   30SOL    HW2  990   4.417   0.481   5.163
   31SOL     OW  991   0.813   3.996   5.730
   31SOL    HW1  992   0.761   3.938   5.667
   31SOL    HW2  993   0.817   3.952   5.820
   32SOL     OW  994   3.127   0.701   1.134
   32SOL    HW1  995   3.102   0.696   1.230
   32SOL    HW2  996   3.176   0.617   1.108
   33SOL     OW  997   1.109   5.246   5.775
   33SOL    HW1  998   1.036   5.300   5.817
   33SOL    HW2  999   1.147   5.296   5.697
   34SOL     OW 1000   1.977   5.266   5.703
   34SOL    HW1 1001   1.977   5.174   5.741
   34SOL    HW2 1002   1.932   5.265   5.613
   35SOL     OW 1003   2.621   3.423   6.888
   35SOL    HW1 1004   2.682   3.497   6.857
   35SOL    HW2 1005   2.669   3.336   6.883
   36SOL     OW 1006   4.522   1.082   5.018
   36SOL    HW1 1007   4.561   1.101   4.928
   36SOL    HW2 1008   4.443   1.021   5.008
   37SOL     OW 1009   3.068   0.634   4.344
   37SOL    HW1 1010   3.058   0.724   4.386
   37SOL    HW2 1011   3.117   0.642   4.257
   38SOL     OW 1012   0.054   4.278   2.957
   38SOL    HW1 1013   0.053   4.187   2.998
   38SOL    HW2 1014   0.061   4.348   3.028
   39SOL     OW 1015   6.739   5.639   6.712
   39SOL    HW1 1016   6.779   5.713   6.766
   39SOL    HW2 1017   6.646   5.622   6.744
   40SOL     OW 1018   4.018   1.125   6.383
   40SOL    HW1 1019   4.113   1.094   6.372
   40SOL    HW2 1020   3.956   1.048   6.367
   41SOL     OW 1021   5.891   4.265   1.505
   41SOL    HW1 1022   5.873   4.201   1.431
   41SOL    HW2 1023   5.813   4.267   1.568
   42SOL     OW 1024   2.224   5.697   6.345
   42SOL    HW1 1025   2.213   5.613   6.399
   42SOL    HW2 1026   2.204   5.677   6.249
   43SOL     OW 1027   3.722   6.993   4.541
   43SOL    HW1 1028   3.646   0.035   4.556
   43SOL    HW2 1029   3.808   0.022   4.549
   44SOL     OW 1030   6.710   1.140   5.865
   44SOL    HW1 1031   6.696   1.139   5.964
   44SOL    HW2 1032   6.621   1.134   5.818
   45SOL     OW 1033   2.941   5.601   0.187
   45SOL    HW1 1034   3.026   5.648   0.165
   45SOL    HW2 1035   2.941   5.510   0.145
   46SOL     OW 1036   0.511   2.809   4.357
   46SOL    HW1 1037   0.474   2.788   4.267
   46SOL    HW2 1038   0.519   2.908   4.368
   47SOL     OW 1039   5.455   3.056   0.694
   47SOL    HW1 1040   5.462   3.029   0.790
   47SOL    HW2 1041   5.540   3.033   0.647
   48SOL     OW 1042   6.952   3.622   0.984
   48SOL    HW1 1043   7.005   3.615   1.068
   48SOL    HW2 1044   6.885   3.549   0.981
   49SOL     OW 1045   3.929   3.910   0.244
   49SOL    HW1 1046   3.928   3.810   0.245
   49SOL    HW2 1047   4.023   3.942   0.231
   50SOL     OW 1048   6.205   3.389   0.070
   50SOL    HW1 1049   6.281   3.324   0.074
   50SOL    HW2 1050   6.241   3.481   0.051
   51SOL     OW 1051   2.750   6.083   3.077
   51SOL    HW1 1052   2.815   6.011   3.050
   51SOL    HW2 1053   2.747   6.153   3.006
   52SOL     OW 1054   5.600   2.779   1.200
   52SOL    HW1 1055   5.620   2.684   1.176
   52SOL    HW2 1056   5.679   2.818   1.248
   53SOL     OW 1057   4.253   0.213   2.296
   53SOL    HW1 1058   4.339   0.194   2.250
   53SOL    HW2 1059   4.236   0.142   2.365
   54SOL     OW 1060   5.429   6.641   6.542
   54SOL    HW1 1061   5.331   6.639   6.562
   54SOL    HW2 1062   5.459   6.735   6.528
   55SOL     OW 1063   0.884   3.464   6.893
   55SOL    HW1 1064   0.911   3.392   6.829
   55SOL    HW2 1065   0.907   3.553   6.855
   56SOL     OW 1066   0.874   2.826   0.004
   56SOL    HW1 1067   0.828   2.907   0.042
   56SOL    HW2 1068   0.970   2.828   0.031
   57SOL     OW 1069   4.647   6.961   6.995
   57SOL    HW1 1070   4.650   6.875   6.944
   57SOL    HW2 1071   4.594   0.007   6.945
   58SOL     OW 1072   1.077   0.256   6.648
   58SOL    HW1 1073   1.119   0.167   6.632
   58SOL    HW2 1074   1.149   0.325   6.656
   59SOL     OW 1075   5.171   3.006   5.663
   59SOL    HW1 1076   5.143   3.003   5.568
   59SOL    HW2 1077   5.107   2.952   5.719
   60SOL     OW 1078   5.341   0.692   3.269
   60SOL    HW1 1079   5.313   0.599   3.295
   60SOL    HW2 1080   5.405   0.727   3.337
   61SOL     OW 1081   6.406   5.927   4.703
   61SOL    HW1 1082   6.413   5.869   4.784
   61SOL    HW2 1083   6.433   6.021   4.726
   62SOL     OW 1084   6.224   2.571   2.006
   62SOL    HW1 1085   6.208   2.482   1.961
   62SOL    HW2 1086   6.204   2.563   2.103
   63SOL     OW 1087   4.497   6.258   5.185
   63SOL    HW1 1088   4.422   6.310   5.225
   63SOL    HW2 1089   4.510   6.285   5.089
   64SOL     OW 1090   0.548   4.434   6.060
   64SOL    HW1 1091   0.600   4.361   6.015
   64SOL    HW2 1092   0.603   4.474   6.133
   65SOL     OW 1093   0.726   6.739   5.496
   65SOL    HW1 1094   0.676   6.791   5.565
   65SOL    HW2 1095   0.807   6.790   5.469
   66SOL     OW 1096   4.430   0.894   2.080
   66SOL    HW1 1097   4.463   0.902   2.174
   66SOL    HW2 1098   4.376   0.975   2.057
   67SOL     OW 1099   0.562   2.866   1.183
   67SOL    HW1 1100   0.494   2.793   1.195
   67SOL    HW2 1101   0.631   2.859   1.255
   68SOL     OW 1102   0.057   1.934   4.952
   68SOL    HW1 1103   0.033   1.995   5.028
   68SOL    HW2 1104   0.094   1.849   4.988
   69SOL     OW 1105   0.925   6.170   6.186
   69SOL    HW1 1106   0.868   6.167   6.268
   69SOL    HW2 1107   0.967   6.261   6.178
   70SOL     OW 1108   4.923   3.303   4.324
   70SOL    HW1 1109   5.020   3.289   4.343
   70SOL    HW2 1110   4.901   3.269   4.233
   71SOL     OW 1111   4.983   1.830   4.759
   71SOL    HW1 1112   5.028   1.825   4.848
   71SOL    HW2 1113   4.900   1.884   4.766
   72SOL     OW 1114   0.269   0.949   3.465
   72SOL    HW1 1115   0.292   1.036   3.420
   72SOL    HW2 1116   0.344   0.885   3.453
   73SOL     OW 1117   2.906   1.053   1.150
   73SOL    HW1 1118   2.933   1.012   1.238
   73SOL    HW2 1119   2.821   1.104   1.162
   74SOL     OW 1120   1.673   2.275   0.611
   74SOL    HW1 1121   1.607   2.337   0.569
   74SOL    HW2 1122   1.747   2.257   0.547
   75SOL     OW 1123   3.449   3.592   0.315
   75SOL    HW1 1124   3.374   3.658   0.317
   75SOL    HW2 1125   3.509   3.607   0.394
   76SOL     OW 1126   3.436   4.910   5.107
   76SOL    HW1 1127   3.503   4.853   5.154
   76SOL    HW2 1128   3.344   4.885   5.137
   77SOL     OW 1129   1.235   4.224   4.361
   77SOL    HW1 1130   1.258   4.306   4.414
   77SOL    HW2 1131   1.276   4.231   4.270
   78SOL     OW 1132   4.744   1.850   0.923
   78SOL    HW1 1133   4.647   1.871   0.926
   78SOL    HW2 1134   4.772   1.807   1.010
   79SOL     OW 1135   1.508   4.730   3.194
   79SOL    HW1 1136   1.432   4.757   3.253
   79SOL    HW2 1137   1.571   4.673   3.245
   80SOL     OW 1138   4.260   0.923   5.076
   80SOL    HW1 1139   4.243   0.903   4.979
   80SOL    HW2 1140   4.314   0.849   5.116
   81SOL     OW 1141   4.113   5.894   1.334
   81SOL    HW1 1142   4.124   5.898   1.433
   81SOL    HW2 1143   4.162   5.815   1.297
   82SOL     OW 1144   2.612   6.361   2.021
   82SOL    HW1 1145   2.572   6.331   2.108
   82SOL    HW2 1146   2.596   6.291   1.952
   83SOL     OW 1147   5.392   0.691   4.775
   83SOL    HW1 1148   5.486   0.706   4.807
   83SOL    HW2 1149   5.378   0.593   4.758
   84SOL     OW 1150   5.297   2.168   1.733
   84SOL    HW1 1151   5.279   2.082   1.780
   84SOL    HW2 1152   5.314   2.149   1.636
   85SOL     OW 1153   1.894   0.280   4.158
   85SOL    HW1 1154   1.948   0.208   4.113
   85SOL    HW2 1155   1.941   0.309   4.242
   86SOL     OW 1156   6.054   0.188   6.687
   86SOL    HW1 1157   6.093   0.224   6.602
   86SOL    HW2 1158   5.954   0.192   6.682
   87SOL     OW 1159   2.574   4.477   6.484
   87SOL    HW1 1160   2.633   4.503   6.560
   87SOL    HW2 1161   2.607   4.392   6.443
   88SOL     OW 1162   3.375   4.223   6.978
   88SOL    HW1 1163   3.292   4.227   6.923
   88SOL    HW2 1164   3.376   4.138   0.010
   89SOL     OW 1165   2.987   3.788   4.113
   89SOL    HW1 1166   3.042   3.845   4.052
   89SOL    HW2 1167   2.994   3.823   4.207
   90SOL     OW 1168   4.903   3.925   2.713
   90SOL    HW1 1169   4.886   3.835   2.672
   90SOL    HW2 1170   4.880   3.997   2.647
   91SOL     OW 1171   4.436   5.192   5.445
   91SOL    HW1 1172   4.518   5.175   5.500
   91SOL    HW2 1173   4.397   5.280   5.470
   92SOL     OW 1174   5.798   3.401   6.470
   92SOL    HW1 1175   5.710   3.375   6.512
   92SOL    HW2 1176   5.813   3.498   6.483
   93SOL     OW 1177   3.000   3.578   2.415
   93SOL    HW1 1178   3.039   3.507   2.474
   93SOL    HW2 1179   3.011   3.550   2.319
   94SOL     OW 1180   2.567   1.742   5.217
   94SOL    HW1 1181   2.615   1.698   5.293
   94SOL    HW2 1182   2.553   1.839   5.237
   95SOL     OW 1183   0.544   0.956   4.001
   95SOL    HW1 1184   0.486   0.880   4.032
   95SOL    HW2 1185   0.623   0.920   3.951
   96SOL     OW 1186   6.068   5.032   0.514
   96SOL    HW1 1187   5.985   5.042   0.569
   96SOL    HW2 1188   6.077   4.938   0.483
   97SOL     OW 1189   2.068   5.217   6.063
   97SOL    HW1 1190   2.089   5.301   6.112
   97SOL    HW2 1191   1.969   5.201   6.067
   98SOL     OW 1192   1.572   2.068   3.305
   98SOL    HW1 1193   1.592   2.165   3.294
   98SOL    HW2 1194   1.508   2.038   3.235
   99SOL     OW 1195   4.042   3.434   5.027
   99SOL    HW1 1196   4.059   3.380   5.110
   99SOL    HW2 1197   3.984   3.381   4.965
  100SOL     OW 1198   6.606   1.060   4.784
  100SOL    HW1 1199   6.562   0.971   4.779
  100SOL    HW2 1200   6.562   1.124   4.721
  101SOL     OW 1201   6.591   3.419   2.553
  101SOL    HW1 1202   6.529   3.392   2.628
  101SOL    HW2 1203   6.680   3.442   2.591
  102SOL     OW 1204   3.950   0.140   0.013
  102SOL    HW1 1205   4.033   0.164   0.062
  102SOL    HW2 1206   3.870   0.167   0.067
  103SOL     OW 1207   3.362   0.818   2.244
  103SOL    HW1 1208   3.267   0.849   2.238
  103SOL    HW2 1209   3.421   0.884   2.197
  104SOL     OW 1210   6.921   4.410   2.006
  104SOL    HW1 1211   6.972   4.326   1.988
  104SOL    HW2 1212   6.910   4.421   2.105
  105SOL     OW 1213   5.807   1.043   5.312
  105SOL    HW1 1214   5.745   1.092   5.373
  105SOL    HW2 1215   5.895   1.029   5.358
  106SOL     OW 1216   5.284   4.581   1.676
  106SOL    HW1 1217   5.265   4.672   1.712
  106SOL    HW2 1218   5.355   4.537   1.731
  107SOL     OW 1219   6.059   6.889   1.218
  107SOL    HW1 1220   6.130   6.946   1.257
  107SOL    HW2 1221   5.973   6.941   1.213
  108SOL     OW 1222   2.019   1.353   4.634
  108SOL    HW1 1223   1.965   1.275   4.603
  108SOL    HW2 1224   2.115   1.339   4.613
  109SOL     OW 1225   1.748   1.131   4.183
  109SOL    HW1 1226   1.745   1.037   4.149
  109SOL    HW2 1227   1.815   1.138   4.257
  110SOL     OW 1228   3.505   4.343   5.530
  110SOL    HW1 1229   3.555   4.287   5.463
  110SOL    HW2 1230   3.411   4.357   5.498
  111SOL     OW 1231   6.514   1.925   1.491
  111SOL    HW1 1232   6.419   1.925   1.459
  111SOL    HW2 1233   6.534   2.011   1.537
  112SOL     OW 1234   4.956   6.179   6.919
  112SOL    HW1 1235   4.954   6.114   6.843
  112SOL    HW2 1236   4.929   6.270   6.886
  113SOL     OW 1237   0.537   6.082   2.344
  113SOL    HW1 1238   0.528   5.982   2.348
  113SOL    HW2 1239   0.633   6.107   2.355
  114SOL     OW 1240   0.353   3.662   3.091
  114SOL    HW1 1241   0.399   3.751   3.099
  114SOL    HW2 1242   0.383   3.601   3.164
  115SOL     OW 1243   5.603   0.008   3.668
  115SOL    HW1 1244   5.523   7.006   3.723
  115SOL    HW2 1245   5.685   6.992   3.712
  116SOL     OW 1246   0.135   4.894   0.262
  116SOL    HW1 1247   0.130   4.993   0.246
  116SOL    HW2 1248   0.202   4.876   0.334
  117SOL     OW 1249   2.187   2.403   0.262
  117SOL    HW1 1250   2.189   2.498   0.230
  117SOL    HW2 1251   2.141   2.347   0.194
  118SOL     OW 1252   1.436   1.890   3.980
  118SOL    HW1 1253   1.347   1.860   3.946
  118SOL    HW2 1254   1.497   1.908   3.903
  119SOL     OW 1255   6.428   6.455   6.216
  119SOL    HW1 1256   6.439   6.517   6.138
  119SOL    HW2 1257   6.482   6.372   6.200
  120SOL     OW 1258   4.836   2.433   4.872
  120SOL    HW1 1259   4.739   2.432   4.844
  120SOL    HW2 1260   4.852   2.508   4.936
  121SOL     OW 1261   1.281   4.924   6.904
  121SOL    HW1 1262   1.288   4.861   6.981
  121SOL    HW2 1263   1.356   4.990   6.908
  122SOL     OW 1264   0.229   4.353   6.450
  122SOL    HW1 1265   0.215   4.402   6.364
  122SOL    HW2 1266   0.315   4.382   6.492
  123SOL     OW 1267   1.427   1.554   1.652
  123SOL    HW1 1268   1.478   1.637   1.677
  123SOL    HW2 1269   1.335   1.558   1.691
  124SOL     OW 1270   2.029   2.484   0.512
  124SOL    HW1 1271   2.070   2.489   0.603
  124SOL    HW2 1272   2.101   2.468   0.445
  125SOL     OW 1273   3.933   3.628   0.227
  125SOL    HW1 1274   3.965   3.584   0.310
  125SOL    HW2 1275   3.967   3.579   0.147
  126SOL     OW 1276   3.942   3.840   4.484
  126SOL    HW1 1277   4.002   3.789   4.547
  126SOL    HW2 1278   3.976   3.829   4.391
  127SOL     OW 1279   0.514   5.513   5.310
  127SOL    HW1 1280   0.558   5.603   5.315
  127SOL    HW2 1281   0.436   5.511   5.373
  128SOL     OW 1282   4.196   3.169   6.771
  128SOL    HW1 1283   4.237   3.204   6.855
  128SOL    HW2 1284   4.111   3.122   6.792
  129SOL     OW 1285   1.273   5.404   1.712
  129SOL    HW1 1286   1.257   5.378   1.617
  129SOL    HW2 1287   1.371   5.394   1.733
  130SOL     OW 1288   6.256   3.059   4.774
  130SOL    HW1 1289   6.159   3.083   4.768
  130SOL    HW2 1290   6.311   3.142   4.773
  131SOL     OW 1291   0.390   2.328   3.875
  131SOL    HW1 1292   0.487   2.329   3.851
  131SOL    HW2 1293   0.343   2.402   3.826
  132SOL     OW 1294   4.064   3.767   2.339
  132SOL    HW1 1295   4.009   3.850   2.340
  132SOL    HW2 1296   4.079   3.735   2.432
  133SOL     OW 1297   5.529   6.253   6.529
  133SOL    HW1 1298   5.581   6.179   6.569
  133SOL    HW2 1299   5.591   6.324   6.496
  134SOL     OW 1300   5.060   1.718   1.748
  134SOL    HW1 1301   5.017   1.657   1.682
  134SOL    HW2 1302   5.121   1.665   1.808
  135SOL     OW 1303   4.748   2.885   3.602
  135SOL    HW1 1304   4.785   2.800   3.565
  135SOL    HW2 1305   4.677   2.920   3.540
  136SOL     OW 1306   3.677   0.131   6.332
  136SOL    HW1 1307   3.681   0.039   6.371
  136SOL    HW2 1308   3.596   0.178   6.367
  137SOL     OW 1309   3.166   2.727   5.940
  137SOL    HW1 1310   3.164   2.818   5.979
  137SOL    HW2 1311   3.140   2.731   5.843
  138SOL     OW 1312   0.409   5.337   6.173
  138SOL    HW1 1313   0.503   5.337   6.209
  138SOL    HW2 1314   0.410   5.368   6.078
  139SOL     OW 1315   2.254   5.926   0.659
  139SOL    HW1 1316   2.344   5.884   0.659
  139SOL    HW2 1317   2.249   5.994   0.585
  140SOL     OW 1318   3.175   0.375   1.344
  140SOL    HW1 1319   3.181   0.333   1.435
  140SOL    HW2 1320   3.092   0.430   1.338
  141SOL     OW 1321   6.583   2.732   0.642
  141SOL    HW1 1322   6.515   2.806   0.642
  141SOL    HW2 1323   6.546   2.653   0.591
  142SOL     OW 1324   1.429   4.282   2.230
  142SOL    HW1 1325   1.514   4.331   2.250
  142SOL    HW2 1326   1.450   4.194   2.188
  143SOL     OW 1327   4.986   6.428   2.070
  143SOL    HW1 1328   5.053   6.451   2.140
  143SOL    HW2 1329   5.026   6.365   2.004
  144SOL     OW 1330   3.369   5.240   4.120
  144SOL    HW1 1331   3.449   5.182   4.106
  144SOL    HW2 1332   3.296   5.211   4.059
  145SOL     OW 1333   6.744   4.973   3.127
  145SOL    HW1 1334   6.798   4.997   3.208
  145SOL    HW2 1335   6.798   4.992   3.045
  146SOL     OW 1336   5.817   1.283   6.436
  146SOL    HW1 1337   5.878   1.345   6.486
  146SOL    HW2 1338   5.866   1.244   6.358
  147SOL     OW 1339   5.223   0.875   4.879
  147SOL    HW1 1340   5.239   0.965   4.839
  147SOL    HW2 1341   5.259   0.804   4.818
  148SOL     OW 1342   0.883   5.444   0.806
  148SOL    HW1 1343   0.938   5.394   0.739
  148SOL    HW2 1344   0.810   5.384   0.840
  149SOL     OW 1345   2.028   2.502   5.409
  149SOL    HW1 1346   2.045   2.436   5.335
  149SOL    HW2 1347   2.111   2.512   5.464
  150SOL     OW 1348   4.086   1.820   4.970
  150SOL    HW1 1349   4.052   1.731   4.940
  150SOL    HW2 1350   4.172   1.809   5.019
  151SOL     OW 1351   3.568   2.634   0.841
  151SOL    HW1 1352   3.605   2.551   0.799
  151SOL    HW2 1353   3.560   2.621   0.940
  152SOL     OW 1354   0.619   2.295   0.661
  152SOL    HW1 1355   0.707   2.259   0.630
  152SOL    HW2 1356   0.588   2.365   0.597
  153SOL     OW 1357   3.146   1.226   3.482
  153SOL    HW1 1358   3.164   1.192   3.574
  153SOL    HW2 1359   3.071   1.292   3.485
  154SOL     OW 1360   6.413   1.646   2.242
  154SOL    HW1 1361   6.408   1.549   2.265
  154SOL    HW2 1362   6.400   1.701   2.325
  155SOL     OW 1363   0.810   6.685   2.095
  155SOL    HW1 1364   0.887   6.641   2.048
  155SOL    HW2 1365   0.766   6.751   2.034
  156SOL     OW 1366   4.936   2.152   0.332
  156SOL    HW1 1367   4.956   2.076   0.270
  156SOL    HW2 1368   4.866   2.211   0.291
  157SOL     OW 1369   3.945   5.163   0.383
  157SOL    HW1 1370   3.934   5.261   0.400
  157SOL    HW2 1371   4.040   5.136   0.399
  158SOL     OW 1372   0.418   2.506   3.573
  158SOL    HW1 1373   0.371   2.558   3.502
  158SOL    HW2 1374   0.403   2.550   3.662
  159SOL     OW 1375   5.996   5.067   0.822
  159SOL    HW1 1376   6.050   5.014   0.888
  159SOL    HW2 1377   6.047   5.148   0.794
  160SOL     OW 1378   6.459   0.123   1.858
  160SOL    HW1 1379   6.372   0.088   1.892
  160SOL    HW2 1380   6.459   0.119   1.758
  161SOL     OW 1381   0.290   6.718   0.588
  161SOL    HW1 1382   0.332   6.629   0.568
  161SOL    HW2 1383   0.195   6.717   0.559
  162SOL     OW 1384   4.565   6.961   0.243
  162SOL    HW1 1385   4.575   6.940   0.146
  162SOL    HW2 1386   4.485   6.913   0.279
  163SOL     OW 1387   0.007   4.015   3.037
  163SOL    HW1 1388   6.929   4.005   3.024
  163SOL    HW2 1389   0.053   3.933   3.003
  164SOL     OW 1390   2.157   2.375   3.835
  164SOL    HW1 1391   2.214   2.425   3.769
  164SOL    HW2 1392   2.087   2.436   3.871
  165SOL     OW 1393   0.347   6.193   3.392
  165SOL    HW1 1394   0.416   6.254   3.354
  165SOL    HW2 1395   0.276   6.176   3.324
  166SOL     OW 1396   6.843   4.294   3.681
  166SOL    HW1 1397   6.779   4.345   3.739
  166SOL    HW2 1398   6.799   4.274   3.593
  167SOL     OW 1399   3.416   1.858   0.039
  167SOL    HW1 1400   3.397   1.955   0.026
  167SOL    HW2 1401   3.386   1.806   6.980
  168SOL     OW 1402   5.115   4.097   1.886
  168SOL    HW1 1403   5.201   4.059   1.852
  168SOL    HW2 1404   5.043   4.028   1.878
  169SOL     OW 1405   5.089   2.614   1.059
  169SOL    HW1 1406   5.163   2.680   1.056
  169SOL    HW2 1407   5.017   2.647   1.120
  170SOL     OW 1408   0.333   6.144   2.775
  170SOL    HW1 1409   0.373   6.225   2.731
  170SOL    HW2 1410   0.314   6.164   2.871
  171SOL     OW 1411   3.384   3.893   0.552
  171SOL    HW1 1412   3.438   3.956   0.496
  171SOL    HW2 1413   3.387   3.921   0.647
  172SOL     OW 1414   6.799   2.439   6.877
  172SOL    HW1 1415   6.837   2.389   6.799
  172SOL    HW2 1416   6.850   2.525   6.889
  173SOL     OW 1417   6.818   1.786   4.199
  173SOL    HW1 1418   6.786   1.733   4.278
  173SOL    HW2 1419   6.740   1.816   4.146
  174SOL     OW 1420   5.395   4.917   5.153
  174SOL    HW1 1421   5.407   4.877   5.244
  174SOL    HW2 1422   5.480   4.909   5.102
  175SOL     OW 1423   0.680   0.289   0.941
  175SOL    HW1 1424   0.733   0.370   0.915
  175SOL    HW2 1425   0.738   0.228   0.996
  176SOL     OW 1426   5.717   4.276   1.894
  176SOL    HW1 1427   5.807   4.256   1.933
  176SOL    HW2 1428   5.719   4.367   1.852
  177SOL     OW 1429   5.985   2.816   4.409
  177SOL    HW1 1430   6.085   2.811   4.413
  177SOL    HW2 1431   5.957   2.852   4.320
  178SOL     OW 1432   1.965   5.982   5.511
  178SOL    HW1 1433   1.985   5.928   5.593
  178SOL    HW2 1434   2.031   5.958   5.440
  179SOL     OW 1435   3.604   4.866   1.300
  179SOL    HW1 1436   3.614   4.767   1.296
  179SOL    HW2 1437   3.517   4.889   1.343
  180SOL     OW 1438   4.070   1.295   0.740
  180SOL    HW1 1439   4.074   1.393   0.718
  180SOL    HW2 1440   4.163   1.261   0.754
  181SOL     OW 1441   3.157   2.592   5.603
  181SOL    HW1 1442   3.139   2.577   5.506
  181SOL    HW2 1443   3.071   2.615   5.649
  182SOL     OW 1444   4.368   2.277   0.210
  182SOL    HW1 1445   4.278   2.307   0.181
  182SOL    HW2 1446   4.368   2.258   0.308
  183SOL     OW 1447   3.515   1.245   3.257
  183SOL    HW1 1448   3.525   1.283   3.165
  183SOL    HW2 1449   3.604   1.217   3.291
  184SOL     OW 1450   5.371   5.999   3.501
  184SOL    HW1 1451   5.444   6.065   3.484
  184SOL    HW2 1452   5.372   5.973   3.598
  185SOL     OW 1453   6.502   1.010   4.068
  185SOL    HW1 1454   6.534   1.028   4.161
  185SOL    HW2 1455   6.533   0.919   4.039
  186SOL     OW 1456   4.568   6.342   3.945
  186SOL    HW1 1457   4.620   6.291   3.876
  186SOL    HW2 1458   4.605   6.434   3.953
  187SOL     OW 1459   4.446   6.420   1.831
  187SOL    HW1 1460   4.510   6.431   1.755
  187SOL    HW2 1461   4.419   6.324   1.837
  188SOL     OW 1462   1.360   3.477   3.570
  188SOL    HW1 1463   1.393   3.443   3.658
  188SOL    HW2 1464   1.400   3.566   3.550
  189SOL     OW 1465   6.124   5.016   6.448
  189SOL    HW1 1466   6.121   4.964   6.363
  189SOL    HW2 1467   6.179   5.098   6.436
  190SOL     OW 1468   6.049   0.370   0.196
  190SOL    HW1 1469   6.101   0.407   0.274
  190SOL    HW2 1470   6.096   0.394   0.111
  191SOL     OW 1471   6.796   1.497   5.278
  191SOL    HW1 1472   6.706   1.466   5.246
  191SOL    HW2 1473   6.864   1.427   5.258
  192SOL     OW 1474   0.629   5.349   0.902
  192SOL    HW1 1475   0.644   5.297   0.817
  192SOL    HW2 1476   0.532   5.349   0.923
  193SOL     OW 1477   2.318   6.198   6.776
  193SOL    HW1 1478   2.335   6.102   6.754
  193SOL    HW2 1479   2.405   6.244   6.795
  194SOL     OW 1480   4.201   6.763   2.227
  194SOL    HW1 1481   4.166   6.729   2.140
  194SOL    HW2 1482   4.295   6.732   2.240
  195SOL     OW 1483   3.584   0.897   0.859
  195SOL    HW1 1484   3.574   0.797   0.857
  195SOL    HW2 1485   3.639   0.923   0.938
  196SOL     OW 1486   2.678   1.650   0.163
  196SOL    HW1 1487   2.721   1.567   0.127
  196SOL    HW2 1488   2.693   1.656   0.262
  197SOL     OW 1489   2.159   6.642   0.716
  197SOL    HW1 1490   2.177   6.621   0.812
  197SOL    HW2 1491   2.207   6.725   0.690
  198SOL     OW 1492   4.928   0.472   6.490
  198SOL    HW1 1493   4.853   0.537   6.499
  198SOL    HW2 1494   4.930   0.436   6.397
  199SOL     OW 1495   0.147   0.133   3.436
  199SOL    HW1 1496   0.238   0.135   3.479
  199SOL    HW2 1497   0.120   0.039   3.421
  200SOL     OW 1498   0.559   4.284   3.318
  200SOL    HW1 1499   0.460   4.277   3.305
  200SOL    HW2 1500   0.594   4.198   3.355
  201SOL     OW 1501   4.090   0.570   6.220
  201SOL    HW1 1502   4.083   0.472   6.238
  201SOL    HW2 1503   3.999   0.607   6.202
  202SOL     OW 1504   3.047   0.258   2.939
  202SOL    HW1 1505   3.135   0.211   2.946
  202SOL    HW2 1506   3.019   0.290   3.029
  203SOL     OW 1507   5.525   3.114   6.368
  203SOL    HW1 1508   5.488   3.154   6.452
  203SOL    HW2 1509   5.609   3.065   6.389
  204SOL     OW 1510   2.315   6.934   1.226
  204SOL    HW1 1511   2.319   6.841   1.264
  204SOL    HW2 1512   2.404   6.956   1.184
  205SOL     OW 1513   6.144   1.460   0.375
  205SOL    HW1 1514   6.185   1.494   0.291
  205SOL    HW2 1515   6.149   1.360   0.376
  206SOL     OW 1516   1.269   4.146   1.812
  206SOL    HW1 1517   1.235   4.160   1.719
  206SOL    HW2 1518   1.209   4.081   1.860
  207SOL     OW 1519   4.927   0.247   5.482
  207SOL    HW1 1520   5.020   0.284   5.481
  207SOL    HW2 1521   4.929   0.151   5.509
  208SOL     OW 1522   3.997   4.928   6.259
  208SOL    HW1 1523   3.981   4.971   6.348
  208SOL    HW2 1524   4.095   4.915   6.245
  209SOL     OW 1525   6.856   5.719   5.545
  209SOL    HW1 1526   6.931   5.653   5.554
  209SOL    HW2 1527   6.777   5.686   5.596
  210SOL     OW 1528   3.922   3.162   1.372
  210SOL    HW1 1529   3.952   3.153   1.277
  210SOL    HW2 1530   3.996   3.134   1.433
  211SOL     OW 1531   1.577   1.683   1.213
  211SOL    HW1 1532   1.652   1.644   1.158
  211SOL    HW2 1533   1.505   1.614   1.224
  212SOL     OW 1534   0.359   5.404   3.555
  212SOL    HW1 1535   0.294   5.384   3.628
  212SOL    HW2 1536   0.325   5.369   3.468
  213SOL     OW 1537   4.758   2.326   0.228
  213SOL    HW1 1538   4.774   2.399   0.162
  213SOL    HW2 1539   4.723   2.245   0.182
  214SOL     OW 1540   1.085   0.561   3.178
  214SOL    HW1 1541   1.129   0.543   3.090
  214SOL    HW2 1542   1.024   0.486   3.201
  215SOL     OW 1543   3.601   3.138   2.529
  215SOL    HW1 1544   3.601   3.041   2.550
  215SOL    HW2 1545   3.683   3.160   2.475
  216SOL     OW 1546   0.719   6.611   6.067
  216SOL    HW1 1547   0.697   6.693   6.121
  216SOL    HW2 1548   0.782   6.636   5.994
  217SOL     OW 1549   1.092   2.915   3.153
  217SOL    HW1 1550   1.132   2.824   3.146
  217SOL    HW2 1551   1.065   2.947   3.062
  218SOL     OW 1552   1.428   4.267   5.243
  218SOL    HW1 1553   1.522   4.234   5.233
  218SOL    HW2 1554   1.426   4.340   5.312
  219SOL     OW 1555   4.801   5.150   0.141
  219SOL    HW1 1556   4.889   5.112   0.116
  219SOL    HW2 1557   4.761   5.096   0.215
  220SOL     OW 1558   3.051   4.810   0.595
  220SOL    HW1 1559   3.101   4.853   0.670
  220SOL    HW2 1560   2.999   4.880   0.545
  221SOL     OW 1561   5.747   2.475   4.676
  221SOL    HW1 1562   5.739   2.382   4.639
  221SOL    HW2 1563   5.697   2.481   4.762
  222SOL     OW 1564   1.226   6.468   5.332
  222SOL    HW1 1565   1.138   6.510   5.352
  222SOL    HW2 1566   1.215   6.370   5.318
  223SOL     OW 1567   6.650   3.605   1.837
  223SOL    HW1 1568   6.708   3.655   1.901
  223SOL    HW2 1569   6.687   3.513   1.824
  224SOL     OW 1570   2.966   2.229   1.699
  224SOL    HW1 1571   2.939   2.159   1.765
  224SOL    HW2 1572   2.961   2.319   1.742
  225SOL     OW 1573   6.202   0.252   6.480
  225SOL    HW1 1574   6.188   0.278   6.384
  225SOL    HW2 1575   6.244   0.328   6.530
  226SOL     OW 1576   6.429   6.046   0.999
  226SOL    HW1 1577   6.401   6.136   0.966
  226SOL    HW2 1578   6.465   5.992   0.923
  227SOL     OW 1579   1.441   3.399   3.807
  227SOL    HW1 1580   1.386   3.335   3.861
  227SOL    HW2 1581   1.533   3.403   3.845
  228SOL     OW 1582   4.232   0.069   3.892
  228SOL    HW1 1583   4.154   0.011   3.871
  228SOL    HW2 1584   4.207   0.165   3.877
  229SOL     OW 1585   5.867   5.341   2.638
  229SOL    HW1 1586   5.831   5.397   2.712
  229SOL    HW2 1587   5.804   5.267   2.617
  230SOL     OW 1588   2.145   4.397   5.106
  230SOL    HW1 1589   2.157   4.309   5.061
  230SOL    HW2 1590   2.064   4.394   5.164
  231SOL     OW 1591   0.416   2.124   6.575
  231SOL    HW1 1592   0.383   2.203   6.629
  231SOL    HW2 1593   0.441   2.155   6.484
  232SOL     OW 1594   1.896   4.834   6.687
  232SOL    HW1 1595   1.823   4.808   6.751
  232SOL    HW2 1596   1.902   4.765   6.615
  233SOL     OW 1597   2.049   0.789   6.009
  233SOL    HW1 1598   2.041   0.818   6.105
  233SOL    HW2 1599   2.037   0.868   5.949
  234SOL     OW 1600   2.640   6.025   0.466
  234SOL    HW1 1601   2.644   6.120   0.495
  234SOL    HW2 1602   2.718   6.005   0.407
  235SOL     OW 1603   3.238   3.457   4.921
  235SOL    HW1 1604   3.220   3.553   4.944
  235SOL    HW2 1605   3.153   3.405   4.927
  236SOL     OW 1606   0.035   2.045   5.194
  236SOL    HW1 1607   6.967   2.024   5.233
  236SOL    HW2 1608   0.106   1.997   5.246
  237SOL     OW 1609   0.251   0.275   1.264
  237SOL    HW1 1610   0.209   0.187   1.244
  237SOL    HW2 1611   0.349   0.271   1.245
  238SOL     OW 1612   5.901   2.471   2.655
  238SOL    HW1 1613   5.949   2.393   2.694
  238SOL    HW2 1614   5.860   2.525   2.728
  239SOL     OW 1615   0.040   5.934   0.249
  239SOL    HW1 1616   0.081   5.983   0.326
  239SOL    HW2 1617   6.961   5.937   0.257
  240SOL     OW 1618   6.926   3.567   5.800
  240SOL    HW1 1619   6.829   3.554   5.780
  240SOL    HW2 1620   6.949   3.664   5.793
  241SOL     OW 1621   0.574   0.955   3.146
  241SOL    HW1 1622   0.640   0.920   3.079
  241SOL    HW2 1623   0.549   1.049   3.122
  242SOL     OW 1624   1.822   3.873   3.943
  242SOL    HW1 1625   1.724   3.868   3.963
  242SOL    HW2 1626   1.871   3.904   4.025
  243SOL     OW 1627   4.677   0.108   5.169
  243SOL    HW1 1628   4.726   0.081   5.087
  243SOL    HW2 1629   4.732   0.086   5.250
  244SOL     OW 1630   6.367   2.244   5.821
  244SOL    HW1 1631   6.415   2.216   5.738
  244SOL    HW2 1632   6.274   2.272   5.796
  245SOL     OW 1633   6.018   1.373   3.998
  245SOL    HW1 1634   5.988   1.301   4.061
  245SOL    HW2 1635   6.114   1.393   4.015
  246SOL     OW 1636   5.395   3.390   3.464
  246SOL    HW1 1637   5.441   3.323   3.522
  246SOL    HW2 1638   5.441   3.478   3.471
  247SOL     OW 1639   2.358   1.595   3.413
  247SOL    HW1 1640   2.386   1.689   3.393
  247SOL    HW2 1641   2.420   1.555   3.482
  248SOL     OW 1642   5.981   1.345   3.006
  248SOL    HW1 1643   5.998   1.257   3.050
  248SOL    HW2 1644   5.895   1.342   2.956
  249SOL     OW 1645   3.696   0.093   4.005
  249SOL    HW1 1646   3.717   0.068   3.911
  249SOL    HW2 1647   3.697   0.011   4.062
  250SOL     OW 1648   5.017   2.773   5.799
  250SOL    HW1 1649   5.069   2.688   5.794
  250SOL    HW2 1650   4.971   2.790   5.712
  251SOL     OW 1651   3.159   2.394   1.018
  251SOL    HW1 1652   3.178   2.331   0.943
  251SOL    HW2 1653   3.113   2.476   0.983
  252SOL     OW 1654   0.324   1.339   5.911
  252SOL    HW1 1655   0.353   1.352   5.816
  252SOL    HW2 1656   0.402   1.309   5.966
  253SOL     OW 1657   2.937   3.758   6.353
  253SOL    HW1 1658   2.907   3.676   6.304
  253SOL    HW2 1659   3.024   3.790   6.314
  254SOL     OW 1660   5.560   3.271   5.163
  254SOL    HW1 1661   5.617   3.232   5.235
  254SOL    HW2 1662   5.474   3.302   5.202
  255SOL     OW 1663   3.214   2.150   4.152
  255SOL    HW1 1664   3.179   2.096   4.229
  255SOL    HW2 1665   3.285   2.097   4.104
  256SOL     OW 1666   6.178   5.236   6.729
  256SOL    HW1 1667   6.235   5.159   6.699
  256SOL    HW2 1668   6.082   5.209   6.727
  257SOL     OW 1669   3.366   6.094   6.020
  257SOL    HW1 1670   3.452   6.088   6.070
  257SOL    HW2 1671   3.293   6.052   6.074
  258SOL     OW 1672   4.992   4.250   3.955
  258SOL    HW1 1673   5.046   4.266   4.038
  258SOL    HW2 1674   4.924   4.179   3.973
  259SOL     OW 1675   1.226   2.455   2.498
  259SOL    HW1 1676   1.245   2.467   2.595
  259SOL    HW2 1677   1.294   2.505   2.444
  260SOL     OW 1678   5.861   0.372   6.065
  260SOL    HW1 1679   5.877   0.466   6.034
  260SOL    HW2 1680   5.855   0.311   5.986
  261SOL     OW 1681   0.617   2.954   2.504
  261SOL    HW1 1682   0.555   3.014   2.454
  261SOL    HW2 1683   0.703   3.002   2.523
  262SOL     OW 1684   0.410   4.859   1.988
  262SOL    HW1 1685   0.417   4.958   1.978
  262SOL    HW2 1686   0.395   4.837   2.085
  263SOL     OW 1687   1.585   2.078   4.118
  263SOL    HW1 1688   1.549   2.171   4.110
  263SOL    HW2 1689   1.522   2.014   4.074
  264SOL     OW 1690   2.799   4.892   6.327
  264SOL    HW1 1691   2.785   4.795   6.311
  264SOL    HW2 1692   2.866   4.904   6.400
  265SOL     OW 1693   5.400   4.489   4.885
  265SOL    HW1 1694   5.465   4.451   4.951
  265SOL    HW2 1695   5.406   4.439   4.799
  266SOL     OW 1696   3.913   2.068   0.731
  266SOL    HW1 1697   3.856   2.109   0.803
  266SOL    HW2 1698   3.854   2.031   0.660
  267SOL     OW 1699   1.268   2.417   5.720
  267SOL    HW1 1700   1.189   2.400   5.662
  267SOL    HW2 1701   1.237   2.437   5.814
  268SOL     OW 1702   3.614   4.980   4.412
  268SOL    HW1 1703   3.591   5.035   4.492
  268SOL    HW2 1704   3.560   4.896   4.413
  269SOL     OW 1705   1.133   1.460   5.245
  269SOL    HW1 1706   1.119   1.529   5.315
  269SOL    HW2 1707   1.069   1.385   5.258
  270SOL     OW 1708   4.958   1.151   3.902
  270SOL    HW1 1709   4.914   1.148   3.812
  270SOL    HW2 1710   5.046   1.196   3.894
  271SOL     OW 1711   2.007   0.651   0.053
  271SOL    HW1 1712   2.089   0.666   7.018
  271SOL    HW2 1713   2.030   0.663   0.149
  272SOL     OW 1714   3.840   5.290   3.118
  272SOL    HW1 1715   3.821   5.312   3.213
  272SOL    HW2 1716   3.880   5.370   3.073
  273SOL     OW 1717   2.753   6.774   5.410
  273SOL    HW1 1718   2.738   6.709   5.336
  273SOL    HW2 1719   2.852   6.787   5.423
  274SOL     OW 1720   5.711   2.438   1.159
  274SOL    HW1 1721   5.726   2.481   1.248
  274SOL    HW2 1722   5.613   2.437   1.139
  275SOL     OW 1723   6.151   6.052   5.415
  275SOL    HW1 1724   6.112   6.107   5.489
  275SOL    HW2 1725   6.077   6.021   5.355
  276SOL     OW 1726   6.678   6.130   3.847
  276SOL    HW1 1727   6.767   6.143   3.804
  276SOL    HW2 1728   6.609   6.181   3.796
  277SOL     OW 1729   5.150   1.053   5.215
  277SOL    HW1 1730   5.197   1.140   5.232
  277SOL    HW2 1731   5.126   1.047   5.118
  278SOL     OW 1732   6.235   2.627   2.854
  278SOL    HW1 1733   6.137   2.643   2.871
  278SOL    HW2 1734   6.276   2.585   2.935
  279SOL     OW 1735   0.061   3.083   3.981
  279SOL    HW1 1736   0.117   3.010   4.019
  279SOL    HW2 1737   7.005   3.101   4.042
  280SOL     OW 1738   3.354   1.011   3.770
  280SOL    HW1 1739   3.390   0.923   3.738
  280SOL    HW2 1740   3.422   1.082   3.755
  281SOL     OW 1741   5.247   5.831   3.778
  281SOL    HW1 1742   5.205   5.740   3.770
  281SOL    HW2 1743   5.346   5.821   3.779
  282SOL     OW 1744   3.086   1.543   0.314
  282SOL    HW1 1745   3.062   1.535   0.217
  282SOL    HW2 1746   3.142   1.625   0.328
  283SOL     OW 1747   6.533   1.910   4.883
  283SOL    HW1 1748   6.603   1.982   4.877
  283SOL    HW2 1749   6.484   1.904   4.796
  284SOL     OW 1750   5.446   5.657   3.509
  284SOL    HW1 1751   5.479   5.671   3.416
  284SOL    HW2 1752   5.438   5.745   3.555
  285SOL     OW 1753   4.570   0.067   5.910
  285SOL    HW1 1754   4.551   0.030   5.819
  285SOL    HW2 1755   4.668   0.064   5.928
  286SOL     OW 1756   2.364   5.219   5.146
  286SOL    HW1 1757   2.423   5.299   5.158
  286SOL    HW2 1758   2.404   5.159   5.077
  287SOL     OW 1759   3.282   0.385   6.174
  287SOL    HW1 1760   3.342   0.399   6.095
  287SOL    HW2 1761   3.303   0.453   6.244
  288SOL     OW 1762   3.975   0.753   0.980
  288SOL    HW1 1763   3.955   0.729   0.886
  288SOL    HW2 1764   4.066   0.794   0.986
  289SOL     OW 1765   6.182   5.809   3.529
  289SOL    HW1 1766   6.281   5.800   3.513
  289SOL    HW2 1767   6.146   5.883   3.472
  290SOL     OW 1768   3.735   0.725   5.764
  290SOL    HW1 1769   3.803   0.799   5.770
  290SOL    HW2 1770   3.729   0.678   5.852
  291SOL     OW 1771   3.384   6.703   5.124
  291SOL    HW1 1772   3.393   6.753   5.038
  291SOL    HW2 1773   3.399   6.765   5.201
  292SOL     OW 1774   4.857   6.889   3.598
  292SOL    HW1 1775   4.802   6.971   3.581
  292SOL    HW2 1776   4.797   6.810   3.607
  293SOL     OW 1777   5.979   6.840   2.268
  293SOL    HW1 1778   6.006   6.760   2.321
  293SOL    HW2 1779   6.040   6.917   2.290
  294SOL     OW 1780   6.303   0.813   6.099
  294SOL    HW1 1781   6.316   0.721   6.061
  294SOL    HW2 1782   6.326   0.881   6.030
  295SOL     OW 1783   1.462   1.497   5.038
  295SOL    HW1 1784   1.544   1.551   5.058
  295SOL    HW2 1785   1.488   1.406   5.008
  296SOL     OW 1786   6.920   2.510   1.247
  296SOL    HW1 1787   6.876   2.455   1.317
  296SOL    HW2 1788   6.995   2.457   1.206
  297SOL     OW 1789   5.158   3.239   4.069
  297SOL    HW1 1790   5.175   3.168   4.001
  297SOL    HW2 1791   5.244   3.278   4.099
  298SOL     OW 1792   4.228   0.457   6.488
  298SOL    HW1 1793   4.310   0.400   6.481
  298SOL    HW2 1794   4.244   0.543   6.439
  299SOL     OW 1795   1.539   0.763   6.851
  299SOL    HW1 1796   1.601   0.782   6.928
  299SOL    HW2 1797   1.453   0.810   6.867
  300SOL     OW 1798   3.991   6.704   3.548
  300SOL    HW1 1799   4.001   6.762   3.629
  300SOL    HW2 1800   4.011   6.609   3.573
  301SOL     OW 1801   6.704   5.450   1.131
  301SOL    HW1 1802   6.789   5.478   1.175
  301SOL    HW2 1803   6.721   5.369   1.074
  302SOL     OW 1804   0.004   5.756   1.915
  302SOL    HW1 1805   0.027   5.719   2.005
  302SOL    HW2 1806   0.087   5.790   1.871
  303SOL     OW 1807   5.493   5.337   2.512
  303SOL    HW1 1808   5.578   5.362   2.466
  303SOL    HW2 1809   5.446   5.420   2.542
  304SOL     OW 1810   2.452   5.569   4.556
  304SOL    HW1 1811   2.494   5.568   4.465
  304SOL    HW2 1812   2.404   5.655   4.570
  305SOL     OW 1813   1.103   3.455   1.745
  305SOL    HW1 1814   1.126   3.551   1.731
  305SOL    HW2 1815   1.161   3.417   1.818
  306SOL     OW 1816   6.951   6.534   2.584
  306SOL    HW1 1817   6.998   6.620   2.563
  306SOL    HW2 1818   6.897   6.546   2.668
  307SOL     OW 1819   3.205   2.977   3.390
  307SOL    HW1 1820   3.216   2.906   3.460
  307SOL    HW2 1821   3.141   3.046   3.423
  308SOL     OW 1822   5.437   2.178   3.926
  308SOL    HW1 1823   5.442   2.118   3.846
  308SOL    HW2 1824   5.352   2.231   3.922
  309SOL     OW 1825   1.231   6.396   6.353
  309SOL    HW1 1826   1.287   6.462   6.402
  309SOL    HW2 1827   1.156   6.365   6.412
  310SOL     OW 1828   5.285   6.678   4.759
  310SOL    HW1 1829   5.243   6.597   4.801
  310SOL    HW2 1830   5.370   6.700   4.806
  311SOL     OW 1831   1.825   5.679   2.901
  311SOL    HW1 1832   1.748   5.668   2.840
  311SOL    HW2 1833   1.896   5.611   2.879
  312SOL     OW 1834   4.743   1.894   2.826
  312SOL    HW1 1835   4.652   1.918   2.793
  312SOL    HW2 1836   4.738   1.873   2.924
  313SOL     OW 1837   4.061   3.768   2.871
  313SOL    HW1 1838   4.137   3.704   2.882
  313SOL    HW2 1839   4.066   3.812   2.781
  314SOL     OW 1840   2.631   5.922   5.985
  314SOL    HW1 1841   2.532   5.934   5.976
  314SOL    HW2 1842   2.670   6.000   6.034
  315SOL     OW 1843   6.284   1.579   2.991
  315SOL    HW1 1844   6.383   1.566   2.991
  315SOL    HW2 1845   6.241   1.515   2.927
  316SOL     OW 1846   3.620   1.411   5.372
  316SOL    HW1 1847   3.603   1.509   5.367
  316SOL    HW2 1848   3.566   1.364   5.302
  317SOL     OW 1849   1.371   1.527   1.930
  317SOL    HW1 1850   1.415   1.613   1.902
  317SOL    HW2 1851   1.277   1.525   1.896
  318SOL     OW 1852   0.586   0.646   5.409
  318SOL    HW1 1853   0.677   0.616   5.377
  318SOL    HW2 1854   0.522   0.570   5.401
  319SOL     OW 1855   1.647   1.444   2.488
  319SOL    HW1 1856   1.683   1.369   2.544
  319SOL    HW2 1857   1.638   1.414   2.393
  320SOL     OW 1858   6.118   1.703   6.122
  320SOL    HW1 1859   6.130   1.780   6.184
  320SOL    HW2 1860   6.207   1.673   6.088
  321SOL     OW 1861   4.209   3.332   0.582
  321SOL    HW1 1862   4.236   3.412   0.635
  321SOL    HW2 1863   4.274   3.258   0.600
  322SOL     OW 1864   3.302   3.147   5.892
  322SOL    HW1 1865   3.238   3.095   5.948
  322SOL    HW2 1866   3.294   3.118   5.796
  323SOL     OW 1867   0.454   3.731   2.780
  323SOL    HW1 1868   0.545   3.690   2.782
  323SOL    HW2 1869   0.408   3.712   2.867
  324SOL     OW 1870   6.784   6.781   4.047
  324SOL    HW1 1871   6.812   6.685   4.054
  324SOL    HW2 1872   6.856   6.834   4.004
  325SOL     OW 1873   0.410   4.024   2.611
  325SOL    HW1 1874   0.503   4.054   2.592
  325SOL    HW2 1875   0.407   3.978   2.699
  326SOL     OW 1876   1.014   6.418   6.099
  326SOL    HW1 1877   1.018   6.513   6.131
  326SOL    HW2 1878   1.069   6.409   6.016
  327SOL     OW 1879   4.447   5.170   3.814
  327SOL    HW1 1880   4.405   5.100   3.872
  327SOL    HW2 1881   4.527   5.131   3.768
  328SOL     OW 1882   2.226   4.044   2.764
  328SOL    HW1 1883   2.239   3.945   2.765
  328SOL    HW2 1884   2.277   4.083   2.687
  329SOL     OW 1885   3.386   4.083   2.089
  329SOL    HW1 1886   3.458   4.131   2.138
  329SOL    HW2 1887   3.394   4.100   1.991
  330SOL     OW 1888   3.505   5.697   0.596
  330SOL    HW1 1889   3.504   5.770   0.664
  330SOL    HW2 1890   3.423   5.641   0.607
  331SOL     OW 1891   5.278   5.078   0.057
  331SOL    HW1 1892   5.301   5.064   6.982
  331SOL    HW2 1893   5.185   5.045   0.075
  332SOL     OW 1894   5.406   2.257   3.034
  332SOL    HW1 1895   5.442   2.301   3.116
  332SOL    HW2 1896   5.471   2.189   3.001
  333SOL     OW 1897   3.364   1.214   5.873
  333SOL    HW1 1898   3.420   1.288   5.834
  333SOL    HW2 1899   3.424   1.143   5.909
  334SOL     OW 1900   4.078   3.569   3.088
  334SOL    HW1 1901   3.993   3.521   3.107
  334SOL    HW2 1902   4.058   3.665   3.067
  335SOL     OW 1903   3.694   0.367   6.189
  335SOL    HW1 1904   3.694   0.293   6.257
  335SOL    HW2 1905   3.660   0.451   6.231
  336SOL     OW 1906   2.487   2.015   3.783
  336SOL    HW1 1907   2.391   2.019   3.754
  336SOL    HW2 1908   2.508   2.094   3.840
  337SOL     OW 1909   2.231   0.075   5.853
  337SOL    HW1 1910   2.196   0.150   5.797
  337SOL    HW2 1911   2.231   0.103   5.949
  338SOL     OW 1912   4.323   1.817   1.207
  338SOL    HW1 1913   4.397   1.878   1.236
  338SOL    HW2 1914   4.278   1.778   1.287
  339SOL     OW 1915   3.910   5.264   5.258
  339SOL    HW1 1916   3.875   5.349   5.297
  339SOL    HW2 1917   3.854   5.237   5.179
  340SOL     OW 1918   4.731   2.282   3.420
  340SOL    HW1 1919   4.704   2.219   3.492
  340SOL    HW2 1920   4.694   2.373   3.439
  341SOL     OW 1921   5.526   6.812   3.216
  341SOL    HW1 1922   5.538   6.758   3.299
  341SOL    HW2 1923   5.457   6.882   3.231
  342SOL     OW 1924   4.405   2.323   2.423
  342SOL    HW1 1925   4.419   2.363   2.332
  342SOL    HW2 1926   4.423   2.393   2.493
  343SOL     OW 1927   0.278   6.064   3.037
  343SOL    HW1 1928   0.201   6.127   3.038
  343SOL    HW2 1929   0.250   5.976   3.074
  344SOL     OW 1930   2.215   1.677   1.445
  344SOL    HW1 1931   2.235   1.755   1.505
  344SOL    HW2 1932   2.170   1.710   1.362
  345SOL     OW 1933   6.190   3.889   4.159
  345SOL    HW1 1934   6.164   3.943   4.238
  345SOL    HW2 1935   6.290   3.879   4.156
  346SOL     OW 1936   1.854   6.924   3.451
  346SOL    HW1 1937   1.912   6.867   3.393
  346SOL    HW2 1938   1.821   7.003   3.398
  347SOL     OW 1939   2.906   5.086   0.513
  347SOL    HW1 1940   2.900   5.052   0.607
  347SOL    HW2 1941   2.815   5.105   0.478
  348SOL     OW 1942   4.453   5.422   1.960
  348SOL    HW1 1943   4.397   5.376   2.028
  348SOL    HW2 1944   4.491   5.506   1.999
  349SOL     OW 1945   5.989   4.373   1.258
  349SOL    HW1 1946   6.003   4.362   1.357
  349SOL    HW2 1947   6.071   4.342   1.209
  350SOL     OW 1948   3.338   3.062   0.591
  350SOL    HW1 1949   3.422   3.021   0.626
  350SOL    HW2 1950   3.285   3.098   0.667
  351SOL     OW 1951   2.982   4.304   0.934
  351SOL    HW1 1952   2.912   4.366   0.897
  351SOL    HW2 1953   3.054   4.358   0.977
  352SOL     OW 1954   3.832   7.011   3.302
  352SOL    HW1 1955   3.862   6.926   3.258
  352SOL    HW2 1956   3.811   6.994   3.398
  353SOL     OW 1957   1.759   6.153   0.005
  353SOL    HW1 1958   1.824   6.209   6.974
  353SOL    HW2 1959   1.678   6.207   0.025
  354SOL     OW 1960   6.633   2.700   0.298
  354SOL    HW1 1961   6.687   2.763   0.354
  354SOL    HW2 1962   6.593   2.629   0.357
  355SOL     OW 1963   2.278   1.827   2.323
  355SOL    HW1 1964   2.204   1.822   2.390
  355SOL    HW2 1965   2.347   1.757   2.345
  356SOL     OW 1966   0.861   6.659   5.827
  356SOL    HW1 1967   0.925   6.582   5.825
  356SOL    HW2 1968   0.911   6.745   5.816
  357SOL     OW 1969   5.860   6.355   4.641
  357SOL    HW1 1970   5.783   6.395   4.590
  357SOL    HW2 1971   5.908   6.290   4.582
  358SOL     OW 1972   4.446   5.534   0.218
  358SOL    HW1 1973   4.534   5.580   0.230
  358SOL    HW2 1974   4.418   5.540   0.123
  359SOL     OW 1975   2.701   2.219   2.438
  359SOL    HW1 1976   2.623   2.159   2.457
  359SOL    HW2 1977   2.715   2.225   2.340
  360SOL     OW 1978   1.278   4.786   4.348
  360SOL    HW1 1979   1.303   4.861   4.410
  360SOL    HW2 1980   1.190   4.807   4.305
  361SOL     OW 1981   6.371   6.790   3.328
  361SOL    HW1 1982   6.317   6.708   3.308
  361SOL    HW2 1983   6.422   6.775   3.413
  362SOL     OW 1984   3.945   4.665   1.137
  362SOL    HW1 1985   3.940   4.568   1.114
  362SOL    HW2 1986   3.853   4.705   1.133
  363SOL     OW 1987   5.135   5.367   2.228
  363SOL    HW1 1988   5.068   5.302   2.191
  363SOL    HW2 1989   5.109   5.460   2.203
  364SOL     OW 1990   0.350   5.814   6.519
  364SOL    HW1 1991   0.299   5.899   6.507
  364SOL    HW2 1992   0.327   5.751   6.444
  365SOL     OW 1993   4.972   2.019   2.731
  365SOL    HW1 1994   4.886   2.011   2.781
  365SOL    HW2 1995   5.030   2.087   2.777
  366SOL     OW 1996   5.983   2.428   0.408
  366SOL    HW1 1997   6.009   2.333   0.392
  366SOL    HW2 1998   5.919   2.458   0.337
  367SOL     OW 1999   4.612   2.190   5.183
  367SOL    HW1 2000   4.612   2.102   5.136
  367SOL    HW2 2001   4.521   2.209   5.219
  368SOL     OW 2002   6.543   2.207   6.036
  368SOL    HW1 2003   6.471   2.227   5.969
  368SOL    HW2 2004   6.612   2.279   6.032
  369SOL     OW 2005   5.770   3.086   2.342
  369SOL    HW1 2006   5.691   3.144   2.361
  369SOL    HW2 2007   5.788   3.086   2.243
  370SOL     OW 2008   2.140   3.378   4.262
  370SOL    HW1 2009   2.161   3.349   4.355
  370SOL    HW2 2010   2.149   3.477   4.255
  371SOL     OW 2011   1.188   4.446   6.442
  371SOL    HW1 2012   1.234   4.479   6.360
  371SOL    HW2 2013   1.254   4.397   6.500
  372SOL     OW 2014   3.212   6.630   6.558
  372SOL    HW1 2015   3.154   6.555   6.590
  372SOL    HW2 2016   3.227   6.620   6.459
  373SOL     OW 2017   5.605   5.994   4.050
  373SOL    HW1 2018   5.673   5.944   3.998
  373SOL    HW2 2019   5.544   6.043   3.987
  374SOL     OW 2020   2.673   1.692   2.804
  374SOL    HW1 2021   2.702   1.671   2.898
  374SOL    HW2 2022   2.751   1.726   2.752
  375SOL     OW 2023   1.321   4.702   4.944
  375SOL    HW1 2024   1.334   4.745   5.033
  375SOL    HW2 2025   1.259   4.623   4.954
  376SOL     OW 2026   2.266   0.763   4.578
  376SOL    HW1 2027   2.308   0.675   4.599
  376SOL    HW2 2028   2.219   0.798   4.659
  377SOL     OW 2029   1.323   2.411   6.171
  377SOL    HW1 2030   1.303   2.315   6.191
  377SOL    HW2 2031   1.386   2.417   6.094
  378SOL     OW 2032   3.576   1.647   1.627
  378SOL    HW1 2033   3.552   1.700   1.708
  378SOL    HW2 2034   3.639   1.700   1.570
  379SOL     OW 2035   5.975   1.741   5.803
  379SOL    HW1 2036   5.953   1.655   5.848
  379SOL    HW2 2037   5.932   1.817   5.852
  380SOL     OW 2038   3.974   1.826   0.951
  380SOL    HW1 2039   3.930   1.749   0.997
  380SOL    HW2 2040   3.939   1.912   0.990
  381SOL     OW 2041   1.301   4.416   3.424
  381SOL    HW1 2042   1.303   4.417   3.524
  381SOL    HW2 2043   1.263   4.503   3.390
  382SOL     OW 2044   5.679   0.682   0.337
  382SOL    HW1 2045   5.585   0.658   0.314
  382SOL    HW2 2046   5.733   0.692   0.253
  383SOL     OW 2047   4.175   3.201   0.873
  383SOL    HW1 2048   4.134   3.109   0.873
  383SOL    HW2 2049   4.118   3.262   0.818
  384SOL     OW 2050   6.086   4.013   4.805
  384SOL    HW1 2051   6.064   4.033   4.900
  384SOL    HW2 2052   6.002   3.999   4.752
  385SOL     OW 2053   4.733   4.983   0.342
  385SOL    HW1 2054   4.726   5.002   0.440
  385SOL    HW2 2055   4.760   4.888   0.328
  386SOL     OW 2056   3.034   6.955   3.996
  386SOL    HW1 2057   3.033   7.021   4.072
  386SOL    HW2 2058   2.943   6.950   3.955
  387SOL     OW 2059   2.096   5.899   4.072
  387SOL    HW1 2060   2.111   5.879   3.975
  387SOL    HW2 2061   2.062   5.816   4.118
  388SOL     OW 2062   2.415   3.006   6.393
  388SOL    HW1 2063   2.391   3.082   6.453
  388SOL    HW2 2064   2.401   3.033   6.298
  389SOL     OW 2065   2.931   3.757   3.667
  389SOL    HW1 2066   2.992   3.829   3.633
  389SOL    HW2 2067   2.891   3.708   3.590
  390SOL     OW 2068   1.746   1.744   4.308
  390SOL    HW1 2069   1.797   1.796   4.377
  390SOL    HW2 2070   1.733   1.651   4.341
  391SOL     OW 2071   0.849   2.790   0.349
  391SOL    HW1 2072   0.917   2.857   0.322
  391SOL    HW2 2073   0.758   2.829   0.341
  392SOL     OW 2074   2.581   5.086   2.533
  392SOL    HW1 2075   2.667   5.089   2.481
  392SOL    HW2 2076   2.599   5.056   2.627
  393SOL     OW 2077   6.073   4.261   5.535
  393SOL    HW1 2078   6.141   4.188   5.541
  393SOL    HW2 2079   5.995   4.229   5.482
  394SOL     OW 2080   0.732   6.442   0.879
  394SOL    HW1 2081   0.748   6.413   0.974
  394SOL    HW2 2082   0.637   6.424   0.854
  395SOL     OW 2083   5.329   3.984   1.745
  395SOL    HW1 2084   5.418   3.987   1.790
  395SOL    HW2 2085   5.289   3.893   1.756
  396SOL     OW 2086   3.095   3.895   3.902
  396SOL    HW1 2087   3.167   3.963   3.888
  396SOL    HW2 2088   3.042   3.885   3.818
  397SOL     OW 2089   4.146   2.249   5.482
  397SOL    HW1 2090   4.210   2.234   5.407
  397SOL    HW2 2091   4.082   2.322   5.458
  398SOL     OW 2092   1.227   5.060   2.244
  398SOL    HW1 2093   1.235   4.981   2.182
  398SOL    HW2 2094   1.309   5.065   2.302
  399SOL     OW 2095   5.109   5.593   1.288
  399SOL    HW1 2096   5.067   5.681   1.309
  399SOL    HW2 2097   5.097   5.531   1.366
  400SOL     OW 2098   0.196   6.165   5.267
  400SOL    HW1 2099   0.236   6.248   5.305
  400SOL    HW2 2100   0.213   6.162   5.168
  401SOL     OW 2101   4.941   1.550   6.590
  401SOL    HW1 2102   5.001   1.490   6.537
  401SOL    HW2 2103   4.964   1.645   6.571
  402SOL     OW 2104   6.270   5.836   2.286
  402SOL    HW1 2105   6.323   5.910   2.328
  402SOL    HW2 2106   6.219   5.787   2.357
  403SOL     OW 2107   4.977   2.210   5.929
  403SOL    HW1 2108   5.036   2.156   5.869
  403SOL    HW2 2109   4.930   2.280   5.875
  404SOL     OW 2110   0.773   0.049   4.612
  404SOL    HW1 2111   0.710   0.081   4.541
  404SOL    HW2 2112   0.726   7.003   4.670
  405SOL     OW 2113   1.630   1.904   0.744
  405SOL    HW1 2114   1.717   1.860   0.764
  405SOL    HW2 2115   1.573   1.842   0.690
  406SOL     OW 2116   1.684   2.568   4.511
  406SOL    HW1 2117   1.678   2.598   4.606
  406SOL    HW2 2118   1.632   2.630   4.453
  407SOL     OW 2119   3.066   0.235   5.376
  407SOL    HW1 2120   2.981   0.231   5.428
  407SOL    HW2 2121   3.143   0.238   5.439
  408SOL     OW 2122   1.851   6.912   3.945
  408SOL    HW1 2123   1.834   6.852   3.868
  408SOL    HW2 2124   1.775   6.907   4.010
  409SOL     OW 2125   5.989   2.784   3.207
  409SOL    HW1 2126   6.030   2.710   3.154
  409SOL    HW2 2127   5.896   2.758   3.235
  410SOL     OW 2128   2.572   0.388   0.013
  410SOL    HW1 2129   2.660   0.398   6.989
  410SOL    HW2 2130   2.499   0.386   6.965
  411SOL     OW 2131   5.874   4.243   5.973
  411SOL    HW1 2132   5.921   4.179   5.912
  411SOL    HW2 2133   5.808   4.193   6.030
  412SOL     OW 2134   3.146   6.850   2.602
  412SOL    HW1 2135   3.132   6.758   2.567
  412SOL    HW2 2136   3.241   6.861   2.631
  413SOL     OW 2137   3.325   5.762   1.128
  413SOL    HW1 2138   3.365   5.842   1.173
  413SOL    HW2 2139   3.393   5.689   1.124
  414SOL     OW 2140   4.688   4.825   1.205
  414SOL    HW1 2141   4.643   4.757   1.146
  414SOL    HW2 2142   4.774   4.853   1.163
  415SOL     OW 2143   1.523   6.027   1.585
  415SOL    HW1 2144   1.516   6.115   1.632
  415SOL    HW2 2145   1.434   5.982   1.585
  416SOL     OW 2146   4.150   6.284   4.666
  416SOL    HW1 2147   4.195   6.284   4.755
  416SOL    HW2 2148   4.072   6.347   4.667
  417SOL     OW 2149   3.417   6.345   2.391
  417SOL    HW1 2150   3.406   6.296   2.305
  417SOL    HW2 2151   3.443   6.440   2.373
  418SOL     OW 2152   5.203   5.748   0.612
  418SOL    HW1 2153   5.146   5.667   0.601
  418SOL    HW2 2154   5.173   5.799   0.693
  419SOL     OW 2155   0.508   0.214   1.141
  419SOL    HW1 2156   0.509   0.116   1.160
  419SOL    HW2 2157   0.564   0.233   1.060
  420SOL     OW 2158   5.398   3.764   0.754
  420SOL    HW1 2159   5.491   3.755   0.719
  420SOL    HW2 2160   5.343   3.815   0.689
  421SOL     OW 2161   2.341   5.643   6.735
  421SOL    HW1 2162   2.427   5.604   6.768
  421SOL    HW2 2163   2.360   5.719   6.673
  422SOL     OW 2164   6.237   4.478   0.165
  422SOL    HW1 2165   6.209   4.536   0.088
  422SOL    HW2 2166   6.316   4.424   0.139
  423SOL     OW 2167   6.097   3.155   7.021
  423SOL    HW1 2168   6.172   3.090   7.004
  423SOL    HW2 2169   6.133   3.235   0.046
  424SOL     OW 2170   2.952   4.228   0.410
  424SOL    HW1 2171   2.932   4.325   0.400
  424SOL    HW2 2172   3.025   4.216   0.478
  425SOL     OW 2173   5.072   1.808   1.082
  425SOL    HW1 2174   5.147   1.847   1.135
  425SOL    HW2 2175   5.108   1.767   0.998
  426SOL     OW 2176   4.919   2.299   5.442
  426SOL    HW1 2177   4.826   2.305   5.477
  426SOL    HW2 2178   4.976   2.368   5.487
  427SOL     OW 2179   5.245   4.029   1.410
  427SOL    HW1 2180   5.180   4.079   1.352
  427SOL    HW2 2181   5.245   4.068   1.502
  428SOL     OW 2182   4.315   0.618   5.443
  428SOL    HW1 2183   4.231   0.571   5.473
  428SOL    HW2 2184   4.391   0.589   5.500
  429SOL     OW 2185   1.738   4.980   0.174
  429SOL    HW1 2186   1.762   4.886   0.199
  429SOL    HW2 2187   1.638   4.991   0.177
  430SOL     OW 2188   1.211   6.953   4.534
  430SOL    HW1 2189   1.134   6.995   4.583
  430SOL    HW2 2190   1.252   6.883   4.592
  431SOL     OW 2191   3.708   1.426   0.065
  431SOL    HW1 2192   3.630   1.469   0.021
  431SOL    HW2 2193   3.680   1.390   0.155
  432SOL     OW 2194   6.292   1.906   0.382
  432SOL    HW1 2195   6.373   1.929   0.327
  432SOL    HW2 2196   6.229   1.851   0.327
  433SOL     OW 2197   2.861   6.741   4.672
  433SOL    HW1 2198   2.799   6.670   4.704
  433SOL    HW2 2199   2.954   6.703   4.666
  434SOL     OW 2200   6.112   3.729   0.727
  434SOL    HW1 2201   6.125   3.796   0.801
  434SOL    HW2 2202   6.087   3.777   0.643
  435SOL     OW 2203   3.090   3.342   5.952
  435SOL    HW1 2204   3.156   3.321   6.024
  435SOL    HW2 2205   3.037   3.260   5.930
  436SOL     OW 2206   1.839   0.184   1.739
  436SOL    HW1 2207   1.880   0.101   1.703
  436SOL    HW2 2208   1.908   0.256   1.745
  437SOL     OW 2209   0.419   0.156   6.265
  437SOL    HW1 2210   0.432   0.141   6.363
  437SOL    HW2 2211   0.378   0.075   6.224
  438SOL     OW 2212   1.788   2.695   1.977
  438SOL    HW1 2213   1.816   2.602   1.952
  438SOL    HW2 2214   1.838   2.725   2.058
  439SOL     OW 2215   6.489   4.986   2.540
  439SOL    HW1 2216   6.487   4.926   2.460
  439SOL    HW2 2217   6.584   5.014   2.558
  440SOL     OW 2218   0.992   2.353   4.265
  440SOL    HW1 2219   1.035   2.443   4.271
  440SOL    HW2 2220   0.946   2.343   4.177
  441SOL     OW 2221   2.014   1.428   3.256
  441SOL    HW1 2222   2.096   1.454   3.206
  441SOL    HW2 2223   2.011   1.476   3.344
  442SOL     OW 2224   0.223   4.031   6.806
  442SOL    HW1 2225   0.323   4.025   6.813
  442SOL    HW2 2226   0.198   4.057   6.712
  443SOL     OW 2227   1.590   4.659   4.890
  443SOL    HW1 2228   1.594   4.660   4.790
  443SOL    HW2 2229   1.496   4.669   4.920
  444SOL     OW 2230   4.245   2.803   6.139
  444SOL    HW1 2231   4.152   2.829   6.162
  444SOL    HW2 2232   4.266   2.713   6.179
  445SOL     OW 2233   1.913   5.264   3.559
  445SOL    HW1 2234   1.863   5.296   3.639
  445SOL    HW2 2235   1.917   5.164   3.559
  446SOL     OW 2236   3.733   4.907   3.783
  446SOL    HW1 2237   3.727   4.878   3.688
  446SOL    HW2 2238   3.811   4.862   3.827
  447SOL     OW 2239   0.208   4.529   6.905
  447SOL    HW1 2240   0.183   4.441   6.947
  447SOL    HW2 2241   0.166   4.603   6.957
  448SOL     OW 2242   4.072   0.811   5.289
  448SOL    HW1 2243   4.163   0.845   5.269
  448SOL    HW2 2244   4.009   0.836   5.215
  449SOL     OW 2245   5.831   1.318   4.896
  449SOL    HW1 2246   5.856   1.222   4.887
  449SOL    HW2 2247   5.887   1.374   4.835
  450SOL     OW 2248   0.118   6.121   3.635
  450SOL    HW1 2249   0.092   6.053   3.566
  450SOL    HW2 2250   0.216   6.139   3.629
  451SOL     OW 2251   0.780   1.829   2.464
  451SOL    HW1 2252   0.789   1.757   2.395
  451SOL    HW2 2253   0.687   1.827   2.502
  452SOL     OW 2254   6.733   5.407   0.610
  452SOL    HW1 2255   6.819   5.426   0.658
  452SOL    HW2 2256   6.728   5.464   0.528
  453SOL     OW 2257   3.368   0.931   6.682
  453SOL    HW1 2258   3.358   0.838   6.646
  453SOL    HW2 2259   3.391   0.927   6.779
  454SOL     OW 2260   0.298   5.953   6.182
  454SOL    HW1 2261   0.394   5.933   6.200
  454SOL    HW2 2262   0.246   5.868   6.179
  455SOL     OW 2263   5.606   6.909   3.999
  455SOL    HW1 2264   5.688   6.962   3.975
  455SOL    HW2 2265   5.526   6.968   3.995
  456SOL     OW 2266   3.813   5.795   6.311
  456SOL    HW1 2267   3.860   5.717   6.352
  456SOL    HW2 2268   3.850   5.811   6.219
  457SOL     OW 2269   2.268   4.100   3.406
  457SOL    HW1 2270   2.282   4.103   3.505
  457SOL    HW2 2271   2.242   4.008   3.378
  458SOL     OW 2272   5.413   5.636   5.567
  458SOL    HW1 2273   5.389   5.539   5.566
  458SOL    HW2 2274   5.476   5.656   5.492
  459SOL     OW 2275   1.096   0.036   3.023
  459SOL    HW1 2276   1.059   6.985   3.082
  459SOL    HW2 2277   1.140   0.106   3.080
  460SOL     OW 2278   0.407   1.735   1.911
  460SOL    HW1 2279   0.331   1.739   1.846
  460SOL    HW2 2280   0.493   1.742   1.861
  461SOL     OW 2281   4.449   0.062   4.835
  461SOL    HW1 2282   4.469   0.012   4.750
  461SOL    HW2 2283   4.450   7.019   4.912
  462SOL     OW 2284   3.480   2.425   5.962
  462SOL    HW1 2285   3.484   2.505   5.902
  462SOL    HW2 2286   3.521   2.448   6.050
  463SOL     OW 2287   6.101   5.368   3.069
  463SOL    HW1 2288   6.025   5.303   3.080
  463SOL    HW2 2289   6.175   5.345   3.131
  464SOL     OW 2290   2.246   1.213   6.590
  464SOL    HW1 2291   2.190   1.284   6.633
  464SOL    HW2 2292   2.325   1.194   6.648
  465SOL     OW 2293   0.815   1.613   4.498
  465SOL    HW1 2294   0.863   1.616   4.410
  465SOL    HW2 2295   0.788   1.518   4.518
  466SOL     OW 2296   6.951   6.865   3.755
  466SOL    HW1 2297   7.002   6.881   3.671
  466SOL    HW2 2298   6.988   6.922   3.828
  467SOL     OW 2299   1.037   0.251   6.345
  467SOL    HW1 2300   1.068   0.253   6.440
  467SOL    HW2 2301   0.969   0.323   6.330
  468SOL     OW 2302   3.965   5.574   0.816
  468SOL    HW1 2303   4.050   5.590   0.766
  468SOL    HW2 2304   3.896   5.536   0.754
  469SOL     OW 2305   2.142   5.259   0.264
  469SOL    HW1 2306   2.112   5.165   0.245
  469SOL    HW2 2307   2.184   5.263   0.354
  470SOL     OW 2308   4.412   0.468   1.996
  470SOL    HW1 2309   4.354   0.534   2.043
  470SOL    HW2 2310   4.461   0.413   2.063
  471SOL     OW 2311   1.696   2.718   4.004
  471SOL    HW1 2312   1.635   2.638   4.001
  471SOL    HW2 2313   1.735   2.726   4.096
  472SOL     OW 2314   4.668   4.091   6.057
  472SOL    HW1 2315   4.673   4.187   6.084
  472SOL    HW2 2316   4.603   4.081   5.981
  473SOL     OW 2317   0.526   2.914   2.058
  473SOL    HW1 2318   0.449   2.877   2.007
  473SOL    HW2 2319   0.526   3.014   2.052
  474SOL     OW 2320   4.332   4.998   3.976
  474SOL    HW1 2321   4.274   4.917   3.984
  474SOL    HW2 2322   4.362   5.027   4.067
  475SOL     OW 2323   6.809   6.963   6.397
  475SOL    HW1 2324   6.734   6.898   6.384
  475SOL    HW2 2325   6.808   0.009   6.323
  476SOL     OW 2326   6.790   3.820   2.593
  476SOL    HW1 2327   6.767   3.785   2.684
  476SOL    HW2 2328   6.711   3.808   2.532
  477SOL     OW 2329   2.228   5.119   4.467
  477SOL    HW1 2330   2.297   5.176   4.512
  477SOL    HW2 2331   2.174   5.072   4.537
  478SOL     OW 2332   3.039   6.373   2.708
  478SOL    HW1 2333   2.991   6.444   2.760
  478SOL    HW2 2334   3.134   6.400   2.696
  479SOL     OW 2335   3.192   2.048   0.308
  479SOL    HW1 2336   3.201   2.048   0.209
  479SOL    HW2 2337   3.279   2.074   0.350
  480SOL     OW 2338   1.631   0.295   1.441
  480SOL    HW1 2339   1.545   0.261   1.402
  480SOL    HW2 2340   1.622   0.302   1.540
  481SOL     OW 2341   2.224   0.947   1.335
  481SOL    HW1 2342   2.167   1.005   1.276
  481SOL    HW2 2343   2.238   0.994   1.423
  482SOL     OW 2344   4.689   4.581   2.574
  482SOL    HW1 2345   4.725   4.642   2.504
  482SOL    HW2 2346   4.762   4.523   2.610
  483SOL     OW 2347   5.444   2.393   1.787
  483SOL    HW1 2348   5.495   2.381   1.873
  483SOL    HW2 2349   5.409   2.305   1.756
  484SOL     OW 2350   0.815   2.968   4.562
  484SOL    HW1 2351   0.844   2.877   4.533
  484SOL    HW2 2352   0.895   3.024   4.584
  485SOL     OW 2353   3.472   4.928   2.117
  485SOL    HW1 2354   3.386   4.895   2.077
  485SOL    HW2 2355   3.549   4.887   2.069
  486SOL     OW 2356   0.893   1.394   0.919
  486SOL    HW1 2357   0.829   1.317   0.925
  486SOL    HW2 2358   0.909   1.432   1.010
  487SOL     OW 2359   0.721   2.104   6.537
  487SOL    HW1 2360   0.638   2.121   6.591
  487SOL    HW2 2361   0.776   2.187   6.534
  488SOL     OW 2362   1.049   1.365   1.384
  488SOL    HW1 2363   1.006   1.303   1.451
  488SOL    HW2 2364   1.144   1.379   1.408
  489SOL     OW 2365   3.291   5.647   0.282
  489SOL    HW1 2366   3.280   5.553   0.249
  489SOL    HW2 2367   3.388   5.671   0.281
  490SOL     OW 2368   6.350   6.107   4.260
  490SOL    HW1 2369   6.446   6.122   4.236
  490SOL    HW2 2370   6.314   6.188   4.307
  491SOL     OW 2371   0.023   2.484   2.749
  491SOL    HW1 2372   0.067   2.417   2.690
  491SOL    HW2 2373   0.056   2.576   2.726
  492SOL     OW 2374   3.444   0.668   5.757
  492SOL    HW1 2375   3.543   0.679   5.745
  492SOL    HW2 2376   3.398   0.754   5.734
  493SOL     OW 2377   6.468   4.801   6.702
  493SOL    HW1 2378   6.438   4.787   6.608
  493SOL    HW2 2379   6.401   4.761   6.764
  494SOL     OW 2380   6.994   6.165   6.751
  494SOL    HW1 2381   0.036   6.140   6.824
  494SOL    HW2 2382   7.007   6.262   6.728
  495SOL     OW 2383   5.190   5.324   2.792
  495SOL    HW1 2384   5.196   5.414   2.749
  495SOL    HW2 2385   5.129   5.266   2.738
  496SOL     OW 2386   5.311   2.741   2.758
  496SOL    HW1 2387   5.261   2.798   2.693
  496SOL    HW2 2388   5.270   2.649   2.759
  497SOL     OW 2389   3.470   1.299   5.172
  497SOL    HW1 2390   3.397   1.338   5.228
  497SOL    HW2 2391   3.480   1.351   5.088
  498SOL     OW 2392   1.308   3.362   1.931
  498SOL    HW1 2393   1.310   3.347   2.029
  498SOL    HW2 2394   1.353   3.449   1.909
  499SOL     OW 2395   3.107   1.050   4.305
  499SOL    HW1 2396   3.046   0.984   4.350
  499SOL    HW2 2397   3.054   1.104   4.240
  500SOL     OW 2398   0.561   4.512   3.855
  500SOL    HW1 2399   0.498   4.497   3.931
  500SOL    HW2 2400   0.561   4.609   3.830
  501SOL     OW 2401   2.723   1.921   6.986
  501SOL    HW1 2402   2.656   1.943   6.915
  501SOL    HW2 2403   2.683   1.853   0.028
  502SOL     OW 2404   5.597   4.376   5.845
  502SOL    HW1 2405   5.528   4.431   5.891
  502SOL    HW2 2406   5.644   4.319   5.913
  503SOL     OW 2407   6.497   4.056   5.900
  503SOL    HW1 2408   6.429   4.048   5.827
  503SOL    HW2 2409   6.457   4.104   5.978
  504SOL     OW 2410   2.373   6.310   4.201
  504SOL    HW1 2411   2.312   6.377   4.158
  504SOL    HW2 2412   2.400   6.343   4.291
  505SOL     OW 2413   3.706   0.535   5.560
  505SOL    HW1 2414   3.731   0.580   5.646
  505SOL    HW2 2415   3.759   0.576   5.486
  506SOL     OW 2416   1.824   5.300   4.485
  506SOL    HW1 2417   1.789   5.218   4.530
  506SOL    HW2 2418   1.883   5.273   4.409
  507SOL     OW 2419   2.875   0.152   4.420
  507SOL    HW1 2420   2.938   0.223   4.450
  507SOL    HW2 2421   2.870   0.080   4.489
  508SOL     OW 2422   5.990   3.198   2.665
  508SOL    HW1 2423   6.021   3.103   2.661
  508SOL    HW2 2424   6.021   3.239   2.751
  509SOL     OW 2425   3.727   1.088   1.406
  509SOL    HW1 2426   3.649   1.057   1.353
  509SOL    HW2 2427   3.790   1.139   1.347
  510SOL     OW 2428   6.708   4.637   5.805
  510SOL    HW1 2429   6.741   4.710   5.745
  510SOL    HW2 2430   6.786   4.583   5.837
  511SOL     OW 2431   0.027   6.796   6.724
  511SOL    HW1 2432   0.047   6.746   6.639
  511SOL    HW2 2433   0.070   6.886   6.721
  512SOL     OW 2434   0.351   2.857   0.351
  512SOL    HW1 2435   0.345   2.936   0.412
  512SOL    HW2 2436   0.294   2.783   0.387
  513SOL     OW 2437   5.808   6.309   2.710
  513SOL    HW1 2438   5.904   6.290   2.730
  513SOL    HW2 2439   5.800   6.394   2.659
  514SOL     OW 2440   6.425   2.211   4.072
  514SOL    HW1 2441   6.464   2.151   4.002
  514SOL    HW2 2442   6.326   2.214   4.062
  515SOL     OW 2443   2.559   6.645   6.167
  515SOL    HW1 2444   2.586   6.638   6.263
  515SOL    HW2 2445   2.640   6.661   6.111
  516SOL     OW 2446   2.907   4.620   1.581
  516SOL    HW1 2447   2.934   4.587   1.671
  516SOL    HW2 2448   2.831   4.684   1.591
  517SOL     OW 2449   5.014   6.127   2.403
  517SOL    HW1 2450   5.040   6.042   2.449
  517SOL    HW2 2451   5.065   6.203   2.441
  518SOL     OW 2452   2.672   2.360   1.483
  518SOL    HW1 2453   2.746   2.300   1.452
  518SOL    HW2 2454   2.703   2.411   1.564
  519SOL     OW 2455   6.958   0.680   4.960
  519SOL    HW1 2456   0.034   0.666   4.982
  519SOL    HW2 2457   6.936   0.777   4.971
  520SOL     OW 2458   5.440   4.469   6.463
  520SOL    HW1 2459   5.473   4.546   6.408
  520SOL    HW2 2460   5.517   4.425   6.508
  521SOL     OW 2461   6.083   1.864   6.337
  521SOL    HW1 2462   6.006   1.840   6.396
  521SOL    HW2 2463   6.156   1.902   6.393
  522SOL     OW 2464   3.920   3.013   5.230
  522SOL    HW1 2465   3.971   2.931   5.255
  522SOL    HW2 2466   3.973   3.094   5.255
  523SOL     OW 2467   6.466   5.615   3.697
  523SOL    HW1 2468   6.475   5.619   3.796
  523SOL    HW2 2469   6.405   5.541   3.671
  524SOL     OW 2470   2.813   0.858   6.692
  524SOL    HW1 2471   2.869   0.874   6.773
  524SOL    HW2 2472   2.764   0.942   6.668
  525SOL     OW 2473   2.229   3.803   6.394
  525SOL    HW1 2474   2.281   3.854   6.462
  525SOL    HW2 2475   2.266   3.821   6.303
  526SOL     OW 2476   2.398   5.737   4.980
  526SOL    HW1 2477   2.307   5.695   4.977
  526SOL    HW2 2478   2.460   5.687   4.920
  527SOL     OW 2479   6.413   1.956   6.017
  527SOL    HW1 2480   6.507   1.988   6.027
  527SOL    HW2 2481   6.351   2.034   6.017
  528SOL     OW 2482   1.257   1.555   4.153
  528SOL    HW1 2483   1.223   1.512   4.069
  528SOL    HW2 2484   1.357   1.560   4.150
  529SOL     OW 2485   1.111   5.017   4.578
  529SOL    HW1 2486   1.035   4.979   4.631
  529SOL    HW2 2487   1.076   5.062   4.496
  530SOL     OW 2488   2.657   2.852   5.399
  530SOL    HW1 2489   2.598   2.772   5.391
  530SOL    HW2 2490   2.644   2.911   5.319
  531SOL     OW 2491   0.554   0.913   1.246
  531SOL    HW1 2492   0.547   1.003   1.290
  531SOL    HW2 2493   0.641   0.871   1.271
  532SOL     OW 2494   0.685   2.325   6.197
  532SOL    HW1 2495   0.672   2.423   6.179
  532SOL    HW2 2496   0.612   2.293   6.257
  533SOL     OW 2497   5.055   6.043   4.263
  533SOL    HW1 2498   5.130   5.996   4.310
  533SOL    HW2 2499   5.061   6.024   4.164
  534SOL     OW 2500   4.674   5.710   4.095
  534SOL    HW1 2501   4.634   5.721   4.004
  534SOL    HW2 2502   4.601   5.691   4.161
  535SOL     OW 2503   1.114   4.531   4.073
  535SOL    HW1 2504   1.058   4.470   4.129
  535SOL    HW2 2505   1.200   4.485   4.050
  536SOL     OW 2506   0.299   5.596   1.419
  536SOL    HW1 2507   0.371   5.637   1.364
  536SOL    HW2 2508   0.230   5.664   1.440
  537SOL     OW 2509   2.160   6.353   3.515
  537SOL    HW1 2510   2.211   6.351   3.601
  537SOL    HW2 2511   2.206   6.294   3.448
  538SOL     OW 2512   1.062   5.638   3.472
  538SOL    HW1 2513   1.142   5.580   3.456
  538SOL    HW2 2514   1.089   5.719   3.524
  539SOL     OW 2515   1.172   5.006   1.280
  539SOL    HW1 2516   1.176   5.025   1.378
  539SOL    HW2 2517   1.082   4.972   1.256
  540SOL     OW 2518   0.397   2.261   2.303
  540SOL    HW1 2519   0.398   2.161   2.309
  540SOL    HW2 2520   0.478   2.298   2.350
  541SOL     OW 2521   3.166   6.650   4.713
  541SOL    HW1 2522   3.193   6.625   4.805
  541SOL    HW2 2523   3.144   6.568   4.661
  542SOL     OW 2524   6.538   6.714   0.191
  542SOL    HW1 2525   6.548   6.633   0.134
  542SOL    HW2 2526   6.625   6.737   0.234
  543SOL     OW 2527   0.712   5.123   6.410
  543SOL    HW1 2528   0.798   5.087   6.446
  543SOL    HW2 2529   0.646   5.049   6.399
  544SOL     OW 2530   1.296   4.486   1.185
  544SOL    HW1 2531   1.294   4.585   1.204
  544SOL    HW2 2532   1.218   4.462   1.128
  545SOL     OW 2533   3.792   1.583   3.324
  545SOL    HW1 2534   3.797   1.667   3.379
  545SOL    HW2 2535   3.696   1.565   3.301
  546SOL     OW 2536   1.568   3.609   1.533
  546SOL    HW1 2537   1.622   3.599   1.617
  546SOL    HW2 2538   1.556   3.519   1.490
  547SOL     OW 2539   2.057   2.098   6.743
  547SOL    HW1 2540   2.129   2.094   6.813
  547SOL    HW2 2541   2.068   2.023   6.679
  548SOL     OW 2542   4.084   3.454   3.358
  548SOL    HW1 2543   4.105   3.461   3.260
  548SOL    HW2 2544   4.026   3.532   3.384
  549SOL     OW 2545   4.861   3.585   1.409
  549SOL    HW1 2546   4.834   3.491   1.387
  549SOL    HW2 2547   4.851   3.600   1.507
  550SOL     OW 2548   6.883   2.941   3.101
  550SOL    HW1 2549   6.903   3.037   3.081
  550SOL    HW2 2550   6.797   2.915   3.057
  551SOL     OW 2551   6.547   1.744   0.618
  551SOL    HW1 2552   6.566   1.840   0.639
  551SOL    HW2 2553   6.461   1.718   0.661
  552SOL     OW 2554   4.088   5.161   0.817
  552SOL    HW1 2555   4.098   5.061   0.818
  552SOL    HW2 2556   4.045   5.190   0.903
  553SOL     OW 2557   1.770   0.365   2.528
  553SOL    HW1 2558   1.762   0.461   2.501
  553SOL    HW2 2559   1.857   0.328   2.497
  554SOL     OW 2560   5.693   6.045   6.254
  554SOL    HW1 2561   5.673   6.113   6.325
  554SOL    HW2 2562   5.759   6.083   6.189
  555SOL     OW 2563   2.004   5.201   4.331
  555SOL    HW1 2564   2.085   5.169   4.381
  555SOL    HW2 2565   2.029   5.220   4.236
  556SOL     OW 2566   6.111   1.934   4.047
  556SOL    HW1 2567   6.093   1.936   4.145
  556SOL    HW2 2568   6.140   2.024   4.016
  557SOL     OW 2569   6.712   5.809   6.484
  557SOL    HW1 2570   6.753   5.744   6.548
  557SOL    HW2 2571   6.616   5.823   6.507
  558SOL     OW 2572   4.178   3.664   5.142
  558SOL    HW1 2573   4.141   3.582   5.099
  558SOL    HW2 2574   4.162   3.743   5.082
  559SOL     OW 2575   6.682   6.064   6.622
  559SOL    HW1 2576   6.753   6.128   6.651
  559SOL    HW2 2577   6.724   5.977   6.594
  560SOL     OW 2578   4.356   6.408   0.320
  560SOL    HW1 2579   4.411   6.360   0.389
  560SOL    HW2 2580   4.387   6.502   0.313
  561SOL     OW 2581   5.869   6.783   0.519
  561SOL    HW1 2582   5.946   6.846   0.514
  561SOL    HW2 2583   5.901   6.693   0.548
  562SOL     OW 2584   5.002   0.819   6.059
  562SOL    HW1 2585   5.064   0.779   5.991
  562SOL    HW2 2586   4.943   0.886   6.014
  563SOL     OW 2587   2.597   6.533   3.691
  563SOL    HW1 2588   2.557   6.584   3.615
  563SOL    HW2 2589   2.678   6.580   3.725
  564SOL     OW 2590   2.015   2.113   6.165
  564SOL    HW1 2591   2.035   2.211   6.163
  564SOL    HW2 2592   1.994   2.085   6.259
  565SOL     OW 2593   4.240   3.393   5.827
  565SOL    HW1 2594   4.181   3.474   5.822
  565SOL    HW2 2595   4.312   3.400   5.758
  566SOL     OW 2596   4.042   4.761   3.211
  566SOL    HW1 2597   3.951   4.757   3.171
  566SOL    HW2 2598   4.109   4.726   3.145
  567SOL     OW 2599   3.497   3.317   4.230
  567SOL    HW1 2600   3.443   3.283   4.152
  567SOL    HW2 2601   3.551   3.242   4.268
  568SOL     OW 2602   3.106   2.380   0.079
  568SOL    HW1 2603   3.125   2.476   0.063
  568SOL    HW2 2604   3.008   2.368   0.098
  569SOL     OW 2605   1.598   2.791   0.596
  569SOL    HW1 2606   1.663   2.715   0.585
  569SOL    HW2 2607   1.530   2.788   0.523
  570SOL     OW 2608   1.167   6.490   0.818
  570SOL    HW1 2609   1.265   6.476   0.831
  570SOL    HW2 2610   1.117   6.448   0.895
  571SOL     OW 2611   3.674   5.345   2.880
  571SOL    HW1 2612   3.732   5.315   2.956
  571SOL    HW2 2613   3.627   5.266   2.840
  572SOL     OW 2614   2.242   3.989   5.579
  572SOL    HW1 2615   2.237   4.002   5.480
  572SOL    HW2 2616   2.280   3.898   5.599
  573SOL     OW 2617   4.376   1.290   5.821
  573SOL    HW1 2618   4.367   1.261   5.725
  573SOL    HW2 2619   4.287   1.320   5.855
  574SOL     OW 2620   2.100   2.009   4.619
  574SOL    HW1 2621   2.079   2.095   4.665
  574SOL    HW2 2622   2.141   1.946   4.685
  575SOL     OW 2623   6.492   3.382   0.440
  575SOL    HW1 2624   6.482   3.443   0.519
  575SOL    HW2 2625   6.412   3.390   0.382
  576SOL     OW 2626   1.160   2.441   1.919
  576SOL    HW1 2627   1.118   2.374   1.858
  576SOL    HW2 2628   1.178   2.398   2.008
  577SOL     OW 2629   2.312   1.755   3.810
  577SOL    HW1 2630   2.345   1.839   3.851
  577SOL    HW2 2631   2.244   1.712   3.870
  578SOL     OW 2632   0.551   3.216   3.267
  578SOL    HW1 2633   0.455   3.198   3.245
  578SOL    HW2 2634   0.570   3.314   3.256
  579SOL     OW 2635   3.640   2.007   0.869
  579SOL    HW1 2636   3.601   1.915   0.869
  579SOL    HW2 2637   3.677   2.028   0.960
  580SOL     OW 2638   0.916   5.188   6.746
  580SOL    HW1 2639   0.909   5.237   6.659
  580SOL    HW2 2640   0.825   5.173   6.784
  581SOL     OW 2641   3.726   2.910   2.972
  581SOL    HW1 2642   3.667   2.871   3.043
  581SOL    HW2 2643   3.704   2.869   2.884
  582SOL     OW 2644   5.693   3.904   2.480
  582SOL    HW1 2645   5.699   3.847   2.398
  582SOL    HW2 2646   5.607   3.884   2.528
  583SOL     OW 2647   2.435   4.787   0.135
  583SOL    HW1 2648   2.335   4.788   0.137
  583SOL    HW2 2649   2.471   4.822   0.221
  584SOL     OW 2650   0.505   4.964   5.086
  584SOL    HW1 2651   0.452   4.943   5.169
  584SOL    HW2 2652   0.570   4.890   5.069
  585SOL     OW 2653   0.333   2.410   5.744
  585SOL    HW1 2654   0.380   2.458   5.818
  585SOL    HW2 2655   0.389   2.415   5.661
  586SOL     OW 2656   2.622   6.683   0.959
  586SOL    HW1 2657   2.682   6.713   1.034
  586SOL    HW2 2658   2.567   6.760   0.928
  587SOL     OW 2659   1.324   3.143   5.707
  587SOL    HW1 2660   1.290   3.109   5.620
  587SOL    HW2 2661   1.248   3.179   5.761
  588SOL     OW 2662   3.786   6.886   1.448
  588SOL    HW1 2663   3.769   6.950   1.374
  588SOL    HW2 2664   3.860   6.921   1.507
  589SOL     OW 2665   3.427   5.042   2.390
  589SOL    HW1 2666   3.375   5.000   2.464
  589SOL    HW2 2667   3.420   4.985   2.308
  590SOL     OW 2668   6.976   2.594   2.267
  590SOL    HW1 2669   0.020   2.666   2.245
  590SOL    HW2 2670   0.003   2.517   2.308
  591SOL     OW 2671   3.847   0.097   3.591
  591SOL    HW1 2672   3.838   0.179   3.647
  591SOL    HW2 2673   3.922   0.109   3.526
  592SOL     OW 2674   5.070   0.845   0.675
  592SOL    HW1 2675   5.111   0.875   0.589
  592SOL    HW2 2676   5.013   0.764   0.658
  593SOL     OW 2677   4.627   2.694   3.821
  593SOL    HW1 2678   4.637   2.792   3.809
  593SOL    HW2 2679   4.641   2.648   3.733
  594SOL     OW 2680   4.259   3.575   0.730
  594SOL    HW1 2681   4.195   3.648   0.707
  594SOL    HW2 2682   4.295   3.590   0.822
  595SOL     OW 2683   3.762   6.153   3.741
  595SOL    HW1 2684   3.811   6.093   3.804
  595SOL    HW2 2685   3.786   6.130   3.647
  596SOL     OW 2686   0.826   4.534   2.664
  596SOL    HW1 2687   0.771   4.546   2.747
  596SOL    HW2 2688   0.886   4.613   2.652
  597SOL     OW 2689   4.449   0.326   6.519
  597SOL    HW1 2690   4.408   0.304   6.607
  597SOL    HW2 2691   4.463   0.242   6.466
  598SOL     OW 2692   3.819   4.898   0.528
  598SOL    HW1 2693   3.905   4.861   0.564
  598SOL    HW2 2694   3.819   4.998   0.538
  599SOL     OW 2695   6.775   0.619   2.850
  599SOL    HW1 2696   6.806   0.600   2.757
  599SOL    HW2 2697   6.848   0.664   2.901
  600SOL     OW 2698   1.239   0.072   0.812
  600SOL    HW1 2699   1.269   6.998   0.803
  600SOL    HW2 2700   1.147   0.074   0.852
  601SOL     OW 2701   2.500   5.633   3.523
  601SOL    HW1 2702   2.548   5.573   3.459
  601SOL    HW2 2703   2.433   5.688   3.472
  602SOL     OW 2704   1.786   0.419   1.277
  602SOL    HW1 2705   1.733   0.454   1.200
  602SOL    HW2 2706   1.724   0.375   1.342
  603SOL     OW 2707   4.374   2.122   3.363
  603SOL    HW1 2708   4.412   2.146   3.453
  603SOL    HW2 2709   4.353   2.205   3.313
  604SOL     OW 2710   1.019   3.306   6.328
  604SOL    HW1 2711   1.088   3.233   6.323
  604SOL    HW2 2712   0.956   3.287   6.403
  605SOL     OW 2713   6.716   6.242   3.441
  605SOL    HW1 2714   6.707   6.148   3.407
  605SOL    HW2 2715   6.744   6.302   3.366
  606SOL     OW 2716   3.932   0.410   4.316
  606SOL    HW1 2717   3.882   0.371   4.239
  606SOL    HW2 2718   4.007   0.466   4.282
  607SOL     OW 2719   5.207   1.286   3.992
  607SOL    HW1 2720   5.201   1.209   4.056
  607SOL    HW2 2721   5.298   1.286   3.950
  608SOL     OW 2722   3.731   0.933   0.580
  608SOL    HW1 2723   3.656   0.934   0.645
  608SOL    HW2 2724   3.805   0.992   0.612
  609SOL     OW 2725   3.453   2.923   3.896
  609SOL    HW1 2726   3.376   2.894   3.954
  609SOL    HW2 2727   3.438   2.892   3.803
  610SOL     OW 2728   5.401   2.006   4.152
  610SOL    HW1 2729   5.430   2.050   4.067
  610SOL    HW2 2730   5.425   1.910   4.150
  611SOL     OW 2731   0.270   0.566   0.444
  611SOL    HW1 2732   0.237   0.586   0.537
  611SOL    HW2 2733   0.354   0.618   0.427
  612SOL     OW 2734   3.527   5.731   6.324
  612SOL    HW1 2735   3.519   5.678   6.240
  612SOL    HW2 2736   3.623   5.756   6.340
  613SOL     OW 2737   4.516   1.221   6.293
  613SOL    HW1 2738   4.477   1.312   6.304
  613SOL    HW2 2739   4.533   1.182   6.383
  614SOL     OW 2740   6.483   4.413   0.588
  614SOL    HW1 2741   6.389   4.404   0.622
  614SOL    HW2 2742   6.481   4.442   0.492
  615SOL     OW 2743   0.652   0.279   0.564
  615SOL    HW1 2744   0.705   0.360   0.540
  615SOL    HW2 2745   0.708   0.217   0.618
  616SOL     OW 2746   5.692   1.832   4.678
  616SOL    HW1 2747   5.707   1.736   4.703
  616SOL    HW2 2748   5.624   1.872   4.740
  617SOL     OW 2749   6.867   5.098   5.288
  617SOL    HW1 2750   6.915   5.114   5.202
  617SOL    HW2 2751   6.934   5.079   5.360
  618SOL     OW 2752   5.639   3.760   0.399
  618SOL    HW1 2753   5.574   3.709   0.341
  618SOL    HW2 2754   5.621   3.738   0.495
  619SOL     OW 2755   3.370   0.565   0.614
  619SOL    HW1 2756   3.326   0.655   0.622
  619SOL    HW2 2757   3.303   0.493   0.631
  620SOL     OW 2758   5.840   3.059   2.050
  620SOL    HW1 2759   5.930   3.052   2.008
  620SOL    HW2 2760   5.793   2.971   2.042
  621SOL     OW 2761   2.659   0.683   6.841
  621SOL    HW1 2762   2.720   0.739   6.784
  621SOL    HW2 2763   2.711   0.609   6.882
  622SOL     OW 2764   1.062   2.430   5.538
  622SOL    HW1 2765   1.057   2.452   5.440
  622SOL    HW2 2766   0.986   2.474   5.586
  623SOL     OW 2767   6.005   6.280   4.125
  623SOL    HW1 2768   6.032   6.185   4.111
  623SOL    HW2 2769   6.087   6.338   4.125
  624SOL     OW 2770   6.442   1.227   6.494
  624SOL    HW1 2771   6.382   1.265   6.424
  624SOL    HW2 2772   6.461   1.297   6.563
  625SOL     OW 2773   3.007   1.084   0.594
  625SOL    HW1 2774   2.971   1.018   0.660
  625SOL    HW2 2775   3.057   1.035   0.522
  626SOL     OW 2776   0.963   5.243   3.543
  626SOL    HW1 2777   1.015   5.164   3.577
  626SOL    HW2 2778   0.906   5.214   3.466
  627SOL     OW 2779   6.223   0.265   6.931
  627SOL    HW1 2780   6.168   0.231   6.855
  627SOL    HW2 2781   6.314   0.223   6.928
  628SOL     OW 2782   5.202   4.273   5.498
  628SOL    HW1 2783   5.173   4.368   5.487
  628SOL    HW2 2784   5.178   4.240   5.589
  629SOL     OW 2785   6.936   0.575   6.592
  629SOL    HW1 2786   6.935   0.650   6.658
  629SOL    HW2 2787   6.944   0.488   6.640
  630SOL     OW 2788   6.734   1.812   1.314
  630SOL    HW1 2789   6.663   1.855   1.369
  630SOL    HW2 2790   6.774   1.735   1.365
  631SOL     OW 2791   1.939   2.952   4.875
  631SOL    HW1 2792   1.941   2.890   4.954
  631SOL    HW2 2793   2.030   2.991   4.861
  632SOL     OW 2794   4.088   3.086   0.180
  632SOL    HW1 2795   4.018   3.145   0.221
  632SOL    HW2 2796   4.169   3.141   0.159
  633SOL     OW 2797   1.330   5.787   1.705
  633SOL    HW1 2798   1.386   5.795   1.788
  633SOL    HW2 2799   1.390   5.784   1.625
  634SOL     OW 2800   2.917   3.359   4.115
  634SOL    HW1 2801   2.901   3.434   4.179
  634SOL    HW2 2802   2.907   3.392   4.022
  635SOL     OW 2803   5.686   1.106   6.582
  635SOL    HW1 2804   5.736   1.168   6.521
  635SOL    HW2 2805   5.749   1.069   6.650
  636SOL     OW 2806   3.404   0.234   6.391
  636SOL    HW1 2807   3.371   0.258   6.300
  636SOL    HW2 2808   3.355   0.289   6.459
  637SOL     OW 2809   6.584   1.226   1.646
  637SOL    HW1 2810   6.636   1.155   1.598
  637SOL    HW2 2811   6.582   1.205   1.744
  638SOL     OW 2812   6.247   3.415   4.376
  638SOL    HW1 2813   6.269   3.325   4.338
  638SOL    HW2 2814   6.206   3.404   4.466
  639SOL     OW 2815   4.838   5.005   3.375
  639SOL    HW1 2816   4.796   5.073   3.315
  639SOL    HW2 2817   4.775   4.986   3.451
  640SOL     OW 2818   0.466   2.783   2.719
  640SOL    HW1 2819   0.381   2.835   2.719
  640SOL    HW2 2820   0.533   2.829   2.660
  641SOL     OW 2821   2.247   4.895   5.097
  641SOL    HW1 2822   2.284   4.803   5.112
  641SOL    HW2 2823   2.305   4.944   5.032
  642SOL     OW 2824   0.838   3.482   4.868
  642SOL    HW1 2825   0.784   3.508   4.948
  642SOL    HW2 2826   0.841   3.558   4.804
  643SOL     OW 2827   4.542   5.639   6.600
  643SOL    HW1 2828   4.606   5.567   6.572
  643SOL    HW2 2829   4.467   5.646   6.535
  644SOL     OW 2830   6.602   0.112   4.488
  644SOL    HW1 2831   6.673   0.087   4.422
  644SOL    HW2 2832   6.598   0.045   4.561
  645SOL     OW 2833   3.745   5.129   2.379
  645SOL    HW1 2834   3.657   5.171   2.399
  645SOL    HW2 2835   3.736   5.030   2.377
  646SOL     OW 2836   4.161   0.687   4.902
  646SOL    HW1 2837   4.131   0.607   4.954
  646SOL    HW2 2838   4.084   0.751   4.893
  647SOL     OW 2839   5.193   2.111   4.648
  647SOL    HW1 2840   5.250   2.046   4.599
  647SOL    HW2 2841   5.145   2.170   4.583
  648SOL     OW 2842   5.906   2.278   2.922
  648SOL    HW1 2843   5.820   2.242   2.885
  648SOL    HW2 2844   5.905   2.269   3.022
  649SOL     OW 2845   2.535   4.915   0.390
  649SOL    HW1 2846   2.574   4.998   0.429
  649SOL    HW2 2847   2.440   4.906   0.420
  650SOL     OW 2848   6.921   5.798   1.039
  650SOL    HW1 2849   6.982   5.823   0.964
  650SOL    HW2 2850   6.836   5.760   1.003
  651SOL     OW 2851   1.301   0.200   5.413
  651SOL    HW1 2852   1.342   0.286   5.385
  651SOL    HW2 2853   1.206   0.196   5.382
  652SOL     OW 2854   4.365   0.209   1.896
  652SOL    HW1 2855   4.393   0.139   1.961
  652SOL    HW2 2856   4.392   0.300   1.930
  653SOL     OW 2857   0.357   6.554   1.427
  653SOL    HW1 2858   0.432   6.567   1.492
  653SOL    HW2 2859   0.269   6.568   1.473
  654SOL     OW 2860   6.823   0.084   5.416
  654SOL    HW1 2861   6.884   0.112   5.342
  654SOL    HW2 2862   6.874   0.027   5.481
  655SOL     OW 2863   6.987   4.578   1.674
  655SOL    HW1 2864   0.046   4.564   1.732
  655SOL    HW2 2865   7.009   4.644   1.602
  656SOL     OW 2866   3.182   6.358   0.907
  656SOL    HW1 2867   3.119   6.328   0.836
  656SOL    HW2 2868   3.272   6.376   0.867
  657SOL     OW 2869   3.768   2.815   1.856
  657SOL    HW1 2870   3.768   2.728   1.806
  657SOL    HW2 2871   3.674   2.847   1.866
  658SOL     OW 2872   1.927   4.474   4.296
  658SOL    HW1 2873   1.941   4.565   4.255
  658SOL    HW2 2874   1.909   4.484   4.394
  659SOL     OW 2875   2.915   6.383   5.961
  659SOL    HW1 2876   2.976   6.347   6.032
  659SOL    HW2 2877   2.912   6.483   5.967
  660SOL     OW 2878   4.558   4.372   2.270
  660SOL    HW1 2879   4.546   4.330   2.180
  660SOL    HW2 2880   4.593   4.465   2.258
  661SOL     OW 2881   4.355   4.689   4.306
  661SOL    HW1 2882   4.328   4.593   4.308
  661SOL    HW2 2883   4.439   4.699   4.253
  662SOL     OW 2884   4.862   3.490   0.260
  662SOL    HW1 2885   4.797   3.488   0.335
  662SOL    HW2 2886   4.832   3.555   0.190
  663SOL     OW 2887   0.017   4.408   0.233
  663SOL    HW1 2888   6.995   4.432   0.146
  663SOL    HW2 2889   0.029   4.491   0.288
  664SOL     OW 2890   1.491   6.781   6.402
  664SOL    HW1 2891   1.480   6.709   6.471
  664SOL    HW2 2892   1.472   6.743   6.311
  665SOL     OW 2893   3.693   5.776   0.853
  665SOL    HW1 2894   3.788   5.805   0.849
  665SOL    HW2 2895   3.634   5.848   0.816
  666SOL     OW 2896   3.719   1.606   0.387
  666SOL    HW1 2897   3.816   1.622   0.406
  666SOL    HW2 2898   3.695   1.645   0.299
  667SOL     OW 2899   0.937   3.504   2.812
  667SOL    HW1 2900   0.970   3.489   2.719
  667SOL    HW2 2901   0.925   3.417   2.859
  668SOL     OW 2902   5.234   6.477   0.434
  668SOL    HW1 2903   5.253   6.575   0.435
  668SOL    HW2 2904   5.147   6.461   0.386
  669SOL     OW 2905   0.909   6.464   3.832
  669SOL    HW1 2906   0.936   6.438   3.925
  669SOL    HW2 2907   0.809   6.457   3.823
  670SOL     OW 2908   3.269   3.575   3.490
  670SOL    HW1 2909   3.177   3.573   3.451
  670SOL    HW2 2910   3.273   3.514   3.569
  671SOL     OW 2911   2.281   0.059   6.121
  671SOL    HW1 2912   2.218   0.010   6.182
  671SOL    HW2 2913   2.360   0.001   6.100
  672SOL     OW 2914   2.007   3.622   3.957
  672SOL    HW1 2915   1.952   3.688   3.905
  672SOL    HW2 2916   2.023   3.541   3.901
  673SOL     OW 2917   5.159   0.573   0.412
  673SOL    HW1 2918   5.077   0.629   0.422
  673SOL    HW2 2919   5.136   0.487   0.367
  674SOL     OW 2920   0.704   2.081   3.333
  674SOL    HW1 2921   0.793   2.097   3.376
  674SOL    HW2 2922   0.636   2.061   3.403
  675SOL     OW 2923   0.369   2.238   4.485
  675SOL    HW1 2924   0.279   2.203   4.510
  675SOL    HW2 2925   0.366   2.337   4.474
  676SOL     OW 2926   2.731   4.695   4.540
  676SOL    HW1 2927   2.743   4.690   4.639
  676SOL    HW2 2928   2.691   4.610   4.507
  677SOL     OW 2929   6.617   0.429   0.861
  677SOL    HW1 2930   6.688   0.388   0.804
  677SOL    HW2 2931   6.528   0.418   0.815
  678SOL     OW 2932   2.268   0.615   6.303
  678SOL    HW1 2933   2.360   0.578   6.298
  678SOL    HW2 2934   2.254   0.682   6.230
  679SOL     OW 2935   4.343   0.457   2.770
  679SOL    HW1 2936   4.418   0.479   2.833
  679SOL    HW2 2937   4.376   0.398   2.697
  680SOL     OW 2938   5.002   3.742   5.830
  680SOL    HW1 2939   4.969   3.812   5.893
  680SOL    HW2 2940   5.077   3.692   5.872
  681SOL     OW 2941   0.450   6.420   1.189
  681SOL    HW1 2942   0.452   6.320   1.189
  681SOL    HW2 2943   0.424   6.453   1.280
  682SOL     OW 2944   1.601   5.947   0.293
  682SOL    HW1 2945   1.674   6.014   0.304
  682SOL    HW2 2946   1.586   5.899   0.379
  683SOL     OW 2947   3.909   1.296   6.552
  683SOL    HW1 2948   3.943   1.228   6.487
  683SOL    HW2 2949   3.943   1.274   6.644
  684SOL     OW 2950   0.612   6.073   5.566
  684SOL    HW1 2951   0.669   5.993   5.584
  684SOL    HW2 2952   0.668   6.147   5.530
  685SOL     OW 2953   5.006   7.010   5.646
  685SOL    HW1 2954   5.010   6.911   5.637
  685SOL    HW2 2955   5.099   0.027   5.643
  686SOL     OW 2956   5.113   3.560   2.863
  686SOL    HW1 2957   5.179   3.533   2.793
  686SOL    HW2 2958   5.030   3.505   2.854
  687SOL     OW 2959   6.797   3.257   5.647
  687SOL    HW1 2960   6.739   3.283   5.724
  687SOL    HW2 2961   6.866   3.328   5.631
  688SOL     OW 2962   0.960   4.074   6.112
  688SOL    HW1 2963   1.036   4.032   6.160
  688SOL    HW2 2964   0.995   4.143   6.048
  689SOL     OW 2965   6.601   3.676   5.987
  689SOL    HW1 2966   6.518   3.626   6.014
  689SOL    HW2 2967   6.609   3.675   5.887
  690SOL     OW 2968   1.898   2.211   3.622
  690SOL    HW1 2969   1.956   2.136   3.654
  690SOL    HW2 2970   1.842   2.244   3.698
  691SOL     OW 2971   0.764   2.402   6.857
  691SOL    HW1 2972   0.773   2.435   6.763
  691SOL    HW2 2973   0.853   2.372   6.890
  692SOL     OW 2974   2.409   0.425   2.535
  692SOL    HW1 2975   2.503   0.455   2.522
  692SOL    HW2 2976   2.366   0.481   2.606
  693SOL     OW 2977   6.787   2.672   2.542
  693SOL    HW1 2978   6.763   2.576   2.530
  693SOL    HW2 2979   6.723   2.729   2.492
  694SOL     OW 2980   2.261   6.159   0.927
  694SOL    HW1 2981   2.225   6.234   0.873
  694SOL    HW2 2982   2.354   6.137   0.897
  695SOL     OW 2983   5.066   5.092   5.341
  695SOL    HW1 2984   5.028   5.001   5.357
  695SOL    HW2 2985   4.992   5.155   5.319
  696SOL     OW 2986   4.244   5.093   2.462
  696SOL    HW1 2987   4.258   5.084   2.561
  696SOL    HW2 2988   4.171   5.159   2.445
  697SOL     OW 2989   1.014   4.075   4.775
  697SOL    HW1 2990   0.963   4.082   4.689
  697SOL    HW2 2991   1.001   4.157   4.829
  698SOL     OW 2992   4.393   0.409   3.699
  698SOL    HW1 2993   4.421   0.327   3.749
  698SOL    HW2 2994   4.324   0.458   3.751
  699SOL     OW 2995   1.011   4.070   0.928
  699SOL    HW1 2996   0.969   4.137   0.990
  699SOL    HW2 2997   1.010   4.106   0.835
  700SOL     OW 2998   2.468   2.625   4.282
  700SOL    HW1 2999   2.527   2.551   4.317
  700SOL    HW2 3000   2.466   2.622   4.183
  701SOL     OW 3001   0.571   4.184   6.411
  701SOL    HW1 3002   0.521   4.265   6.440
  701SOL    HW2 3003   0.537   4.104   6.461
  702SOL     OW 3004   4.986   6.675   4.214
  702SOL    HW1 3005   5.041   6.699   4.134
  702SOL    HW2 3006   5.028   6.715   4.296
  703SOL     OW 3007   4.397   3.972   6.184
  703SOL    HW1 3008   4.478   4.031   6.176
  703SOL    HW2 3009   4.340   3.982   6.103
  704SOL     OW 3010   1.375   0.204   6.971
  704SOL    HW1 3011   1.282   0.166   6.978
  704SOL    HW2 3012   1.412   0.216   0.042
  705SOL     OW 3013   5.221   1.172   3.327
  705SOL    HW1 3014   5.274   1.154   3.244
  705SOL    HW2 3015   5.146   1.235   3.305
  706SOL     OW 3016   3.635   2.005   3.850
  706SOL    HW1 3017   3.544   2.030   3.819
  706SOL    HW2 3018   3.702   2.069   3.811
  707SOL     OW 3019   5.474   0.580   1.614
  707SOL    HW1 3020   5.488   0.512   1.686
  707SOL    HW2 3021   5.443   0.533   1.531
  708SOL     OW 3022   4.321   0.476   1.017
  708SOL    HW1 3023   4.260   0.496   1.095
  708SOL    HW2 3024   4.313   0.549   0.949
  709SOL     OW 3025   1.079   4.857   0.815
  709SOL    HW1 3026   0.996   4.910   0.798
  709SOL    HW2 3027   1.157   4.919   0.825
  710SOL     OW 3028   2.997   3.880   2.881
  710SOL    HW1 3029   3.059   3.933   2.822
  710SOL    HW2 3030   2.910   3.929   2.890
  711SOL     OW 3031   6.413   1.523   4.568
  711SOL    HW1 3032   6.324   1.551   4.530
  711SOL    HW2 3033   6.452   1.599   4.620
  712SOL     OW 3034   1.158   3.705   1.699
  712SOL    HW1 3035   1.237   3.721   1.639
  712SOL    HW2 3036   1.183   3.729   1.793
  713SOL     OW 3037   3.684   2.874   2.620
  713SOL    HW1 3038   3.708   2.896   2.526
  713SOL    HW2 3039   3.585   2.865   2.628
  714SOL     OW 3040   5.863   4.295   5.114
  714SOL    HW1 3041   5.812   4.213   5.089
  714SOL    HW2 3042   5.883   4.293   5.212
  715SOL     OW 3043   4.082   6.360   6.129
  715SOL    HW1 3044   3.984   6.367   6.150
  715SOL    HW2 3045   4.135   6.382   6.211
  716SOL     OW 3046   0.421   5.041   1.651
  716SOL    HW1 3047   0.437   5.006   1.558
  716SOL    HW2 3048   0.506   5.076   1.688
  717SOL     OW 3049   6.113   3.571   6.832
  717SOL    HW1 3050   6.171   3.631   6.888
  717SOL    HW2 3051   6.024   3.561   6.876
  718SOL     OW 3052   3.522   3.183   6.264
  718SOL    HW1 3053   3.536   3.084   6.264
  718SOL    HW2 3054   3.572   3.224   6.340
  719SOL     OW 3055   6.841   3.404   1.279
  719SOL    HW1 3056   6.899   3.431   1.202
  719SOL    HW2 3057   6.833   3.305   1.282
  720SOL     OW 3058   2.232   1.961   6.091
  720SOL    HW1 3059   2.227   1.944   5.993
  720SOL    HW2 3060   2.150   2.011   6.120
  721SOL     OW 3061   1.858   0.275   5.721
  721SOL    HW1 3062   1.866   0.367   5.682
  721SOL    HW2 3063   1.843   0.209   5.647
  722SOL     OW 3064   3.912   0.186   4.530
  722SOL    HW1 3065   3.902   0.246   4.451
  722SOL    HW2 3066   4.008   0.180   4.556
  723SOL     OW 3067   1.908   2.540   2.199
  723SOL    HW1 3068   1.949   2.490   2.123
  723SOL    HW2 3069   1.970   2.540   2.277
  724SOL     OW 3070   0.343   1.167   4.711
  724SOL    HW1 3071   0.399   1.144   4.632
  724SOL    HW2 3072   0.304   1.083   4.750
  725SOL     OW 3073   2.364   4.930   2.560
  725SOL    HW1 3074   2.413   5.014   2.538
  725SOL    HW2 3075   2.429   4.854   2.567
  726SOL     OW 3076   3.083   5.931   0.011
  726SOL    HW1 3077   3.056   6.023   7.004
  726SOL    HW2 3078   3.177   5.913   7.001
  727SOL     OW 3079   3.467   5.447   4.410
  727SOL    HW1 3080   3.539   5.418   4.348
  727SOL    HW2 3081   3.381   5.401   4.385
  728SOL     OW 3082   0.164   3.804   5.060
  728SOL    HW1 3083   0.207   3.813   5.149
  728SOL    HW2 3084   0.229   3.764   4.995
  729SOL     OW 3085   2.165   0.867   0.595
  729SOL    HW1 3086   2.222   0.893   0.517
  729SOL    HW2 3087   2.103   0.942   0.617
  730SOL     OW 3088   5.819   0.486   3.676
  730SOL    HW1 3089   5.828   0.523   3.584
  730SOL    HW2 3090   5.772   0.397   3.672
  731SOL     OW 3091   5.331   3.190   4.648
  731SOL    HW1 3092   5.382   3.273   4.624
  731SOL    HW2 3093   5.394   3.113   4.656
  732SOL     OW 3094   0.253   2.808   1.022
  732SOL    HW1 3095   0.162   2.815   0.982
  732SOL    HW2 3096   0.277   2.712   1.035
  733SOL     OW 3097   4.844   3.794   3.836
  733SOL    HW1 3098   4.902   3.740   3.896
  733SOL    HW2 3099   4.809   3.736   3.762
  734SOL     OW 3100   6.698   4.225   1.399
  734SOL    HW1 3101   6.749   4.224   1.485
  734SOL    HW2 3102   6.753   4.181   1.327
  735SOL     OW 3103   1.421   3.510   0.050
  735SOL    HW1 3104   1.417   3.555   6.982
  735SOL    HW2 3105   1.343   3.539   0.106
  736SOL     OW 3106   6.887   0.417   3.225
  736SOL    HW1 3107   6.870   0.514   3.239
  736SOL    HW2 3108   6.821   0.362   3.276
  737SOL     OW 3109   5.032   3.551   1.219
  737SOL    HW1 3110   4.969   3.608   1.272
  737SOL    HW2 3111   4.981   3.501   1.149
  738SOL     OW 3112   6.975   3.875   4.303
  738SOL    HW1 3113   7.004   3.788   4.263
  738SOL    HW2 3114   0.001   3.950   4.257
  739SOL     OW 3115   4.167   6.428   5.589
  739SOL    HW1 3116   4.149   6.458   5.682
  739SOL    HW2 3117   4.214   6.500   5.539
  740SOL     OW 3118   5.830   0.017   1.207
  740SOL    HW1 3119   5.811   0.085   1.135
  740SOL    HW2 3120   5.766   6.961   1.197
  741SOL     OW 3121   1.590   6.680   2.992
  741SOL    HW1 3122   1.678   6.691   3.037
  741SOL    HW2 3123   1.561   6.584   2.996
  742SOL     OW 3124   1.204   6.567   3.574
  742SOL    HW1 3125   1.276   6.571   3.643
  742SOL    HW2 3126   1.191   6.472   3.545
  743SOL     OW 3127   1.640   4.257   4.378
  743SOL    HW1 3128   1.649   4.282   4.281
  743SOL    HW2 3129   1.582   4.324   4.424
  744SOL     OW 3130   6.789   5.935   0.240
  744SOL    HW1 3131   6.747   6.024   0.223
  744SOL    HW2 3132   6.717   5.867   0.255
  745SOL     OW 3133   1.157   5.696   2.825
  745SOL    HW1 3134   1.240   5.694   2.769
  745SOL    HW2 3135   1.087   5.638   2.783
  746SOL     OW 3136   0.958   7.011   5.112
  746SOL    HW1 3137   1.033   6.999   5.046
  746SOL    HW2 3138   0.876   0.019   5.063
  747SOL     OW 3139   4.718   4.695   3.319
  747SOL    HW1 3140   4.653   4.688   3.244
  747SOL    HW2 3141   4.807   4.724   3.284
  748SOL     OW 3142   4.202   3.910   0.644
  748SOL    HW1 3143   4.224   4.005   0.664
  748SOL    HW2 3144   4.126   3.906   0.579
  749SOL     OW 3145   0.340   1.986   4.935
  749SOL    HW1 3146   0.295   2.063   4.890
  749SOL    HW2 3147   0.273   1.914   4.954
  750SOL     OW 3148   2.065   3.317   0.410
  750SOL    HW1 3149   2.088   3.400   0.360
  750SOL    HW2 3150   1.975   3.284   0.380
  751SOL     OW 3151   4.508   1.085   0.619
  751SOL    HW1 3152   4.515   1.175   0.575
  751SOL    HW2 3153   4.576   1.023   0.580
  752SOL     OW 3154   4.146   2.478   1.724
  752SOL    HW1 3155   4.142   2.560   1.667
  752SOL    HW2 3156   4.075   2.414   1.696
  753SOL     OW 3157   1.838   3.372   4.953
  753SOL    HW1 3158   1.822   3.346   4.858
  753SOL    HW2 3159   1.815   3.469   4.965
  754SOL     OW 3160   4.731   4.079   6.510
  754SOL    HW1 3161   4.824   4.087   6.543
  754SOL    HW2 3162   4.703   4.165   6.467
  755SOL     OW 3163   0.567   5.667   6.851
  755SOL    HW1 3164   0.504   5.744   6.861
  755SOL    HW2 3165   0.593   5.659   6.754
  756SOL     OW 3166   5.057   0.375   1.632
  756SOL    HW1 3167   5.121   0.416   1.697
  756SOL    HW2 3168   5.045   0.436   1.554
  757SOL     OW 3169   0.490   6.592   3.951
  757SOL    HW1 3170   0.462   6.534   4.027
  757SOL    HW2 3171   0.410   6.615   3.895
  758SOL     OW 3172   3.492   2.454   1.301
  758SOL    HW1 3173   3.445   2.371   1.270
  758SOL    HW2 3174   3.430   2.508   1.358
  759SOL     OW 3175   1.078   1.532   0.042
  759SOL    HW1 3176   1.050   1.499   6.973
  759SOL    HW2 3177   1.176   1.522   0.053
  760SOL     OW 3178   5.345   1.690   0.109
  760SOL    HW1 3179   5.363   1.604   0.063
  760SOL    HW2 3180   5.349   1.765   0.043
  761SOL     OW 3181   6.135   2.834   0.440
  761SOL    HW1 3182   6.155   2.748   0.487
  761SOL    HW2 3183   6.220   2.885   0.428
  762SOL     OW 3184   2.611   5.946   3.391
  762SOL    HW1 3185   2.579   5.922   3.300
  762SOL    HW2 3186   2.532   5.964   3.450
  763SOL     OW 3187   4.211   5.872   0.060
  763SOL    HW1 3188   4.249   5.784   0.032
  763SOL    HW2 3189   4.222   5.938   7.006
  764SOL     OW 3190   3.071   1.474   2.596
  764SOL    HW1 3191   3.114   1.397   2.642
  764SOL    HW2 3192   3.113   1.488   2.506
  765SOL     OW 3193   0.424   6.455   2.140
  765SOL    HW1 3194   0.407   6.427   2.234
  765SOL    HW2 3195   0.455   6.550   2.138
  766SOL     OW 3196   6.907   0.085   6.636
  766SOL    HW1 3197   6.849   0.067   6.556
  766SOL    HW2 3198   6.993   0.035   6.626
  767SOL     OW 3199   0.197   6.250   2.082
  767SOL    HW1 3200   0.146   6.319   2.133
  767SOL    HW2 3201   0.138   6.172   2.063
  768SOL     OW 3202   2.683   0.469   2.490
  768SOL    HW1 3203   2.673   0.414   2.406
  768SOL    HW2 3204   2.778   0.465   2.521
  769SOL     OW 3205   4.124   0.213   4.876
  769SOL    HW1 3206   4.187   0.187   4.803
  769SOL    HW2 3207   4.105   0.133   4.933
  770SOL     OW 3208   3.272   5.089   3.913
  770SOL    HW1 3209   3.365   5.059   3.937
  770SOL    HW2 3210   3.208   5.013   3.927
  771SOL     OW 3211   2.044   5.539   3.169
  771SOL    HW1 3212   2.069   5.469   3.237
  771SOL    HW2 3213   2.119   5.551   3.104
  772SOL     OW 3214   6.885   4.206   0.023
  772SOL    HW1 3215   6.839   4.122   7.015
  772SOL    HW2 3216   6.852   4.283   6.989
  773SOL     OW 3217   0.249   2.816   3.631
  773SOL    HW1 3218   0.310   2.758   3.686
  773SOL    HW2 3219   0.178   2.854   3.690
  774SOL     OW 3220   1.642   1.627   2.057
  774SOL    HW1 3221   1.723   1.686   2.061
  774SOL    HW2 3222   1.572   1.670   2.001
  775SOL     OW 3223   1.242   1.785   3.798
  775SOL    HW1 3224   1.298   1.759   3.720
  775SOL    HW2 3225   1.159   1.830   3.766
  776SOL     OW 3226   1.746   7.006   6.151
  776SOL    HW1 3227   1.797   0.048   6.092
  776SOL    HW2 3228   1.734   6.919   6.104
  777SOL     OW 3229   4.407   1.097   1.281
  777SOL    HW1 3230   4.457   1.107   1.195
  777SOL    HW2 3231   4.432   1.011   1.325
  778SOL     OW 3232   4.346   0.748   3.610
  778SOL    HW1 3233   4.326   0.732   3.707
  778SOL    HW2 3234   4.284   0.818   3.575
  779SOL     OW 3235   0.875   2.235   1.960
  779SOL    HW1 3236   0.841   2.143   1.980
  779SOL    HW2 3237   0.916   2.274   2.042
  780SOL     OW 3238   6.303   2.650   4.167
  780SOL    HW1 3239   6.324   2.710   4.244
  780SOL    HW2 3240   6.386   2.603   4.138
  781SOL     OW 3241   6.636   1.061   6.384
  781SOL    HW1 3242   6.567   1.001   6.343
  781SOL    HW2 3243   6.590   1.126   6.444
  782SOL     OW 3244   0.669   3.160   0.987
  782SOL    HW1 3245   0.596   3.225   1.010
  782SOL    HW2 3246   0.686   3.164   0.888
  783SOL     OW 3247   2.513   5.333   0.625
  783SOL    HW1 3248   2.522   5.426   0.589
  783SOL    HW2 3249   2.493   5.337   0.723
  784SOL     OW 3250   4.140   0.331   5.301
  784SOL    HW1 3251   4.105   0.402   5.362
  784SOL    HW2 3252   4.238   0.344   5.287
  785SOL     OW 3253   6.232   1.981   2.534
  785SOL    HW1 3254   6.282   1.897   2.514
  785SOL    HW2 3255   6.144   1.980   2.486
  786SOL     OW 3256   6.984   0.120   0.411
  786SOL    HW1 3257   0.041   0.083   0.461
  786SOL    HW2 3258   6.911   0.144   0.475
  787SOL     OW 3259   2.429   1.418   6.198
  787SOL    HW1 3260   2.410   1.454   6.289
  787SOL    HW2 3261   2.395   1.324   6.192
  788SOL     OW 3262   2.086   3.846   4.783
  788SOL    HW1 3263   2.086   3.747   4.767
  788SOL    HW2 3264   2.080   3.894   4.695
  789SOL     OW 3265   5.655   4.043   1.614
  789SOL    HW1 3266   5.740   4.000   1.647
  789SOL    HW2 3267   5.596   4.064   1.692
  790SOL     OW 3268   2.092   1.521   4.183
  790SOL    HW1 3269   2.060   1.427   4.170
  790SOL    HW2 3270   2.093   1.542   4.281
  791SOL     OW 3271   4.034   0.797   4.080
  791SOL    HW1 3272   3.977   0.780   3.999
  791SOL    HW2 3273   4.078   0.886   4.072
  792SOL     OW 3274   6.208   0.476   2.130
  792SOL    HW1 3275   6.293   0.425   2.133
  792SOL    HW2 3276   6.189   0.516   2.220
  793SOL     OW 3277   5.150   6.718   1.037
  793SOL    HW1 3278   5.199   6.786   0.981
  793SOL    HW2 3279   5.210   6.640   1.054
  794SOL     OW 3280   2.529   4.913   5.554
  794SOL    HW1 3281   2.434   4.900   5.583
  794SOL    HW2 3282   2.534   4.908   5.454
  795SOL     OW 3283   3.890   5.136   6.001
  795SOL    HW1 3284   3.871   5.195   5.923
  795SOL    HW2 3285   3.871   5.041   5.976
  796SOL     OW 3286   0.330   2.119   5.516
  796SOL    HW1 3287   0.300   2.057   5.444
  796SOL    HW2 3288   0.306   2.081   5.605
  797SOL     OW 3289   5.533   2.170   3.340
  797SOL    HW1 3290   5.582   2.182   3.254
  797SOL    HW2 3291   5.445   2.217   3.336
  798SOL     OW 3292   4.852   0.257   0.558
  798SOL    HW1 3293   4.892   0.290   0.473
  798SOL    HW2 3294   4.761   0.295   0.569
  799SOL     OW 3295   6.424   1.921   3.100
  799SOL    HW1 3296   6.325   1.931   3.111
  799SOL    HW2 3297   6.468   2.010   3.115
  800SOL     OW 3298   5.171   1.007   2.359
  800SOL    HW1 3299   5.227   0.937   2.316
  800SOL    HW2 3300   5.149   0.980   2.453
  801SOL     OW 3301   1.376   2.316   3.659
  801SOL    HW1 3302   1.470   2.283   3.649
  801SOL    HW2 3303   1.349   2.368   3.577
  802SOL     OW 3304   5.378   2.199   6.983
  802SOL    HW1 3305   5.401   2.196   0.059
  802SOL    HW2 3306   5.440   2.138   6.933
  803SOL     OW 3307   6.067   5.643   4.093
  803SOL    HW1 3308   5.992   5.583   4.124
  803SOL    HW2 3309   6.051   5.736   4.127
  804SOL     OW 3310   0.054   6.758   0.475
  804SOL    HW1 3311   0.056   6.765   0.376
  804SOL    HW2 3312   6.997   6.703   0.504
  805SOL     OW 3313   3.810   2.548   5.860
  805SOL    HW1 3314   3.809   2.552   5.960
  805SOL    HW2 3315   3.745   2.614   5.823
  806SOL     OW 3316   4.609   1.445   6.454
  806SOL    HW1 3317   4.702   1.424   6.422
  806SOL    HW2 3318   4.598   1.414   6.548
  807SOL     OW 3319   0.655   0.608   3.575
  807SOL    HW1 3320   0.602   0.590   3.657
  807SOL    HW2 3321   0.689   0.522   3.537
  808SOL     OW 3322   5.462   2.585   5.769
  808SOL    HW1 3323   5.433   2.553   5.679
  808SOL    HW2 3324   5.542   2.533   5.798
  809SOL     OW 3325   1.277   4.761   1.276
  809SOL    HW1 3326   1.254   4.728   1.368
  809SOL    HW2 3327   1.224   4.844   1.257
  810SOL     OW 3328   4.691   3.679   0.906
  810SOL    HW1 3329   4.647   3.643   0.824
  810SOL    HW2 3330   4.790   3.663   0.901
  811SOL     OW 3331   4.878   5.332   3.288
  811SOL    HW1 3332   4.951   5.396   3.312
  811SOL    HW2 3333   4.911   5.270   3.216
  812SOL     OW 3334   0.074   0.445   1.402
  812SOL    HW1 3335   0.041   0.480   1.314
  812SOL    HW2 3336   0.149   0.381   1.387
  813SOL     OW 3337   4.086   6.033   3.446
  813SOL    HW1 3338   4.135   5.948   3.468
  813SOL    HW2 3339   3.997   6.032   3.491
  814SOL     OW 3340   5.554   6.495   2.170
  814SOL    HW1 3341   5.457   6.481   2.153
  814SOL    HW2 3342   5.566   6.558   2.247
  815SOL     OW 3343   6.310   2.667   1.260
  815SOL    HW1 3344   6.361   2.752   1.251
  815SOL    HW2 3345   6.219   2.687   1.297
  816SOL     OW 3346   6.881   6.848   0.696
  816SOL    HW1 3347   6.905   6.937   0.735
  816SOL    HW2 3348   6.906   6.846   0.600
  817SOL     OW 3349   1.399   3.592   1.865
  817SOL    HW1 3350   1.425   3.632   1.953
  817SOL    HW2 3351   1.472   3.608   1.799
  818SOL     OW 3352   5.993   2.161   0.964
  818SOL    HW1 3353   6.020   2.072   1.001
  818SOL    HW2 3354   6.067   2.199   0.909
  819SOL     OW 3355   6.511   2.074   3.839
  819SOL    HW1 3356   6.540   2.143   3.772
  819SOL    HW2 3357   6.442   2.015   3.799
  820SOL     OW 3358   0.910   2.733   4.471
  820SOL    HW1 3359   0.848   2.682   4.411
  820SOL    HW2 3360   0.976   2.784   4.415
  821SOL     OW 3361   1.616   3.987   0.760
  821SOL    HW1 3362   1.536   4.019   0.710
  821SOL    HW2 3363   1.590   3.913   0.821
  822SOL     OW 3364   0.514   4.034   5.006
  822SOL    HW1 3365   0.472   4.053   4.917
  822SOL    HW2 3366   0.596   3.979   4.993
  823SOL     OW 3367   5.474   3.771   6.035
  823SOL    HW1 3368   5.513   3.718   5.959
  823SOL    HW2 3369   5.459   3.865   6.006
  824SOL     OW 3370   4.639   1.833   5.108
  824SOL    HW1 3371   4.612   1.908   5.048
  824SOL    HW2 3372   4.709   1.778   5.064
  825SOL     OW 3373   2.148   3.184   1.991
  825SOL    HW1 3374   2.191   3.274   2.000
  825SOL    HW2 3375   2.175   3.126   2.067
  826SOL     OW 3376   5.531   3.408   0.076
  826SOL    HW1 3377   5.625   3.422   0.107
  826SOL    HW2 3378   5.521   3.316   0.038
  827SOL     OW 3379   3.404   5.416   6.918
  827SOL    HW1 3380   3.458   5.335   6.897
  827SOL    HW2 3381   3.457   5.476   6.978
  828SOL     OW 3382   6.162   0.758   5.300
  828SOL    HW1 3383   6.200   0.680   5.350
  828SOL    HW2 3384   6.126   0.825   5.365
  829SOL     OW 3385   3.104   3.158   4.116
  829SOL    HW1 3386   3.192   3.199   4.089
  829SOL    HW2 3387   3.036   3.230   4.126
  830SOL     OW 3388   4.552   4.518   5.716
  830SOL    HW1 3389   4.645   4.492   5.742
  830SOL    HW2 3390   4.488   4.444   5.738
  831SOL     OW 3391   6.179   0.395   5.008
  831SOL    HW1 3392   6.176   0.393   5.108
  831SOL    HW2 3393   6.257   0.450   4.978
  832SOL     OW 3394   1.868   1.607   0.057
  832SOL    HW1 3395   1.959   1.576   0.030
  832SOL    HW2 3396   1.812   1.619   6.996
  833SOL     OW 3397   6.836   6.499   6.117
  833SOL    HW1 3398   6.844   6.459   6.026
  833SOL    HW2 3399   6.907   6.569   6.129
  834SOL     OW 3400   3.344   3.257   4.004
  834SOL    HW1 3401   3.328   3.355   4.018
  834SOL    HW2 3402   3.384   3.241   3.914
  835SOL     OW 3403   3.492   6.107   3.765
  835SOL    HW1 3404   3.477   6.026   3.709
  835SOL    HW2 3405   3.582   6.147   3.744
  836SOL     OW 3406   3.336   0.087   7.017
  836SOL    HW1 3407   3.269   0.018   0.025
  836SOL    HW2 3408   3.422   0.042   6.993
  837SOL     OW 3409   5.449   0.044   6.915
  837SOL    HW1 3410   5.440   0.009   6.822
  837SOL    HW2 3411   5.400   7.004   6.978
  838SOL     OW 3412   1.444   6.281   4.332
  838SOL    HW1 3413   1.445   6.252   4.428
  838SOL    HW2 3414   1.412   6.205   4.275
  839SOL     OW 3415   2.795   1.480   3.812
  839SOL    HW1 3416   2.715   1.524   3.851
  839SOL    HW2 3417   2.869   1.479   3.878
  840SOL     OW 3418   0.852   0.916   6.641
  840SOL    HW1 3419   0.841   0.974   6.560
  840SOL    HW2 3420   0.868   0.821   6.612
  841SOL     OW 3421   6.785   3.608   6.913
  841SOL    HW1 3422   6.797   3.509   6.906
  841SOL    HW2 3423   6.838   3.643   6.990
  842SOL     OW 3424   3.662   5.377   3.303
  842SOL    HW1 3425   3.741   5.369   3.365
  842SOL    HW2 3426   3.630   5.472   3.302
  843SOL     OW 3427   6.194   2.315   1.892
  843SOL    HW1 3428   6.140   2.310   1.808
  843SOL    HW2 3429   6.262   2.242   1.893
  844SOL     OW 3430   5.235   5.971   0.333
  844SOL    HW1 3431   5.214   5.909   0.409
  844SOL    HW2 3432   5.159   6.036   0.321
  845SOL     OW 3433   6.570   3.856   4.912
  845SOL    HW1 3434   6.518   3.892   4.834
  845SOL    HW2 3435   6.508   3.837   4.988
  846SOL     OW 3436   5.748   1.092   0.020
  846SOL    HW1 3437   5.732   1.147   0.102
  846SOL    HW2 3438   5.671   1.030   0.005
  847SOL     OW 3439   6.496   3.196   0.853
  847SOL    HW1 3440   6.420   3.186   0.789
  847SOL    HW2 3441   6.562   3.123   0.839
  848SOL     OW 3442   6.561   0.195   5.775
  848SOL    HW1 3443   6.595   0.127   5.840
  848SOL    HW2 3444   6.638   0.231   5.722
  849SOL     OW 3445   0.410   5.589   4.815
  849SOL    HW1 3446   0.484   5.655   4.831
  849SOL    HW2 3447   0.366   5.610   4.728
  850SOL     OW 3448   4.346   1.396   3.626
  850SOL    HW1 3449   4.355   1.480   3.572
  850SOL    HW2 3450   4.426   1.338   3.611
  851SOL     OW 3451   0.390   1.366   0.268
  851SOL    HW1 3452   0.444   1.450   0.272
  851SOL    HW2 3453   0.298   1.383   0.304
  852SOL     OW 3454   2.364   3.183   6.596
  852SOL    HW1 3455   2.274   3.202   6.637
  852SOL    HW2 3456   2.410   3.112   6.648
  853SOL     OW 3457   0.974   2.630   1.967
  853SOL    HW1 3458   1.043   2.565   1.935
  853SOL    HW2 3459   0.963   2.703   1.899
  854SOL     OW 3460   5.497   5.704   2.624
  854SOL    HW1 3461   5.497   5.794   2.666
  854SOL    HW2 3462   5.590   5.680   2.597
  855SOL     OW 3463   6.207   0.155   1.608
  855SOL    HW1 3464   6.277   0.099   1.562
  855SOL    HW2 3465   6.116   0.127   1.577
  856SOL     OW 3466   1.978   6.259   5.320
  856SOL    HW1 3467   1.951   6.190   5.388
  856SOL    HW2 3468   2.074   6.283   5.334
  857SOL     OW 3469   6.545   3.608   0.890
  857SOL    HW1 3470   6.532   3.539   0.961
  857SOL    HW2 3471   6.592   3.687   0.928
  858SOL     OW 3472   3.012   4.773   1.871
  858SOL    HW1 3473   2.961   4.834   1.930
  858SOL    HW2 3474   2.962   4.687   1.861
  859SOL     OW 3475   0.115   4.947   6.532
  859SOL    HW1 3476   0.098   5.018   6.464
  859SOL    HW2 3477   0.133   4.988   6.621
  860SOL     OW 3478   3.187   4.302   0.560
  860SOL    HW1 3479   3.275   4.291   0.604
  860SOL    HW2 3480   3.138   4.379   0.601
  861SOL     OW 3481   2.663   5.872   5.441
  861SOL    HW1 3482   2.598   5.826   5.381
  861SOL    HW2 3483   2.675   5.967   5.411
  862SOL     OW 3484   5.175   4.625   4.923
  862SOL    HW1 3485   5.145   4.689   4.852
  862SOL    HW2 3486   5.249   4.569   4.888
  863SOL     OW 3487   0.337   1.306   0.956
  863SOL    HW1 3488   0.412   1.361   0.992
  863SOL    HW2 3489   0.345   1.300   0.856
  864SOL     OW 3490   5.310   4.662   2.359
  864SOL    HW1 3491   5.405   4.641   2.337
  864SOL    HW2 3492   5.305   4.700   2.452
  865SOL     OW 3493   1.584   6.980   4.048
  865SOL    HW1 3494   1.551   0.048   4.078
  865SOL    HW2 3495   1.525   6.946   3.974
  866SOL     OW 3496   3.382   2.117   1.913
  866SOL    HW1 3497   3.480   2.135   1.927
  866SOL    HW2 3498   3.347   2.179   1.843
  867SOL     OW 3499   2.774   2.760   6.674
  867SOL    HW1 3500   2.740   2.668   6.657
  867SOL    HW2 3501   2.819   2.795   6.591
  868SOL     OW 3502   6.042   0.569   3.022
  868SOL    HW1 3503   6.125   0.525   2.988
  868SOL    HW2 3504   6.067   0.653   3.071
  869SOL     OW 3505   5.694   6.168   1.703
  869SOL    HW1 3506   5.635   6.249   1.697
  869SOL    HW2 3507   5.724   6.156   1.798
  870SOL     OW 3508   6.935   2.686   1.747
  870SOL    HW1 3509   7.015   2.627   1.759
  870SOL    HW2 3510   6.909   2.688   1.651
  871SOL     OW 3511   5.655   2.684   1.833
  871SOL    HW1 3512   5.673   2.739   1.914
  871SOL    HW2 3513   5.685   2.590   1.850
  872SOL     OW 3514   6.490   2.477   4.019
  872SOL    HW1 3515   6.584   2.506   4.038
  872SOL    HW2 3516   6.481   2.380   4.039
  873SOL     OW 3517   3.158   6.974   3.749
  873SOL    HW1 3518   3.150   0.053   3.739
  873SOL    HW2 3519   3.144   6.950   3.845
  874SOL     OW 3520   1.708   4.405   5.223
  874SOL    HW1 3521   1.725   4.306   5.219
  874SOL    HW2 3522   1.714   4.444   5.132
  875SOL     OW 3523   5.366   3.736   7.020
  875SOL    HW1 3524   5.408   3.754   0.088
  875SOL    HW2 3525   5.285   3.679   0.011
  876SOL     OW 3526   6.894   3.212   2.986
  876SOL    HW1 3527   6.842   3.171   2.911
  876SOL    HW2 3528   6.975   3.256   2.950
  877SOL     OW 3529   5.154   5.368   6.908
  877SOL    HW1 3530   5.204   5.446   6.871
  877SOL    HW2 3531   5.118   5.312   6.833
  878SOL     OW 3532   2.335   5.093   0.757
  878SOL    HW1 3533   2.335   5.089   0.657
  878SOL    HW2 3534   2.392   5.170   0.786
  879SOL     OW 3535   4.170   2.190   2.602
  879SOL    HW1 3536   4.087   2.182   2.547
  879SOL    HW2 3537   4.232   2.256   2.559
  880SOL     OW 3538   3.499   5.204   0.833
  880SOL    HW1 3539   3.525   5.191   0.928
  880SOL    HW2 3540   3.537   5.130   0.778
  881SOL     OW 3541   3.873   5.049   4.518
  881SOL    HW1 3542   3.929   4.969   4.543
  881SOL    HW2 3543   3.799   5.020   4.458
  882SOL     OW 3544   1.512   0.581   4.824
  882SOL    HW1 3545   1.472   0.525   4.751
  882SOL    HW2 3546   1.471   0.672   4.821
  883SOL     OW 3547   3.063   5.290   6.612
  883SOL    HW1 3548   3.046   5.286   6.513
  883SOL    HW2 3549   3.157   5.263   6.631
  884SOL     OW 3550   5.807   3.309   1.281
  884SOL    HW1 3551   5.715   3.348   1.284
  884SOL    HW2 3552   5.867   3.361   1.342
  885SOL     OW 3553   5.830   5.865   0.374
  885SOL    HW1 3554   5.821   5.922   0.292
  885SOL    HW2 3555   5.740   5.850   0.414
  886SOL     OW 3556   4.371   1.203   6.987
  886SOL    HW1 3557   4.333   1.185   6.896
  886SOL    HW2 3558   4.298   1.237   0.025
  887SOL     OW 3559   4.038   0.079   5.813
  887SOL    HW1 3560   4.051   7.009   5.773
  887SOL    HW2 3561   4.101   0.091   5.890
  888SOL     OW 3562   6.296   6.126   3.089
  888SOL    HW1 3563   6.303   6.122   3.188
  888SOL    HW2 3564   6.348   6.051   3.048
  889SOL     OW 3565   0.540   6.472   5.125
  889SOL    HW1 3566   0.545   6.512   5.217
  889SOL    HW2 3567   0.618   6.502   5.071
  890SOL     OW 3568   2.704   4.699   2.212
  890SOL    HW1 3569   2.621   4.750   2.190
  890SOL    HW2 3570   2.722   4.632   2.141
  891SOL     OW 3571   5.197   2.814   0.277
  891SOL    HW1 3572   5.141   2.765   0.344
  891SOL    HW2 3573   5.186   2.913   0.290
  892SOL     OW 3574   2.902   4.017   0.862
  892SOL    HW1 3575   2.855   3.972   0.938
  892SOL    HW2 3576   2.896   4.117   0.873
  893SOL     OW 3577   1.378   0.708   0.202
  893SOL    HW1 3578   1.473   0.714   0.173
  893SOL    HW2 3579   1.327   0.649   0.139
  894SOL     OW 3580   1.367   5.737   4.386
  894SOL    HW1 3581   1.290   5.728   4.323
  894SOL    HW2 3582   1.411   5.825   4.373
  895SOL     OW 3583   2.025   0.366   4.376
  895SOL    HW1 3584   2.114   0.341   4.416
  895SOL    HW2 3585   1.966   0.402   4.448
  896SOL     OW 3586   5.884   6.574   2.963
  896SOL    HW1 3587   5.788   6.602   2.973
  896SOL    HW2 3588   5.918   6.539   3.051
  897SOL     OW 3589   4.747   2.562   6.798
  897SOL    HW1 3590   4.661   2.568   6.747
  897SOL    HW2 3591   4.802   2.487   6.762
  898SOL     OW 3592   5.730   6.248   3.008
  898SOL    HW1 3593   5.753   6.265   2.913
  898SOL    HW2 3594   5.636   6.278   3.026
  899SOL     OW 3595   0.265   4.583   6.256
  899SOL    HW1 3596   0.243   4.616   6.348
  899SOL    HW2 3597   0.364   4.588   6.242
  900SOL     OW 3598   0.435   6.121   3.629
  900SOL    HW1 3599   0.387   6.142   3.543
  900SOL    HW2 3600   0.528   6.157   3.624
  901SOL     OW 3601   6.011   1.179   4.223
  901SOL    HW1 3602   6.079   1.106   4.234
  901SOL    HW2 3603   5.976   1.206   4.312
  902SOL     OW 3604   0.489   6.547   0.257
  902SOL    HW1 3605   0.472   6.593   0.170
  902SOL    HW2 3606   0.581   6.569   0.289
  903SOL     OW 3607   0.522   5.059   0.494
  903SOL    HW1 3608   0.465   5.141   0.505
  903SOL    HW2 3609   0.556   5.055   0.400
  904SOL     OW 3610   1.962   1.550   3.502
  904SOL    HW1 3611   2.039   1.592   3.551
  904SOL    HW2 3612   1.917   1.483   3.562
  905SOL     OW 3613   5.288   1.396   5.489
  905SOL    HW1 3614   5.210   1.449   5.455
  905SOL    HW2 3615   5.259   1.303   5.509
  906SOL     OW 3616   0.030   3.802   5.759
  906SOL    HW1 3617   0.076   3.816   5.672
  906SOL    HW2 3618   7.014   3.889   5.792
  907SOL     OW 3619   5.902   2.242   2.340
  907SOL    HW1 3620   5.877   2.338   2.333
  907SOL    HW2 3621   5.964   2.217   2.266
  908SOL     OW 3622   1.815   0.506   4.021
  908SOL    HW1 3623   1.859   0.570   4.085
  908SOL    HW2 3624   1.843   0.413   4.042
  909SOL     OW 3625   3.955   1.407   1.592
  909SOL    HW1 3626   3.967   1.310   1.610
  909SOL    HW2 3627   4.005   1.433   1.510
  910SOL     OW 3628   2.261   1.229   0.690
  910SOL    HW1 3629   2.348   1.276   0.671
  910SOL    HW2 3630   2.275   1.160   0.761
  911SOL     OW 3631   0.649   4.529   1.756
  911SOL    HW1 3632   0.556   4.558   1.780
  911SOL    HW2 3633   0.684   4.470   1.828
  912SOL     OW 3634   0.587   6.895   5.679
  912SOL    HW1 3635   0.639   6.966   5.726
  912SOL    HW2 3636   0.499   6.933   5.649
  913SOL     OW 3637   3.468   0.842   2.496
  913SOL    HW1 3638   3.437   0.853   2.402
  913SOL    HW2 3639   3.460   0.746   2.523
  914SOL     OW 3640   2.798   5.965   2.807
  914SOL    HW1 3641   2.835   5.922   2.725
  914SOL    HW2 3642   2.867   6.026   2.846
  915SOL     OW 3643   0.969   2.557   0.691
  915SOL    HW1 3644   0.922   2.507   0.618
  915SOL    HW2 3645   0.993   2.494   0.765
  916SOL     OW 3646   2.129   2.722   2.848
  916SOL    HW1 3647   2.069   2.691   2.774
  916SOL    HW2 3648   2.209   2.663   2.853
  917SOL     OW 3649   4.255   1.785   0.950
  917SOL    HW1 3650   4.155   1.789   0.946
  917SOL    HW2 3651   4.286   1.805   1.043
  918SOL     OW 3652   2.310   6.675   6.244
  918SOL    HW1 3653   2.401   6.673   6.203
  918SOL    HW2 3654   2.266   6.763   6.225
  919SOL     OW 3655   1.674   6.258   2.307
  919SOL    HW1 3656   1.627   6.188   2.361
  919SOL    HW2 3657   1.655   6.243   2.210
  920SOL     OW 3658   2.661   0.816   4.277
  920SOL    HW1 3659   2.704   0.728   4.262
  920SOL    HW2 3660   2.568   0.815   4.240
  921SOL     OW 3661   5.894   5.016   4.268
  921SOL    HW1 3662   5.891   5.035   4.170
  921SOL    HW2 3663   5.988   5.018   4.301
  922SOL     OW 3664   3.118   3.380   0.187
  922SOL    HW1 3665   3.212   3.392   0.154
  922SOL    HW2 3666   3.088   3.287   0.168
  923SOL     OW 3667   3.142   0.114   6.601
  923SOL    HW1 3668   3.084   0.056   6.543
  923SOL    HW2 3669   3.141   0.208   6.566
  924SOL     OW 3670   5.690   3.472   2.346
  924SOL    HW1 3671   5.727   3.383   2.372
  924SOL    HW2 3672   5.595   3.479   2.377
  925SOL     OW 3673   0.139   1.695   4.216
  925SOL    HW1 3674   0.105   1.739   4.298
  925SOL    HW2 3675   0.234   1.720   4.201
  926SOL     OW 3676   5.438   5.847   0.636
  926SOL    HW1 3677   5.466   5.903   0.558
  926SOL    HW2 3678   5.346   5.812   0.621
  927SOL     OW 3679   4.001   4.870   4.217
  927SOL    HW1 3680   3.986   4.966   4.193
  927SOL    HW2 3681   3.970   4.812   4.141
  928SOL     OW 3682   2.258   1.095   1.545
  928SOL    HW1 3683   2.316   1.174   1.525
  928SOL    HW2 3684   2.273   1.066   1.640
  929SOL     OW 3685   0.033   2.570   3.229
  929SOL    HW1 3686   0.106   2.581   3.161
  929SOL    HW2 3687   0.069   2.594   3.320
  930SOL     OW 3688   4.800   5.193   4.297
  930SOL    HW1 3689   4.812   5.104   4.254
  930SOL    HW2 3690   4.886   5.222   4.340
  931SOL     OW 3691   1.244   2.471   2.783
  931SOL    HW1 3692   1.328   2.446   2.831
  931SOL    HW2 3693   1.182   2.519   2.845
  932SOL     OW 3694   4.576   6.797   0.760
  932SOL    HW1 3695   4.605   6.890   0.737
  932SOL    HW2 3696   4.478   6.797   0.782
  933SOL     OW 3697   1.603   6.045   3.297
  933SOL    HW1 3698   1.582   6.115   3.228
  933SOL    HW2 3699   1.636   6.090   3.380
  934SOL     OW 3700   3.181   1.388   5.420
  934SOL    HW1 3701   3.167   1.289   5.429
  934SOL    HW2 3702   3.147   1.434   5.502
  935SOL     OW 3703   3.660   3.510   5.908
  935SOL    HW1 3704   3.656   3.516   6.008
  935SOL    HW2 3705   3.630   3.597   5.869
  936SOL     OW 3706   0.869   0.767   1.028
  936SOL    HW1 3707   0.860   0.807   0.937
  936SOL    HW2 3708   0.927   0.826   1.085
  937SOL     OW 3709   4.189   1.872   4.539
  937SOL    HW1 3710   4.272   1.829   4.504
  937SOL    HW2 3711   4.209   1.966   4.566
  938SOL     OW 3712   0.586   3.131   6.806
  938SOL    HW1 3713   0.656   3.060   6.797
  938SOL    HW2 3714   0.515   3.099   6.868
  939SOL     OW 3715   5.655   1.537   5.589
  939SOL    HW1 3716   5.597   1.495   5.518
  939SOL    HW2 3717   5.687   1.466   5.652
  940SOL     OW 3718   6.885   1.590   3.781
  940SOL    HW1 3719   6.974   1.555   3.752
  940SOL    HW2 3720   6.879   1.688   3.761
  941SOL     OW 3721   5.321   1.916   4.498
  941SOL    HW1 3722   5.353   1.825   4.472
  941SOL    HW2 3723   5.386   1.985   4.464
  942SOL     OW 3724   5.363   6.653   5.711
  942SOL    HW1 3725   5.363   6.730   5.776
  942SOL    HW2 3726   5.447   6.600   5.721
  943SOL     OW 3727   5.688   1.723   1.241
  943SOL    HW1 3728   5.619   1.659   1.206
  943SOL    HW2 3729   5.643   1.805   1.275
  944SOL     OW 3730   5.372   4.041   4.000
  944SOL    HW1 3731   5.410   4.123   3.956
  944SOL    HW2 3732   5.369   3.967   3.933
  945SOL     OW 3733   5.412   4.425   4.410
  945SOL    HW1 3734   5.443   4.390   4.321
  945SOL    HW2 3735   5.313   4.413   4.418
  946SOL     OW 3736   5.918   2.553   5.772
  946SOL    HW1 3737   5.858   2.610   5.716
  946SOL    HW2 3738   5.901   2.572   5.869
  947SOL     OW 3739   2.203   2.746   5.834
  947SOL    HW1 3740   2.217   2.657   5.878
  947SOL    HW2 3741   2.279   2.807   5.858
  948SOL     OW 3742   3.994   1.686   0.401
  948SOL    HW1 3743   3.978   1.766   0.344
  948SOL    HW2 3744   4.092   1.665   0.402
  949SOL     OW 3745   6.235   5.604   6.324
  949SOL    HW1 3746   6.254   5.546   6.402
  949SOL    HW2 3747   6.256   5.699   6.347
  950SOL     OW 3748   4.702   5.562   1.103
  950SOL    HW1 3749   4.703   5.637   1.170
  950SOL    HW2 3750   4.794   5.525   1.094
  951SOL     OW 3751   1.105   1.232   2.104
  951SOL    HW1 3752   1.082   1.180   2.187
  951SOL    HW2 3753   1.141   1.321   2.131
  952SOL     OW 3754   5.702   0.731   3.339
  952SOL    HW1 3755   5.752   0.646   3.328
  952SOL    HW2 3756   5.622   0.715   3.397
  953SOL     OW 3757   4.217   6.436   6.361
  953SOL    HW1 3758   4.183   6.403   6.449
  953SOL    HW2 3759   4.317   6.434   6.361
  954SOL     OW 3760   6.537   0.440   1.131
  954SOL    HW1 3761   6.483   0.524   1.139
  954SOL    HW2 3762   6.578   0.436   1.040
  955SOL     OW 3763   0.790   6.089   2.553
  955SOL    HW1 3764   0.769   6.184   2.532
  955SOL    HW2 3765   0.722   6.052   2.615
  956SOL     OW 3766   1.903   2.151   0.998
  956SOL    HW1 3767   1.971   2.096   0.950
  956SOL    HW2 3768   1.829   2.092   1.031
  957SOL     OW 3769   1.606   5.416   4.336
  957SOL    HW1 3770   1.566   5.423   4.427
  957SOL    HW2 3771   1.706   5.423   4.343
  958SOL     OW 3772   4.720   2.608   1.633
  958SOL    HW1 3773   4.622   2.594   1.645
  958SOL    HW2 3774   4.770   2.553   1.701
  959SOL     OW 3775   2.542   4.919   3.238
  959SOL    HW1 3776   2.622   4.923   3.298
  959SOL    HW2 3777   2.474   4.858   3.277
  960SOL     OW 3778   1.982   5.726   4.667
  960SOL    HW1 3779   1.978   5.803   4.731
  960SOL    HW2 3780   1.905   5.664   4.684
  961SOL     OW 3781   4.419   6.713   1.856
  961SOL    HW1 3782   4.450   6.618   1.845
  961SOL    HW2 3783   4.489   6.764   1.907
  962SOL     OW 3784   1.759   0.539   3.574
  962SOL    HW1 3785   1.669   0.562   3.611
  962SOL    HW2 3786   1.750   0.474   3.499
  963SOL     OW 3787   6.798   0.607   1.292
  963SOL    HW1 3788   6.756   0.692   1.260
  963SOL    HW2 3789   6.739   0.564   1.361
  964SOL     OW 3790   5.203   3.698   1.049
  964SOL    HW1 3791   5.151   3.648   1.119
  964SOL    HW2 3792   5.217   3.792   1.078
  965SOL     OW 3793   0.023   2.327   0.400
  965SOL    HW1 3794   0.095   2.283   0.454
  965SOL    HW2 3795   0.064   2.391   0.335
  966SOL     OW 3796   6.654   2.060   2.428
  966SOL    HW1 3797   6.584   2.115   2.383
  966SOL    HW2 3798   6.690   1.993   2.363
  967SOL     OW 3799   1.253   5.561   1.231
  967SOL    HW1 3800   1.242   5.600   1.140
  967SOL    HW2 3801   1.186   5.601   1.293
  968SOL     OW 3802   5.023   2.724   2.434
  968SOL    HW1 3803   5.062   2.645   2.481
  968SOL    HW2 3804   5.050   2.721   2.337
  969SOL     OW 3805   4.654   5.905   5.836
  969SOL    HW1 3806   4.586   5.961   5.884
  969SOL    HW2 3807   4.719   5.965   5.790
  970SOL     OW 3808   4.342   2.250   5.254
  970SOL    HW1 3809   4.292   2.313   5.195
  970SOL    HW2 3810   4.302   2.159   5.248
  971SOL     OW 3811   6.719   1.995   1.779
  971SOL    HW1 3812   6.654   2.051   1.727
  971SOL    HW2 3813   6.744   1.915   1.724
  972SOL     OW 3814   6.607   5.713   0.621
  972SOL    HW1 3815   6.515   5.687   0.593
  972SOL    HW2 3816   6.673   5.678   0.554
  973SOL     OW 3817   6.280   4.777   5.673
  973SOL    HW1 3818   6.318   4.707   5.733
  973SOL    HW2 3819   6.237   4.734   5.594
  974SOL     OW 3820   2.758   1.062   3.569
  974SOL    HW1 3821   2.756   0.962   3.578
  974SOL    HW2 3822   2.752   1.103   3.660
  975SOL     OW 3823   3.181   5.978   6.204
  975SOL    HW1 3824   3.207   5.881   6.212
  975SOL    HW2 3825   3.096   5.986   6.153
  976SOL     OW 3826   6.919   3.021   3.422
  976SOL    HW1 3827   6.823   3.010   3.449
  976SOL    HW2 3828   6.928   3.010   3.323
  977SOL     OW 3829   1.523   1.197   4.000
  977SOL    HW1 3830   1.615   1.204   3.962
  977SOL    HW2 3831   1.515   1.257   4.080
  978SOL     OW 3832   5.398   4.331   4.672
  978SOL    HW1 3833   5.398   4.381   4.585
  978SOL    HW2 3834   5.394   4.233   4.654
  979SOL     OW 3835   5.939   1.081   3.104
  979SOL    HW1 3836   6.009   1.037   3.048
  979SOL    HW2 3837   5.961   1.069   3.201
  980SOL     OW 3838   5.495   2.327   4.345
  980SOL    HW1 3839   5.488   2.228   4.357
  980SOL    HW2 3840   5.458   2.374   4.425
  981SOL     OW 3841   1.156   1.988   4.723
  981SOL    HW1 3842   1.164   1.907   4.666
  981SOL    HW2 3843   1.109   2.060   4.671
  982SOL     OW 3844   0.738   2.414   1.779
  982SOL    HW1 3845   0.688   2.476   1.839
  982SOL    HW2 3846   0.787   2.346   1.833
  983SOL     OW 3847   6.158   1.808   2.856
  983SOL    HW1 3848   6.205   1.732   2.901
  983SOL    HW2 3849   6.187   1.814   2.760
  984SOL     OW 3850   4.852   1.125   4.884
  984SOL    HW1 3851   4.946   1.157   4.868
  984SOL    HW2 3852   4.854   1.028   4.910
  985SOL     OW 3853   2.931   5.462   1.019
  985SOL    HW1 3854   2.918   5.561   1.032
  985SOL    HW2 3855   2.844   5.415   1.033
  986SOL     OW 3856   4.692   4.861   6.522
  986SOL    HW1 3857   4.613   4.907   6.482
  986SOL    HW2 3858   4.754   4.832   6.449
  987SOL     OW 3859   3.277   6.664   2.004
  987SOL    HW1 3860   3.280   6.752   2.052
  987SOL    HW2 3861   3.274   6.679   1.906
  988SOL     OW 3862   4.103   2.955   0.549
  988SOL    HW1 3863   4.144   2.967   0.640
  988SOL    HW2 3864   4.175   2.955   0.480
  989SOL     OW 3865   0.329   0.040   5.696
  989SOL    HW1 3866   0.381   0.057   5.779
  989SOL    HW2 3867   0.265   0.116   5.681
  990SOL     OW 3868   4.438   0.495   4.060
  990SOL    HW1 3869   4.517   0.435   4.056
  990SOL    HW2 3870   4.397   0.491   4.152
  991SOL     OW 3871   0.761   1.973   4.600
  991SOL    HW1 3872   0.850   1.999   4.638
  991SOL    HW2 3873   0.696   1.955   4.674
  992SOL     OW 3874   0.505   3.412   0.112
  992SOL    HW1 3875   0.539   3.430   0.019
  992SOL    HW2 3876   0.406   3.422   0.113
  993SOL     OW 3877   2.914   4.869   2.745
  993SOL    HW1 3878   3.012   4.847   2.748
  993SOL    HW2 3879   2.872   4.824   2.666
  994SOL     OW 3880   3.395   2.900   2.606
  994SOL    HW1 3881   3.319   2.939   2.659
  994SOL    HW2 3882   3.375   2.909   2.509
  995SOL     OW 3883   1.575   2.498   6.063
  995SOL    HW1 3884   1.605   2.507   5.968
  995SOL    HW2 3885   1.607   2.411   6.100
  996SOL     OW 3886   2.159   3.741   2.726
  996SOL    HW1 3887   2.161   3.776   2.633
  996SOL    HW2 3888   2.136   3.643   2.725
  997SOL     OW 3889   0.761   0.758   1.307
  997SOL    HW1 3890   0.778   0.757   1.208
  997SOL    HW2 3891   0.822   0.693   1.353
  998SOL     OW 3892   4.524   0.255   2.185
  998SOL    HW1 3893   4.550   0.206   2.269
  998SOL    HW2 3894   4.548   0.199   2.106
  999SOL     OW 3895   6.659   5.278   1.432
  999SOL    HW1 3896   6.718   5.244   1.505
  999SOL    HW2 3897   6.685   5.235   1.345
 1000SOL     OW 3898   2.530   2.565   3.999
 1000SOL    HW1 3899   2.609   2.507   4.020
 1000SOL    HW2 3900   2.446   2.512   4.010
 1001SOL     OW 3901   4.734   6.608   6.299
 1001SOL    HW1 3902   4.686   6.674   6.242
 1001SOL    HW2 3903   4.810   6.568   6.248
 1002SOL     OW 3904   5.828   1.506   0.270
 1002SOL    HW1 3905   5.731   1.523   0.254
 1002SOL    HW2 3906   5.875   1.593   0.286
 1003SOL     OW 3907   2.868   6.126   2.581
 1003SOL    HW1 3908   2.822   6.212   2.602
 1003SOL    HW2 3909   2.967   6.140   2.586
 1004SOL     OW 3910   0.140   0.054   0.005
 1004SOL    HW1 3911   0.178   0.146   7.010
 1004SOL    HW2 3912   0.201   7.007   6.985
 1005SOL     OW 3913   0.771   0.065   3.105
 1005SOL    HW1 3914   0.833   7.013   3.077
 1005SOL    HW2 3915   0.823   0.143   3.139
 1006SOL     OW 3916   2.372   4.979   0.999
 1006SOL    HW1 3917   2.377   4.880   1.016
 1006SOL    HW2 3918   2.355   4.994   0.901
 1007SOL     OW 3919   6.797   1.300   3.349
 1007SOL    HW1 3920   6.721   1.240   3.323
 1007SOL    HW2 3921   6.762   1.387   3.382
 1008SOL     OW 3922   1.283   3.544   4.125
 1008SOL    HW1 3923   1.286   3.644   4.117
 1008SOL    HW2 3924   1.375   3.509   4.140
 1009SOL     OW 3925   0.202   5.856   4.354
 1009SOL    HW1 3926   0.138   5.932   4.363
 1009SOL    HW2 3927   0.237   5.830   4.443
 1010SOL     OW 3928   4.281   1.868   0.496
 1010SOL    HW1 3929   4.360   1.895   0.441
 1010SOL    HW2 3930   4.255   1.775   0.473
 1011SOL     OW 3931   2.706   5.471   4.015
 1011SOL    HW1 3932   2.798   5.440   4.038
 1011SOL    HW2 3933   2.697   5.482   3.916
 1012SOL     OW 3934   6.156   5.235   0.273
 1012SOL    HW1 3935   6.065   5.275   0.279
 1012SOL    HW2 3936   6.154   5.140   0.307
 1013SOL     OW 3937   1.187   0.716   0.437
 1013SOL    HW1 3938   1.266   0.725   0.376
 1013SOL    HW2 3939   1.218   0.716   0.532
 1014SOL     OW 3940   4.382   6.199   5.700
 1014SOL    HW1 3941   4.302   6.209   5.760
 1014SOL    HW2 3942   4.354   6.154   5.615
 1015SOL     OW 3943   3.647   6.345   4.691
 1015SOL    HW1 3944   3.620   6.440   4.705
 1015SOL    HW2 3945   3.565   6.287   4.690
 1016SOL     OW 3946   3.653   2.883   1.190
 1016SOL    HW1 3947   3.599   2.966   1.176
 1016SOL    HW2 3948   3.710   2.894   1.271
 1017SOL     OW 3949   4.391   2.678   0.503
 1017SOL    HW1 3950   4.327   2.642   0.571
 1017SOL    HW2 3951   4.433   2.602   0.454
 1018SOL     OW 3952   0.846   3.263   3.912
 1018SOL    HW1 3953   0.872   3.178   3.868
 1018SOL    HW2 3954   0.926   3.305   3.955
 1019SOL     OW 3955   6.924   1.622   0.073
 1019SOL    HW1 3956   7.018   1.627   0.038
 1019SOL    HW2 3957   6.922   1.654   0.168
 1020SOL     OW 3958   2.843   0.954   0.758
 1020SOL    HW1 3959   2.748   0.942   0.788
 1020SOL    HW2 3960   2.905   0.916   0.828
 1021SOL     OW 3961   6.995   1.427   1.233
 1021SOL    HW1 3962   6.933   1.437   1.156
 1021SOL    HW2 3963   6.951   1.374   1.305
 1022SOL     OW 3964   4.492   3.019   6.123
 1022SOL    HW1 3965   4.451   3.102   6.084
 1022SOL    HW2 3966   4.422   2.947   6.129
 1023SOL     OW 3967   5.899   0.620   2.319
 1023SOL    HW1 3968   5.894   0.585   2.413
 1023SOL    HW2 3969   5.823   0.583   2.266
 1024SOL     OW 3970   6.350   1.773   4.023
 1024SOL    HW1 3971   6.354   1.719   3.939
 1024SOL    HW2 3972   6.291   1.853   4.009
 1025SOL     OW 3973   3.067   4.518   0.641
 1025SOL    HW1 3974   2.977   4.512   0.684
 1025SOL    HW2 3975   3.087   4.613   0.617
 1026SOL     OW 3976   2.086   1.883   6.560
 1026SOL    HW1 3977   2.133   1.865   6.647
 1026SOL    HW2 3978   2.124   1.824   6.489
 1027SOL     OW 3979   2.908   5.184   1.864
 1027SOL    HW1 3980   2.847   5.169   1.942
 1027SOL    HW2 3981   2.996   5.139   1.881
 1028SOL     OW 3982   1.668   6.082   1.358
 1028SOL    HW1 3983   1.613   6.090   1.441
 1028SOL    HW2 3984   1.689   5.986   1.341
 1029SOL     OW 3985   2.188   0.206   0.268
 1029SOL    HW1 3986   2.163   0.231   0.361
 1029SOL    HW2 3987   2.116   0.151   0.227
 1030SOL     OW 3988   4.080   3.862   4.938
 1030SOL    HW1 3989   4.166   3.891   4.896
 1030SOL    HW2 3990   4.009   3.930   4.919
 1031SOL     OW 3991   2.666   5.199   1.681
 1031SOL    HW1 3992   2.760   5.185   1.712
 1031SOL    HW2 3993   2.666   5.251   1.595
 1032SOL     OW 3994   1.929   1.739   4.949
 1032SOL    HW1 3995   1.918   1.735   5.048
 1032SOL    HW2 3996   1.991   1.667   4.919
 1033SOL     OW 3997   2.254   5.620   1.682
 1033SOL    HW1 3998   2.204   5.690   1.630
 1033SOL    HW2 3999   2.294   5.661   1.764
 1034SOL     OW 4000   2.440   5.819   3.716
 1034SOL    HW1 4001   2.421   5.733   3.669
 1034SOL    HW2 4002   2.501   5.875   3.660
 1035SOL     OW 4003   3.016   1.408   4.504
 1035SOL    HW1 4004   2.926   1.365   4.508
 1035SOL    HW2 4005   3.079   1.359   4.564
 1036SOL     OW 4006   4.677   2.531   0.951
 1036SOL    HW1 4007   4.662   2.462   0.881
 1036SOL    HW2 4008   4.613   2.516   1.027
 1037SOL     OW 4009   2.365   0.932   0.389
 1037SOL    HW1 4010   2.423   1.007   0.419
 1037SOL    HW2 4011   2.422   0.852   0.369
 1038SOL     OW 4012   1.632   1.009   5.727
 1038SOL    HW1 4013   1.542   1.041   5.696
 1038SOL    HW2 4014   1.622   0.956   5.811
 1039SOL     OW 4015   3.866   1.796   4.586
 1039SOL    HW1 4016   3.865   1.771   4.489
 1039SOL    HW2 4017   3.839   1.892   4.597
 1040SOL     OW 4018   5.912   3.878   2.144
 1040SOL    HW1 4019   5.888   3.953   2.205
 1040SOL    HW2 4020   5.928   3.795   2.197
 1041SOL     OW 4021   6.808   0.927   4.061
 1041SOL    HW1 4022   6.801   0.944   4.159
 1041SOL    HW2 4023   6.717   0.932   4.019
 1042SOL     OW 4024   5.507   5.146   0.871
 1042SOL    HW1 4025   5.455   5.078   0.923
 1042SOL    HW2 4026   5.448   5.188   0.802
 1043SOL     OW 4027   3.390   1.735   6.558
 1043SOL    HW1 4028   3.326   1.658   6.561
 1043SOL    HW2 4029   3.392   1.772   6.464
 1044SOL     OW 4030   3.670   3.255   2.005
 1044SOL    HW1 4031   3.625   3.179   2.052
 1044SOL    HW2 4032   3.756   3.223   1.966
 1045SOL     OW 4033   3.156   1.187   3.058
 1045SOL    HW1 4034   3.197   1.247   3.126
 1045SOL    HW2 4035   3.086   1.237   3.007
 1046SOL     OW 4036   3.401   6.725   0.922
 1046SOL    HW1 4037   3.451   6.690   1.001
 1046SOL    HW2 4038   3.463   6.733   0.844
 1047SOL     OW 4039   0.901   5.264   2.663
 1047SOL    HW1 4040   0.871   5.277   2.569
 1047SOL    HW2 4041   0.871   5.174   2.696
 1048SOL     OW 4042   5.213   5.208   4.645
 1048SOL    HW1 4043   5.251   5.291   4.604
 1048SOL    HW2 4044   5.279   5.133   4.636
 1049SOL     OW 4045   6.969   3.640   4.760
 1049SOL    HW1 4046   7.000   3.728   4.795
 1049SOL    HW2 4047   6.941   3.651   4.665
 1050SOL     OW 4048   3.952   0.329   6.259
 1050SOL    HW1 4049   3.877   0.317   6.193
 1050SOL    HW2 4050   3.914   0.353   6.348
 1051SOL     OW 4051   5.082   4.690   0.321
 1051SOL    HW1 4052   5.100   4.750   0.399
 1051SOL    HW2 4053   5.128   4.602   0.335
 1052SOL     OW 4054   3.888   0.204   5.174
 1052SOL    HW1 4055   3.979   0.187   5.211
 1052SOL    HW2 4056   3.830   0.245   5.245
 1053SOL     OW 4057   4.655   5.074   3.695
 1053SOL    HW1 4058   4.667   4.980   3.662
 1053SOL    HW2 4059   4.734   5.129   3.667
 1054SOL     OW 4060   3.334   5.204   5.519
 1054SOL    HW1 4061   3.404   5.163   5.577
 1054SOL    HW2 4062   3.270   5.133   5.489
 1055SOL     OW 4063   4.638   5.894   5.011
 1055SOL    HW1 4064   4.552   5.843   5.019
 1055SOL    HW2 4065   4.713   5.838   5.046
 1056SOL     OW 4066   1.755   6.158   5.594
 1056SOL    HW1 4067   1.802   6.081   5.550
 1056SOL    HW2 4068   1.657   6.154   5.573
 1057SOL     OW 4069   3.473   3.074   2.831
 1057SOL    HW1 4070   3.472   3.172   2.815
 1057SOL    HW2 4071   3.504   3.027   2.748
 1058SOL     OW 4072   3.492   1.315   2.433
 1058SOL    HW1 4073   3.463   1.391   2.491
 1058SOL    HW2 4074   3.415   1.253   2.417
 1059SOL     OW 4075   4.353   1.481   1.873
 1059SOL    HW1 4076   4.415   1.425   1.928
 1059SOL    HW2 4077   4.404   1.524   1.799
 1060SOL     OW 4078   0.895   2.827   5.512
 1060SOL    HW1 4079   0.989   2.797   5.493
 1060SOL    HW2 4080   0.868   2.796   5.603
 1061SOL     OW 4081   3.219   5.089   1.605
 1061SOL    HW1 4082   3.204   4.992   1.586
 1061SOL    HW2 4083   3.155   5.145   1.552
 1062SOL     OW 4084   6.269   5.793   5.657
 1062SOL    HW1 4085   6.285   5.820   5.562
 1062SOL    HW2 4086   6.357   5.781   5.703
 1063SOL     OW 4087   1.703   3.313   0.953
 1063SOL    HW1 4088   1.682   3.408   0.930
 1063SOL    HW2 4089   1.632   3.253   0.916
 1064SOL     OW 4090   0.775   3.063   2.206
 1064SOL    HW1 4091   0.844   2.992   2.221
 1064SOL    HW2 4092   0.758   3.072   2.108
 1065SOL     OW 4093   5.609   6.657   3.917
 1065SOL    HW1 4094   5.599   6.755   3.937
 1065SOL    HW2 4095   5.573   6.604   3.994
 1066SOL     OW 4096   4.744   0.363   3.412
 1066SOL    HW1 4097   4.737   0.411   3.324
 1066SOL    HW2 4098   4.679   0.404   3.476
 1067SOL     OW 4099   2.305   2.722   2.322
 1067SOL    HW1 4100   2.362   2.649   2.358
 1067SOL    HW2 4101   2.316   2.726   2.222
 1068SOL     OW 4102   0.154   3.362   2.579
 1068SOL    HW1 4103   0.117   3.301   2.508
 1068SOL    HW2 4104   0.225   3.420   2.538
 1069SOL     OW 4105   4.184   4.437   1.380
 1069SOL    HW1 4106   4.267   4.382   1.385
 1069SOL    HW2 4107   4.188   4.497   1.300
 1070SOL     OW 4108   2.256   0.634   0.255
 1070SOL    HW1 4109   2.230   0.558   0.196
 1070SOL    HW2 4110   2.176   0.666   0.306
 1071SOL     OW 4111   3.851   6.760   3.202
 1071SOL    HW1 4112   3.771   6.735   3.257
 1071SOL    HW2 4113   3.927   6.698   3.222
 1072SOL     OW 4114   2.868   6.565   2.871
 1072SOL    HW1 4115   2.804   6.600   2.802
 1072SOL    HW2 4116   2.820   6.503   2.933
 1073SOL     OW 4117   2.756   5.072   2.821
 1073SOL    HW1 4118   2.799   4.986   2.793
 1073SOL    HW2 4119   2.786   5.095   2.914
 1074SOL     OW 4120   0.889   4.997   2.000
 1074SOL    HW1 4121   0.892   5.010   2.099
 1074SOL    HW2 4122   0.810   4.941   1.975
 1075SOL     OW 4123   4.824   4.302   3.696
 1075SOL    HW1 4124   4.914   4.269   3.723
 1075SOL    HW2 4125   4.785   4.241   3.627
 1076SOL     OW 4126   0.539   4.261   4.155
 1076SOL    HW1 4127   0.617   4.297   4.104
 1076SOL    HW2 4128   0.550   4.162   4.167
 1077SOL     OW 4129   4.866   0.161   1.064
 1077SOL    HW1 4130   4.780   0.154   1.114
 1077SOL    HW2 4131   4.879   0.080   1.007
 1078SOL     OW 4132   1.773   1.904   1.289
 1078SOL    HW1 4133   1.731   1.814   1.285
 1078SOL    HW2 4134   1.726   1.966   1.226
 1079SOL     OW 4135   2.917   5.630   3.535
 1079SOL    HW1 4136   2.885   5.710   3.585
 1079SOL    HW2 4137   2.839   5.587   3.489
 1080SOL     OW 4138   2.311   5.435   3.859
 1080SOL    HW1 4139   2.331   5.525   3.899
 1080SOL    HW2 4140   2.241   5.445   3.789
 1081SOL     OW 4141   1.877   0.417   0.005
 1081SOL    HW1 4142   1.955   0.416   0.067
 1081SOL    HW2 4143   1.884   0.496   6.965
 1082SOL     OW 4144   1.463   0.023   5.892
 1082SOL    HW1 4145   1.419   0.014   5.803
 1082SOL    HW2 4146   1.405   7.003   5.962
 1083SOL     OW 4147   3.544   3.681   2.026
 1083SOL    HW1 4148   3.533   3.588   1.991
 1083SOL    HW2 4149   3.536   3.746   1.951
 1084SOL     OW 4150   5.893   4.299   0.955
 1084SOL    HW1 4151   5.916   4.396   0.965
 1084SOL    HW2 4152   5.972   4.244   0.981
 1085SOL     OW 4153   1.849   4.411   3.666
 1085SOL    HW1 4154   1.939   4.369   3.653
 1085SOL    HW2 4155   1.814   4.385   3.757
 1086SOL     OW 4156   4.666   5.063   2.711
 1086SOL    HW1 4157   4.698   5.070   2.616
 1086SOL    HW2 4158   4.622   5.148   2.738
 1087SOL     OW 4159   4.497   2.896   5.268
 1087SOL    HW1 4160   4.454   2.986   5.272
 1087SOL    HW2 4161   4.438   2.828   5.312
 1088SOL     OW 4162   4.645   4.305   3.923
 1088SOL    HW1 4163   4.645   4.215   3.966
 1088SOL    HW2 4164   4.713   4.307   3.850
 1089SOL     OW 4165   0.273   0.338   4.604
 1089SOL    HW1 4166   0.364   0.343   4.644
 1089SOL    HW2 4167   0.278   0.293   4.515
 1090SOL     OW 4168   1.859   1.277   6.454
 1090SOL    HW1 4169   1.931   1.229   6.405
 1090SOL    HW2 4170   1.791   1.212   6.487
 1091SOL     OW 4171   1.500   1.912   5.215
 1091SOL    HW1 4172   1.552   1.915   5.301
 1091SOL    HW2 4173   1.472   1.818   5.196
 1092SOL     OW 4174   2.352   3.928   1.740
 1092SOL    HW1 4175   2.310   3.971   1.820
 1092SOL    HW2 4176   2.306   3.841   1.721
 1093SOL     OW 4177   0.941   2.319   2.279
 1093SOL    HW1 4178   0.890   2.237   2.305
 1093SOL    HW2 4179   0.878   2.396   2.270
 1094SOL     OW 4180   0.271   6.945   1.614
 1094SOL    HW1 4181   0.284   6.870   1.679
 1094SOL    HW2 4182   0.348   6.947   1.551
 1095SOL     OW 4183   6.382   2.942   6.334
 1095SOL    HW1 4184   6.363   2.845   6.340
 1095SOL    HW2 4185   6.337   2.981   6.254
 1096SOL     OW 4186   3.206   4.334   1.623
 1096SOL    HW1 4187   3.147   4.299   1.696
 1096SOL    HW2 4188   3.284   4.380   1.663
 1097SOL     OW 4189   1.372   5.127   5.068
 1097SOL    HW1 4190   1.314   5.155   4.991
 1097SOL    HW2 4191   1.363   5.029   5.082
 1098SOL     OW 4192   4.833   2.262   2.078
 1098SOL    HW1 4193   4.784   2.229   1.997
 1098SOL    HW2 4194   4.862   2.184   2.133
 1099SOL     OW 4195   4.270   1.946   3.999
 1099SOL    HW1 4196   4.366   1.965   4.020
 1099SOL    HW2 4197   4.265   1.879   3.925
 1100SOL     OW 4198   0.795   0.737   6.367
 1100SOL    HW1 4199   0.733   0.710   6.441
 1100SOL    HW2 4200   0.874   0.676   6.366
 1101SOL     OW 4201   4.767   3.470   0.522
 1101SOL    HW1 4202   4.802   3.435   0.609
 1101SOL    HW2 4203   4.691   3.413   0.492
 1102SOL     OW 4204   0.413   4.011   3.847
 1102SOL    HW1 4205   0.336   4.052   3.896
 1102SOL    HW2 4206   0.379   3.956   3.772
 1103SOL     OW 4207   1.856   2.004   1.848
 1103SOL    HW1 4208   1.784   2.008   1.917
 1103SOL    HW2 4209   1.901   2.093   1.841
 1104SOL     OW 4210   3.519   4.561   6.259
 1104SOL    HW1 4211   3.535   4.517   6.171
 1104SOL    HW2 4212   3.514   4.660   6.247
 1105SOL     OW 4213   5.355   4.088   6.497
 1105SOL    HW1 4214   5.410   4.092   6.414
 1105SOL    HW2 4215   5.284   4.018   6.487
 1106SOL     OW 4216   0.267   2.746   5.337
 1106SOL    HW1 4217   0.362   2.728   5.358
 1106SOL    HW2 4218   0.208   2.695   5.400
 1107SOL     OW 4219   1.212   0.460   0.850
 1107SOL    HW1 4220   1.290   0.492   0.796
 1107SOL    HW2 4221   1.147   0.412   0.791
 1108SOL     OW 4222   1.766   0.670   5.785
 1108SOL    HW1 4223   1.801   0.759   5.755
 1108SOL    HW2 4224   1.756   0.671   5.885
 1109SOL     OW 4225   4.406   5.989   4.562
 1109SOL    HW1 4226   4.485   6.049   4.545
 1109SOL    HW2 4227   4.363   6.013   4.649
 1110SOL     OW 4228   3.029   3.503   1.813
 1110SOL    HW1 4229   2.949   3.546   1.856
 1110SOL    HW2 4230   3.112   3.542   1.853
 1111SOL     OW 4231   5.472   0.634   0.153
 1111SOL    HW1 4232   5.380   0.637   0.114
 1111SOL    HW2 4233   5.514   0.546   0.132
 1112SOL     OW 4234   6.740   0.940   2.088
 1112SOL    HW1 4235   6.730   0.895   1.999
 1112SOL    HW2 4236   6.836   0.962   2.104
 1113SOL     OW 4237   6.151   3.094   2.946
 1113SOL    HW1 4238   6.107   3.184   2.955
 1113SOL    HW2 4239   6.230   3.101   2.886
 1114SOL     OW 4240   4.837   0.981   5.884
 1114SOL    HW1 4241   4.803   0.931   5.804
 1114SOL    HW2 4242   4.822   1.079   5.871
 1115SOL     OW 4243   3.032   3.361   0.945
 1115SOL    HW1 4244   3.038   3.402   1.036
 1115SOL    HW2 4245   3.034   3.433   0.875
 1116SOL     OW 4246   4.208   6.340   4.370
 1116SOL    HW1 4247   4.222   6.322   4.467
 1116SOL    HW2 4248   4.112   6.325   4.347
 1117SOL     OW 4249   2.601   2.803   1.415
 1117SOL    HW1 4250   2.646   2.861   1.347
 1117SOL    HW2 4251   2.626   2.834   1.507
 1118SOL     OW 4252   2.270   4.506   3.244
 1118SOL    HW1 4253   2.320   4.583   3.206
 1118SOL    HW2 4254   2.231   4.452   3.169
 1119SOL     OW 4255   4.208   4.107   1.742
 1119SOL    HW1 4256   4.202   4.007   1.744
 1119SOL    HW2 4257   4.292   4.136   1.787
 1120SOL     OW 4258   4.255   6.706   6.160
 1120SOL    HW1 4259   4.228   6.799   6.184
 1120SOL    HW2 4260   4.221   6.642   6.229
 1121SOL     OW 4261   5.117   3.064   1.618
 1121SOL    HW1 4262   5.037   3.091   1.671
 1121SOL    HW2 4263   5.109   2.968   1.593
 1122SOL     OW 4264   5.084   3.283   6.310
 1122SOL    HW1 4265   5.031   3.365   6.289
 1122SOL    HW2 4266   5.150   3.303   6.382
 1123SOL     OW 4267   4.533   0.911   2.321
 1123SOL    HW1 4268   4.483   0.991   2.354
 1123SOL    HW2 4269   4.510   0.832   2.376
 1124SOL     OW 4270   6.745   4.021   4.670
 1124SOL    HW1 4271   6.763   4.107   4.718
 1124SOL    HW2 4272   6.646   4.006   4.665
 1125SOL     OW 4273   3.422   3.294   5.053
 1125SOL    HW1 4274   3.485   3.301   4.976
 1125SOL    HW2 4275   3.355   3.369   5.050
 1126SOL     OW 4276   4.616   6.740   1.462
 1126SOL    HW1 4277   4.567   6.813   1.511
 1126SOL    HW2 4278   4.681   6.696   1.525
 1127SOL     OW 4279   2.081   5.000   0.298
 1127SOL    HW1 4280   2.014   4.987   0.371
 1127SOL    HW2 4281   2.081   4.921   0.237
 1128SOL     OW 4282   3.265   1.793   4.093
 1128SOL    HW1 4283   3.303   1.881   4.066
 1128SOL    HW2 4284   3.317   1.757   4.171
 1129SOL     OW 4285   5.444   0.336   6.859
 1129SOL    HW1 4286   5.453   0.248   6.904
 1129SOL    HW2 4287   5.508   0.341   6.782
 1130SOL     OW 4288   0.905   4.108   6.729
 1130SOL    HW1 4289   0.977   4.065   6.783
 1130SOL    HW2 4290   0.822   4.116   6.784
 1131SOL     OW 4291   0.546   6.236   4.971
 1131SOL    HW1 4292   0.583   6.274   4.887
 1131SOL    HW2 4293   0.557   6.302   5.045
 1132SOL     OW 4294   4.792   6.607   5.460
 1132SOL    HW1 4295   4.867   6.651   5.411
 1132SOL    HW2 4296   4.821   6.518   5.494
 1133SOL     OW 4297   0.804   3.470   1.781
 1133SOL    HW1 4298   0.807   3.374   1.755
 1133SOL    HW2 4299   0.897   3.504   1.796
 1134SOL     OW 4300   5.239   2.464   6.327
 1134SOL    HW1 4301   5.182   2.472   6.245
 1134SOL    HW2 4302   5.315   2.528   6.321
 1135SOL     OW 4303   2.783   2.275   3.298
 1135SOL    HW1 4304   2.753   2.184   3.271
 1135SOL    HW2 4305   2.837   2.269   3.383
 1136SOL     OW 4306   3.010   5.374   3.568
 1136SOL    HW1 4307   2.970   5.465   3.575
 1136SOL    HW2 4308   3.042   5.344   3.659
 1137SOL     OW 4309   1.070   1.264   6.544
 1137SOL    HW1 4310   1.073   1.350   6.493
 1137SOL    HW2 4311   1.131   1.270   6.622
 1138SOL     OW 4312   1.564   3.613   5.305
 1138SOL    HW1 4313   1.640   3.548   5.300
 1138SOL    HW2 4314   1.558   3.652   5.397
 1139SOL     OW 4315   1.785   0.027   2.826
 1139SOL    HW1 4316   1.870   6.995   2.824
 1139SOL    HW2 4317   1.722   7.008   2.893
 1140SOL     OW 4318   3.240   1.821   3.367
 1140SOL    HW1 4319   3.152   1.865   3.349
 1140SOL    HW2 4320   3.289   1.807   3.281
 1141SOL     OW 4321   6.314   5.816   4.953
 1141SOL    HW1 4322   6.310   5.916   4.952
 1141SOL    HW2 4323   6.250   5.779   4.885
 1142SOL     OW 4324   5.136   0.289   3.886
 1142SOL    HW1 4325   5.103   0.287   3.981
 1142SOL    HW2 4326   5.109   0.375   3.843
 1143SOL     OW 4327   3.956   2.048   3.229
 1143SOL    HW1 4328   4.003   2.111   3.168
 1143SOL    HW2 4329   3.860   2.040   3.201
 1144SOL     OW 4330   0.452   4.935   4.485
 1144SOL    HW1 4331   0.476   4.998   4.559
 1144SOL    HW2 4332   0.476   4.841   4.512
 1145SOL     OW 4333   6.912   5.580   4.306
 1145SOL    HW1 4334   6.932   5.657   4.245
 1145SOL    HW2 4335   6.821   5.591   4.344
 1146SOL     OW 4336   5.760   2.526   1.421
 1146SOL    HW1 4337   5.809   2.458   1.476
 1146SOL    HW2 4338   5.684   2.562   1.474
 1147SOL     OW 4339   0.062   3.806   2.169
 1147SOL    HW1 4340   0.015   3.854   2.243
 1147SOL    HW2 4341   0.137   3.862   2.135
 1148SOL     OW 4342   3.999   6.726   6.894
 1148SOL    HW1 4343   4.010   6.697   6.799
 1148SOL    HW2 4344   3.998   6.645   6.953
 1149SOL     OW 4345   6.591   3.220   2.870
 1149SOL    HW1 4346   6.616   3.279   2.947
 1149SOL    HW2 4347   6.674   3.191   2.822
 1150SOL     OW 4348   1.903   4.607   0.641
 1150SOL    HW1 4349   1.993   4.620   0.684
 1150SOL    HW2 4350   1.844   4.684   0.664
 1151SOL     OW 4351   6.159   4.849   6.647
 1151SOL    HW1 4352   6.149   4.907   6.566
 1151SOL    HW2 4353   6.128   4.900   6.728
 1152SOL     OW 4354   1.984   0.456   4.927
 1152SOL    HW1 4355   1.909   0.506   4.884
 1152SOL    HW2 4356   1.950   0.403   5.005
 1153SOL     OW 4357   2.040   5.523   2.818
 1153SOL    HW1 4358   2.095   5.442   2.796
 1153SOL    HW2 4359   2.084   5.574   2.892
 1154SOL     OW 4360   0.449   3.894   2.265
 1154SOL    HW1 4361   0.436   3.994   2.265
 1154SOL    HW2 4362   0.446   3.860   2.358
 1155SOL     OW 4363   3.642   6.119   1.825
 1155SOL    HW1 4364   3.638   6.124   1.924
 1155SOL    HW2 4365   3.723   6.068   1.797
 1156SOL     OW 4366   1.950   0.645   4.213
 1156SOL    HW1 4367   1.971   0.579   4.285
 1156SOL    HW2 4368   2.016   0.721   4.217
 1157SOL     OW 4369   0.529   3.130   4.079
 1157SOL    HW1 4370   0.562   3.110   4.171
 1157SOL    HW2 4371   0.429   3.140   4.081
 1158SOL     OW 4372   5.677   5.052   5.562
 1158SOL    HW1 4373   5.590   5.066   5.611
 1158SOL    HW2 4374   5.676   4.963   5.516
 1159SOL     OW 4375   3.513   4.921   3.176
 1159SOL    HW1 4376   3.506   5.012   3.217
 1159SOL    HW2 4377   3.577   4.866   3.229
 1160SOL     OW 4378   4.118   3.329   2.149
 1160SOL    HW1 4379   4.091   3.341   2.245
 1160SOL    HW2 4380   4.159   3.414   2.115
 1161SOL     OW 4381   5.484   0.643   3.752
 1161SOL    HW1 4382   5.503   0.638   3.850
 1161SOL    HW2 4383   5.524   0.563   3.706
 1162SOL     OW 4384   3.664   4.115   2.170
 1162SOL    HW1 4385   3.756   4.140   2.200
 1162SOL    HW2 4386   3.664   4.102   2.071
 1163SOL     OW 4387   5.002   2.473   2.052
 1163SOL    HW1 4388   4.931   2.406   2.073
 1163SOL    HW2 4389   5.043   2.452   1.963
 1164SOL     OW 4390   5.572   2.913   3.146
 1164SOL    HW1 4391   5.566   2.878   3.052
 1164SOL    HW2 4392   5.636   2.989   3.149
 1165SOL     OW 4393   0.724   4.089   3.438
 1165SOL    HW1 4394   0.791   4.015   3.433
 1165SOL    HW2 4395   0.695   4.102   3.533
 1166SOL     OW 4396   4.278   2.396   6.041
 1166SOL    HW1 4397   4.332   2.327   5.994
 1166SOL    HW2 4398   4.200   2.421   5.985
 1167SOL     OW 4399   4.793   1.014   5.165
 1167SOL    HW1 4400   4.835   0.948   5.103
 1167SOL    HW2 4401   4.705   1.044   5.127
 1168SOL     OW 4402   6.750   0.250   3.381
 1168SOL    HW1 4403   6.779   0.246   3.477
 1168SOL    HW2 4404   6.702   0.165   3.358
 1169SOL     OW 4405   0.649   3.456   1.356
 1169SOL    HW1 4406   0.739   3.491   1.331
 1169SOL    HW2 4407   0.596   3.437   1.273
 1170SOL     OW 4408   3.492   1.051   2.149
 1170SOL    HW1 4409   3.411   1.088   2.195
 1170SOL    HW2 4410   3.504   1.096   2.061
 1171SOL     OW 4411   2.689   5.366   1.116
 1171SOL    HW1 4412   2.642   5.396   1.198
 1171SOL    HW2 4413   2.635   5.391   1.035
 1172SOL     OW 4414   2.920   3.572   4.578
 1172SOL    HW1 4415   2.934   3.475   4.599
 1172SOL    HW2 4416   2.938   3.588   4.482
 1173SOL     OW 4417   3.191   1.089   6.189
 1173SOL    HW1 4418   3.189   1.182   6.225
 1173SOL    HW2 4419   3.176   1.091   6.090
 1174SOL     OW 4420   2.822   5.903   1.113
 1174SOL    HW1 4421   2.892   5.832   1.095
 1174SOL    HW2 4422   2.865   5.993   1.110
 1175SOL     OW 4423   6.167   4.943   6.174
 1175SOL    HW1 4424   6.173   4.847   6.146
 1175SOL    HW2 4425   6.177   5.002   6.094
 1176SOL     OW 4426   5.597   4.656   0.866
 1176SOL    HW1 4427   5.606   4.571   0.919
 1176SOL    HW2 4428   5.658   4.725   0.904
 1177SOL     OW 4429   6.539   3.070   5.838
 1177SOL    HW1 4430   6.595   3.152   5.849
 1177SOL    HW2 4431   6.572   3.018   5.759
 1178SOL     OW 4432   5.621   3.722   1.284
 1178SOL    HW1 4433   5.592   3.669   1.203
 1178SOL    HW2 4434   5.567   3.805   1.291
 1179SOL     OW 4435   1.685   5.286   6.929
 1179SOL    HW1 4436   1.673   5.334   6.842
 1179SOL    HW2 4437   1.763   5.223   6.922
 1180SOL     OW 4438   1.577   2.196   4.496
 1180SOL    HW1 4439   1.541   2.113   4.453
 1180SOL    HW2 4440   1.506   2.267   4.495
 1181SOL     OW 4441   1.909   3.970   3.469
 1181SOL    HW1 4442   1.865   4.019   3.394
 1181SOL    HW2 4443   2.002   3.944   3.443
 1182SOL     OW 4444   2.453   4.485   3.955
 1182SOL    HW1 4445   2.491   4.506   3.865
 1182SOL    HW2 4446   2.523   4.441   4.012
 1183SOL     OW 4447   3.946   6.107   0.923
 1183SOL    HW1 4448   3.991   6.018   0.915
 1183SOL    HW2 4449   3.967   6.147   1.013
 1184SOL     OW 4450   3.103   2.979   5.292
 1184SOL    HW1 4451   3.034   2.966   5.362
 1184SOL    HW2 4452   3.194   2.960   5.331
 1185SOL     OW 4453   1.973   0.051   0.166
 1185SOL    HW1 4454   2.028   6.998   0.125
 1185SOL    HW2 4455   1.906   0.083   0.099
 1186SOL     OW 4456   5.337   0.283   4.644
 1186SOL    HW1 4457   5.306   0.222   4.717
 1186SOL    HW2 4458   5.411   0.341   4.678
 1187SOL     OW 4459   5.920   6.790   5.321
 1187SOL    HW1 4460   5.850   6.768   5.253
 1187SOL    HW2 4461   5.933   6.889   5.325
 1188SOL     OW 4462   2.014   6.904   5.813
 1188SOL    HW1 4463   2.087   6.971   5.824
 1188SOL    HW2 4464   1.926   6.949   5.820
 1189SOL     OW 4465   5.959   0.485   1.445
 1189SOL    HW1 4466   5.934   0.570   1.399
 1189SOL    HW2 4467   6.042   0.448   1.404
 1190SOL     OW 4468   4.511   5.143   2.317
 1190SOL    HW1 4469   4.530   5.242   2.321
 1190SOL    HW2 4470   4.434   5.121   2.377
 1191SOL     OW 4471   3.237   5.701   6.199
 1191SOL    HW1 4472   3.207   5.671   6.108
 1191SOL    HW2 4473   3.178   5.660   6.269
 1192SOL     OW 4474   5.629   5.155   3.186
 1192SOL    HW1 4475   5.611   5.063   3.150
 1192SOL    HW2 4476   5.615   5.222   3.114
 1193SOL     OW 4477   5.090   0.660   3.978
 1193SOL    HW1 4478   5.015   0.705   4.026
 1193SOL    HW2 4479   5.099   0.698   3.886
 1194SOL     OW 4480   6.301   0.513   0.574
 1194SOL    HW1 4481   6.387   0.536   0.527
 1194SOL    HW2 4482   6.320   0.454   0.652
 1195SOL     OW 4483   5.765   0.308   6.331
 1195SOL    HW1 4484   5.816   0.355   6.404
 1195SOL    HW2 4485   5.799   0.339   6.242
 1196SOL     OW 4486   0.337   5.145   2.472
 1196SOL    HW1 4487   0.375   5.062   2.513
 1196SOL    HW2 4488   0.403   5.219   2.479
 1197SOL     OW 4489   3.535   5.634   5.828
 1197SOL    HW1 4490   3.535   5.602   5.734
 1197SOL    HW2 4491   3.517   5.732   5.830
 1198SOL     OW 4492   3.130   2.177   3.451
 1198SOL    HW1 4493   3.229   2.184   3.440
 1198SOL    HW2 4494   3.104   2.210   3.541
 1199SOL     OW 4495   3.456   4.451   1.703
 1199SOL    HW1 4496   3.474   4.538   1.748
 1199SOL    HW2 4497   3.539   4.420   1.656
 1200SOL     OW 4498   4.066   4.485   6.715
 1200SOL    HW1 4499   4.006   4.405   6.718
 1200SOL    HW2 4500   4.162   4.455   6.718
 1201SOL     OW 4501   1.244   1.613   4.801
 1201SOL    HW1 4502   1.323   1.674   4.797
 1201SOL    HW2 4503   1.198   1.623   4.889
 1202SOL     OW 4504   5.793   6.833   4.990
 1202SOL    HW1 4505   5.876   6.889   4.985
 1202SOL    HW2 4506   5.714   6.888   4.962
 1203SOL     OW 4507   5.415   0.028   1.170
 1203SOL    HW1 4508   5.483   6.981   1.196
 1203SOL    HW2 4509   5.361   0.054   1.251
 1204SOL     OW 4510   3.716   0.673   0.469
 1204SOL    HW1 4511   3.669   0.689   0.382
 1204SOL    HW2 4512   3.741   0.760   0.510
 1205SOL     OW 4513   5.773   2.032   5.273
 1205SOL    HW1 4514   5.679   2.002   5.254
 1205SOL    HW2 4515   5.835   1.954   5.265
 1206SOL     OW 4516   2.200   1.713   5.128
 1206SOL    HW1 4517   2.200   1.614   5.111
 1206SOL    HW2 4518   2.276   1.755   5.079
 1207SOL     OW 4519   5.722   7.018   6.554
 1207SOL    HW1 4520   5.804   6.961   6.555
 1207SOL    HW2 4521   5.649   6.971   6.505
 1208SOL     OW 4522   3.748   4.057   2.872
 1208SOL    HW1 4523   3.795   4.121   2.812
 1208SOL    HW2 4524   3.813   3.988   2.906
 1209SOL     OW 4525   5.731   5.228   4.343
 1209SOL    HW1 4526   5.654   5.198   4.286
 1209SOL    HW2 4527   5.807   5.163   4.332
 1210SOL     OW 4528   4.188   6.827   2.492
 1210SOL    HW1 4529   4.276   6.832   2.540
 1210SOL    HW2 4530   4.204   6.816   2.394
 1211SOL     OW 4531   0.932   4.314   4.877
 1211SOL    HW1 4532   0.977   4.403   4.863
 1211SOL    HW2 4533   0.836   4.321   4.849
 1212SOL     OW 4534   1.392   4.412   4.782
 1212SOL    HW1 4535   1.413   4.322   4.821
 1212SOL    HW2 4536   1.314   4.451   4.830
 1213SOL     OW 4537   6.580   2.466   5.267
 1213SOL    HW1 4538   6.645   2.399   5.232
 1213SOL    HW2 4539   6.585   2.550   5.212
 1214SOL     OW 4540   2.006   3.667   3.675
 1214SOL    HW1 4541   2.036   3.576   3.705
 1214SOL    HW2 4542   2.001   3.668   3.575
 1215SOL     OW 4543   1.468   4.683   2.410
 1215SOL    HW1 4544   1.533   4.706   2.482
 1215SOL    HW2 4545   1.517   4.652   2.329
 1216SOL     OW 4546   1.268   0.543   1.832
 1216SOL    HW1 4547   1.347   0.488   1.861
 1216SOL    HW2 4548   1.278   0.637   1.866
 1217SOL     OW 4549   1.464   6.823   1.572
 1217SOL    HW1 4550   1.453   6.923   1.577
 1217SOL    HW2 4551   1.486   6.787   1.663
 1218SOL     OW 4552   0.298   3.647   4.558
 1218SOL    HW1 4553   0.319   3.744   4.552
 1218SOL    HW2 4554   0.262   3.616   4.470
 1219SOL     OW 4555   3.583   6.398   1.377
 1219SOL    HW1 4556   3.578   6.299   1.395
 1219SOL    HW2 4557   3.667   6.418   1.327
 1220SOL     OW 4558   5.905   3.030   3.107
 1220SOL    HW1 4559   5.916   2.944   3.158
 1220SOL    HW2 4560   5.973   3.033   3.034
 1221SOL     OW 4561   4.807   3.728   0.115
 1221SOL    HW1 4562   4.710   3.748   0.129
 1221SOL    HW2 4563   4.827   3.724   0.017
 1222SOL     OW 4564   0.078   6.845   1.030
 1222SOL    HW1 4565   0.012   6.773   1.009
 1222SOL    HW2 4566   0.041   6.934   1.003
 1223SOL     OW 4567   6.414   6.909   5.992
 1223SOL    HW1 4568   6.492   6.964   5.962
 1223SOL    HW2 4569   6.363   6.959   6.062
 1224SOL     OW 4570   4.787   5.304   1.317
 1224SOL    HW1 4571   4.711   5.303   1.251
 1224SOL    HW2 4572   4.868   5.265   1.275
 1225SOL     OW 4573   4.985   1.912   0.481
 1225SOL    HW1 4574   4.957   1.988   0.540
 1225SOL    HW2 4575   5.085   1.911   0.474
 1226SOL     OW 4576   6.269   6.222   0.874
 1226SOL    HW1 4577   6.169   6.220   0.862
 1226SOL    HW2 4578   6.313   6.223   0.784
 1227SOL     OW 4579   6.045   3.733   5.184
 1227SOL    HW1 4580   5.967   3.690   5.139
 1227SOL    HW2 4581   6.095   3.790   5.118
 1228SOL     OW 4582   4.053   3.114   2.596
 1228SOL    HW1 4583   4.017   3.111   2.689
 1228SOL    HW2 4584   4.037   3.026   2.551
 1229SOL     OW 4585   2.024   6.059   2.645
 1229SOL    HW1 4586   2.031   6.017   2.554
 1229SOL    HW2 4587   2.114   6.060   2.688
 1230SOL     OW 4588   5.054   4.956   1.454
 1230SOL    HW1 4589   5.154   4.965   1.462
 1230SOL    HW2 4590   5.021   4.890   1.521
 1231SOL     OW 4591   1.741   2.247   6.561
 1231SOL    HW1 4592   1.682   2.328   6.566
 1231SOL    HW2 4593   1.708   2.178   6.625
 1232SOL     OW 4594   3.316   0.900   5.657
 1232SOL    HW1 4595   3.237   0.851   5.619
 1232SOL    HW2 4596   3.357   0.956   5.585
 1233SOL     OW 4597   0.406   5.585   4.032
 1233SOL    HW1 4598   0.322   5.635   4.014
 1233SOL    HW2 4599   0.466   5.591   3.953
 1234SOL     OW 4600   6.731   3.011   6.762
 1234SOL    HW1 4601   6.695   3.008   6.855
 1234SOL    HW2 4602   6.660   3.044   6.700
 1235SOL     OW 4603   6.203   5.149   0.009
 1235SOL    HW1 4604   6.191   5.172   0.105
 1235SOL    HW2 4605   6.233   5.231   6.980
 1236SOL     OW 4606   2.263   1.479   1.793
 1236SOL    HW1 4607   2.327   1.462   1.718
 1236SOL    HW2 4608   2.170   1.474   1.758
 1237SOL     OW 4609   1.149   0.295   4.835
 1237SOL    HW1 4610   1.165   0.299   4.934
 1237SOL    HW2 4611   1.088   0.370   4.809
 1238SOL     OW 4612   6.536   0.486   3.888
 1238SOL    HW1 4613   6.454   0.442   3.852
 1238SOL    HW2 4614   6.531   0.490   3.988
 1239SOL     OW 4615   5.770   4.521   3.915
 1239SOL    HW1 4616   5.686   4.548   3.962
 1239SOL    HW2 4617   5.781   4.577   3.833
 1240SOL     OW 4618   5.742   4.533   3.402
 1240SOL    HW1 4619   5.799   4.462   3.362
 1240SOL    HW2 4620   5.646   4.504   3.400
 1241SOL     OW 4621   5.501   5.082   4.270
 1241SOL    HW1 4622   5.491   5.087   4.370
 1241SOL    HW2 4623   5.535   4.992   4.245
 1242SOL     OW 4624   1.261   4.743   0.197
 1242SOL    HW1 4625   1.172   4.700   0.207
 1242SOL    HW2 4626   1.310   4.702   0.120
 1243SOL     OW 4627   0.939   4.743   5.003
 1243SOL    HW1 4628   0.987   4.679   5.063
 1243SOL    HW2 4629   0.946   4.835   5.041
 1244SOL     OW 4630   5.333   6.272   4.422
 1244SOL    HW1 4631   5.297   6.334   4.352
 1244SOL    HW2 4632   5.377   6.325   4.494
 1245SOL     OW 4633   5.301   6.426   1.999
 1245SOL    HW1 4634   5.232   6.420   1.927
 1245SOL    HW2 4635   5.312   6.336   2.042
 1246SOL     OW 4636   4.654   1.618   0.750
 1246SOL    HW1 4637   4.597   1.671   0.688
 1246SOL    HW2 4638   4.721   1.677   0.793
 1247SOL     OW 4639   6.730   6.734   3.400
 1247SOL    HW1 4640   6.738   6.723   3.301
 1247SOL    HW2 4641   6.639   6.704   3.430
 1248SOL     OW 4642   1.178   6.937   4.973
 1248SOL    HW1 4643   1.140   6.876   4.904
 1248SOL    HW2 4644   1.277   6.925   4.978
 1249SOL     OW 4645   6.881   4.591   0.085
 1249SOL    HW1 4646   6.868   4.568   7.010
 1249SOL    HW2 4647   6.800   4.566   0.137
 1250SOL     OW 4648   6.561   3.005   4.879
 1250SOL    HW1 4649   6.462   2.990   4.875
 1250SOL    HW2 4650   6.584   3.050   4.965
 1251SOL     OW 4651   2.841   0.455   2.867
 1251SOL    HW1 4652   2.853   0.356   2.876
 1251SOL    HW2 4653   2.836   0.480   2.771
 1252SOL     OW 4654   1.674   5.662   0.461
 1252SOL    HW1 4655   1.754   5.639   0.516
 1252SOL    HW2 4656   1.616   5.725   0.512
 1253SOL     OW 4657   3.643   0.747   1.207
 1253SOL    HW1 4658   3.603   0.837   1.194
 1253SOL    HW2 4659   3.592   0.697   1.278
 1254SOL     OW 4660   6.651   1.719   2.110
 1254SOL    HW1 4661   6.727   1.656   2.123
 1254SOL    HW2 4662   6.570   1.684   2.156
 1255SOL     OW 4663   5.558   1.288   4.894
 1255SOL    HW1 4664   5.548   1.216   4.825
 1255SOL    HW2 4665   5.655   1.303   4.913
 1256SOL     OW 4666   0.325   5.918   4.610
 1256SOL    HW1 4667   0.379   5.984   4.558
 1256SOL    HW2 4668   0.366   5.827   4.602
 1257SOL     OW 4669   0.899   5.511   3.851
 1257SOL    HW1 4670   0.887   5.432   3.911
 1257SOL    HW2 4671   0.843   5.500   3.769
 1258SOL     OW 4672   3.182   6.203   4.434
 1258SOL    HW1 4673   3.236   6.179   4.353
 1258SOL    HW2 4674   3.101   6.144   4.438
 1259SOL     OW 4675   5.178   6.748   4.024
 1259SOL    HW1 4676   5.199   6.740   3.927
 1259SOL    HW2 4677   5.262   6.738   4.077
 1260SOL     OW 4678   2.061   0.660   1.925
 1260SOL    HW1 4679   1.998   0.737   1.934
 1260SOL    HW2 4680   2.090   0.629   2.015
 1261SOL     OW 4681   6.764   4.519   6.646
 1261SOL    HW1 4682   6.843   4.572   6.616
 1261SOL    HW2 4683   6.694   4.520   6.575
 1262SOL     OW 4684   5.719   5.308   0.654
 1262SOL    HW1 4685   5.658   5.243   0.609
 1262SOL    HW2 4686   5.772   5.261   0.725
 1263SOL     OW 4687   0.409   2.799   1.451
 1263SOL    HW1 4688   0.338   2.733   1.428
 1263SOL    HW2 4689   0.452   2.773   1.537
 1264SOL     OW 4690   0.537   3.826   3.523
 1264SOL    HW1 4691   0.598   3.809   3.600
 1264SOL    HW2 4692   0.590   3.848   3.441
 1265SOL     OW 4693   6.922   4.706   4.976
 1265SOL    HW1 4694   6.973   4.621   4.990
 1265SOL    HW2 4695   6.970   4.762   4.908
 1266SOL     OW 4696   3.010   1.674   5.447
 1266SOL    HW1 4697   3.094   1.723   5.424
 1266SOL    HW2 4698   3.029   1.603   5.514
 1267SOL     OW 4699   6.632   5.619   3.339
 1267SOL    HW1 4700   6.713   5.678   3.339
 1267SOL    HW2 4701   6.630   5.565   3.254
 1268SOL     OW 4702   5.288   2.832   6.725
 1268SOL    HW1 4703   5.314   2.927   6.740
 1268SOL    HW2 4704   5.321   2.776   6.801
 1269SOL     OW 4705   6.683   5.528   5.614
 1269SOL    HW1 4706   6.613   5.502   5.547
 1269SOL    HW2 4707   6.749   5.454   5.624
 1270SOL     OW 4708   1.843   3.783   4.558
 1270SOL    HW1 4709   1.804   3.727   4.484
 1270SOL    HW2 4710   1.832   3.880   4.536
 1271SOL     OW 4711   3.454   1.779   2.749
 1271SOL    HW1 4712   3.530   1.806   2.809
 1271SOL    HW2 4713   3.398   1.859   2.728
 1272SOL     OW 4714   0.064   5.227   1.302
 1272SOL    HW1 4715   0.098   5.190   1.388
 1272SOL    HW2 4716   6.987   5.210   1.295
 1273SOL     OW 4717   3.001   4.965   6.524
 1273SOL    HW1 4718   3.081   4.935   6.471
 1273SOL    HW2 4719   2.996   5.065   6.522
 1274SOL     OW 4720   0.037   2.754   2.590
 1274SOL    HW1 4721   0.068   2.817   2.519
 1274SOL    HW2 4722   6.962   2.729   2.573
 1275SOL     OW 4723   4.133   1.512   4.873
 1275SOL    HW1 4724   4.084   1.532   4.787
 1275SOL    HW2 4725   4.187   1.429   4.862
 1276SOL     OW 4726   0.770   0.393   2.652
 1276SOL    HW1 4727   0.748   0.316   2.713
 1276SOL    HW2 4728   0.821   0.462   2.704
 1277SOL     OW 4729   6.891   0.670   4.688
 1277SOL    HW1 4730   6.979   0.627   4.670
 1277SOL    HW2 4731   6.879   0.683   4.786
 1278SOL     OW 4732   1.941   1.726   5.229
 1278SOL    HW1 4733   1.914   1.810   5.277
 1278SOL    HW2 4734   2.038   1.731   5.206
 1279SOL     OW 4735   2.934   5.964   0.403
 1279SOL    HW1 4736   3.016   5.909   0.387
 1279SOL    HW2 4737   2.869   5.949   0.329
 1280SOL     OW 4738   2.394   0.366   3.357
 1280SOL    HW1 4739   2.323   0.305   3.322
 1280SOL    HW2 4740   2.373   0.389   3.452
 1281SOL     OW 4741   1.178   6.313   3.459
 1281SOL    HW1 4742   1.243   6.359   3.397
 1281SOL    HW2 4743   1.097   6.285   3.407
 1282SOL     OW 4744   0.569   1.419   1.129
 1282SOL    HW1 4745   0.640   1.472   1.175
 1282SOL    HW2 4746   0.497   1.396   1.194
 1283SOL     OW 4747   5.581   4.675   5.219
 1283SOL    HW1 4748   5.636   4.604   5.263
 1283SOL    HW2 4749   5.574   4.656   5.121
 1284SOL     OW 4750   3.210   2.784   1.836
 1284SOL    HW1 4751   3.140   2.834   1.785
 1284SOL    HW2 4752   3.212   2.689   1.804
 1285SOL     OW 4753   4.844   2.453   5.857
 1285SOL    HW1 4754   4.752   2.438   5.891
 1285SOL    HW2 4755   4.894   2.513   5.920
 1286SOL     OW 4756   5.561   4.073   1.877
 1286SOL    HW1 4757   5.567   4.009   1.954
 1286SOL    HW2 4758   5.624   4.149   1.892
 1287SOL     OW 4759   6.475   5.580   6.765
 1287SOL    HW1 4760   6.442   5.649   6.829
 1287SOL    HW2 4761   6.410   5.503   6.763
 1288SOL     OW 4762   0.053   3.078   0.212
 1288SOL    HW1 4763   0.053   2.998   0.272
 1288SOL    HW2 4764   0.146   3.097   0.182
 1289SOL     OW 4765   6.619   5.848   2.216
 1289SOL    HW1 4766   6.717   5.853   2.234
 1289SOL    HW2 4767   6.602   5.861   2.119
 1290SOL     OW 4768   1.009   6.802   0.284
 1290SOL    HW1 4769   0.933   6.864   0.269
 1290SOL    HW2 4770   1.039   6.764   0.197
 1291SOL     OW 4771   1.039   6.176   6.548
 1291SOL    HW1 4772   1.050   6.172   6.647
 1291SOL    HW2 4773   1.113   6.125   6.504
 1292SOL     OW 4774   0.303   4.776   1.291
 1292SOL    HW1 4775   0.237   4.752   1.362
 1292SOL    HW2 4776   0.305   4.705   1.221
 1293SOL     OW 4777   1.074   1.785   6.941
 1293SOL    HW1 4778   1.089   1.710   7.005
 1293SOL    HW2 4779   0.989   1.770   6.891
 1294SOL     OW 4780   0.534   3.122   2.322
 1294SOL    HW1 4781   0.552   3.220   2.317
 1294SOL    HW2 4782   0.613   3.072   2.285
 1295SOL     OW 4783   5.595   3.022   1.599
 1295SOL    HW1 4784   5.668   2.971   1.553
 1295SOL    HW2 4785   5.550   2.963   1.666
 1296SOL     OW 4786   3.169   2.252   6.235
 1296SOL    HW1 4787   3.101   2.179   6.240
 1296SOL    HW2 4788   3.236   2.241   6.309
 1297SOL     OW 4789   6.559   1.353   5.461
 1297SOL    HW1 4790   6.554   1.383   5.365
 1297SOL    HW2 4791   6.549   1.432   5.521
 1298SOL     OW 4792   5.739   2.793   2.402
 1298SOL    HW1 4793   5.660   2.758   2.453
 1298SOL    HW2 4794   5.725   2.889   2.381
 1299SOL     OW 4795   1.187   4.477   4.994
 1299SOL    HW1 4796   1.148   4.508   5.081
 1299SOL    HW2 4797   1.205   4.379   4.999
 1300SOL     OW 4798   2.871   3.292   2.005
 1300SOL    HW1 4799   2.915   3.306   1.916
 1300SOL    HW2 4800   2.772   3.300   1.994
 1301SOL     OW 4801   0.488   6.415   4.174
 1301SOL    HW1 4802   0.398   6.454   4.192
 1301SOL    HW2 4803   0.479   6.318   4.154
 1302SOL     OW 4804   2.772   0.050   5.027
 1302SOL    HW1 4805   2.764   6.971   5.034
 1302SOL    HW2 4806   2.835   0.073   4.953
 1303SOL     OW 4807   3.602   1.504   0.863
 1303SOL    HW1 4808   3.664   1.440   0.817
 1303SOL    HW2 4809   3.511   1.463   0.870
 1304SOL     OW 4810   2.023   0.377   6.648
 1304SOL    HW1 4811   2.120   0.355   6.658
 1304SOL    HW2 4812   1.985   0.327   6.570
 1305SOL     OW 4813   4.194   0.068   4.635
 1305SOL    HW1 4814   4.269   0.039   4.575
 1305SOL    HW2 4815   4.151   7.009   4.677
 1306SOL     OW 4816   0.441   4.322   4.404
 1306SOL    HW1 4817   0.479   4.312   4.312
 1306SOL    HW2 4818   0.513   4.355   4.466
 1307SOL     OW 4819   0.765   3.201   4.864
 1307SOL    HW1 4820   0.749   3.162   4.773
 1307SOL    HW2 4821   0.776   3.300   4.857
 1308SOL     OW 4822   4.431   5.908   4.063
 1308SOL    HW1 4823   4.397   5.825   4.019
 1308SOL    HW2 4824   4.373   5.930   4.142
 1309SOL     OW 4825   5.564   2.663   4.567
 1309SOL    HW1 4826   5.660   2.643   4.584
 1309SOL    HW2 4827   5.513   2.577   4.558
 1310SOL     OW 4828   5.838   4.105   3.986
 1310SOL    HW1 4829   5.844   4.005   3.976
 1310SOL    HW2 4830   5.918   4.147   3.943
 1311SOL     OW 4831   6.003   6.792   4.699
 1311SOL    HW1 4832   5.935   6.856   4.662
 1311SOL    HW2 4833   6.058   6.839   4.768
 1312SOL     OW 4834   0.590   0.150   0.024
 1312SOL    HW1 4835   0.637   0.064   0.001
 1312SOL    HW2 4836   0.632   0.189   0.106
 1313SOL     OW 4837   3.421   5.370   5.311
 1313SOL    HW1 4838   3.358   5.446   5.292
 1313SOL    HW2 4839   3.381   5.311   5.381
 1314SOL     OW 4840   1.323   1.666   5.499
 1314SOL    HW1 4841   1.232   1.636   5.527
 1314SOL    HW2 4842   1.354   1.738   5.561
 1315SOL     OW 4843   2.261   1.284   1.326
 1315SOL    HW1 4844   2.216   1.341   1.257
 1315SOL    HW2 4845   2.338   1.236   1.286
 1316SOL     OW 4846   2.534   0.296   3.821
 1316SOL    HW1 4847   2.619   0.276   3.773
 1316SOL    HW2 4848   2.515   0.224   3.887
 1317SOL     OW 4849   0.113   4.853   4.290
 1317SOL    HW1 4850   0.049   4.929   4.302
 1317SOL    HW2 4851   0.196   4.887   4.245
 1318SOL     OW 4852   6.677   0.288   0.293
 1318SOL    HW1 4853   6.662   0.195   0.258
 1318SOL    HW2 4854   6.605   0.310   0.359
 1319SOL     OW 4855   6.566   1.037   0.668
 1319SOL    HW1 4856   6.622   0.988   0.602
 1319SOL    HW2 4857   6.520   1.114   0.624
 1320SOL     OW 4858   6.155   4.625   6.375
 1320SOL    HW1 4859   6.174   4.645   6.279
 1320SOL    HW2 4860   6.070   4.671   6.402
 1321SOL     OW 4861   3.972   3.143   6.449
 1321SOL    HW1 4862   4.064   3.111   6.472
 1321SOL    HW2 4863   3.958   3.136   6.350
 1322SOL     OW 4864   6.258   1.359   3.585
 1322SOL    HW1 4865   6.255   1.399   3.676
 1322SOL    HW2 4866   6.330   1.402   3.531
 1323SOL     OW 4867   0.177   1.531   5.482
 1323SOL    HW1 4868   0.104   1.581   5.435
 1323SOL    HW2 4869   0.264   1.579   5.469
 1324SOL     OW 4870   1.607   2.828   1.532
 1324SOL    HW1 4871   1.532   2.893   1.526
 1324SOL    HW2 4872   1.617   2.796   1.627
 1325SOL     OW 4873   1.775   6.469   3.304
 1325SOL    HW1 4874   1.821   6.386   3.337
 1325SOL    HW2 4875   1.691   6.484   3.356
 1326SOL     OW 4876   5.356   2.726   4.426
 1326SOL    HW1 4877   5.429   2.708   4.492
 1326SOL    HW2 4878   5.288   2.787   4.467
 1327SOL     OW 4879   2.814   4.773   3.042
 1327SOL    HW1 4880   2.909   4.745   3.035
 1327SOL    HW2 4881   2.809   4.871   3.060
 1328SOL     OW 4882   1.730   1.756   6.869
 1328SOL    HW1 4883   1.753   1.837   6.924
 1328SOL    HW2 4884   1.782   1.756   6.784
 1329SOL     OW 4885   0.607   1.335   0.618
 1329SOL    HW1 4886   0.672   1.410   0.633
 1329SOL    HW2 4887   0.514   1.369   0.632
 1330SOL     OW 4888   6.940   0.859   1.289
 1330SOL    HW1 4889   6.901   0.779   1.335
 1330SOL    HW2 4890   6.866   0.916   1.255
 1331SOL     OW 4891   5.791   0.473   1.667
 1331SOL    HW1 4892   5.836   0.512   1.747
 1331SOL    HW2 4893   5.855   0.468   1.591
 1332SOL     OW 4894   4.144   1.724   1.377
 1332SOL    HW1 4895   4.189   1.700   1.463
 1332SOL    HW2 4896   4.045   1.723   1.390
 1333SOL     OW 4897   3.886   4.065   4.896
 1333SOL    HW1 4898   3.870   4.143   4.957
 1333SOL    HW2 4899   3.848   4.085   4.806
 1334SOL     OW 4900   1.472   3.821   5.151
 1334SOL    HW1 4901   1.514   3.749   5.206
 1334SOL    HW2 4902   1.412   3.877   5.209
 1335SOL     OW 4903   1.896   6.081   3.103
 1335SOL    HW1 4904   1.961   6.048   3.171
 1335SOL    HW2 4905   1.924   6.050   3.012
 1336SOL     OW 4906   1.093   1.314   5.838
 1336SOL    HW1 4907   1.176   1.304   5.783
 1336SOL    HW2 4908   1.117   1.319   5.935
 1337SOL     OW 4909   1.953   2.084   6.425
 1337SOL    HW1 4910   1.984   2.006   6.479
 1337SOL    HW2 4911   1.875   2.128   6.471
 1338SOL     OW 4912   4.194   4.855   6.650
 1338SOL    HW1 4913   4.173   4.900   6.737
 1338SOL    HW2 4914   4.227   4.762   6.668
 1339SOL     OW 4915   0.066   4.218   6.053
 1339SOL    HW1 4916   0.148   4.268   6.023
 1339SOL    HW2 4917   0.034   4.256   6.140
 1340SOL     OW 4918   1.177   2.033   6.989
 1340SOL    HW1 4919   1.231   2.072   6.914
 1340SOL    HW2 4920   1.120   1.958   6.954
 1341SOL     OW 4921   3.157   1.378   3.806
 1341SOL    HW1 4922   3.150   1.280   3.788
 1341SOL    HW2 4923   3.133   1.396   3.902
 1342SOL     OW 4924   0.905   5.897   6.133
 1342SOL    HW1 4925   0.886   5.995   6.140
 1342SOL    HW2 4926   0.873   5.863   6.045
 1343SOL     OW 4927   3.955   6.003   2.495
 1343SOL    HW1 4928   3.979   5.923   2.441
 1343SOL    HW2 4929   4.027   6.019   2.563
 1344SOL     OW 4930   6.175   1.390   2.831
 1344SOL    HW1 4931   6.109   1.392   2.906
 1344SOL    HW2 4932   6.128   1.403   2.744
 1345SOL     OW 4933   0.833   0.672   3.166
 1345SOL    HW1 4934   0.930   0.648   3.162
 1345SOL    HW2 4935   0.816   0.750   3.105
 1346SOL     OW 4936   6.900   0.138   3.908
 1346SOL    HW1 4937   6.945   0.054   3.936
 1346SOL    HW2 4938   6.865   0.186   3.988
 1347SOL     OW 4939   6.558   6.415   3.123
 1347SOL    HW1 4940   6.538   6.503   3.080
 1347SOL    HW2 4941   6.631   6.426   3.190
 1348SOL     OW 4942   5.125   4.216   3.696
 1348SOL    HW1 4943   5.215   4.232   3.736
 1348SOL    HW2 4944   5.065   4.176   3.766
 1349SOL     OW 4945   3.705   2.138   0.013
 1349SOL    HW1 4946   3.642   2.155   6.958
 1349SOL    HW2 4947   3.799   2.139   7.001
 1350SOL     OW 4948   3.059   6.210   6.978
 1350SOL    HW1 4949   2.967   6.244   6.999
 1350SOL    HW2 4950   3.124   6.285   6.988
 1351SOL     OW 4951   0.041   1.266   3.937
 1351SOL    HW1 4952   0.017   1.211   3.857
 1351SOL    HW2 4953   6.980   1.304   3.978
 1352SOL     OW 4954   6.819   1.178   2.583
 1352SOL    HW1 4955   6.887   1.116   2.622
 1352SOL    HW2 4956   6.864   1.249   2.530
 1353SOL     OW 4957   0.238   4.597   4.640
 1353SOL    HW1 4958   0.324   4.617   4.593
 1353SOL    HW2 4959   0.258   4.548   4.725
 1354SOL     OW 4960   0.306   0.693   1.538
 1354SOL    HW1 4961   0.303   0.593   1.541
 1354SOL    HW2 4962   0.266   0.724   1.451
 1355SOL     OW 4963   4.862   3.724   6.866
 1355SOL    HW1 4964   4.905   3.716   6.776
 1355SOL    HW2 4965   4.764   3.741   6.855
 1356SOL     OW 4966   3.335   3.542   2.793
 1356SOL    HW1 4967   3.347   3.597   2.710
 1356SOL    HW2 4968   3.389   3.459   2.787
 1357SOL     OW 4969   2.573   3.304   6.201
 1357SOL    HW1 4970   2.542   3.340   6.290
 1357SOL    HW2 4971   2.548   3.208   6.194
 1358SOL     OW 4972   2.459   3.379   6.457
 1358SOL    HW1 4973   2.427   3.290   6.489
 1358SOL    HW2 4974   2.380   3.437   6.434
 1359SOL     OW 4975   6.151   3.641   1.495
 1359SOL    HW1 4976   6.169   3.697   1.414
 1359SOL    HW2 4977   6.216   3.665   1.567
 1360SOL     OW 4978   3.624   3.708   3.107
 1360SOL    HW1 4979   3.570   3.755   3.176
 1360SOL    HW2 4980   3.691   3.772   3.068
 1361SOL     OW 4981   0.740   6.458   6.342
 1361SOL    HW1 4982   0.664   6.393   6.333
 1361SOL    HW2 4983   0.737   6.524   6.267
 1362SOL     OW 4984   2.852   3.534   6.221
 1362SOL    HW1 4985   2.861   3.502   6.127
 1362SOL    HW2 4986   2.849   3.456   6.283
 1363SOL     OW 4987   6.309   5.561   2.725
 1363SOL    HW1 4988   6.405   5.575   2.751
 1363SOL    HW2 4989   6.291   5.463   2.718
 1364SOL     OW 4990   6.468   3.162   1.133
 1364SOL    HW1 4991   6.493   3.066   1.140
 1364SOL    HW2 4992   6.476   3.192   1.038
 1365SOL     OW 4993   0.539   3.287   6.069
 1365SOL    HW1 4994   0.574   3.305   5.977
 1365SOL    HW2 4995   0.602   3.326   6.137
 1366SOL     OW 4996   6.471   2.543   0.500
 1366SOL    HW1 4997   6.512   2.452   0.504
 1366SOL    HW2 4998   6.379   2.540   0.540
 1367SOL     OW 4999   0.136   5.379   3.717
 1367SOL    HW1 5000   0.114   5.441   3.792
 1367SOL    HW2 5001   0.061   5.378   3.651
 1368SOL     OW 5002   6.874   0.625   4.010
 1368SOL    HW1 5003   6.949   0.582   4.060
 1368SOL    HW2 5004   6.863   0.719   4.043
 1369SOL     OW 5005   2.452   5.984   2.474
 1369SOL    HW1 5006   2.551   5.968   2.476
 1369SOL    HW2 5007   2.404   5.903   2.507
 1370SOL     OW 5008   6.545   2.233   3.594
 1370SOL    HW1 5009   6.541   2.301   3.668
 1370SOL    HW2 5010   6.465   2.243   3.535
 1371SOL     OW 5011   5.589   1.003   4.447
 1371SOL    HW1 5012   5.650   0.932   4.412
 1371SOL    HW2 5013   5.503   1.000   4.397
 1372SOL     OW 5014   6.294   2.588   0.263
 1372SOL    HW1 5015   6.353   2.513   0.234
 1372SOL    HW2 5016   6.300   2.599   0.363
 1373SOL     OW 5017   4.747   2.791   1.836
 1373SOL    HW1 5018   4.719   2.885   1.857
 1373SOL    HW2 5019   4.752   2.779   1.737
 1374SOL     OW 5020   5.132   3.990   0.123
 1374SOL    HW1 5021   5.200   4.046   0.170
 1374SOL    HW2 5022   5.109   3.911   0.179
 1375SOL     OW 5023   5.950   5.917   4.885
 1375SOL    HW1 5024   5.996   5.830   4.867
 1375SOL    HW2 5025   5.859   5.900   4.920
 1376SOL     OW 5026   2.716   4.832   6.603
 1376SOL    HW1 5027   2.796   4.865   6.654
 1376SOL    HW2 5028   2.701   4.892   6.524
 1377SOL     OW 5029   1.469   2.593   3.100
 1377SOL    HW1 5030   1.484   2.518   3.035
 1377SOL    HW2 5031   1.547   2.599   3.163
 1378SOL     OW 5032   3.976   2.053   4.541
 1378SOL    HW1 5033   3.962   2.080   4.446
 1378SOL    HW2 5034   4.015   1.961   4.544
 1379SOL     OW 5035   5.827   5.518   1.409
 1379SOL    HW1 5036   5.862   5.607   1.379
 1379SOL    HW2 5037   5.774   5.477   1.335
 1380SOL     OW 5038   6.788   5.727   1.621
 1380SOL    HW1 5039   6.794   5.647   1.562
 1380SOL    HW2 5040   6.838   5.709   1.706
 1381SOL     OW 5041   6.465   2.102   5.481
 1381SOL    HW1 5042   6.396   2.164   5.519
 1381SOL    HW2 5043   6.424   2.011   5.470
 1382SOL     OW 5044   4.183   2.557   1.364
 1382SOL    HW1 5045   4.186   2.611   1.448
 1382SOL    HW2 5046   4.277   2.538   1.333
 1383SOL     OW 5047   1.044   0.859   1.793
 1383SOL    HW1 5048   1.005   0.798   1.861
 1383SOL    HW2 5049   1.041   0.815   1.703
 1384SOL     OW 5050   5.858   0.148   0.455
 1384SOL    HW1 5051   5.891   0.114   0.543
 1384SOL    HW2 5052   5.813   0.237   0.468
 1385SOL     OW 5053   1.437   5.093   3.565
 1385SOL    HW1 5054   1.490   5.077   3.482
 1385SOL    HW2 5055   1.496   5.077   3.645
 1386SOL     OW 5056   2.719   6.234   4.484
 1386SOL    HW1 5057   2.644   6.290   4.450
 1386SOL    HW2 5058   2.776   6.204   4.408
 1387SOL     OW 5059   3.696   5.859   1.353
 1387SOL    HW1 5060   3.601   5.831   1.368
 1387SOL    HW2 5061   3.750   5.836   1.434
 1388SOL     OW 5062   6.227   0.487   1.371
 1388SOL    HW1 5063   6.256   0.552   1.301
 1388SOL    HW2 5064   6.307   0.446   1.415
 1389SOL     OW 5065   6.526   1.143   2.619
 1389SOL    HW1 5066   6.454   1.077   2.596
 1389SOL    HW2 5067   6.607   1.094   2.651
 1390SOL     OW 5068   0.595   3.026   6.209
 1390SOL    HW1 5069   0.613   3.081   6.127
 1390SOL    HW2 5070   0.569   3.086   6.284
 1391SOL     OW 5071   6.606   1.785   3.665
 1391SOL    HW1 5072   6.601   1.861   3.600
 1391SOL    HW2 5073   6.683   1.801   3.728
 1392SOL     OW 5074   5.364   4.715   5.681
 1392SOL    HW1 5075   5.338   4.626   5.721
 1392SOL    HW2 5076   5.282   4.767   5.658
 1393SOL     OW 5077   5.495   5.939   5.483
 1393SOL    HW1 5078   5.509   5.850   5.438
 1393SOL    HW2 5079   5.411   5.980   5.448
 1394SOL     OW 5080   3.044   6.277   5.220
 1394SOL    HW1 5081   2.977   6.248   5.152
 1394SOL    HW2 5082   3.092   6.197   5.256
 1395SOL     OW 5083   3.073   4.836   5.718
 1395SOL    HW1 5084   3.017   4.890   5.655
 1395SOL    HW2 5085   3.021   4.820   5.802
 1396SOL     OW 5086   0.128   0.485   4.224
 1396SOL    HW1 5087   0.036   0.471   4.260
 1396SOL    HW2 5088   0.184   0.404   4.242
 1397SOL     OW 5089   6.038   6.973   4.922
 1397SOL    HW1 5090   6.110   6.971   4.992
 1397SOL    HW2 5091   6.015   0.047   4.900
 1398SOL     OW 5092   1.500   1.125   5.123
 1398SOL    HW1 5093   1.487   1.173   5.211
 1398SOL    HW2 5094   1.513   1.192   5.050
 1399SOL     OW 5095   3.171   6.422   1.588
 1399SOL    HW1 5096   3.183   6.448   1.492
 1399SOL    HW2 5097   3.211   6.493   1.647
 1400SOL     OW 5098   6.508   1.621   2.699
 1400SOL    HW1 5099   6.587   1.561   2.710
 1400SOL    HW2 5100   6.511   1.694   2.767
 1401SOL     OW 5101   0.426   1.680   5.518
 1401SOL    HW1 5102   0.395   1.738   5.593
 1401SOL    HW2 5103   0.520   1.703   5.495
 1402SOL     OW 5104   6.828   3.316   6.934
 1402SOL    HW1 5105   6.852   3.225   6.969
 1402SOL    HW2 5106   6.790   3.307   6.842
 1403SOL     OW 5107   3.340   0.720   1.892
 1403SOL    HW1 5108   3.411   0.782   1.860
 1403SOL    HW2 5109   3.279   0.769   1.954
 1404SOL     OW 5110   5.532   0.399   0.517
 1404SOL    HW1 5111   5.490   0.345   0.590
 1404SOL    HW2 5112   5.623   0.430   0.546
 1405SOL     OW 5113   1.895   3.896   0.849
 1405SOL    HW1 5114   1.843   3.954   0.786
 1405SOL    HW2 5115   1.963   3.844   0.797
 1406SOL     OW 5116   1.315   4.884   1.725
 1406SOL    HW1 5117   1.236   4.887   1.786
 1406SOL    HW2 5118   1.396   4.858   1.778
 1407SOL     OW 5119   0.061   1.381   1.898
 1407SOL    HW1 5120   0.153   1.370   1.860
 1407SOL    HW2 5121   7.015   1.375   1.824
 1408SOL     OW 5122   5.493   0.381   6.305
 1408SOL    HW1 5123   5.467   0.367   6.209
 1408SOL    HW2 5124   5.591   0.360   6.316
 1409SOL     OW 5125   0.182   0.287   5.091
 1409SOL    HW1 5126   0.117   0.341   5.145
 1409SOL    HW2 5127   0.267   0.338   5.080
 1410SOL     OW 5128   1.636   3.413   6.665
 1410SOL    HW1 5129   1.699   3.399   6.588
 1410SOL    HW2 5130   1.655   3.502   6.707
 1411SOL     OW 5131   2.429   6.312   2.936
 1411SOL    HW1 5132   2.355   6.254   2.902
 1411SOL    HW2 5133   2.431   6.398   2.885
 1412SOL     OW 5134   1.085   2.968   0.593
 1412SOL    HW1 5135   1.102   2.997   0.687
 1412SOL    HW2 5136   1.064   3.048   0.537
 1413SOL     OW 5137   2.040   0.734   5.080
 1413SOL    HW1 5138   2.124   0.777   5.111
 1413SOL    HW2 5139   2.059   0.642   5.046
 1414SOL     OW 5140   3.026   1.505   1.984
 1414SOL    HW1 5141   3.056   1.500   2.079
 1414SOL    HW2 5142   3.091   1.456   1.926
 1415SOL     OW 5143   2.285   6.957   4.176
 1415SOL    HW1 5144   2.359   6.995   4.230
 1415SOL    HW2 5145   2.216   6.916   4.236
 1416SOL     OW 5146   4.781   4.434   3.131
 1416SOL    HW1 5147   4.780   4.361   3.062
 1416SOL    HW2 5148   4.698   4.428   3.186
 1417SOL     OW 5149   2.382   2.187   6.666
 1417SOL    HW1 5150   2.358   2.231   6.752
 1417SOL    HW2 5151   2.325   2.224   6.592
 1418SOL     OW 5152   2.961   3.565   3.448
 1418SOL    HW1 5153   2.955   3.505   3.368
 1418SOL    HW2 5154   2.919   3.521   3.527
 1419SOL     OW 5155   3.022   6.572   4.375
 1419SOL    HW1 5156   3.089   6.533   4.312
 1419SOL    HW2 5157   3.037   6.535   4.466
 1420SOL     OW 5158   1.398   6.481   1.899
 1420SOL    HW1 5159   1.354   6.439   1.978
 1420SOL    HW2 5160   1.333   6.487   1.823
 1421SOL     OW 5161   1.560   3.039   3.173
 1421SOL    HW1 5162   1.462   3.045   3.192
 1421SOL    HW2 5163   1.574   2.989   3.087
 1422SOL     OW 5164   2.480   4.561   2.007
 1422SOL    HW1 5165   2.483   4.461   2.011
 1422SOL    HW2 5166   2.572   4.597   1.997
 1423SOL     OW 5167   5.830   6.475   2.023
 1423SOL    HW1 5168   5.747   6.466   2.078
 1423SOL    HW2 5169   5.806   6.510   1.932
 1424SOL     OW 5170   5.583   4.783   4.233
 1424SOL    HW1 5171   5.674   4.750   4.257
 1424SOL    HW2 5172   5.531   4.801   4.317
 1425SOL     OW 5173   1.331   6.127   4.061
 1425SOL    HW1 5174   1.381   6.044   4.035
 1425SOL    HW2 5175   1.316   6.184   3.980
 1426SOL     OW 5176   1.073   2.923   5.799
 1426SOL    HW1 5177   1.061   3.021   5.812
 1426SOL    HW2 5178   0.987   2.883   5.765
 1427SOL     OW 5179   0.064   6.794   3.039
 1427SOL    HW1 5180   0.069   6.881   2.991
 1427SOL    HW2 5181   0.133   6.732   3.002
 1428SOL     OW 5182   5.604   2.578   0.893
 1428SOL    HW1 5183   5.564   2.493   0.857
 1428SOL    HW2 5184   5.691   2.558   0.937
 1429SOL     OW 5185   6.134   2.173   0.388
 1429SOL    HW1 5186   6.116   2.074   0.394
 1429SOL    HW2 5187   6.177   2.193   0.300
 1430SOL     OW 5188   1.301   3.998   4.192
 1430SOL    HW1 5189   1.261   4.084   4.158
 1430SOL    HW2 5190   1.362   4.017   4.268
 1431SOL     OW 5191   2.298   1.895   1.684
 1431SOL    HW1 5192   2.300   1.995   1.685
 1431SOL    HW2 5193   2.236   1.861   1.754
 1432SOL     OW 5194   2.613   1.660   3.940
 1432SOL    HW1 5195   2.629   1.732   4.007
 1432SOL    HW2 5196   2.530   1.680   3.887
 1433SOL     OW 5197   4.309   1.558   4.533
 1433SOL    HW1 5198   4.282   1.482   4.474
 1433SOL    HW2 5199   4.230   1.587   4.588
 1434SOL     OW 5200   0.233   0.912   5.599
 1434SOL    HW1 5201   0.146   0.866   5.617
 1434SOL    HW2 5202   0.272   0.944   5.686
 1435SOL     OW 5203   6.120   1.089   2.263
 1435SOL    HW1 5204   6.036   1.035   2.256
 1435SOL    HW2 5205   6.199   1.030   2.252
 1436SOL     OW 5206   4.954   4.054   6.705
 1436SOL    HW1 5207   4.968   3.960   6.675
 1436SOL    HW2 5208   4.934   4.055   6.803
 1437SOL     OW 5209   2.532   2.215   4.041
 1437SOL    HW1 5210   2.469   2.293   4.032
 1437SOL    HW2 5211   2.491   2.146   4.099
 1438SOL     OW 5212   3.314   6.226   1.355
 1438SOL    HW1 5213   3.352   6.252   1.443
 1438SOL    HW2 5214   3.214   6.227   1.359
 1439SOL     OW 5215   6.767   6.208   1.803
 1439SOL    HW1 5216   6.719   6.236   1.886
 1439SOL    HW2 5217   6.865   6.210   1.820
 1440SOL     OW 5218   3.415   3.942   1.427
 1440SOL    HW1 5219   3.335   3.883   1.431
 1440SOL    HW2 5220   3.498   3.887   1.432
 1441SOL     OW 5221   6.445   0.821   1.909
 1441SOL    HW1 5222   6.543   0.812   1.891
 1441SOL    HW2 5223   6.401   0.731   1.905
 1442SOL     OW 5224   6.292   6.485   6.860
 1442SOL    HW1 5225   6.348   6.545   6.804
 1442SOL    HW2 5226   6.195   6.501   6.840
 1443SOL     OW 5227   0.325   2.589   2.582
 1443SOL    HW1 5228   0.340   2.645   2.500
 1443SOL    HW2 5229   0.363   2.637   2.662
 1444SOL     OW 5230   5.297   6.961   0.955
 1444SOL    HW1 5231   5.225   0.009   0.942
 1444SOL    HW2 5232   5.348   6.982   1.038
 1445SOL     OW 5233   0.926   3.280   2.948
 1445SOL    HW1 5234   1.004   3.242   2.997
 1445SOL    HW2 5235   0.849   3.216   2.952
 1446SOL     OW 5236   6.620   0.488   6.844
 1446SOL    HW1 5237   6.677   0.414   6.880
 1446SOL    HW2 5238   6.572   0.533   6.920
 1447SOL     OW 5239   5.537   4.893   2.831
 1447SOL    HW1 5240   5.516   4.920   2.925
 1447SOL    HW2 5241   5.511   4.967   2.768
 1448SOL     OW 5242   6.901   3.078   4.460
 1448SOL    HW1 5243   6.864   2.986   4.470
 1448SOL    HW2 5244   6.974   3.092   4.526
 1449SOL     OW 5245   1.571   4.067   5.476
 1449SOL    HW1 5246   1.618   4.088   5.391
 1449SOL    HW2 5247   1.625   4.002   5.529
 1450SOL     OW 5248   0.946   2.590   6.131
 1450SOL    HW1 5249   0.977   2.585   6.226
 1450SOL    HW2 5250   0.918   2.684   6.110
 1451SOL     OW 5251   1.046   6.164   1.991
 1451SOL    HW1 5252   1.120   6.116   2.037
 1451SOL    HW2 5253   0.962   6.154   2.043
 1452SOL     OW 5254   4.565   2.565   5.538
 1452SOL    HW1 5255   4.531   2.615   5.618
 1452SOL    HW2 5256   4.494   2.562   5.468
 1453SOL     OW 5257   0.651   4.649   5.325
 1453SOL    HW1 5258   0.580   4.592   5.368
 1453SOL    HW2 5259   0.741   4.615   5.351
 1454SOL     OW 5260   2.431   1.847   3.341
 1454SOL    HW1 5261   2.431   1.844   3.241
 1454SOL    HW2 5262   2.388   1.932   3.371
 1455SOL     OW 5263   1.516   6.420   2.938
 1455SOL    HW1 5264   1.576   6.359   2.988
 1455SOL    HW2 5265   1.510   6.391   2.842
 1456SOL     OW 5266   6.678   6.387   6.641
 1456SOL    HW1 5267   6.612   6.360   6.570
 1456SOL    HW2 5268   6.643   6.466   6.691
 1457SOL     OW 5269   0.247   4.202   0.812
 1457SOL    HW1 5270   0.315   4.229   0.880
 1457SOL    HW2 5271   0.254   4.104   0.794
 1458SOL     OW 5272   5.770   4.658   5.584
 1458SOL    HW1 5273   5.729   4.688   5.670
 1458SOL    HW2 5274   5.862   4.625   5.601
 1459SOL     OW 5275   4.176   6.620   5.906
 1459SOL    HW1 5276   4.165   6.520   5.898
 1459SOL    HW2 5277   4.166   6.647   6.001
 1460SOL     OW 5278   1.575   6.458   4.984
 1460SOL    HW1 5279   1.606   6.543   4.943
 1460SOL    HW2 5280   1.506   6.478   5.054
 1461SOL     OW 5281   0.556   3.483   3.256
 1461SOL    HW1 5282   0.646   3.512   3.225
 1461SOL    HW2 5283   0.562   3.451   3.350
 1462SOL     OW 5284   0.578   0.599   6.574
 1462SOL    HW1 5285   0.602   0.580   6.669
 1462SOL    HW2 5286   0.593   0.518   6.518
 1463SOL     OW 5287   1.182   5.314   6.341
 1463SOL    HW1 5288   1.219   5.406   6.324
 1463SOL    HW2 5289   1.221   5.278   6.426
 1464SOL     OW 5290   6.452   4.050   3.362
 1464SOL    HW1 5291   6.501   4.094   3.287
 1464SOL    HW2 5292   6.441   3.952   3.342
 1465SOL     OW 5293   1.669   1.901   3.776
 1465SOL    HW1 5294   1.729   1.830   3.812
 1465SOL    HW2 5295   1.651   1.884   3.679
 1466SOL     OW 5296   3.744   2.609   1.685
 1466SOL    HW1 5297   3.771   2.553   1.607
 1466SOL    HW2 5298   3.690   2.554   1.749
 1467SOL     OW 5299   1.511   1.365   4.199
 1467SOL    HW1 5300   1.444   1.349   4.272
 1467SOL    HW2 5301   1.595   1.403   4.239
 1468SOL     OW 5302   1.967   5.337   1.825
 1468SOL    HW1 5303   2.025   5.265   1.863
 1468SOL    HW2 5304   2.023   5.416   1.801
 1469SOL     OW 5305   6.827   6.415   3.233
 1469SOL    HW1 5306   6.878   6.433   3.149
 1469SOL    HW2 5307   6.885   6.433   3.312
 1470SOL     OW 5308   6.780   3.150   1.288
 1470SOL    HW1 5309   6.721   3.089   1.340
 1470SOL    HW2 5310   6.760   3.141   1.190
 1471SOL     OW 5311   0.335   0.296   0.566
 1471SOL    HW1 5312   0.431   0.269   0.580
 1471SOL    HW2 5313   0.332   0.392   0.539
 1472SOL     OW 5314   2.679   6.381   6.721
 1472SOL    HW1 5315   2.717   6.474   6.724
 1472SOL    HW2 5316   2.615   6.369   6.796
 1473SOL     OW 5317   3.317   5.210   4.788
 1473SOL    HW1 5318   3.245   5.237   4.852
 1473SOL    HW2 5319   3.337   5.287   4.727
 1474SOL     OW 5320   4.142   5.278   1.691
 1474SOL    HW1 5321   4.239   5.258   1.673
 1474SOL    HW2 5322   4.136   5.356   1.754
 1475SOL     OW 5323   5.168   1.653   0.329
 1475SOL    HW1 5324   5.216   1.664   0.416
 1475SOL    HW2 5325   5.232   1.665   0.253
 1476SOL     OW 5326   2.950   1.221   1.358
 1476SOL    HW1 5327   2.937   1.292   1.427
 1476SOL    HW2 5328   2.904   1.248   1.273
 1477SOL     OW 5329   4.300   6.900   0.279
 1477SOL    HW1 5330   4.203   6.888   0.258
 1477SOL    HW2 5331   4.314   6.987   0.325
 1478SOL     OW 5332   5.690   6.591   5.409
 1478SOL    HW1 5333   5.701   6.544   5.321
 1478SOL    HW2 5334   5.780   6.614   5.446
 1479SOL     OW 5335   3.558   4.023   2.408
 1479SOL    HW1 5336   3.572   4.080   2.326
 1479SOL    HW2 5337   3.464   4.033   2.440
 1480SOL     OW 5338   2.322   0.342   6.091
 1480SOL    HW1 5339   2.252   0.411   6.073
 1480SOL    HW2 5340   2.278   0.254   6.110
 1481SOL     OW 5341   5.638   2.446   5.385
 1481SOL    HW1 5342   5.563   2.381   5.369
 1481SOL    HW2 5343   5.720   2.415   5.335
 1482SOL     OW 5344   4.319   0.252   0.831
 1482SOL    HW1 5345   4.370   0.338   0.822
 1482SOL    HW2 5346   4.224   0.272   0.855
 1483SOL     OW 5347   4.703   1.865   5.609
 1483SOL    HW1 5348   4.785   1.914   5.579
 1483SOL    HW2 5349   4.672   1.804   5.536
 1484SOL     OW 5350   3.133   4.908   4.341
 1484SOL    HW1 5351   3.109   4.814   4.365
 1484SOL    HW2 5352   3.204   4.941   4.404
 1485SOL     OW 5353   5.220   0.912   3.521
 1485SOL    HW1 5354   5.275   0.992   3.497
 1485SOL    HW2 5355   5.129   0.920   3.480
 1486SOL     OW 5356   4.510   6.554   3.441
 1486SOL    HW1 5357   4.574   6.558   3.364
 1486SOL    HW2 5358   4.543   6.613   3.515
 1487SOL     OW 5359   0.177   0.744   0.202
 1487SOL    HW1 5360   0.211   0.663   0.249
 1487SOL    HW2 5361   0.158   0.816   0.268
 1488SOL     OW 5362   6.164   0.610   2.362
 1488SOL    HW1 5363   6.164   0.528   2.419
 1488SOL    HW2 5364   6.071   0.632   2.335
 1489SOL     OW 5365   3.787   4.708   6.919
 1489SOL    HW1 5366   3.801   4.738   6.825
 1489SOL    HW2 5367   3.816   4.613   6.928
 1490SOL     OW 5368   0.289   2.794   1.928
 1490SOL    HW1 5369   0.319   2.717   1.984
 1490SOL    HW2 5370   0.210   2.767   1.873
 1491SOL     OW 5371   6.553   3.639   2.173
 1491SOL    HW1 5372   6.547   3.677   2.265
 1491SOL    HW2 5373   6.533   3.712   2.106
 1492SOL     OW 5374   6.560   0.407   2.469
 1492SOL    HW1 5375   6.594   0.490   2.426
 1492SOL    HW2 5376   6.603   0.327   2.426
 1493SOL     OW 5377   4.469   1.110   6.029
 1493SOL    HW1 5378   4.429   1.183   5.974
 1493SOL    HW2 5379   4.506   1.148   6.114
 1494SOL     OW 5380   5.808   2.251   6.355
 1494SOL    HW1 5381   5.830   2.195   6.436
 1494SOL    HW2 5382   5.775   2.341   6.385
 1495SOL     OW 5383   6.321   3.490   3.597
 1495SOL    HW1 5384   6.272   3.576   3.581
 1495SOL    HW2 5385   6.333   3.441   3.510
 1496SOL     OW 5386   6.785   6.974   6.901
 1496SOL    HW1 5387   6.849   6.935   6.967
 1496SOL    HW2 5388   6.836   7.012   6.824
 1497SOL     OW 5389   5.154   2.506   2.626
 1497SOL    HW1 5390   5.141   2.423   2.572
 1497SOL    HW2 5391   5.164   2.482   2.722
 1498SOL     OW 5392   2.891   4.509   1.199
 1498SOL    HW1 5393   2.920   4.604   1.190
 1498SOL    HW2 5394   2.825   4.502   1.275
 1499SOL     OW 5395   0.475   3.654   5.704
 1499SOL    HW1 5396   0.451   3.604   5.620
 1499SOL    HW2 5397   0.391   3.673   5.755
 1500SOL     OW 5398   0.921   5.906   6.968
 1500SOL    HW1 5399   0.951   5.811   6.953
 1500SOL    HW2 5400   0.906   5.950   6.880
 1501SOL     OW 5401   6.406   1.690   6.619
 1501SOL    HW1 5402   6.414   1.622   6.546
 1501SOL    HW2 5403   6.466   1.664   6.695
 1502SOL     OW 5404   6.504   1.274   6.051
 1502SOL    HW1 5405   6.587   1.305   6.099
 1502SOL    HW2 5406   6.501   1.316   5.960
 1503SOL     OW 5407   0.823   3.137   2.596
 1503SOL    HW1 5408   0.806   3.149   2.694
 1503SOL    HW2 5409   0.918   3.109   2.583
 1504SOL     OW 5410   0.419   0.289   4.001
 1504SOL    HW1 5411   0.450   0.254   3.912
 1504SOL    HW2 5412   0.321   0.310   3.997
 1505SOL     OW 5413   5.848   6.182   5.474
 1505SOL    HW1 5414   5.771   6.158   5.534
 1505SOL    HW2 5415   5.933   6.182   5.528
 1506SOL     OW 5416   1.356   0.602   1.073
 1506SOL    HW1 5417   1.421   0.539   1.117
 1506SOL    HW2 5418   1.309   0.554   0.999
 1507SOL     OW 5419   1.252   1.793   4.521
 1507SOL    HW1 5420   1.330   1.777   4.580
 1507SOL    HW2 5421   1.251   1.725   4.447
 1508SOL     OW 5422   0.801   1.538   0.675
 1508SOL    HW1 5423   0.835   1.499   0.761
 1508SOL    HW2 5424   0.872   1.531   0.605
 1509SOL     OW 5425   5.119   1.168   4.841
 1509SOL    HW1 5426   5.131   1.163   4.742
 1509SOL    HW2 5427   5.194   1.222   4.881
 1510SOL     OW 5428   4.050   6.899   3.890
 1510SOL    HW1 5429   4.123   6.838   3.921
 1510SOL    HW2 5430   3.962   6.866   3.925
 1511SOL     OW 5431   3.101   3.855   4.348
 1511SOL    HW1 5432   3.036   3.852   4.424
 1511SOL    HW2 5433   3.148   3.943   4.347
 1512SOL     OW 5434   6.170   5.951   1.022
 1512SOL    HW1 5435   6.178   5.866   1.074
 1512SOL    HW2 5436   6.259   5.996   1.017
 1513SOL     OW 5437   3.413   6.890   5.850
 1513SOL    HW1 5438   3.370   6.976   5.822
 1513SOL    HW2 5439   3.343   6.824   5.877
 1514SOL     OW 5440   3.152   2.333   5.671
 1514SOL    HW1 5441   3.167   2.420   5.623
 1514SOL    HW2 5442   3.179   2.344   5.767
 1515SOL     OW 5443   6.451   2.060   2.657
 1515SOL    HW1 5444   6.510   2.075   2.578
 1515SOL    HW2 5445   6.357   2.045   2.626
 1516SOL     OW 5446   5.820   5.552   4.851
 1516SOL    HW1 5447   5.857   5.555   4.944
 1516SOL    HW2 5448   5.867   5.618   4.793
 1517SOL     OW 5449   3.442   6.552   3.393
 1517SOL    HW1 5450   3.519   6.608   3.365
 1517SOL    HW2 5451   3.473   6.483   3.459
 1518SOL     OW 5452   6.186   2.805   0.133
 1518SOL    HW1 5453   6.108   2.847   0.179
 1518SOL    HW2 5454   6.221   2.730   0.189
 1519SOL     OW 5455   0.044   5.313   0.863
 1519SOL    HW1 5456   0.131   5.312   0.913
 1519SOL    HW2 5457   0.040   5.235   0.801
 1520SOL     OW 5458   0.959   4.756   1.502
 1520SOL    HW1 5459   0.935   4.789   1.411
 1520SOL    HW2 5460   0.883   4.772   1.565
 1521SOL     OW 5461   2.601   4.638   7.011
 1521SOL    HW1 5462   2.556   4.554   6.982
 1521SOL    HW2 5463   2.536   4.695   0.040
 1522SOL     OW 5464   5.179   5.603   4.708
 1522SOL    HW1 5465   5.106   5.543   4.740
 1522SOL    HW2 5466   5.144   5.696   4.696
 1523SOL     OW 5467   3.758   6.921   6.709
 1523SOL    HW1 5468   3.759   6.827   6.744
 1523SOL    HW2 5469   3.838   6.970   6.744
 1524SOL     OW 5470   2.543   2.501   2.952
 1524SOL    HW1 5471   2.615   2.464   2.892
 1524SOL    HW2 5472   2.537   2.447   3.035
 1525SOL     OW 5473   5.754   3.103   0.853
 1525SOL    HW1 5474   5.721   3.010   0.836
 1525SOL    HW2 5475   5.770   3.149   0.767
 1526SOL     OW 5476   0.527   1.615   0.264
 1526SOL    HW1 5477   0.621   1.626   0.231
 1526SOL    HW2 5478   0.474   1.697   0.243
 1527SOL     OW 5479   3.822   1.101   4.726
 1527SOL    HW1 5480   3.869   1.089   4.814
 1527SOL    HW2 5481   3.821   1.198   4.701
 1528SOL     OW 5482   4.534   4.629   1.088
 1528SOL    HW1 5483   4.588   4.599   1.010
 1528SOL    HW2 5484   4.439   4.598   1.078
 1529SOL     OW 5485   5.414   1.400   7.016
 1529SOL    HW1 5486   5.343   1.369   6.953
 1529SOL    HW2 5487   5.391   1.370   0.088
 1530SOL     OW 5488   3.582   0.462   1.762
 1530SOL    HW1 5489   3.604   0.416   1.676
 1530SOL    HW2 5490   3.493   0.507   1.755
 1531SOL     OW 5491   4.234   0.294   4.311
 1531SOL    HW1 5492   4.198   0.383   4.284
 1531SOL    HW2 5493   4.270   0.298   4.404
 1532SOL     OW 5494   3.461   4.824   6.186
 1532SOL    HW1 5495   3.516   4.843   6.105
 1532SOL    HW2 5496   3.364   4.823   6.161
 1533SOL     OW 5497   5.972   5.657   0.699
 1533SOL    HW1 5498   5.887   5.691   0.660
 1533SOL    HW2 5499   5.958   5.630   0.794
 1534SOL     OW 5500   3.718   5.717   0.210
 1534SOL    HW1 5501   3.813   5.734   0.238
 1534SOL    HW2 5502   3.673   5.660   0.278
 1535SOL     OW 5503   5.687   6.472   4.483
 1535SOL    HW1 5504   5.734   6.486   4.396
 1535SOL    HW2 5505   5.696   6.554   4.539
 1536SOL     OW 5506   4.272   4.619   0.255
 1536SOL    HW1 5507   4.249   4.565   0.336
 1536SOL    HW2 5508   4.201   4.605   0.185
 1537SOL     OW 5509   3.624   5.503   3.695
 1537SOL    HW1 5510   3.634   5.562   3.775
 1537SOL    HW2 5511   3.541   5.448   3.703
 1538SOL     OW 5512   3.561   1.254   0.249
 1538SOL    HW1 5513   3.487   1.304   0.205
 1538SOL    HW2 5514   3.566   1.162   0.211
 1539SOL     OW 5515   4.902   3.287   2.003
 1539SOL    HW1 5516   4.850   3.209   2.035
 1539SOL    HW2 5517   4.921   3.277   1.905
 1540SOL     OW 5518   1.561   6.836   5.341
 1540SOL    HW1 5519   1.577   6.933   5.328
 1540SOL    HW2 5520   1.635   6.784   5.298
 1541SOL     OW 5521   3.794   3.344   4.637
 1541SOL    HW1 5522   3.892   3.359   4.639
 1541SOL    HW2 5523   3.770   3.290   4.557
 1542SOL     OW 5524   6.685   6.555   1.910
 1542SOL    HW1 5525   6.693   6.634   1.850
 1542SOL    HW2 5526   6.595   6.513   1.899
 1543SOL     OW 5527   3.517   5.698   6.613
 1543SOL    HW1 5528   3.554   5.783   6.649
 1543SOL    HW2 5529   3.532   5.694   6.514
 1544SOL     OW 5530   3.641   3.720   4.116
 1544SOL    HW1 5531   3.669   3.679   4.203
 1544SOL    HW2 5532   3.712   3.783   4.085
 1545SOL     OW 5533   6.366   0.550   1.872
 1545SOL    HW1 5534   6.316   0.552   1.785
 1545SOL    HW2 5535   6.303   0.530   1.946
 1546SOL     OW 5536   4.982   6.413   6.205
 1546SOL    HW1 5537   4.966   6.351   6.128
 1546SOL    HW2 5538   4.995   6.360   6.288
 1547SOL     OW 5539   1.566   4.303   0.699
 1547SOL    HW1 5540   1.490   4.262   0.647
 1547SOL    HW2 5541   1.536   4.390   0.738
 1548SOL     OW 5542   6.695   3.742   0.165
 1548SOL    HW1 5543   6.783   3.695   0.170
 1548SOL    HW2 5544   6.622   3.678   0.188
 1549SOL     OW 5545   4.170   1.296   3.940
 1549SOL    HW1 5546   4.121   1.369   3.892
 1549SOL    HW2 5547   4.206   1.332   4.026
 1550SOL     OW 5548   3.187   2.937   2.075
 1550SOL    HW1 5549   3.093   2.962   2.098
 1550SOL    HW2 5550   3.187   2.880   1.993
 1551SOL     OW 5551   1.023   5.227   6.988
 1551SOL    HW1 5552   0.993   5.313   0.009
 1551SOL    HW2 5553   0.976   5.214   6.901
 1552SOL     OW 5554   2.555   4.455   0.916
 1552SOL    HW1 5555   2.600   4.535   0.956
 1552SOL    HW2 5556   2.580   4.373   0.967
 1553SOL     OW 5557   0.023   1.149   6.236
 1553SOL    HW1 5558   6.945   1.168   6.239
 1553SOL    HW2 5559   0.073   1.236   6.234
 1554SOL     OW 5560   3.025   2.140   3.740
 1554SOL    HW1 5561   3.017   2.182   3.831
 1554SOL    HW2 5562   3.036   2.041   3.750
 1555SOL     OW 5563   5.726   2.930   6.381
 1555SOL    HW1 5564   5.709   2.887   6.293
 1555SOL    HW2 5565   5.707   2.865   6.454
 1556SOL     OW 5566   2.004   1.102   5.912
 1556SOL    HW1 5567   1.979   1.100   5.815
 1556SOL    HW2 5568   1.936   1.154   5.963
 1557SOL     OW 5569   1.655   3.939   6.244
 1557SOL    HW1 5570   1.701   3.974   6.162
 1557SOL    HW2 5571   1.610   4.015   6.291
 1558SOL     OW 5572   6.006   0.280   4.576
 1558SOL    HW1 5573   5.954   0.200   4.545
 1558SOL    HW2 5574   6.101   0.272   4.546
 1559SOL     OW 5575   0.995   2.801   6.569
 1559SOL    HW1 5576   1.010   2.799   6.470
 1559SOL    HW2 5577   1.082   2.788   6.617
 1560SOL     OW 5578   0.152   1.361   0.040
 1560SOL    HW1 5579   0.232   1.339   0.095
 1560SOL    HW2 5580   0.142   1.460   0.035
 1561SOL     OW 5581   4.516   6.147   3.249
 1561SOL    HW1 5582   4.545   6.175   3.341
 1561SOL    HW2 5583   4.420   6.169   3.237
 1562SOL     OW 5584   4.634   6.335   2.033
 1562SOL    HW1 5585   4.565   6.364   1.968
 1562SOL    HW2 5586   4.705   6.282   1.986
 1563SOL     OW 5587   3.514   0.977   5.973
 1563SOL    HW1 5588   3.610   0.983   5.945
 1563SOL    HW2 5589   3.506   0.999   6.070
 1564SOL     OW 5590   1.485   0.536   2.799
 1564SOL    HW1 5591   1.584   0.547   2.805
 1564SOL    HW2 5592   1.464   0.450   2.751
 1565SOL     OW 5593   4.814   4.133   2.557
 1565SOL    HW1 5594   4.888   4.196   2.580
 1565SOL    HW2 5595   4.726   4.179   2.572
 1566SOL     OW 5596   5.630   3.548   3.624
 1566SOL    HW1 5597   5.582   3.597   3.552
 1566SOL    HW2 5598   5.709   3.500   3.586
 1567SOL     OW 5599   6.129   6.212   6.914
 1567SOL    HW1 5600   6.071   6.284   6.952
 1567SOL    HW2 5601   6.199   6.187   6.981
 1568SOL     OW 5602   1.927   0.435   0.522
 1568SOL    HW1 5603   1.834   0.410   0.498
 1568SOL    HW2 5604   1.976   0.354   0.556
 1569SOL     OW 5605   4.441   5.993   3.740
 1569SOL    HW1 5606   4.382   6.068   3.709
 1569SOL    HW2 5607   4.469   6.011   3.834
 1570SOL     OW 5608   2.761   1.177   1.744
 1570SOL    HW1 5609   2.767   1.250   1.676
 1570SOL    HW2 5610   2.774   1.088   1.700
 1571SOL     OW 5611   6.454   2.890   1.267
 1571SOL    HW1 5612   6.454   2.968   1.331
 1571SOL    HW2 5613   6.545   2.881   1.226
 1572SOL     OW 5614   0.136   0.346   2.615
 1572SOL    HW1 5615   0.164   0.359   2.710
 1572SOL    HW2 5616   0.039   0.369   2.606
 1573SOL     OW 5617   5.004   6.819   1.663
 1573SOL    HW1 5618   5.068   6.873   1.717
 1573SOL    HW2 5619   5.013   6.843   1.566
 1574SOL     OW 5620   0.517   1.937   1.644
 1574SOL    HW1 5621   0.466   1.985   1.715
 1574SOL    HW2 5622   0.458   1.918   1.566
 1575SOL     OW 5623   2.480   1.977   0.282
 1575SOL    HW1 5624   2.405   1.917   0.254
 1575SOL    HW2 5625   2.442   2.062   0.318
 1576SOL     OW 5626   5.232   6.070   3.999
 1576SOL    HW1 5627   5.235   5.980   3.956
 1576SOL    HW2 5628   5.255   6.062   4.096
 1577SOL     OW 5629   2.362   1.676   5.525
 1577SOL    HW1 5630   2.402   1.618   5.454
 1577SOL    HW2 5631   2.384   1.639   5.615
 1578SOL     OW 5632   5.450   3.650   4.958
 1578SOL    HW1 5633   5.497   3.584   4.899
 1578SOL    HW2 5634   5.441   3.613   5.050
 1579SOL     OW 5635   0.045   1.355   3.407
 1579SOL    HW1 5636   6.966   1.351   3.396
 1579SOL    HW2 5637   0.068   1.417   3.481
 1580SOL     OW 5638   2.953   4.072   5.326
 1580SOL    HW1 5639   2.984   4.021   5.406
 1580SOL    HW2 5640   2.872   4.028   5.288
 1581SOL     OW 5641   6.180   4.374   4.229
 1581SOL    HW1 5642   6.235   4.325   4.162
 1581SOL    HW2 5643   6.084   4.371   4.201
 1582SOL     OW 5644   0.775   4.583   4.478
 1582SOL    HW1 5645   0.745   4.589   4.383
 1582SOL    HW2 5646   0.875   4.586   4.481
 1583SOL     OW 5647   2.119   3.288   3.509
 1583SOL    HW1 5648   2.031   3.273   3.465
 1583SOL    HW2 5649   2.163   3.200   3.527
 1584SOL     OW 5650   2.588   6.361   5.225
 1584SOL    HW1 5651   2.576   6.371   5.323
 1584SOL    HW2 5652   2.498   6.354   5.181
 1585SOL     OW 5653   5.460   2.483   3.231
 1585SOL    HW1 5654   5.519   2.505   3.309
 1585SOL    HW2 5655   5.391   2.555   3.220
 1586SOL     OW 5656   3.877   3.789   2.059
 1586SOL    HW1 5657   3.824   3.786   1.974
 1586SOL    HW2 5658   3.827   3.741   2.131
 1587SOL     OW 5659   2.829   5.833   6.994
 1587SOL    HW1 5660   2.798   5.806   6.904
 1587SOL    HW2 5661   2.928   5.849   6.992
 1588SOL     OW 5662   4.936   1.407   3.031
 1588SOL    HW1 5663   4.948   1.324   3.086
 1588SOL    HW2 5664   5.008   1.412   2.962
 1589SOL     OW 5665   5.533   4.196   3.455
 1589SOL    HW1 5666   5.623   4.205   3.498
 1589SOL    HW2 5667   5.485   4.283   3.461
 1590SOL     OW 5668   1.782   6.571   6.890
 1590SOL    HW1 5669   1.866   6.599   6.843
 1590SOL    HW2 5670   1.804   6.497   6.955
 1591SOL     OW 5671   1.103   4.787   2.357
 1591SOL    HW1 5672   1.084   4.695   2.391
 1591SOL    HW2 5673   1.047   4.806   2.276
 1592SOL     OW 5674   3.308   3.182   2.113
 1592SOL    HW1 5675   3.260   3.258   2.069
 1592SOL    HW2 5676   3.259   3.097   2.096
 1593SOL     OW 5677   0.775   6.304   4.793
 1593SOL    HW1 5678   0.749   6.207   4.793
 1593SOL    HW2 5679   0.854   6.317   4.734
 1594SOL     OW 5680   6.736   5.456   3.119
 1594SOL    HW1 5681   6.704   5.451   3.024
 1594SOL    HW2 5682   6.834   5.476   3.121
 1595SOL     OW 5683   0.458   4.747   6.713
 1595SOL    HW1 5684   0.507   4.799   6.643
 1595SOL    HW2 5685   0.513   4.744   6.797
 1596SOL     OW 5686   1.717   4.569   5.434
 1596SOL    HW1 5687   1.716   4.498   5.364
 1596SOL    HW2 5688   1.806   4.571   5.479
 1597SOL     OW 5689   2.228   6.315   1.609
 1597SOL    HW1 5690   2.161   6.313   1.683
 1597SOL    HW2 5691   2.305   6.373   1.635
 1598SOL     OW 5692   0.765   4.378   0.438
 1598SOL    HW1 5693   0.799   4.293   0.477
 1598SOL    HW2 5694   0.669   4.368   0.413
 1599SOL     OW 5695   3.894   4.278   6.667
 1599SOL    HW1 5696   3.846   4.310   6.585
 1599SOL    HW2 5697   3.885   4.179   6.674
 1600SOL     OW 5698   5.390   1.718   5.138
 1600SOL    HW1 5699   5.366   1.750   5.046
 1600SOL    HW2 5700   5.320   1.655   5.170
 1601SOL     OW 5701   1.889   4.446   4.577
 1601SOL    HW1 5702   1.790   4.432   4.573
 1601SOL    HW2 5703   1.915   4.473   4.670
 1602SOL     OW 5704   1.040   6.141   2.922
 1602SOL    HW1 5705   1.139   6.145   2.933
 1602SOL    HW2 5706   1.016   6.166   2.828
 1603SOL     OW 5707   1.086   6.497   2.033
 1603SOL    HW1 5708   1.171   6.484   2.083
 1603SOL    HW2 5709   1.057   6.410   1.993
 1604SOL     OW 5710   6.257   5.472   6.567
 1604SOL    HW1 5711   6.209   5.409   6.628
 1604SOL    HW2 5712   6.248   5.566   6.601
 1605SOL     OW 5713   6.395   0.484   2.669
 1605SOL    HW1 5714   6.455   0.432   2.608
 1605SOL    HW2 5715   6.430   0.578   2.678
 1606SOL     OW 5716   4.715   6.777   5.670
 1606SOL    HW1 5717   4.761   6.710   5.612
 1606SOL    HW2 5718   4.758   6.777   5.760
 1607SOL     OW 5719   4.183   2.477   0.643
 1607SOL    HW1 5720   4.086   2.503   0.647
 1607SOL    HW2 5721   4.217   2.463   0.736
 1608SOL     OW 5722   1.932   6.803   0.034
 1608SOL    HW1 5723   1.910   6.751   0.117
 1608SOL    HW2 5724   1.851   6.855   0.005
 1609SOL     OW 5725   6.395   2.377   6.285
 1609SOL    HW1 5726   6.487   2.352   6.254
 1609SOL    HW2 5727   6.330   2.360   6.211
 1610SOL     OW 5728   5.586   5.265   5.012
 1610SOL    HW1 5729   5.650   5.270   5.088
 1610SOL    HW2 5730   5.505   5.321   5.032
 1611SOL     OW 5731   3.756   2.918   2.379
 1611SOL    HW1 5732   3.822   2.976   2.333
 1611SOL    HW2 5733   3.695   2.876   2.311
 1612SOL     OW 5734   2.166   1.967   5.288
 1612SOL    HW1 5735   2.216   1.975   5.374
 1612SOL    HW2 5736   2.186   1.878   5.247
 1613SOL     OW 5737   2.002   5.891   0.712
 1613SOL    HW1 5738   1.967   5.801   0.687
 1613SOL    HW2 5739   2.094   5.903   0.676
 1614SOL     OW 5740   6.098   2.862   6.884
 1614SOL    HW1 5741   6.126   2.942   6.831
 1614SOL    HW2 5742   6.117   2.877   6.981
 1615SOL     OW 5743   0.273   4.714   6.513
 1615SOL    HW1 5744   0.203   4.784   6.524
 1615SOL    HW2 5745   0.327   4.707   6.598
 1616SOL     OW 5746   4.604   2.060   6.720
 1616SOL    HW1 5747   4.643   2.049   6.812
 1616SOL    HW2 5748   4.634   1.984   6.662
 1617SOL     OW 5749   6.142   1.017   2.947
 1617SOL    HW1 5750   6.211   0.945   2.948
 1617SOL    HW2 5751   6.168   1.088   2.882
 1618SOL     OW 5752   6.926   3.532   1.715
 1618SOL    HW1 5753   6.960   3.574   1.630
 1618SOL    HW2 5754   6.876   3.601   1.767
 1619SOL     OW 5755   0.803   3.957   3.872
 1619SOL    HW1 5756   0.857   4.028   3.917
 1619SOL    HW2 5757   0.737   3.919   3.937
 1620SOL     OW 5758   1.857   6.314   1.337
 1620SOL    HW1 5759   1.778   6.252   1.336
 1620SOL    HW2 5760   1.940   6.262   1.317
 1621SOL     OW 5761   0.620   0.549   6.867
 1621SOL    HW1 5762   0.568   0.598   6.937
 1621SOL    HW2 5763   0.577   0.461   6.849
 1622SOL     OW 5764   1.475   1.990   4.402
 1622SOL    HW1 5765   1.479   1.987   4.302
 1622SOL    HW2 5766   1.448   1.900   4.437
 1623SOL     OW 5767   2.132   2.935   6.440
 1623SOL    HW1 5768   2.219   2.932   6.391
 1623SOL    HW2 5769   2.116   2.846   6.483
 1624SOL     OW 5770   3.125   1.012   6.577
 1624SOL    HW1 5771   3.188   0.989   6.651
 1624SOL    HW2 5772   3.166   0.989   6.489
 1625SOL     OW 5773   0.360   4.795   2.258
 1625SOL    HW1 5774   0.262   4.785   2.276
 1625SOL    HW2 5775   0.402   4.850   2.331
 1626SOL     OW 5776   2.554   2.921   6.620
 1626SOL    HW1 5777   2.630   2.855   6.622
 1626SOL    HW2 5778   2.512   2.920   6.529
 1627SOL     OW 5779   6.149   2.274   3.737
 1627SOL    HW1 5780   6.177   2.213   3.663
 1627SOL    HW2 5781   6.155   2.369   3.706
 1628SOL     OW 5782   3.172   5.011   0.784
 1628SOL    HW1 5783   3.085   5.060   0.793
 1628SOL    HW2 5784   3.191   4.961   0.868
 1629SOL     OW 5785   3.305   2.106   4.719
 1629SOL    HW1 5786   3.317   2.205   4.711
 1629SOL    HW2 5787   3.325   2.064   4.630
 1630SOL     OW 5788   0.708   5.183   5.266
 1630SOL    HW1 5789   0.697   5.113   5.336
 1630SOL    HW2 5790   0.619   5.211   5.232
 1631SOL     OW 5791   0.029   0.316   5.656
 1631SOL    HW1 5792   6.968   0.260   5.668
 1631SOL    HW2 5793   0.030   0.388   5.726
 1632SOL     OW 5794   0.510   1.154   7.021
 1632SOL    HW1 5795   0.580   1.098   6.978
 1632SOL    HW2 5796   0.552   1.218   0.063
 1633SOL     OW 5797   5.512   1.999   3.020
 1633SOL    HW1 5798   5.471   1.972   2.933
 1633SOL    HW2 5799   5.473   1.944   3.093
 1634SOL     OW 5800   3.307   5.650   6.793
 1634SOL    HW1 5801   3.322   5.555   6.821
 1634SOL    HW2 5802   3.346   5.666   6.702
 1635SOL     OW 5803   0.029   5.342   4.334
 1635SOL    HW1 5804   0.124   5.368   4.349
 1635SOL    HW2 5805   6.995   5.424   4.316
 1636SOL     OW 5806   2.504   5.110   1.226
 1636SOL    HW1 5807   2.461   5.200   1.219
 1636SOL    HW2 5808   2.465   5.048   1.158
 1637SOL     OW 5809   0.241   2.926   2.728
 1637SOL    HW1 5810   0.216   2.966   2.816
 1637SOL    HW2 5811   0.167   2.869   2.694
 1638SOL     OW 5812   0.367   3.354   3.789
 1638SOL    HW1 5813   0.423   3.433   3.813
 1638SOL    HW2 5814   0.286   3.385   3.740
 1639SOL     OW 5815   5.283   5.573   2.712
 1639SOL    HW1 5816   5.359   5.616   2.664
 1639SOL    HW2 5817   5.216   5.643   2.738
 1640SOL     OW 5818   6.311   2.021   0.649
 1640SOL    HW1 5819   6.226   2.070   0.671
 1640SOL    HW2 5820   6.297   1.964   0.568
 1641SOL     OW 5821   5.699   2.746   3.663
 1641SOL    HW1 5822   5.790   2.726   3.700
 1641SOL    HW2 5823   5.630   2.712   3.726
 1642SOL     OW 5824   6.583   2.749   0.050
 1642SOL    HW1 5825   6.604   2.716   0.142
 1642SOL    HW2 5826   6.502   2.701   0.015
 1643SOL     OW 5827   3.524   6.467   5.204
 1643SOL    HW1 5828   3.497   6.379   5.165
 1643SOL    HW2 5829   3.466   6.539   5.167
 1644SOL     OW 5830   3.376   1.494   1.506
 1644SOL    HW1 5831   3.447   1.540   1.559
 1644SOL    HW2 5832   3.346   1.553   1.431
 1645SOL     OW 5833   2.993   6.032   6.029
 1645SOL    HW1 5834   3.029   6.122   6.055
 1645SOL    HW2 5835   2.894   6.030   6.047
 1646SOL     OW 5836   2.090   4.940   0.759
 1646SOL    HW1 5837   2.061   4.969   0.668
 1646SOL    HW2 5838   2.160   5.003   0.794
 1647SOL     OW 5839   5.721   2.780   3.332
 1647SOL    HW1 5840   5.717   2.853   3.400
 1647SOL    HW2 5841   5.659   2.801   3.256
 1648SOL     OW 5842   5.235   6.927   1.751
 1648SOL    HW1 5843   5.265   6.940   1.846
 1648SOL    HW2 5844   5.311   6.894   1.696
 1649SOL     OW 5845   3.101   0.536   3.223
 1649SOL    HW1 5846   3.082   0.615   3.165
 1649SOL    HW2 5847   3.193   0.544   3.261
 1650SOL     OW 5848   3.191   0.522   4.089
 1650SOL    HW1 5849   3.223   0.435   4.126
 1650SOL    HW2 5850   3.150   0.507   3.999
 1651SOL     OW 5851   0.082   0.397   0.212
 1651SOL    HW1 5852   0.075   0.346   0.298
 1651SOL    HW2 5853   0.074   0.495   0.231
 1652SOL     OW 5854   3.506   2.238   0.814
 1652SOL    HW1 5855   3.407   2.223   0.811
 1652SOL    HW2 5856   3.553   2.150   0.821
 1653SOL     OW 5857   6.955   5.533   0.742
 1653SOL    HW1 5858   7.000   5.461   0.795
 1653SOL    HW2 5859   6.923   5.604   0.804
 1654SOL     OW 5860   0.172   3.703   2.864
 1654SOL    HW1 5861   0.229   3.676   2.942
 1654SOL    HW2 5862   0.215   3.672   2.779
 1655SOL     OW 5863   5.765   4.475   6.168
 1655SOL    HW1 5864   5.821   4.488   6.085
 1655SOL    HW2 5865   5.702   4.552   6.178
 1656SOL     OW 5866   0.912   4.761   3.590
 1656SOL    HW1 5867   0.947   4.743   3.682
 1656SOL    HW2 5868   0.972   4.826   3.544
 1657SOL     OW 5869   1.887   1.094   5.661
 1657SOL    HW1 5870   1.791   1.071   5.672
 1657SOL    HW2 5871   1.935   1.018   5.618
 1658SOL     OW 5872   6.071   6.260   2.716
 1658SOL    HW1 5873   6.104   6.244   2.623
 1658SOL    HW2 5874   6.120   6.200   2.779
 1659SOL     OW 5875   3.663   1.927   6.650
 1659SOL    HW1 5876   3.700   1.865   6.720
 1659SOL    HW2 5877   3.732   1.944   6.580
 1660SOL     OW 5878   0.708   5.572   3.590
 1660SOL    HW1 5879   0.762   5.546   3.510
 1660SOL    HW2 5880   0.638   5.502   3.607
 1661SOL     OW 5881   3.409   1.466   2.813
 1661SOL    HW1 5882   3.468   1.529   2.762
 1661SOL    HW2 5883   3.350   1.518   2.874
 1662SOL     OW 5884   6.499   2.188   3.166
 1662SOL    HW1 5885   6.512   2.272   3.114
 1662SOL    HW2 5886   6.585   2.162   3.210
 1663SOL     OW 5887   3.082   6.803   3.263
 1663SOL    HW1 5888   3.074   6.708   3.230
 1663SOL    HW2 5889   3.133   6.804   3.349
 1664SOL     OW 5890   1.455   0.267   4.350
 1664SOL    HW1 5891   1.461   0.367   4.344
 1664SOL    HW2 5892   1.368   0.241   4.391
 1665SOL     OW 5893   1.021   1.188   2.365
 1665SOL    HW1 5894   1.059   1.272   2.404
 1665SOL    HW2 5895   1.062   1.109   2.409
 1666SOL     OW 5896   6.182   2.374   6.108
 1666SOL    HW1 5897   6.188   2.281   6.070
 1666SOL    HW2 5898   6.126   2.372   6.190
 1667SOL     OW 5899   6.202   6.493   6.483
 1667SOL    HW1 5900   6.247   6.581   6.470
 1667SOL    HW2 5901   6.162   6.463   6.397
 1668SOL     OW 5902   4.579   0.182   4.532
 1668SOL    HW1 5903   4.562   0.086   4.551
 1668SOL    HW2 5904   4.492   0.229   4.516
 1669SOL     OW 5905   5.894   6.774   6.515
 1669SOL    HW1 5906   5.909   6.691   6.569
 1669SOL    HW2 5907   5.907   6.753   6.418
 1670SOL     OW 5908   6.028   4.905   5.755
 1670SOL    HW1 5909   5.981   4.987   5.721
 1670SOL    HW2 5910   6.116   4.895   5.709
 1671SOL     OW 5911   4.551   3.590   0.678
 1671SOL    HW1 5912   4.452   3.585   0.661
 1671SOL    HW2 5913   4.599   3.547   0.602
 1672SOL     OW 5914   2.366   4.309   2.678
 1672SOL    HW1 5915   2.354   4.237   2.609
 1672SOL    HW2 5916   2.404   4.391   2.634
 1673SOL     OW 5917   6.652   3.423   4.717
 1673SOL    HW1 5918   6.693   3.468   4.796
 1673SOL    HW2 5919   6.701   3.337   4.699
 1674SOL     OW 5920   1.232   3.886   0.818
 1674SOL    HW1 5921   1.262   3.856   0.908
 1674SOL    HW2 5922   1.208   3.983   0.822
 1675SOL     OW 5923   4.952   0.971   6.992
 1675SOL    HW1 5924   4.910   0.970   6.901
 1675SOL    HW2 5925   5.022   1.043   6.996
 1676SOL     OW 5926   2.687   1.203   2.366
 1676SOL    HW1 5927   2.710   1.263   2.443
 1676SOL    HW2 5928   2.704   1.251   2.280
 1677SOL     OW 5929   5.652   1.733   5.393
 1677SOL    HW1 5930   5.576   1.785   5.432
 1677SOL    HW2 5931   5.665   1.649   5.445
 1678SOL     OW 5932   5.060   5.622   2.160
 1678SOL    HW1 5933   5.002   5.698   2.190
 1678SOL    HW2 5934   5.094   5.640   2.068
 1679SOL     OW 5935   0.955   3.125   5.498
 1679SOL    HW1 5936   0.995   3.176   5.422
 1679SOL    HW2 5937   0.962   3.027   5.479
 1680SOL     OW 5938   0.457   1.602   3.746
 1680SOL    HW1 5939   0.367   1.580   3.784
 1680SOL    HW2 5940   0.505   1.662   3.810
 1681SOL     OW 5941   6.189   5.230   1.107
 1681SOL    HW1 5942   6.289   5.234   1.116
 1681SOL    HW2 5943   6.147   5.283   1.181
 1682SOL     OW 5944   0.045   3.105   4.688
 1682SOL    HW1 5945   0.122   3.083   4.627
 1682SOL    HW2 5946   0.080   3.127   4.779
 1683SOL     OW 5947   4.592   4.995   1.391
 1683SOL    HW1 5948   4.660   5.058   1.429
 1683SOL    HW2 5949   4.632   4.946   1.314
 1684SOL     OW 5950   0.681   6.868   4.779
 1684SOL    HW1 5951   0.662   6.881   4.876
 1684SOL    HW2 5952   0.666   6.773   4.754
 1685SOL     OW 5953   2.006   1.311   6.963
 1685SOL    HW1 5954   1.962   1.344   6.879
 1685SOL    HW2 5955   2.018   1.212   6.957
 1686SOL     OW 5956   1.525   5.627   5.279
 1686SOL    HW1 5957   1.426   5.627   5.271
 1686SOL    HW2 5958   1.562   5.541   5.243
 1687SOL     OW 5959   1.921   4.476   2.490
 1687SOL    HW1 5960   1.947   4.420   2.568
 1687SOL    HW2 5961   1.984   4.554   2.482
 1688SOL     OW 5962   1.355   1.350   3.061
 1688SOL    HW1 5963   1.426   1.329   2.995
 1688SOL    HW2 5964   1.326   1.445   3.049
 1689SOL     OW 5965   3.011   2.166   2.253
 1689SOL    HW1 5966   3.103   2.174   2.291
 1689SOL    HW2 5967   3.007   2.214   2.165
 1690SOL     OW 5968   1.642   1.415   2.233
 1690SOL    HW1 5969   1.712   1.354   2.195
 1690SOL    HW2 5970   1.628   1.492   2.171
 1691SOL     OW 5971   4.910   3.332   3.467
 1691SOL    HW1 5972   5.002   3.338   3.505
 1691SOL    HW2 5973   4.905   3.387   3.383
 1692SOL     OW 5974   0.164   0.180   1.714
 1692SOL    HW1 5975   0.213   0.096   1.687
 1692SOL    HW2 5976   0.217   0.260   1.684
 1693SOL     OW 5977   2.197   2.950   3.176
 1693SOL    HW1 5978   2.172   2.874   3.235
 1693SOL    HW2 5979   2.198   3.035   3.229
 1694SOL     OW 5980   4.275   5.754   4.880
 1694SOL    HW1 5981   4.240   5.691   4.810
 1694SOL    HW2 5982   4.343   5.708   4.935
 1695SOL     OW 5983   2.486   2.306   5.714
 1695SOL    HW1 5984   2.394   2.310   5.753
 1695SOL    HW2 5985   2.553   2.300   5.788
 1696SOL     OW 5986   5.039   5.507   0.549
 1696SOL    HW1 5987   4.987   5.431   0.511
 1696SOL    HW2 5988   5.087   5.477   0.632
 1697SOL     OW 5989   1.143   0.085   1.706
 1697SOL    HW1 5990   1.077   0.011   1.708
 1697SOL    HW2 5991   1.175   0.105   1.799
 1698SOL     OW 5992   4.855   2.368   1.765
 1698SOL    HW1 5993   4.950   2.395   1.780
 1698SOL    HW2 5994   4.851   2.286   1.709
 1699SOL     OW 5995   2.738   2.957   1.183
 1699SOL    HW1 5996   2.681   2.948   1.101
 1699SOL    HW2 5997   2.827   2.915   1.166
 1700SOL     OW 5998   6.782   2.539   2.826
 1700SOL    HW1 5999   6.879   2.529   2.807
 1700SOL    HW2 6000   6.729   2.499   2.752
 1701SOL     OW 6001   6.182   2.769   4.733
 1701SOL    HW1 6002   6.116   2.724   4.792
 1701SOL    HW2 6003   6.168   2.868   4.737
 1702SOL     OW 6004   5.941   3.597   1.109
 1702SOL    HW1 6005   5.963   3.519   1.051
 1702SOL    HW2 6006   5.921   3.564   1.202
 1703SOL     OW 6007   2.839   3.591   0.947
 1703SOL    HW1 6008   2.816   3.676   0.993
 1703SOL    HW2 6009   2.891   3.611   0.864
 1704SOL     OW 6010   0.156   1.223   1.157
 1704SOL    HW1 6011   0.081   1.289   1.158
 1704SOL    HW2 6012   0.209   1.233   1.073
 1705SOL     OW 6013   3.735   2.581   1.390
 1705SOL    HW1 6014   3.656   2.525   1.362
 1705SOL    HW2 6015   3.812   2.561   1.330
 1706SOL     OW 6016   4.219   0.477   0.486
 1706SOL    HW1 6017   4.270   0.391   0.498
 1706SOL    HW2 6018   4.123   0.456   0.465
 1707SOL     OW 6019   5.204   2.218   2.563
 1707SOL    HW1 6020   5.135   2.165   2.513
 1707SOL    HW2 6021   5.202   2.192   2.659
 1708SOL     OW 6022   6.712   6.290   2.953
 1708SOL    HW1 6023   6.665   6.315   2.869
 1708SOL    HW2 6024   6.657   6.319   3.032
 1709SOL     OW 6025   2.605   6.863   2.093
 1709SOL    HW1 6026   2.574   6.944   2.143
 1709SOL    HW2 6027   2.666   6.891   2.020
 1710SOL     OW 6028   0.407   4.468   3.536
 1710SOL    HW1 6029   0.461   4.426   3.464
 1710SOL    HW2 6030   0.366   4.553   3.502
 1711SOL     OW 6031   1.516   4.663   5.229
 1711SOL    HW1 6032   1.590   4.674   5.295
 1711SOL    HW2 6033   1.525   4.574   5.183
 1712SOL     OW 6034   0.773   4.079   0.450
 1712SOL    HW1 6035   0.842   4.007   0.456
 1712SOL    HW2 6036   0.709   4.058   0.376
 1713SOL     OW 6037   2.017   2.563   1.774
 1713SOL    HW1 6038   2.051   2.653   1.748
 1713SOL    HW2 6039   1.957   2.528   1.702
 1714SOL     OW 6040   4.048   1.749   6.625
 1714SOL    HW1 6041   4.077   1.835   6.584
 1714SOL    HW2 6042   3.983   1.703   6.564
 1715SOL     OW 6043   0.782   3.077   3.186
 1715SOL    HW1 6044   0.822   3.013   3.251
 1715SOL    HW2 6045   0.698   3.115   3.224
 1716SOL     OW 6046   6.515   0.127   0.762
 1716SOL    HW1 6047   6.586   0.099   0.826
 1716SOL    HW2 6048   6.457   0.048   0.740
 1717SOL     OW 6049   2.479   6.673   0.287
 1717SOL    HW1 6050   2.510   6.580   0.266
 1717SOL    HW2 6051   2.553   6.738   0.268
 1718SOL     OW 6052   1.940   4.099   0.007
 1718SOL    HW1 6053   1.967   4.130   6.937
 1718SOL    HW2 6054   1.893   4.173   0.055
 1719SOL     OW 6055   2.429   3.123   1.609
 1719SOL    HW1 6056   2.354   3.172   1.654
 1719SOL    HW2 6057   2.489   3.188   1.564
 1720SOL     OW 6058   6.754   1.733   0.814
 1720SOL    HW1 6059   6.704   1.727   0.728
 1720SOL    HW2 6060   6.694   1.767   0.886
 1721SOL     OW 6061   1.830   6.711   3.135
 1721SOL    HW1 6062   1.903   6.756   3.188
 1721SOL    HW2 6063   1.804   6.626   3.181
 1722SOL     OW 6064   5.703   0.273   2.174
 1722SOL    HW1 6065   5.795   0.258   2.139
 1722SOL    HW2 6066   5.681   0.370   2.169
 1723SOL     OW 6067   6.629   2.211   2.812
 1723SOL    HW1 6068   6.584   2.205   2.723
 1723SOL    HW2 6069   6.728   2.203   2.800
 1724SOL     OW 6070   5.444   0.887   0.349
 1724SOL    HW1 6071   5.485   0.855   0.435
 1724SOL    HW2 6072   5.439   0.811   0.284
 1725SOL     OW 6073   3.750   4.384   0.861
 1725SOL    HW1 6074   3.667   4.403   0.914
 1725SOL    HW2 6075   3.726   4.332   0.779
 1726SOL     OW 6076   6.738   4.692   4.765
 1726SOL    HW1 6077   6.704   4.775   4.721
 1726SOL    HW2 6078   6.816   4.714   4.823
 1727SOL     OW 6079   4.198   3.503   4.803
 1727SOL    HW1 6080   4.298   3.492   4.805
 1727SOL    HW2 6081   4.161   3.484   4.894
 1728SOL     OW 6082   4.797   4.622   4.368
 1728SOL    HW1 6083   4.753   4.556   4.429
 1728SOL    HW2 6084   4.802   4.583   4.276
 1729SOL     OW 6085   0.989   4.009   3.276
 1729SOL    HW1 6086   0.948   4.049   3.194
 1729SOL    HW2 6087   1.056   4.072   3.315
 1730SOL     OW 6088   6.442   1.261   4.631
 1730SOL    HW1 6089   6.435   1.360   4.622
 1730SOL    HW2 6090   6.468   1.221   4.543
 1731SOL     OW 6091   2.114   4.999   1.359
 1731SOL    HW1 6092   2.042   4.932   1.374
 1731SOL    HW2 6093   2.203   4.954   1.365
 1732SOL     OW 6094   1.746   4.610   0.348
 1732SOL    HW1 6095   1.792   4.594   0.436
 1732SOL    HW2 6096   1.649   4.585   0.357
 1733SOL     OW 6097   1.096   3.997   1.969
 1733SOL    HW1 6098   1.157   3.930   2.012
 1733SOL    HW2 6099   1.018   4.015   2.030
 1734SOL     OW 6100   4.340   3.062   0.672
 1734SOL    HW1 6101   4.387   3.100   0.752
 1734SOL    HW2 6102   4.406   3.014   0.615
 1735SOL     OW 6103   6.235   5.456   1.723
 1735SOL    HW1 6104   6.255   5.378   1.663
 1735SOL    HW2 6105   6.206   5.534   1.667
 1736SOL     OW 6106   3.504   3.184   0.008
 1736SOL    HW1 6107   3.444   3.258   0.039
 1736SOL    HW2 6108   3.552   3.146   0.087
 1737SOL     OW 6109   2.281   0.510   4.191
 1737SOL    HW1 6110   2.280   0.451   4.110
 1737SOL    HW2 6111   2.220   0.588   4.177
 1738SOL     OW 6112   2.030   2.254   2.575
 1738SOL    HW1 6113   2.047   2.162   2.539
 1738SOL    HW2 6114   2.095   2.318   2.534
 1739SOL     OW 6115   4.428   2.319   4.812
 1739SOL    HW1 6116   4.487   2.379   4.867
 1739SOL    HW2 6117   4.484   2.256   4.759
 1740SOL     OW 6118   0.257   1.146   6.931
 1740SOL    HW1 6119   0.351   1.156   6.966
 1740SOL    HW2 6120   0.203   1.225   6.957
 1741SOL     OW 6121   2.381   0.693   2.659
 1741SOL    HW1 6122   2.405   0.709   2.563
 1741SOL    HW2 6123   2.455   0.725   2.718
 1742SOL     OW 6124   5.528   6.894   5.117
 1742SOL    HW1 6125   5.547   6.987   5.089
 1742SOL    HW2 6126   5.491   6.894   5.210
 1743SOL     OW 6127   2.482   1.136   1.806
 1743SOL    HW1 6128   2.574   1.155   1.774
 1743SOL    HW2 6129   2.455   1.204   1.874
 1744SOL     OW 6130   2.321   0.915   1.955
 1744SOL    HW1 6131   2.399   0.977   1.943
 1744SOL    HW2 6132   2.236   0.964   1.932
 1745SOL     OW 6133   6.988   1.834   3.535
 1745SOL    HW1 6134   0.049   1.796   3.493
 1745SOL    HW2 6135   6.911   1.826   3.472
 1746SOL     OW 6136   3.104   6.897   6.438
 1746SOL    HW1 6137   3.067   6.840   6.512
 1746SOL    HW2 6138   3.195   6.863   6.412
 1747SOL     OW 6139   4.389   0.247   1.631
 1747SOL    HW1 6140   4.381   0.200   1.719
 1747SOL    HW2 6141   4.481   0.232   1.594
 1748SOL     OW 6142   6.016   1.801   3.604
 1748SOL    HW1 6143   6.115   1.804   3.621
 1748SOL    HW2 6144   5.986   1.888   3.565
 1749SOL     OW 6145   4.009   6.678   6.642
 1749SOL    HW1 6146   3.979   6.745   6.574
 1749SOL    HW2 6147   3.965   6.590   6.624
 1750SOL     OW 6148   5.532   1.419   2.776
 1750SOL    HW1 6149   5.552   1.323   2.756
 1750SOL    HW2 6150   5.479   1.459   2.702
 1751SOL     OW 6151   2.071   4.994   4.654
 1751SOL    HW1 6152   2.008   5.068   4.632
 1751SOL    HW2 6153   2.046   4.912   4.603
 1752SOL     OW 6154   6.573   2.037   0.602
 1752SOL    HW1 6155   6.473   2.035   0.603
 1752SOL    HW2 6156   6.607   2.069   0.690
 1753SOL     OW 6157   1.115   0.130   0.005
 1753SOL    HW1 6158   1.103   0.037   6.991
 1753SOL    HW2 6159   1.096   0.130   0.104
 1754SOL     OW 6160   3.747   3.357   1.073
 1754SOL    HW1 6161   3.713   3.300   1.149
 1754SOL    HW2 6162   3.686   3.435   1.061
 1755SOL     OW 6163   5.333   4.615   1.404
 1755SOL    HW1 6164   5.333   4.611   1.504
 1755SOL    HW2 6165   5.346   4.523   1.368
 1756SOL     OW 6166   6.223   4.705   3.973
 1756SOL    HW1 6167   6.126   4.729   3.969
 1756SOL    HW2 6168   6.247   4.680   4.067
 1757SOL     OW 6169   2.933   6.241   4.687
 1757SOL    HW1 6170   2.977   6.218   4.600
 1757SOL    HW2 6171   2.833   6.237   4.675
 1758SOL     OW 6172   3.260   1.370   3.221
 1758SOL    HW1 6173   3.182   1.420   3.260
 1758SOL    HW2 6174   3.290   1.300   3.286
 1759SOL     OW 6175   0.351   4.811   5.891
 1759SOL    HW1 6176   0.434   4.800   5.837
 1759SOL    HW2 6177   0.276   4.842   5.832
 1760SOL     OW 6178   6.292   1.363   1.520
 1760SOL    HW1 6179   6.299   1.453   1.477
 1760SOL    HW2 6180   6.303   1.292   1.450
 1761SOL     OW 6181   5.902   0.794   0.766
 1761SOL    HW1 6182   5.888   0.804   0.864
 1761SOL    HW2 6183   5.952   0.708   0.748
 1762SOL     OW 6184   6.315   2.096   4.938
 1762SOL    HW1 6185   6.391   2.034   4.958
 1762SOL    HW2 6186   6.339   2.188   4.968
 1763SOL     OW 6187   2.104   3.960   4.518
 1763SOL    HW1 6188   2.082   4.036   4.458
 1763SOL    HW2 6189   2.060   3.877   4.485
 1764SOL     OW 6190   1.748   3.433   3.139
 1764SOL    HW1 6191   1.696   3.454   3.222
 1764SOL    HW2 6192   1.702   3.360   3.088
 1765SOL     OW 6193   2.787   1.416   0.074
 1765SOL    HW1 6194   2.886   1.426   0.074
 1765SOL    HW2 6195   2.753   1.414   7.001
 1766SOL     OW 6196   5.346   2.849   4.922
 1766SOL    HW1 6197   5.334   2.940   4.961
 1766SOL    HW2 6198   5.442   2.821   4.931
 1767SOL     OW 6199   5.276   3.839   2.034
 1767SOL    HW1 6200   5.287   3.933   2.065
 1767SOL    HW2 6201   5.233   3.784   2.106
 1768SOL     OW 6202   4.507   0.188   3.819
 1768SOL    HW1 6203   4.556   0.232   3.894
 1768SOL    HW2 6204   4.507   0.089   3.834
 1769SOL     OW 6205   4.004   1.994   4.007
 1769SOL    HW1 6206   4.104   1.987   4.012
 1769SOL    HW2 6207   3.978   2.020   3.914
 1770SOL     OW 6208   1.794   5.763   4.942
 1770SOL    HW1 6209   1.813   5.844   4.885
 1770SOL    HW2 6210   1.809   5.787   5.039
 1771SOL     OW 6211   2.722   5.868   0.224
 1771SOL    HW1 6212   2.762   5.834   0.140
 1771SOL    HW2 6213   2.648   5.808   0.254
 1772SOL     OW 6214   3.687   6.992   3.762
 1772SOL    HW1 6215   3.600   6.980   3.715
 1772SOL    HW2 6216   3.752   0.016   3.701
 1773SOL     OW 6217   2.094   5.006   5.856
 1773SOL    HW1 6218   2.097   5.059   5.940
 1773SOL    HW2 6219   2.184   5.005   5.813
 1774SOL     OW 6220   3.967   5.568   1.540
 1774SOL    HW1 6221   4.038   5.498   1.544
 1774SOL    HW2 6222   3.947   5.589   1.444
 1775SOL     OW 6223   0.798   4.256   2.694
 1775SOL    HW1 6224   0.866   4.233   2.763
 1775SOL    HW2 6225   0.800   4.354   2.675
 1776SOL     OW 6226   3.934   6.208   4.276
 1776SOL    HW1 6227   3.973   6.153   4.349
 1776SOL    HW2 6228   3.835   6.195   4.274
 1777SOL     OW 6229   3.548   5.626   0.024
 1777SOL    HW1 6230   3.619   5.643   0.092
 1777SOL    HW2 6231   3.516   5.712   7.008
 1778SOL     OW 6232   4.658   3.310   5.565
 1778SOL    HW1 6233   4.606   3.225   5.579
 1778SOL    HW2 6234   4.710   3.303   5.479
 1779SOL     OW 6235   3.983   0.484   4.565
 1779SOL    HW1 6236   3.937   0.457   4.480
 1779SOL    HW2 6237   3.927   0.455   4.643
 1780SOL     OW 6238   3.583   2.757   6.756
 1780SOL    HW1 6239   3.561   2.851   6.781
 1780SOL    HW2 6240   3.672   2.733   6.796
 1781SOL     OW 6241   3.830   6.257   2.538
 1781SOL    HW1 6242   3.860   6.326   2.472
 1781SOL    HW2 6243   3.880   6.172   2.523
 1782SOL     OW 6244   2.921   1.974   3.055
 1782SOL    HW1 6245   2.929   2.073   3.046
 1782SOL    HW2 6246   2.880   1.951   3.143
 1783SOL     OW 6247   2.655   5.520   6.082
 1783SOL    HW1 6248   2.704   5.433   6.082
 1783SOL    HW2 6249   2.556   5.503   6.080
 1784SOL     OW 6250   4.548   0.722   5.841
 1784SOL    HW1 6251   4.540   0.668   5.925
 1784SOL    HW2 6252   4.492   0.804   5.848
 1785SOL     OW 6253   6.486   3.618   2.833
 1785SOL    HW1 6254   6.413   3.687   2.837
 1785SOL    HW2 6255   6.447   3.530   2.803
 1786SOL     OW 6256   1.926   2.817   0.021
 1786SOL    HW1 6257   1.995   2.846   6.976
 1786SOL    HW2 6258   1.835   2.845   7.011
 1787SOL     OW 6259   2.623   1.363   5.215
 1787SOL    HW1 6260   2.719   1.348   5.237
 1787SOL    HW2 6261   2.599   1.310   5.133
 1788SOL     OW 6262   2.351   4.340   5.855
 1788SOL    HW1 6263   2.326   4.334   5.759
 1788SOL    HW2 6264   2.433   4.284   5.872
 1789SOL     OW 6265   5.646   2.170   1.292
 1789SOL    HW1 6266   5.745   2.157   1.282
 1789SOL    HW2 6267   5.616   2.245   1.233
 1790SOL     OW 6268   3.686   6.408   3.548
 1790SOL    HW1 6269   3.639   6.320   3.533
 1790SOL    HW2 6270   3.734   6.405   3.636
 1791SOL     OW 6271   6.935   1.170   3.149
 1791SOL    HW1 6272   6.929   1.195   3.053
 1791SOL    HW2 6273   6.943   1.252   3.205
 1792SOL     OW 6274   6.757   3.597   4.930
 1792SOL    HW1 6275   6.690   3.670   4.924
 1792SOL    HW2 6276   6.834   3.616   4.869
 1793SOL     OW 6277   5.913   0.220   3.884
 1793SOL    HW1 6278   5.917   0.289   3.956
 1793SOL    HW2 6279   6.006   0.190   3.861
 1794SOL     OW 6280   5.425   6.007   5.746
 1794SOL    HW1 6281   5.405   5.921   5.794
 1794SOL    HW2 6282   5.446   5.988   5.651
 1795SOL     OW 6283   1.094   2.268   1.152
 1795SOL    HW1 6284   1.180   2.245   1.197
 1795SOL    HW2 6285   1.109   2.339   1.084
 1796SOL     OW 6286   2.654   1.031   6.000
 1796SOL    HW1 6287   2.587   0.959   6.019
 1796SOL    HW2 6288   2.743   1.003   6.035
 1797SOL     OW 6289   1.662   0.078   0.217
 1797SOL    HW1 6290   1.687   0.054   0.311
 1797SOL    HW2 6291   1.660   0.177   0.208
 1798SOL     OW 6292   4.657   2.398   3.752
 1798SOL    HW1 6293   4.633   2.434   3.842
 1798SOL    HW2 6294   4.751   2.364   3.753
 1799SOL     OW 6295   0.069   2.779   4.276
 1799SOL    HW1 6296   0.128   2.789   4.357
 1799SOL    HW2 6297   7.013   2.842   4.284
 1800SOL     OW 6298   4.508   4.056   1.463
 1800SOL    HW1 6299   4.534   4.005   1.545
 1800SOL    HW2 6300   4.434   4.009   1.416
 1801SOL     OW 6301   0.191   0.266   2.166
 1801SOL    HW1 6302   0.136   0.233   2.243
 1801SOL    HW2 6303   0.281   0.221   2.168
 1802SOL     OW 6304   5.277   5.863   4.380
 1802SOL    HW1 6305   5.373   5.888   4.389
 1802SOL    HW2 6306   5.262   5.821   4.290
 1803SOL     OW 6307   6.987   5.447   6.950
 1803SOL    HW1 6308   6.922   5.388   6.998
 1803SOL    HW2 6309   6.965   5.543   6.970
 1804SOL     OW 6310   2.558   4.152   5.391
 1804SOL    HW1 6311   2.602   4.113   5.472
 1804SOL    HW2 6312   2.536   4.079   5.327
 1805SOL     OW 6313   5.126   3.351   6.024
 1805SOL    HW1 6314   5.046   3.382   6.075
 1805SOL    HW2 6315   5.155   3.262   6.060
 1806SOL     OW 6316   0.464   6.870   6.389
 1806SOL    HW1 6317   0.431   6.812   6.463
 1806SOL    HW2 6318   0.412   6.852   6.306
 1807SOL     OW 6319   5.501   2.987   4.626
 1807SOL    HW1 6320   5.470   2.905   4.674
 1807SOL    HW2 6321   5.600   2.984   4.614
 1808SOL     OW 6322   0.265   4.240   5.040
 1808SOL    HW1 6323   0.203   4.212   4.966
 1808SOL    HW2 6324   0.243   4.188   5.123
 1809SOL     OW 6325   2.332   2.485   5.159
 1809SOL    HW1 6326   2.303   2.470   5.254
 1809SOL    HW2 6327   2.362   2.579   5.148
 1810SOL     OW 6328   2.851   0.198   3.986
 1810SOL    HW1 6329   2.759   0.179   4.020
 1810SOL    HW2 6330   2.915   0.200   4.062
 1811SOL     OW 6331   5.877   6.167   3.537
 1811SOL    HW1 6332   5.888   6.118   3.624
 1811SOL    HW2 6333   5.851   6.262   3.555
 1812SOL     OW 6334   4.104   5.889   5.025
 1812SOL    HW1 6335   4.009   5.882   4.996
 1812SOL    HW2 6336   4.163   5.843   4.958
 1813SOL     OW 6337   5.921   4.309   0.364
 1813SOL    HW1 6338   5.845   4.249   0.339
 1813SOL    HW2 6339   5.954   4.284   0.455
 1814SOL     OW 6340   4.935   6.949   1.945
 1814SOL    HW1 6341   4.885   6.988   2.023
 1814SOL    HW2 6342   4.899   6.988   1.860
 1815SOL     OW 6343   0.865   1.924   1.993
 1815SOL    HW1 6344   0.810   1.952   2.071
 1815SOL    HW2 6345   0.806   1.882   1.924
 1816SOL     OW 6346   2.801   2.665   0.781
 1816SOL    HW1 6347   2.826   2.695   0.689
 1816SOL    HW2 6348   2.789   2.566   0.782
 1817SOL     OW 6349   2.279   6.517   2.101
 1817SOL    HW1 6350   2.262   6.432   2.051
 1817SOL    HW2 6351   2.208   6.584   2.078
 1818SOL     OW 6352   1.300   0.080   3.204
 1818SOL    HW1 6353   1.332   7.019   3.250
 1818SOL    HW2 6354   1.296   0.156   3.269
 1819SOL     OW 6355   1.057   4.513   1.830
 1819SOL    HW1 6356   1.151   4.482   1.848
 1819SOL    HW2 6357   1.003   4.437   1.794
 1820SOL     OW 6358   4.362   1.154   2.758
 1820SOL    HW1 6359   4.362   1.200   2.669
 1820SOL    HW2 6360   4.269   1.129   2.783
 1821SOL     OW 6361   2.356   1.365   2.729
 1821SOL    HW1 6362   2.313   1.295   2.672
 1821SOL    HW2 6363   2.298   1.384   2.809
 1822SOL     OW 6364   3.580   2.848   1.613
 1822SOL    HW1 6365   3.651   2.781   1.592
 1822SOL    HW2 6366   3.490   2.808   1.594
 1823SOL     OW 6367   3.928   6.234   3.321
 1823SOL    HW1 6368   3.988   6.155   3.324
 1823SOL    HW2 6369   3.939   6.281   3.234
 1824SOL     OW 6370   4.221   2.750   0.917
 1824SOL    HW1 6371   4.319   2.767   0.921
 1824SOL    HW2 6372   4.203   2.652   0.926
 1825SOL     OW 6373   0.816   0.692   2.047
 1825SOL    HW1 6374   0.773   0.664   1.962
 1825SOL    HW2 6375   0.914   0.670   2.044
 1826SOL     OW 6376   3.110   1.384   1.608
 1826SOL    HW1 6377   3.146   1.345   1.692
 1826SOL    HW2 6378   3.175   1.451   1.572
 1827SOL     OW 6379   0.092   5.006   1.964
 1827SOL    HW1 6380   0.128   5.036   1.875
 1827SOL    HW2 6381   0.146   5.047   2.037
 1828SOL     OW 6382   0.603   2.787   0.257
 1828SOL    HW1 6383   0.511   2.812   0.288
 1828SOL    HW2 6384   0.600   2.756   0.162
 1829SOL     OW 6385   4.736   6.757   3.059
 1829SOL    HW1 6386   4.708   6.785   2.967
 1829SOL    HW2 6387   4.786   6.831   3.103
 1830SOL     OW 6388   4.923   6.503   3.638
 1830SOL    HW1 6389   4.924   6.405   3.617
 1830SOL    HW2 6390   5.008   6.545   3.604
 1831SOL     OW 6391   6.078   6.975   2.670
 1831SOL    HW1 6392   6.117   6.912   2.602
 1831SOL    HW2 6393   5.995   7.016   2.633
 1832SOL     OW 6394   4.981   2.164   1.214
 1832SOL    HW1 6395   4.904   2.206   1.263
 1832SOL    HW2 6396   5.066   2.189   1.260
 1833SOL     OW 6397   5.452   6.908   4.470
 1833SOL    HW1 6398   5.422   6.987   4.524
 1833SOL    HW2 6399   5.551   6.911   4.459
 1834SOL     OW 6400   3.935   3.818   0.773
 1834SOL    HW1 6401   3.938   3.781   0.865
 1834SOL    HW2 6402   3.931   3.744   0.706
 1835SOL     OW 6403   1.595   4.156   1.456
 1835SOL    HW1 6404   1.547   4.155   1.544
 1835SOL    HW2 6405   1.599   4.249   1.421
 1836SOL     OW 6406   0.084   1.816   1.001
 1836SOL    HW1 6407   0.136   1.873   1.065
 1836SOL    HW2 6408   7.008   1.820   1.024
 1837SOL     OW 6409   0.829   2.427   4.511
 1837SOL    HW1 6410   0.778   2.341   4.507
 1837SOL    HW2 6411   0.873   2.444   4.423
 1838SOL     OW 6412   0.192   2.359   3.607
 1838SOL    HW1 6413   0.276   2.413   3.604
 1838SOL    HW2 6414   0.157   2.347   3.514
 1839SOL     OW 6415   5.629   2.791   4.968
 1839SOL    HW1 6416   5.703   2.727   4.948
 1839SOL    HW2 6417   5.583   2.764   5.052
 1840SOL     OW 6418   2.545   5.978   1.136
 1840SOL    HW1 6419   2.538   6.010   1.041
 1840SOL    HW2 6420   2.632   5.931   1.150
 1841SOL     OW 6421   2.129   3.664   4.186
 1841SOL    HW1 6422   2.072   3.669   4.104
 1841SOL    HW2 6423   2.165   3.755   4.207
 1842SOL     OW 6424   0.443   5.267   1.282
 1842SOL    HW1 6425   0.539   5.278   1.307
 1842SOL    HW2 6426   0.385   5.285   1.362
 1843SOL     OW 6427   1.763   2.257   5.322
 1843SOL    HW1 6428   1.673   2.267   5.280
 1843SOL    HW2 6429   1.833   2.292   5.259
 1844SOL     OW 6430   3.715   2.041   5.032
 1844SOL    HW1 6431   3.776   2.005   4.962
 1844SOL    HW2 6432   3.753   2.124   5.072
 1845SOL     OW 6433   2.740   0.060   6.568
 1845SOL    HW1 6434   2.766   6.986   6.583
 1845SOL    HW2 6435   2.798   0.100   6.497
 1846SOL     OW 6436   4.347   2.022   6.629
 1846SOL    HW1 6437   4.365   1.928   6.600
 1846SOL    HW2 6438   4.433   2.068   6.651
 1847SOL     OW 6439   0.830   0.396   6.576
 1847SOL    HW1 6440   0.919   0.354   6.594
 1847SOL    HW2 6441   0.757   0.330   6.593
 1848SOL     OW 6442   1.949   5.946   2.882
 1848SOL    HW1 6443   1.935   5.847   2.873
 1848SOL    HW2 6444   1.982   5.983   2.795
 1849SOL     OW 6445   4.360   0.711   0.415
 1849SOL    HW1 6446   4.310   0.626   0.400
 1849SOL    HW2 6447   4.454   0.690   0.442
 1850SOL     OW 6448   5.698   1.558   2.942
 1850SOL    HW1 6449   5.630   1.530   2.875
 1850SOL    HW2 6450   5.772   1.607   2.896
 1851SOL     OW 6451   0.111   1.508   1.457
 1851SOL    HW1 6452   0.015   1.496   1.433
 1851SOL    HW2 6453   0.165   1.437   1.412
 1852SOL     OW 6454   4.624   4.042   0.852
 1852SOL    HW1 6455   4.536   4.002   0.877
 1852SOL    HW2 6456   4.641   4.026   0.755
 1853SOL     OW 6457   0.866   3.791   1.605
 1853SOL    HW1 6458   0.940   3.755   1.662
 1853SOL    HW2 6459   0.902   3.859   1.542
 1854SOL     OW 6460   3.168   5.616   4.124
 1854SOL    HW1 6461   3.131   5.639   4.034
 1854SOL    HW2 6462   3.249   5.672   4.141
 1855SOL     OW 6463   4.895   5.222   0.563
 1855SOL    HW1 6464   4.971   5.178   0.517
 1855SOL    HW2 6465   4.892   5.193   0.659
 1856SOL     OW 6466   6.501   2.480   5.741
 1856SOL    HW1 6467   6.514   2.540   5.820
 1856SOL    HW2 6468   6.477   2.389   5.772
 1857SOL     OW 6469   4.922   0.863   4.954
 1857SOL    HW1 6470   4.859   0.789   4.977
 1857SOL    HW2 6471   5.016   0.833   4.971
 1858SOL     OW 6472   5.528   3.178   3.610
 1858SOL    HW1 6473   5.572   3.168   3.699
 1858SOL    HW2 6474   5.578   3.125   3.542
 1859SOL     OW 6475   4.119   1.995   3.725
 1859SOL    HW1 6476   4.208   1.951   3.715
 1859SOL    HW2 6477   4.132   2.092   3.747
 1860SOL     OW 6478   6.454   1.233   3.948
 1860SOL    HW1 6479   6.477   1.146   3.992
 1860SOL    HW2 6480   6.537   1.287   3.936
 1861SOL     OW 6481   4.783   6.465   2.271
 1861SOL    HW1 6482   4.699   6.418   2.242
 1861SOL    HW2 6483   4.861   6.428   2.221
 1862SOL     OW 6484   2.028   6.921   0.410
 1862SOL    HW1 6485   1.966   6.862   0.357
 1862SOL    HW2 6486   2.066   6.991   0.350
 1863SOL     OW 6487   2.809   2.403   0.863
 1863SOL    HW1 6488   2.846   2.452   0.941
 1863SOL    HW2 6489   2.715   2.374   0.882
 1864SOL     OW 6490   1.038   6.511   5.071
 1864SOL    HW1 6491   1.069   6.421   5.102
 1864SOL    HW2 6492   1.066   6.580   5.138
 1865SOL     OW 6493   4.124   1.397   5.589
 1865SOL    HW1 6494   4.099   1.300   5.595
 1865SOL    HW2 6495   4.051   1.447   5.543
 1866SOL     OW 6496   4.270   4.751   2.459
 1866SOL    HW1 6497   4.324   4.719   2.380
 1866SOL    HW2 6498   4.314   4.832   2.498
 1867SOL     OW 6499   0.550   4.007   0.276
 1867SOL    HW1 6500   0.464   4.009   0.225
 1867SOL    HW2 6501   0.533   3.973   0.369
 1868SOL     OW 6502   5.516   4.753   6.675
 1868SOL    HW1 6503   5.536   4.744   6.772
 1868SOL    HW2 6504   5.521   4.664   6.631
 1869SOL     OW 6505   6.739   2.242   5.075
 1869SOL    HW1 6506   6.699   2.153   5.056
 1869SOL    HW2 6507   6.826   2.250   5.026
 1870SOL     OW 6508   2.161   4.475   5.575
 1870SOL    HW1 6509   2.254   4.440   5.588
 1870SOL    HW2 6510   2.114   4.420   5.506
 1871SOL     OW 6511   1.580   7.012   1.084
 1871SOL    HW1 6512   1.605   0.076   1.037
 1871SOL    HW2 6513   1.536   6.950   1.020
 1872SOL     OW 6514   2.972   4.404   0.109
 1872SOL    HW1 6515   2.941   4.314   0.080
 1872SOL    HW2 6516   3.072   4.405   0.117
 1873SOL     OW 6517   4.047   1.140   5.500
 1873SOL    HW1 6518   4.069   1.126   5.404
 1873SOL    HW2 6519   3.952   1.115   5.517
 1874SOL     OW 6520   2.830   1.850   1.427
 1874SOL    HW1 6521   2.876   1.824   1.512
 1874SOL    HW2 6522   2.849   1.782   1.356
 1875SOL     OW 6523   0.693   0.185   6.690
 1875SOL    HW1 6524   0.771   0.144   6.737
 1875SOL    HW2 6525   0.624   0.213   6.757
 1876SOL     OW 6526   3.410   0.337   5.580
 1876SOL    HW1 6527   3.439   0.396   5.505
 1876SOL    HW2 6528   3.397   0.392   5.662
 1877SOL     OW 6529   0.214   0.583   3.907
 1877SOL    HW1 6530   0.135   0.523   3.916
 1877SOL    HW2 6531   0.184   0.679   3.907
 1878SOL     OW 6532   6.928   2.066   3.645
 1878SOL    HW1 6533   6.956   1.975   3.615
 1878SOL    HW2 6534   6.996   2.103   3.708
 1879SOL     OW 6535   1.121   3.587   4.344
 1879SOL    HW1 6536   1.028   3.619   4.323
 1879SOL    HW2 6537   1.167   3.562   4.258
 1880SOL     OW 6538   0.070   1.255   4.691
 1880SOL    HW1 6539   0.165   1.226   4.695
 1880SOL    HW2 6540   0.060   1.345   4.733
 1881SOL     OW 6541   6.090   2.084   1.615
 1881SOL    HW1 6542   6.080   2.052   1.709
 1881SOL    HW2 6543   6.000   2.089   1.572
 1882SOL     OW 6544   1.357   4.512   6.219
 1882SOL    HW1 6545   1.404   4.600   6.218
 1882SOL    HW2 6546   1.352   4.476   6.126
 1883SOL     OW 6547   6.189   2.486   2.269
 1883SOL    HW1 6548   6.190   2.399   2.318
 1883SOL    HW2 6549   6.194   2.561   2.335
 1884SOL     OW 6550   1.100   1.670   0.800
 1884SOL    HW1 6551   1.095   1.699   0.705
 1884SOL    HW2 6552   1.007   1.655   0.835
 1885SOL     OW 6553   1.702   1.616   5.612
 1885SOL    HW1 6554   1.793   1.576   5.600
 1885SOL    HW2 6555   1.709   1.701   5.663
 1886SOL     OW 6556   2.121   0.312   2.127
 1886SOL    HW1 6557   2.207   0.344   2.166
 1886SOL    HW2 6558   2.055   0.387   2.125
 1887SOL     OW 6559   0.687   5.258   5.816
 1887SOL    HW1 6560   0.701   5.344   5.767
 1887SOL    HW2 6561   0.747   5.255   5.896
 1888SOL     OW 6562   2.965   1.833   0.120
 1888SOL    HW1 6563   2.984   1.894   0.196
 1888SOL    HW2 6564   2.886   1.865   0.069
 1889SOL     OW 6565   0.559   4.193   3.672
 1889SOL    HW1 6566   0.509   4.150   3.747
 1889SOL    HW2 6567   0.495   4.221   3.601
 1890SOL     OW 6568   0.877   5.565   4.456
 1890SOL    HW1 6569   0.826   5.490   4.412
 1890SOL    HW2 6570   0.945   5.526   4.518
 1891SOL     OW 6571   4.523   3.128   1.679
 1891SOL    HW1 6572   4.466   3.208   1.697
 1891SOL    HW2 6573   4.587   3.115   1.754
 1892SOL     OW 6574   0.253   0.791   2.512
 1892SOL    HW1 6575   0.317   0.837   2.573
 1892SOL    HW2 6576   0.171   0.847   2.502
 1893SOL     OW 6577   3.984   3.066   2.245
 1893SOL    HW1 6578   4.055   2.996   2.246
 1893SOL    HW2 6579   4.000   3.128   2.168
 1894SOL     OW 6580   3.318   4.127   4.144
 1894SOL    HW1 6581   3.367   4.211   4.164
 1894SOL    HW2 6582   3.252   4.109   4.217
 1895SOL     OW 6583   4.083   0.295   0.984
 1895SOL    HW1 6584   4.097   0.367   1.052
 1895SOL    HW2 6585   4.052   0.337   0.898
 1896SOL     OW 6586   6.298   1.686   0.721
 1896SOL    HW1 6587   6.242   1.702   0.640
 1896SOL    HW2 6588   6.255   1.617   0.779
 1897SOL     OW 6589   1.575   4.989   2.146
 1897SOL    HW1 6590   1.622   5.075   2.127
 1897SOL    HW2 6591   1.544   4.988   2.242
 1898SOL     OW 6592   2.218   4.617   2.728
 1898SOL    HW1 6593   2.261   4.632   2.639
 1898SOL    HW2 6594   2.250   4.531   2.767
 1899SOL     OW 6595   0.904   0.730   0.488
 1899SOL    HW1 6596   1.004   0.733   0.485
 1899SOL    HW2 6597   0.867   0.738   0.395
 1900SOL     OW 6598   2.813   0.450   6.832
 1900SOL    HW1 6599   2.842   0.399   6.751
 1900SOL    HW2 6600   2.883   0.440   6.903
 1901SOL     OW 6601   2.593   2.821   0.937
 1901SOL    HW1 6602   2.659   2.788   0.869
 1901SOL    HW2 6603   2.558   2.743   0.989
 1902SOL     OW 6604   2.691   0.351   4.694
 1902SOL    HW1 6605   2.608   0.298   4.713
 1902SOL    HW2 6606   2.689   0.383   4.599
 1903SOL     OW 6607   0.901   3.006   3.778
 1903SOL    HW1 6608   0.811   2.977   3.746
 1903SOL    HW2 6609   0.970   2.941   3.748
 1904SOL     OW 6610   5.649   4.902   2.507
 1904SOL    HW1 6611   5.591   4.840   2.454
 1904SOL    HW2 6612   5.727   4.851   2.545
 1905SOL     OW 6613   0.842   0.547   3.933
 1905SOL    HW1 6614   0.812   0.487   3.859
 1905SOL    HW2 6615   0.939   0.566   3.923
 1906SOL     OW 6616   2.647   0.373   6.282
 1906SOL    HW1 6617   2.602   0.301   6.333
 1906SOL    HW2 6618   2.619   0.370   6.186
 1907SOL     OW 6619   4.872   2.887   0.682
 1907SOL    HW1 6620   4.851   2.920   0.774
 1907SOL    HW2 6621   4.936   2.810   0.689
 1908SOL     OW 6622   4.234   6.833   6.458
 1908SOL    HW1 6623   4.200   6.861   6.548
 1908SOL    HW2 6624   4.190   6.889   6.388
 1909SOL     OW 6625   0.530   3.098   3.806
 1909SOL    HW1 6626   0.524   3.118   3.903
 1909SOL    HW2 6627   0.490   3.173   3.754
 1910SOL     OW 6628   6.536   6.448   5.498
 1910SOL    HW1 6629   6.620   6.464   5.446
 1910SOL    HW2 6630   6.487   6.369   5.459
 1911SOL     OW 6631   6.807   4.435   4.608
 1911SOL    HW1 6632   6.777   4.527   4.633
 1911SOL    HW2 6633   6.907   4.432   4.609
 1912SOL     OW 6634   2.810   5.607   2.271
 1912SOL    HW1 6635   2.831   5.697   2.233
 1912SOL    HW2 6636   2.796   5.542   2.197
 1913SOL     OW 6637   2.252   6.254   4.630
 1913SOL    HW1 6638   2.229   6.332   4.688
 1913SOL    HW2 6639   2.317   6.283   4.560
 1914SOL     OW 6640   3.510   4.276   6.367
 1914SOL    HW1 6641   3.488   4.330   6.448
 1914SOL    HW2 6642   3.433   4.216   6.345
 1915SOL     OW 6643   4.254   2.846   5.875
 1915SOL    HW1 6644   4.232   2.943   5.862
 1915SOL    HW2 6645   4.230   2.819   5.968
 1916SOL     OW 6646   3.829   0.148   0.972
 1916SOL    HW1 6647   3.752   0.212   0.978
 1916SOL    HW2 6648   3.914   0.198   0.984
 1917SOL     OW 6649   2.431   4.067   0.095
 1917SOL    HW1 6650   2.522   4.025   0.095
 1917SOL    HW2 6651   2.389   4.055   0.005
 1918SOL     OW 6652   1.073   0.824   4.909
 1918SOL    HW1 6653   1.067   0.848   4.812
 1918SOL    HW2 6654   1.148   0.875   4.951
 1919SOL     OW 6655   2.189   1.452   1.102
 1919SOL    HW1 6656   2.280   1.450   1.062
 1919SOL    HW2 6657   2.163   1.546   1.122
 1920SOL     OW 6658   5.649   2.311   2.553
 1920SOL    HW1 6659   5.644   2.330   2.455
 1920SOL    HW2 6660   5.732   2.353   2.591
 1921SOL     OW 6661   1.424   2.752   0.337
 1921SOL    HW1 6662   1.447   2.716   0.247
 1921SOL    HW2 6663   1.391   2.846   0.327
 1922SOL     OW 6664   3.253   3.598   1.929
 1922SOL    HW1 6665   3.332   3.537   1.918
 1922SOL    HW2 6666   3.285   3.688   1.961
 1923SOL     OW 6667   5.317   7.013   6.660
 1923SOL    HW1 6668   5.273   6.923   6.659
 1923SOL    HW2 6669   5.246   0.062   6.650
 1924SOL     OW 6670   4.510   0.367   1.162
 1924SOL    HW1 6671   4.503   0.407   1.254
 1924SOL    HW2 6672   4.442   0.409   1.102
 1925SOL     OW 6673   0.959   4.309   1.679
 1925SOL    HW1 6674   0.888   4.247   1.710
 1925SOL    HW2 6675   1.041   4.257   1.654
 1926SOL     OW 6676   3.733   7.003   1.884
 1926SOL    HW1 6677   3.684   6.969   1.804
 1926SOL    HW2 6678   3.832   6.989   1.871
 1927SOL     OW 6679   2.198   4.008   1.125
 1927SOL    HW1 6680   2.237   3.982   1.036
 1927SOL    HW2 6681   2.118   3.950   1.144
 1928SOL     OW 6682   4.634   4.352   4.310
 1928SOL    HW1 6683   4.627   4.395   4.400
 1928SOL    HW2 6684   4.689   4.409   4.249
 1929SOL     OW 6685   3.167   0.605   2.635
 1929SOL    HW1 6686   3.186   0.548   2.555
 1929SOL    HW2 6687   3.197   0.557   2.717
 1930SOL     OW 6688   4.896   3.048   6.273
 1930SOL    HW1 6689   4.813   3.094   6.242
 1930SOL    HW2 6690   4.970   3.115   6.284
 1931SOL     OW 6691   1.078   1.485   6.414
 1931SOL    HW1 6692   0.996   1.534   6.385
 1931SOL    HW2 6693   1.159   1.539   6.391
 1932SOL     OW 6694   5.043   2.361   3.109
 1932SOL    HW1 6695   4.999   2.430   3.051
 1932SOL    HW2 6696   5.020   2.269   3.074
 1933SOL     OW 6697   0.001   2.022   0.129
 1933SOL    HW1 6698   0.010   2.119   0.104
 1933SOL    HW2 6699   0.051   2.005   0.213
 1934SOL     OW 6700   0.420   0.401   5.391
 1934SOL    HW1 6701   0.344   0.335   5.393
 1934SOL    HW2 6702   0.493   0.369   5.452
 1935SOL     OW 6703   4.629   4.319   3.506
 1935SOL    HW1 6704   4.638   4.274   3.418
 1935SOL    HW2 6705   4.589   4.410   3.493
 1936SOL     OW 6706   5.195   3.267   4.385
 1936SOL    HW1 6707   5.276   3.272   4.327
 1936SOL    HW2 6708   5.222   3.250   4.480
 1937SOL     OW 6709   5.017   5.773   6.556
 1937SOL    HW1 6710   5.058   5.817   6.476
 1937SOL    HW2 6711   5.028   5.674   6.549
 1938SOL     OW 6712   0.801   2.370   6.583
 1938SOL    HW1 6713   0.887   2.408   6.616
 1938SOL    HW2 6714   0.777   2.413   6.497
 1939SOL     OW 6715   0.782   5.615   4.915
 1939SOL    HW1 6716   0.876   5.618   4.882
 1939SOL    HW2 6717   0.781   5.585   5.011
 1940SOL     OW 6718   6.118   4.806   1.543
 1940SOL    HW1 6719   6.137   4.708   1.541
 1940SOL    HW2 6720   6.194   4.853   1.589
 1941SOL     OW 6721   0.608   2.657   3.864
 1941SOL    HW1 6722   0.652   2.569   3.850
 1941SOL    HW2 6723   0.635   2.720   3.791
 1942SOL     OW 6724   5.542   3.332   2.767
 1942SOL    HW1 6725   5.529   3.235   2.788
 1942SOL    HW2 6726   5.573   3.342   2.673
 1943SOL     OW 6727   1.433   1.213   2.209
 1943SOL    HW1 6728   1.506   1.275   2.236
 1943SOL    HW2 6729   1.345   1.262   2.211
 1944SOL     OW 6730   0.054   3.140   0.866
 1944SOL    HW1 6731   0.030   3.090   0.783
 1944SOL    HW2 6732   0.100   3.226   0.841
 1945SOL     OW 6733   3.667   6.474   0.687
 1945SOL    HW1 6734   3.733   6.406   0.719
 1945SOL    HW2 6735   3.677   6.557   0.742
 1946SOL     OW 6736   6.764   6.120   1.333
 1946SOL    HW1 6737   6.831   6.130   1.260
 1946SOL    HW2 6738   6.686   6.067   1.299
 1947SOL     OW 6739   5.902   4.353   3.259
 1947SOL    HW1 6740   5.850   4.268   3.268
 1947SOL    HW2 6741   5.997   4.331   3.238
 1948SOL     OW 6742   5.847   3.772   3.049
 1948SOL    HW1 6743   5.867   3.783   2.951
 1948SOL    HW2 6744   5.750   3.751   3.061
 1949SOL     OW 6745   4.138   4.259   0.955
 1949SOL    HW1 6746   4.169   4.350   0.927
 1949SOL    HW2 6747   4.201   4.189   0.918
 1950SOL     OW 6748   3.648   4.121   3.816
 1950SOL    HW1 6749   3.594   4.130   3.732
 1950SOL    HW2 6750   3.745   4.113   3.793
 1951SOL     OW 6751   6.631   4.265   5.688
 1951SOL    HW1 6752   6.705   4.202   5.712
 1951SOL    HW2 6753   6.576   4.226   5.615
 1952SOL     OW 6754   5.372   3.929   0.998
 1952SOL    HW1 6755   5.277   3.961   0.991
 1952SOL    HW2 6756   5.388   3.857   0.931
 1953SOL     OW 6757   0.658   1.273   6.670
 1953SOL    HW1 6758   0.713   1.320   6.740
 1953SOL    HW2 6759   0.717   1.212   6.617
 1954SOL     OW 6760   4.417   0.001   2.047
 1954SOL    HW1 6761   4.386   6.949   2.109
 1954SOL    HW2 6762   4.500   6.993   2.000
 1955SOL     OW 6763   1.148   1.583   1.794
 1955SOL    HW1 6764   1.130   1.681   1.802
 1955SOL    HW2 6765   1.062   1.534   1.785
 1956SOL     OW 6766   5.870   1.048   2.119
 1956SOL    HW1 6767   5.899   1.008   2.032
 1956SOL    HW2 6768   5.816   0.982   2.171
 1957SOL     OW 6769   5.569   2.654   3.891
 1957SOL    HW1 6770   5.622   2.658   3.977
 1957SOL    HW2 6771   5.577   2.563   3.852
 1958SOL     OW 6772   4.416   1.569   0.931
 1958SOL    HW1 6773   4.356   1.650   0.926
 1958SOL    HW2 6774   4.504   1.590   0.888
 1959SOL     OW 6775   6.609   0.073   3.756
 1959SOL    HW1 6776   6.670   0.023   3.695
 1959SOL    HW2 6777   6.545   0.128   3.702
 1960SOL     OW 6778   6.008   3.546   2.715
 1960SOL    HW1 6779   6.015   3.507   2.623
 1960SOL    HW2 6780   5.944   3.622   2.715
 1961SOL     OW 6781   6.158   4.404   5.070
 1961SOL    HW1 6782   6.226   4.408   4.996
 1961SOL    HW2 6783   6.068   4.429   5.034
 1962SOL     OW 6784   1.243   6.388   3.035
 1962SOL    HW1 6785   1.318   6.409   2.972
 1962SOL    HW2 6786   1.160   6.435   3.004
 1963SOL     OW 6787   1.003   1.665   1.388
 1963SOL    HW1 6788   1.053   1.579   1.382
 1963SOL    HW2 6789   1.058   1.739   1.350
 1964SOL     OW 6790   5.693   4.477   1.699
 1964SOL    HW1 6791   5.650   4.522   1.621
 1964SOL    HW2 6792   5.781   4.520   1.719
 1965SOL     OW 6793   0.629   4.556   4.236
 1965SOL    HW1 6794   0.591   4.497   4.165
 1965SOL    HW2 6795   0.555   4.586   4.297
 1966SOL     OW 6796   1.566   4.619   1.069
 1966SOL    HW1 6797   1.510   4.567   1.134
 1966SOL    HW2 6798   1.662   4.598   1.084
 1967SOL     OW 6799   6.411   2.680   3.481
 1967SOL    HW1 6800   6.441   2.739   3.556
 1967SOL    HW2 6801   6.491   2.638   3.437
 1968SOL     OW 6802   2.253   1.402   5.813
 1968SOL    HW1 6803   2.274   1.323   5.871
 1968SOL    HW2 6804   2.170   1.383   5.760
 1969SOL     OW 6805   3.188   0.339   1.074
 1969SOL    HW1 6806   3.164   0.331   1.171
 1969SOL    HW2 6807   3.144   0.265   1.023
 1970SOL     OW 6808   6.560   5.661   4.796
 1970SOL    HW1 6809   6.636   5.708   4.751
 1970SOL    HW2 6810   6.563   5.680   4.894
 1971SOL     OW 6811   1.295   0.021   5.652
 1971SOL    HW1 6812   1.352   6.970   5.613
 1971SOL    HW2 6813   1.289   0.098   5.588
 1972SOL     OW 6814   6.027   2.636   1.299
 1972SOL    HW1 6815   5.946   2.579   1.312
 1972SOL    HW2 6816   6.050   2.680   1.385
 1973SOL     OW 6817   2.497   3.873   0.916
 1973SOL    HW1 6818   2.408   3.837   0.942
 1973SOL    HW2 6819   2.563   3.853   0.989
 1974SOL     OW 6820   3.965   6.536   4.897
 1974SOL    HW1 6821   3.941   6.524   4.800
 1974SOL    HW2 6822   4.017   6.457   4.929
 1975SOL     OW 6823   2.032   3.505   3.141
 1975SOL    HW1 6824   1.943   3.460   3.135
 1975SOL    HW2 6825   2.104   3.437   3.150
 1976SOL     OW 6826   6.771   0.156   6.205
 1976SOL    HW1 6827   6.860   0.151   6.160
 1976SOL    HW2 6828   6.758   0.248   6.242
 1977SOL     OW 6829   2.291   4.085   6.847
 1977SOL    HW1 6830   2.289   4.178   6.883
 1977SOL    HW2 6831   2.296   4.088   6.747
 1978SOL     OW 6832   2.255   6.666   2.461
 1978SOL    HW1 6833   2.319   6.662   2.384
 1978SOL    HW2 6834   2.248   6.576   2.503
 1979SOL     OW 6835   5.986   5.537   6.217
 1979SOL    HW1 6836   6.077   5.564   6.247
 1979SOL    HW2 6837   5.930   5.618   6.200
 1980SOL     OW 6838   3.227   1.346   1.845
 1980SOL    HW1 6839   3.250   1.250   1.862
 1980SOL    HW2 6840   3.277   1.403   1.911
 1981SOL     OW 6841   4.564   2.580   3.132
 1981SOL    HW1 6842   4.662   2.590   3.150
 1981SOL    HW2 6843   4.550   2.550   3.038
 1982SOL     OW 6844   6.428   3.514   3.842
 1982SOL    HW1 6845   6.352   3.470   3.891
 1982SOL    HW2 6846   6.398   3.541   3.751
 1983SOL     OW 6847   0.298   0.198   0.899
 1983SOL    HW1 6848   0.351   0.280   0.916
 1983SOL    HW2 6849   0.202   0.215   0.918
 1984SOL     OW 6850   5.925   2.677   5.441
 1984SOL    HW1 6851   5.957   2.592   5.400
 1984SOL    HW2 6852   5.851   2.657   5.505
 1985SOL     OW 6853   6.267   4.978   1.787
 1985SOL    HW1 6854   6.224   5.064   1.760
 1985SOL    HW2 6855   6.318   4.991   1.872
 1986SOL     OW 6856   3.170   1.237   6.886
 1986SOL    HW1 6857   3.084   1.262   6.841
 1986SOL    HW2 6858   3.243   1.296   6.852
 1987SOL     OW 6859   1.564   0.797   3.890
 1987SOL    HW1 6860   1.514   0.711   3.880
 1987SOL    HW2 6861   1.611   0.798   3.978
 1988SOL     OW 6862   0.008   2.436   0.841
 1988SOL    HW1 6863   0.029   2.492   0.761
 1988SOL    HW2 6864   6.933   2.409   0.839
 1989SOL     OW 6865   2.720   5.079   5.694
 1989SOL    HW1 6866   2.649   5.025   5.648
 1989SOL    HW2 6867   2.804   5.075   5.641
 1990SOL     OW 6868   3.978   0.738   0.332
 1990SOL    HW1 6869   3.952   0.644   0.311
 1990SOL    HW2 6870   3.897   0.796   0.334
 1991SOL     OW 6871   2.994   5.437   0.517
 1991SOL    HW1 6872   3.041   5.386   0.445
 1991SOL    HW2 6873   2.980   5.532   0.487
 1992SOL     OW 6874   0.206   6.493   0.245
 1992SOL    HW1 6875   0.292   6.542   0.232
 1992SOL    HW2 6876   0.129   6.555   0.231
 1993SOL     OW 6877   1.812   2.892   4.532
 1993SOL    HW1 6878   1.896   2.841   4.550
 1993SOL    HW2 6879   1.789   2.948   4.612
 1994SOL     OW 6880   3.499   3.301   0.512
 1994SOL    HW1 6881   3.484   3.384   0.566
 1994SOL    HW2 6882   3.480   3.221   0.569
 1995SOL     OW 6883   5.458   1.936   4.829
 1995SOL    HW1 6884   5.384   2.002   4.823
 1995SOL    HW2 6885   5.420   1.844   4.843
 1996SOL     OW 6886   3.837   1.499   1.308
 1996SOL    HW1 6887   3.822   1.547   1.222
 1996SOL    HW2 6888   3.911   1.433   1.297
 1997SOL     OW 6889   3.356   1.560   3.721
 1997SOL    HW1 6890   3.425   1.527   3.785
 1997SOL    HW2 6891   3.279   1.496   3.720
 1998SOL     OW 6892   1.247   3.069   2.040
 1998SOL    HW1 6893   1.332   3.017   2.038
 1998SOL    HW2 6894   1.206   3.067   1.948
 1999SOL     OW 6895   0.645   0.326   5.538
 1999SOL    HW1 6896   0.736   0.340   5.497
 1999SOL    HW2 6897   0.656   0.301   5.634
 2000SOL     OW 6898   3.853   3.711   6.502
 2000SOL    HW1 6899   3.885   3.666   6.586
 2000SOL    HW2 6900   3.932   3.742   6.449
 2001SOL     OW 6901   1.803   1.449   6.746
 2001SOL    HW1 6902   1.766   1.509   6.816
 2001SOL    HW2 6903   1.729   1.397   6.703
 2002SOL     OW 6904   6.931   5.562   1.226
 2002SOL    HW1 6905   6.916   5.648   1.176
 2002SOL    HW2 6906   0.007   5.537   1.220
 2003SOL     OW 6907   5.873   4.770   2.267
 2003SOL    HW1 6908   5.847   4.820   2.185
 2003SOL    HW2 6909   5.793   4.721   2.303
 2004SOL     OW 6910   3.492   0.751   3.714
 2004SOL    HW1 6911   3.503   0.652   3.711
 2004SOL    HW2 6912   3.552   0.793   3.646
 2005SOL     OW 6913   0.507   6.154   0.185
 2005SOL    HW1 6914   0.607   6.153   0.186
 2005SOL    HW2 6915   0.473   6.060   0.184
 2006SOL     OW 6916   5.098   0.149   3.230
 2006SOL    HW1 6917   5.086   0.061   3.277
 2006SOL    HW2 6918   5.070   0.223   3.291
 2007SOL     OW 6919   5.409   4.404   0.097
 2007SOL    HW1 6920   5.415   4.496   0.059
 2007SOL    HW2 6921   5.346   4.349   0.042
 2008SOL     OW 6922   2.282   4.145   3.663
 2008SOL    HW1 6923   2.262   4.237   3.696
 2008SOL    HW2 6924   2.241   4.078   3.726
 2009SOL     OW 6925   6.405   6.076   1.655
 2009SOL    HW1 6926   6.347   6.064   1.736
 2009SOL    HW2 6927   6.493   6.031   1.671
 2010SOL     OW 6928   1.705   2.181   2.128
 2010SOL    HW1 6929   1.659   2.157   2.042
 2010SOL    HW2 6930   1.641   2.229   2.188
 2011SOL     OW 6931   7.000   5.936   5.650
 2011SOL    HW1 6932   6.974   6.010   5.589
 2011SOL    HW2 6933   6.947   5.854   5.627
 2012SOL     OW 6934   1.705   3.299   2.667
 2012SOL    HW1 6935   1.606   3.288   2.663
 2012SOL    HW2 6936   1.748   3.232   2.606
 2013SOL     OW 6937   0.701   2.701   3.340
 2013SOL    HW1 6938   0.734   2.607   3.348
 2013SOL    HW2 6939   0.762   2.762   3.391
 2014SOL     OW 6940   3.145   0.465   3.824
 2014SOL    HW1 6941   3.154   0.385   3.765
 2014SOL    HW2 6942   3.165   0.548   3.771
 2015SOL     OW 6943   3.792   0.780   1.978
 2015SOL    HW1 6944   3.831   0.766   2.069
 2015SOL    HW2 6945   3.821   0.706   1.918
 2016SOL     OW 6946   1.956   6.723   6.024
 2016SOL    HW1 6947   1.857   6.707   6.018
 2016SOL    HW2 6948   1.979   6.804   5.970
 2017SOL     OW 6949   4.058   6.973   2.685
 2017SOL    HW1 6950   4.090   6.924   2.604
 2017SOL    HW2 6951   3.965   6.943   2.707
 2018SOL     OW 6952   0.242   2.019   2.977
 2018SOL    HW1 6953   0.188   2.050   2.899
 2018SOL    HW2 6954   0.223   2.076   3.056
 2019SOL     OW 6955   6.411   4.722   6.469
 2019SOL    HW1 6956   6.321   4.704   6.429
 2019SOL    HW2 6957   6.481   4.675   6.416
 2020SOL     OW 6958   1.569   6.491   6.156
 2020SOL    HW1 6959   1.481   6.448   6.174
 2020SOL    HW2 6960   1.642   6.437   6.199
 2021SOL     OW 6961   6.144   6.348   3.105
 2021SOL    HW1 6962   6.182   6.258   3.084
 2021SOL    HW2 6963   6.059   6.337   3.156
 2022SOL     OW 6964   2.277   4.195   5.274
 2022SOL    HW1 6965   2.337   4.274   5.284
 2022SOL    HW2 6966   2.324   4.124   5.221
 2023SOL     OW 6967   6.838   0.352   6.955
 2023SOL    HW1 6968   6.854   0.445   6.988
 2023SOL    HW2 6969   6.813   0.293   0.010
 2024SOL     OW 6970   0.696   5.705   4.603
 2024SOL    HW1 6971   0.728   5.649   4.527
 2024SOL    HW2 6972   0.697   5.650   4.687
 2025SOL     OW 6973   2.604   0.443   5.037
 2025SOL    HW1 6974   2.626   0.387   4.957
 2025SOL    HW2 6975   2.642   0.401   5.119
 2026SOL     OW 6976   6.024   0.799   6.108
 2026SOL    HW1 6977   6.024   0.749   6.194
 2026SOL    HW2 6978   6.119   0.810   6.077
 2027SOL     OW 6979   0.896   5.775   2.469
 2027SOL    HW1 6980   0.907   5.731   2.558
 2027SOL    HW2 6981   0.919   5.872   2.476
 2028SOL     OW 6982   3.892   6.104   2.846
 2028SOL    HW1 6983   3.833   6.024   2.854
 2028SOL    HW2 6984   3.932   6.108   2.755
 2029SOL     OW 6985   6.953   2.760   6.338
 2029SOL    HW1 6986   6.888   2.836   6.344
 2029SOL    HW2 6987   6.914   2.679   6.382
 2030SOL     OW 6988   2.969   6.162   3.254
 2030SOL    HW1 6989   2.987   6.154   3.352
 2030SOL    HW2 6990   2.872   6.145   3.237
 2031SOL     OW 6991   6.296   5.290   3.261
 2031SOL    HW1 6992   6.392   5.265   3.252
 2031SOL    HW2 6993   6.284   5.348   3.342
 2032SOL     OW 6994   2.718   1.515   6.272
 2032SOL    HW1 6995   2.749   1.591   6.216
 2032SOL    HW2 6996   2.619   1.505   6.264
 2033SOL     OW 6997   1.989   1.041   1.192
 2033SOL    HW1 6998   1.966   1.138   1.183
 2033SOL    HW2 6999   1.939   1.001   1.268
 2034SOL     OW 7000   0.446   5.153   5.752
 2034SOL    HW1 7001   0.537   5.192   5.757
 2034SOL    HW2 7002   0.398   5.167   5.838
 2035SOL     OW 7003   5.639   0.113   2.390
 2035SOL    HW1 7004   5.676   0.025   2.360
 2035SOL    HW2 7005   5.643   0.178   2.314
 2036SOL     OW 7006   0.973   3.822   2.339
 2036SOL    HW1 7007   0.929   3.892   2.283
 2036SOL    HW2 7008   0.922   3.810   2.424
 2037SOL     OW 7009   0.242   3.194   6.591
 2037SOL    HW1 7010   0.199   3.272   6.545
 2037SOL    HW2 7011   0.178   3.117   6.591
 2038SOL     OW 7012   2.186   1.742   6.775
 2038SOL    HW1 7013   2.166   1.702   6.865
 2038SOL    HW2 7014   2.283   1.728   6.754
 2039SOL     OW 7015   6.464   6.065   2.286
 2039SOL    HW1 7016   6.501   6.117   2.363
 2039SOL    HW2 7017   6.520   5.984   2.271
 2040SOL     OW 7018   2.349   2.826   0.223
 2040SOL    HW1 7019   2.417   2.759   0.193
 2040SOL    HW2 7020   2.384   2.875   0.303
 2041SOL     OW 7021   1.981   0.011   6.745
 2041SOL    HW1 7022   1.971   0.107   6.719
 2041SOL    HW2 7023   1.890   6.990   6.750
 2042SOL     OW 7024   4.944   0.572   5.763
 2042SOL    HW1 7025   4.885   0.510   5.712
 2042SOL    HW2 7026   4.924   0.564   5.861
 2043SOL     OW 7027   6.630   3.350   1.487
 2043SOL    HW1 7028   6.668   3.340   1.579
 2043SOL    HW2 7029   6.681   3.419   1.436
 2044SOL     OW 7030   5.348   0.841   0.734
 2044SOL    HW1 7031   5.257   0.832   0.775
 2044SOL    HW2 7032   5.361   0.771   0.665
 2045SOL     OW 7033   1.731   6.184   6.153
 2045SOL    HW1 7034   1.699   6.167   6.059
 2045SOL    HW2 7035   1.675   6.133   6.217
 2046SOL     OW 7036   0.923   2.102   5.084
 2046SOL    HW1 7037   0.936   2.181   5.024
 2046SOL    HW2 7038   0.956   2.019   5.038
 2047SOL     OW 7039   6.337   1.965   6.944
 2047SOL    HW1 7040   6.249   1.958   6.897
 2047SOL    HW2 7041   6.394   2.033   6.897
 2048SOL     OW 7042   0.789   1.612   4.194
 2048SOL    HW1 7043   0.695   1.580   4.189
 2048SOL    HW2 7044   0.826   1.621   4.101
 2049SOL     OW 7045   4.867   1.186   4.609
 2049SOL    HW1 7046   4.802   1.251   4.569
 2049SOL    HW2 7047   4.833   1.155   4.697
 2050SOL     OW 7048   0.305   1.412   3.989
 2050SOL    HW1 7049   0.306   1.507   3.959
 2050SOL    HW2 7050   0.215   1.390   4.027
 2051SOL     OW 7051   2.892   6.528   0.921
 2051SOL    HW1 7052   2.817   6.586   0.952
 2051SOL    HW2 7053   2.977   6.559   0.964
 2052SOL     OW 7054   1.255   4.347   6.999
 2052SOL    HW1 7055   1.328   4.301   6.948
 2052SOL    HW2 7056   1.286   4.438   0.004
 2053SOL     OW 7057   0.892   5.236   3.992
 2053SOL    HW1 7058   0.879   5.195   4.082
 2053SOL    HW2 7059   0.989   5.253   3.977
 2054SOL     OW 7060   3.522   3.514   3.911
 2054SOL    HW1 7061   3.557   3.561   3.992
 2054SOL    HW2 7062   3.552   3.419   3.912
 2055SOL     OW 7063   1.906   2.246   5.569
 2055SOL    HW1 7064   1.896   2.343   5.589
 2055SOL    HW2 7065   1.873   2.227   5.477
 2056SOL     OW 7066   3.859   4.523   1.400
 2056SOL    HW1 7067   3.941   4.519   1.344
 2056SOL    HW2 7068   3.785   4.565   1.348
 2057SOL     OW 7069   5.926   2.568   4.467
 2057SOL    HW1 7070   5.891   2.559   4.560
 2057SOL    HW2 7071   5.938   2.665   4.445
 2058SOL     OW 7072   0.738   6.172   3.683
 2058SOL    HW1 7073   0.836   6.160   3.699
 2058SOL    HW2 7074   0.707   6.255   3.731
 2059SOL     OW 7075   2.284   0.149   5.453
 2059SOL    HW1 7076   2.267   0.103   5.540
 2059SOL    HW2 7077   2.351   0.222   5.467
 2060SOL     OW 7078   1.090   3.090   0.007
 2060SOL    HW1 7079   1.159   3.052   6.966
 2060SOL    HW2 7080   1.000   3.052   7.006
 2061SOL     OW 7081   2.311   2.132   2.426
 2061SOL    HW1 7082   2.250   2.081   2.365
 2061SOL    HW2 7083   2.297   2.102   2.520
 2062SOL     OW 7084   6.248   5.217   5.003
 2062SOL    HW1 7085   6.255   5.198   4.905
 2062SOL    HW2 7086   6.222   5.312   5.017
 2063SOL     OW 7087   1.868   1.065   4.798
 2063SOL    HW1 7088   1.810   1.001   4.850
 2063SOL    HW2 7089   1.882   1.148   4.851
 2064SOL     OW 7090   0.624   3.447   3.521
 2064SOL    HW1 7091   0.721   3.468   3.536
 2064SOL    HW2 7092   0.604   3.355   3.556
 2065SOL     OW 7093   4.699   2.350   5.655
 2065SOL    HW1 7094   4.761   2.403   5.712
 2065SOL    HW2 7095   4.643   2.412   5.600
 2066SOL     OW 7096   6.203   2.734   5.246
 2066SOL    HW1 7097   6.105   2.736   5.265
 2066SOL    HW2 7098   6.233   2.826   5.218
 2067SOL     OW 7099   6.764   4.681   0.688
 2067SOL    HW1 7100   6.796   4.774   0.672
 2067SOL    HW2 7101   6.664   4.678   0.680
 2068SOL     OW 7102   4.123   0.567   4.222
 2068SOL    HW1 7103   4.209   0.597   4.262
 2068SOL    HW2 7104   4.078   0.643   4.175
 2069SOL     OW 7105   0.374   2.417   4.147
 2069SOL    HW1 7106   0.463   2.405   4.192
 2069SOL    HW2 7107   0.369   2.356   4.068
 2070SOL     OW 7108   0.556   4.334   2.105
 2070SOL    HW1 7109   0.528   4.409   2.165
 2070SOL    HW2 7110   0.625   4.367   2.040
 2071SOL     OW 7111   6.626   1.572   6.111
 2071SOL    HW1 7112   6.697   1.572   6.180
 2071SOL    HW2 7113   6.661   1.614   6.027
 2072SOL     OW 7114   3.907   4.507   5.882
 2072SOL    HW1 7115   3.994   4.521   5.835
 2072SOL    HW2 7116   3.890   4.583   5.944
 2073SOL     OW 7117   3.635   6.154   0.552
 2073SOL    HW1 7118   3.640   6.095   0.471
 2073SOL    HW2 7119   3.620   6.248   0.524
 2074SOL     OW 7120   1.061   3.625   5.152
 2074SOL    HW1 7121   1.153   3.662   5.140
 2074SOL    HW2 7122   1.056   3.533   5.114
 2075SOL     OW 7123   6.867   2.024   2.069
 2075SOL    HW1 7124   6.834   1.972   1.990
 2075SOL    HW2 7125   6.842   1.975   2.153
 2076SOL     OW 7126   5.228   6.190   4.681
 2076SOL    HW1 7127   5.314   6.141   4.696
 2076SOL    HW2 7128   5.212   6.199   4.583
 2077SOL     OW 7129   0.384   3.857   1.229
 2077SOL    HW1 7130   0.375   3.954   1.205
 2077SOL    HW2 7131   0.320   3.834   1.302
 2078SOL     OW 7132   1.730   3.557   5.970
 2078SOL    HW1 7133   1.696   3.631   5.912
 2078SOL    HW2 7134   1.739   3.589   6.064
 2079SOL     OW 7135   5.440   1.708   1.935
 2079SOL    HW1 7136   5.539   1.709   1.949
 2079SOL    HW2 7137   5.413   1.620   1.896
 2080SOL     OW 7138   2.549   3.006   5.611
 2080SOL    HW1 7139   2.608   2.952   5.551
 2080SOL    HW2 7140   2.481   3.054   5.556
 2081SOL     OW 7141   0.101   0.277   3.206
 2081SOL    HW1 7142   0.005   0.302   3.193
 2081SOL    HW2 7143   0.110   0.218   3.285
 2082SOL     OW 7144   0.447   6.335   2.390
 2082SOL    HW1 7145   0.477   6.242   2.371
 2082SOL    HW2 7146   0.440   6.349   2.488
 2083SOL     OW 7147   6.571   6.160   4.528
 2083SOL    HW1 7148   6.610   6.130   4.615
 2083SOL    HW2 7149   6.594   6.095   4.456
 2084SOL     OW 7150   0.523   2.732   1.692
 2084SOL    HW1 7151   0.430   2.740   1.729
 2084SOL    HW2 7152   0.565   2.648   1.726
 2085SOL     OW 7153   5.363   5.293   0.675
 2085SOL    HW1 7154   5.276   5.327   0.712
 2085SOL    HW2 7155   5.357   5.289   0.575
 2086SOL     OW 7156   4.278   6.888   6.887
 2086SOL    HW1 7157   4.230   6.804   6.862
 2086SOL    HW2 7158   4.218   6.944   6.944
 2087SOL     OW 7159   4.134   2.226   6.622
 2087SOL    HW1 7160   4.191   2.144   6.623
 2087SOL    HW2 7161   4.096   2.240   6.531
 2088SOL     OW 7162   6.926   5.895   4.890
 2088SOL    HW1 7163   6.870   5.869   4.969
 2088SOL    HW2 7164   7.012   5.844   4.892
 2089SOL     OW 7165   3.256   3.297   6.197
 2089SOL    HW1 7166   3.348   3.258   6.206
 2089SOL    HW2 7167   3.259   3.395   6.221
 2090SOL     OW 7168   4.382   3.481   5.318
 2090SOL    HW1 7169   4.321   3.518   5.248
 2090SOL    HW2 7170   4.476   3.508   5.298
 2091SOL     OW 7171   5.820   5.698   2.109
 2091SOL    HW1 7172   5.841   5.607   2.143
 2091SOL    HW2 7173   5.808   5.695   2.009
 2092SOL     OW 7174   4.424   3.842   1.317
 2092SOL    HW1 7175   4.508   3.828   1.264
 2092SOL    HW2 7176   4.351   3.872   1.256
 2093SOL     OW 7177   3.799   1.932   2.964
 2093SOL    HW1 7178   3.881   1.964   2.917
 2093SOL    HW2 7179   3.819   1.845   3.009
 2094SOL     OW 7180   5.124   2.463   6.605
 2094SOL    HW1 7181   5.056   2.530   6.637
 2094SOL    HW2 7182   5.128   2.465   6.505
 2095SOL     OW 7183   5.018   6.257   3.595
 2095SOL    HW1 7184   5.000   6.204   3.513
 2095SOL    HW2 7185   5.026   6.195   3.673
 2096SOL     OW 7186   4.388   6.527   2.544
 2096SOL    HW1 7187   4.317   6.461   2.570
 2096SOL    HW2 7188   4.381   6.608   2.604
 2097SOL     OW 7189   0.903   5.334   6.479
 2097SOL    HW1 7190   0.974   5.281   6.433
 2097SOL    HW2 7191   0.840   5.371   6.411
 2098SOL     OW 7192   3.028   6.579   3.128
 2098SOL    HW1 7193   3.126   6.573   3.106
 2098SOL    HW2 7194   2.974   6.558   3.047
 2099SOL     OW 7195   5.334   1.367   0.271
 2099SOL    HW1 7196   5.334   1.376   0.371
 2099SOL    HW2 7197   5.241   1.351   0.239
 2100SOL     OW 7198   5.805   0.770   1.004
 2100SOL    HW1 7199   5.710   0.764   0.972
 2100SOL    HW2 7200   5.821   0.700   1.074
 2101SOL     OW 7201   0.025   6.398   2.253
 2101SOL    HW1 7202   6.950   6.378   2.233
 2101SOL    HW2 7203   0.039   6.497   2.250
 2102SOL     OW 7204   3.625   3.624   0.533
 2102SOL    HW1 7205   3.684   3.546   0.552
 2102SOL    HW2 7206   3.681   3.701   0.501
 2103SOL     OW 7207   3.290   5.968   0.804
 2103SOL    HW1 7208   3.278   5.871   0.785
 2103SOL    HW2 7209   3.241   5.992   0.888
 2104SOL     OW 7210   1.228   4.877   3.205
 2104SOL    HW1 7211   1.264   4.955   3.256
 2104SOL    HW2 7212   1.274   4.872   3.116
 2105SOL     OW 7213   5.199   3.882   6.461
 2105SOL    HW1 7214   5.217   3.789   6.492
 2105SOL    HW2 7215   5.137   3.880   6.381
 2106SOL     OW 7216   5.253   3.719   1.791
 2106SOL    HW1 7217   5.237   3.752   1.884
 2106SOL    HW2 7218   5.170   3.675   1.757
 2107SOL     OW 7219   5.631   3.807   5.229
 2107SOL    HW1 7220   5.588   3.778   5.314
 2107SOL    HW2 7221   5.578   3.881   5.187
 2108SOL     OW 7222   5.820   6.943   5.838
 2108SOL    HW1 7223   5.851   0.012   5.806
 2108SOL    HW2 7224   5.721   6.935   5.824
 2109SOL     OW 7225   2.226   5.680   2.952
 2109SOL    HW1 7226   2.200   5.776   2.944
 2109SOL    HW2 7227   2.320   5.668   2.923
 2110SOL     OW 7228   4.246   0.736   6.866
 2110SOL    HW1 7229   4.239   0.638   6.850
 2110SOL    HW2 7230   4.250   0.753   6.965
 2111SOL     OW 7231   1.102   2.451   5.954
 2111SOL    HW1 7232   1.116   2.550   5.947
 2111SOL    HW2 7233   1.016   2.433   6.003
 2112SOL     OW 7234   0.600   1.740   0.647
 2112SOL    HW1 7235   0.680   1.681   0.630
 2112SOL    HW2 7236   0.582   1.743   0.745
 2113SOL     OW 7237   1.379   0.053   4.798
 2113SOL    HW1 7238   1.284   0.039   4.773
 2113SOL    HW2 7239   1.384   0.112   4.879
 2114SOL     OW 7240   1.986   2.435   6.629
 2114SOL    HW1 7241   1.946   2.357   6.582
 2114SOL    HW2 7242   1.916   2.478   6.687
 2115SOL     OW 7243   6.452   5.747   3.481
 2115SOL    HW1 7244   6.443   5.704   3.570
 2115SOL    HW2 7245   6.530   5.709   3.432
 2116SOL     OW 7246   0.438   2.741   0.021
 2116SOL    HW1 7247   0.497   2.662   0.010
 2116SOL    HW2 7248   0.343   2.711   0.034
 2117SOL     OW 7249   6.060   1.345   2.174
 2117SOL    HW1 7250   5.972   1.346   2.126
 2117SOL    HW2 7251   6.073   1.258   2.220
 2118SOL     OW 7252   6.338   2.820   2.044
 2118SOL    HW1 7253   6.274   2.894   2.023
 2118SOL    HW2 7254   6.302   2.734   2.008
 2119SOL     OW 7255   3.211   0.660   0.098
 2119SOL    HW1 7256   3.286   0.724   0.115
 2119SOL    HW2 7257   3.243   0.566   0.110
 2120SOL     OW 7258   5.813   2.092   0.489
 2120SOL    HW1 7259   5.866   2.147   0.554
 2120SOL    HW2 7260   5.738   2.046   0.536
 2121SOL     OW 7261   1.663   0.669   6.624
 2121SOL    HW1 7262   1.610   0.687   6.707
 2121SOL    HW2 7263   1.612   0.606   6.565
 2122SOL     OW 7264   6.134   0.725   5.026
 2122SOL    HW1 7265   6.107   0.629   5.021
 2122SOL    HW2 7266   6.160   0.748   5.119
 2123SOL     OW 7267   1.679   6.261   3.628
 2123SOL    HW1 7268   1.776   6.280   3.614
 2123SOL    HW2 7269   1.625   6.330   3.580
 2124SOL     OW 7270   3.574   3.213   5.910
 2124SOL    HW1 7271   3.479   3.212   5.943
 2124SOL    HW2 7272   3.605   3.307   5.899
 2125SOL     OW 7273   1.180   6.016   3.386
 2125SOL    HW1 7274   1.116   6.090   3.366
 2125SOL    HW2 7275   1.179   5.950   3.310
 2126SOL     OW 7276   3.572   4.247   6.804
 2126SOL    HW1 7277   3.495   4.255   6.867
 2126SOL    HW2 7278   3.590   4.336   6.762
 2127SOL     OW 7279   0.493   2.470   5.011
 2127SOL    HW1 7280   0.469   2.385   5.058
 2127SOL    HW2 7281   0.418   2.536   5.021
 2128SOL     OW 7282   5.416   2.804   1.451
 2128SOL    HW1 7283   5.451   2.865   1.380
 2128SOL    HW2 7284   5.472   2.721   1.455
 2129SOL     OW 7285   4.882   4.532   3.564
 2129SOL    HW1 7286   4.891   4.515   3.466
 2129SOL    HW2 7287   4.849   4.449   3.609
 2130SOL     OW 7288   2.108   0.986   2.726
 2130SOL    HW1 7289   2.041   0.976   2.799
 2130SOL    HW2 7290   2.061   1.010   2.641
 2131SOL     OW 7291   5.893   2.012   5.902
 2131SOL    HW1 7292   5.794   2.022   5.902
 2131SOL    HW2 7293   5.927   2.012   5.996
 2132SOL     OW 7294   2.830   1.922   6.743
 2132SOL    HW1 7295   2.837   2.016   6.777
 2132SOL    HW2 7296   2.791   1.864   6.815
 2133SOL     OW 7297   2.682   2.030   1.757
 2133SOL    HW1 7298   2.681   2.124   1.792
 2133SOL    HW2 7299   2.685   2.031   1.657
 2134SOL     OW 7300   1.089   6.536   4.579
 2134SOL    HW1 7301   1.174   6.576   4.545
 2134SOL    HW2 7302   1.014   6.557   4.516
 2135SOL     OW 7303   0.537   1.411   3.254
 2135SOL    HW1 7304   0.630   1.445   3.246
 2135SOL    HW2 7305   0.478   1.458   3.188
 2136SOL     OW 7306   0.384   4.012   3.344
 2136SOL    HW1 7307   0.290   4.038   3.370
 2136SOL    HW2 7308   0.418   3.944   3.408
 2137SOL     OW 7309   1.445   0.220   4.997
 2137SOL    HW1 7310   1.512   0.261   4.935
 2137SOL    HW2 7311   1.412   0.288   5.062
 2138SOL     OW 7312   0.384   2.798   0.697
 2138SOL    HW1 7313   0.329   2.862   0.643
 2138SOL    HW2 7314   0.436   2.849   0.766
 2139SOL     OW 7315   2.911   0.577   5.566
 2139SOL    HW1 7316   2.908   0.556   5.663
 2139SOL    HW2 7317   2.879   0.671   5.551
 2140SOL     OW 7318   2.343   5.752   3.337
 2140SOL    HW1 7319   2.258   5.803   3.323
 2140SOL    HW2 7320   2.376   5.718   3.249
 2141SOL     OW 7321   5.288   2.157   1.192
 2141SOL    HW1 7322   5.312   2.060   1.200
 2141SOL    HW2 7323   5.226   2.170   1.114
 2142SOL     OW 7324   2.239   2.431   3.350
 2142SOL    HW1 7325   2.242   2.405   3.253
 2142SOL    HW2 7326   2.144   2.436   3.380
 2143SOL     OW 7327   3.098   6.896   1.592
 2143SOL    HW1 7328   3.144   6.963   1.534
 2143SOL    HW2 7329   3.004   6.882   1.559
 2144SOL     OW 7330   0.857   1.089   3.461
 2144SOL    HW1 7331   0.774   1.145   3.456
 2144SOL    HW2 7332   0.833   0.992   3.463
 2145SOL     OW 7333   3.283   5.077   2.968
 2145SOL    HW1 7334   3.356   5.026   2.922
 2145SOL    HW2 7335   3.318   5.164   3.001
 2146SOL     OW 7336   3.924   3.292   2.838
 2146SOL    HW1 7337   3.909   3.324   2.931
 2146SOL    HW2 7338   3.900   3.195   2.831
 2147SOL     OW 7339   1.132   1.103   5.536
 2147SOL    HW1 7340   1.081   1.017   5.547
 2147SOL    HW2 7341   1.075   1.179   5.568
 2148SOL     OW 7342   4.881   3.394   2.849
 2148SOL    HW1 7343   4.795   3.443   2.858
 2148SOL    HW2 7344   4.882   3.343   2.764
 2149SOL     OW 7345   3.907   1.021   2.776
 2149SOL    HW1 7346   3.984   1.083   2.792
 2149SOL    HW2 7347   3.938   0.943   2.721
 2150SOL     OW 7348   2.862   2.281   3.560
 2150SOL    HW1 7349   2.790   2.307   3.624
 2150SOL    HW2 7350   2.925   2.217   3.604
 2151SOL     OW 7351   3.688   2.871   5.589
 2151SOL    HW1 7352   3.606   2.832   5.632
 2151SOL    HW2 7353   3.762   2.875   5.656
 2152SOL     OW 7354   6.151   5.982   2.092
 2152SOL    HW1 7355   6.172   5.924   2.171
 2152SOL    HW2 7356   6.052   5.993   2.085
 2153SOL     OW 7357   4.681   2.529   3.521
 2153SOL    HW1 7358   4.656   2.483   3.606
 2153SOL    HW2 7359   4.773   2.567   3.530
 2154SOL     OW 7360   3.608   5.825   4.814
 2154SOL    HW1 7361   3.530   5.781   4.858
 2154SOL    HW2 7362   3.587   5.921   4.795
 2155SOL     OW 7363   0.351   3.996   0.105
 2155SOL    HW1 7364   0.331   4.094   0.105
 2155SOL    HW2 7365   0.282   3.948   0.052
 2156SOL     OW 7366   1.921   0.510   2.199
 2156SOL    HW1 7367   1.990   0.569   2.242
 2156SOL    HW2 7368   1.830   0.534   2.236
 2157SOL     OW 7369   0.146   1.697   5.076
 2157SOL    HW1 7370   0.234   1.650   5.084
 2157SOL    HW2 7371   0.114   1.723   5.167
 2158SOL     OW 7372   3.257   6.705   1.727
 2158SOL    HW1 7373   3.219   6.794   1.703
 2158SOL    HW2 7374   3.326   6.678   1.659
 2159SOL     OW 7375   1.431   6.621   5.204
 2159SOL    HW1 7376   1.476   6.687   5.264
 2159SOL    HW2 7377   1.336   6.610   5.232
 2160SOL     OW 7378   3.383   3.843   1.129
 2160SOL    HW1 7379   3.386   3.942   1.117
 2160SOL    HW2 7380   3.301   3.818   1.181
 2161SOL     OW 7381   5.295   2.531   3.512
 2161SOL    HW1 7382   5.332   2.620   3.486
 2161SOL    HW2 7383   5.220   2.506   3.451
 2162SOL     OW 7384   1.486   0.542   6.467
 2162SOL    HW1 7385   1.490   0.446   6.441
 2162SOL    HW2 7386   1.410   0.587   6.421
 2163SOL     OW 7387   1.988   1.320   0.691
 2163SOL    HW1 7388   2.067   1.259   0.679
 2163SOL    HW2 7389   1.904   1.266   0.687
 2164SOL     OW 7390   1.402   1.229   6.973
 2164SOL    HW1 7391   1.365   1.191   0.037
 2164SOL    HW2 7392   1.480   1.174   6.943
 2165SOL     OW 7393   2.221   6.949   3.057
 2165SOL    HW1 7394   2.287   6.959   3.131
 2165SOL    HW2 7395   2.218   0.013   3.003
 2166SOL     OW 7396   0.161   2.549   6.406
 2166SOL    HW1 7397   0.127   2.641   6.384
 2166SOL    HW2 7398   0.260   2.553   6.422
 2167SOL     OW 7399   3.388   0.572   3.042
 2167SOL    HW1 7400   3.401   0.637   2.967
 2167SOL    HW2 7401   3.375   0.622   3.128
 2168SOL     OW 7402   5.737   4.569   4.779
 2168SOL    HW1 7403   5.692   4.480   4.767
 2168SOL    HW2 7404   5.703   4.633   4.711
 2169SOL     OW 7405   5.458   2.216   5.853
 2169SOL    HW1 7406   5.520   2.138   5.843
 2169SOL    HW2 7407   5.492   2.277   5.925
 2170SOL     OW 7408   4.258   5.094   4.498
 2170SOL    HW1 7409   4.233   4.997   4.499
 2170SOL    HW2 7410   4.193   5.144   4.441
 2171SOL     OW 7411   7.016   2.838   0.353
 2171SOL    HW1 7412   0.057   2.779   0.405
 2171SOL    HW2 7413   6.925   2.833   0.392
 2172SOL     OW 7414   3.126   0.174   0.881
 2172SOL    HW1 7415   3.179   0.196   0.799
 2172SOL    HW2 7416   3.140   0.078   0.905
 2173SOL     OW 7417   5.540   1.376   5.388
 2173SOL    HW1 7418   5.533   1.326   5.302
 2173SOL    HW2 7419   5.448   1.403   5.418
 2174SOL     OW 7420   0.281   5.628   4.595
 2174SOL    HW1 7421   0.332   5.612   4.510
 2174SOL    HW2 7422   0.189   5.590   4.587
 2175SOL     OW 7423   2.160   0.097   4.491
 2175SOL    HW1 7424   2.197   0.004   4.498
 2175SOL    HW2 7425   2.119   0.123   4.578
 2176SOL     OW 7426   1.654   2.752   2.931
 2176SOL    HW1 7427   1.587   2.785   2.864
 2176SOL    HW2 7428   1.607   2.725   3.014
 2177SOL     OW 7429   0.490   2.906   0.919
 2177SOL    HW1 7430   0.553   2.925   0.994
 2177SOL    HW2 7431   0.415   2.847   0.952
 2178SOL     OW 7432   0.412   4.297   0.066
 2178SOL    HW1 7433   0.443   4.343   7.003
 2178SOL    HW2 7434   0.315   4.316   0.080
 2179SOL     OW 7435   2.042   5.467   4.504
 2179SOL    HW1 7436   2.038   5.546   4.566
 2179SOL    HW2 7437   1.952   5.424   4.500
 2180SOL     OW 7438   3.328   3.245   2.462
 2180SOL    HW1 7439   3.421   3.225   2.492
 2180SOL    HW2 7440   3.327   3.268   2.365
 2181SOL     OW 7441   4.842   5.390   6.066
 2181SOL    HW1 7442   4.859   5.469   6.008
 2181SOL    HW2 7443   4.929   5.345   6.088
 2182SOL     OW 7444   0.013   3.295   6.173
 2182SOL    HW1 7445   0.018   3.213   6.117
 2182SOL    HW2 7446   0.007   3.375   6.113
 2183SOL     OW 7447   3.480   3.080   1.104
 2183SOL    HW1 7448   3.501   3.109   1.011
 2183SOL    HW2 7449   3.466   3.161   1.161
 2184SOL     OW 7450   3.413   2.631   6.576
 2184SOL    HW1 7451   3.479   2.681   6.632
 2184SOL    HW2 7452   3.365   2.694   6.515
 2185SOL     OW 7453   1.979   0.989   1.585
 2185SOL    HW1 7454   2.008   1.070   1.534
 2185SOL    HW2 7455   2.014   0.907   1.539
 2186SOL     OW 7456   0.556   6.337   3.227
 2186SOL    HW1 7457   0.603   6.417   3.266
 2186SOL    HW2 7458   0.524   6.360   3.135
 2187SOL     OW 7459   0.135   1.617   6.930
 2187SOL    HW1 7460   0.218   1.620   6.875
 2187SOL    HW2 7461   0.090   1.707   6.929
 2188SOL     OW 7462   5.873   0.032   3.077
 2188SOL    HW1 7463   5.802   0.100   3.092
 2188SOL    HW2 7464   5.838   6.980   3.018
 2189SOL     OW 7465   2.100   7.000   6.342
 2189SOL    HW1 7466   2.035   6.923   6.343
 2189SOL    HW2 7467   2.050   0.064   6.354
 2190SOL     OW 7468   5.298   1.950   1.963
 2190SOL    HW1 7469   5.350   1.866   1.951
 2190SOL    HW2 7470   5.359   2.023   1.993
 2191SOL     OW 7471   3.057   2.711   6.245
 2191SOL    HW1 7472   3.125   2.737   6.176
 2191SOL    HW2 7473   3.098   2.645   6.308
 2192SOL     OW 7474   4.454   5.690   5.083
 2192SOL    HW1 7475   4.496   5.608   5.042
 2192SOL    HW2 7476   4.480   5.696   5.180
 2193SOL     OW 7477   1.086   4.987   5.747
 2193SOL    HW1 7478   1.128   5.078   5.754
 2193SOL    HW2 7479   1.158   4.918   5.734
 2194SOL     OW 7480   2.374   0.654   1.489
 2194SOL    HW1 7481   2.345   0.586   1.422
 2194SOL    HW2 7482   2.307   0.659   1.563
 2195SOL     OW 7483   1.698   5.309   2.862
 2195SOL    HW1 7484   1.767   5.321   2.932
 2195SOL    HW2 7485   1.664   5.214   2.864
 2196SOL     OW 7486   3.364   1.813   6.306
 2196SOL    HW1 7487   3.292   1.744   6.305
 2196SOL    HW2 7488   3.406   1.819   6.216
 2197SOL     OW 7489   4.548   5.197   1.189
 2197SOL    HW1 7490   4.530   5.117   1.246
 2197SOL    HW2 7491   4.524   5.175   1.094
 2198SOL     OW 7492   6.745   3.661   0.597
 2198SOL    HW1 7493   6.750   3.753   0.559
 2198SOL    HW2 7494   6.650   3.640   0.622
 2199SOL     OW 7495   4.673   0.302   1.455
 2199SOL    HW1 7496   4.598   0.368   1.449
 2199SOL    HW2 7497   4.716   0.308   1.545
 2200SOL     OW 7498   3.183   0.751   4.814
 2200SOL    HW1 7499   3.205   0.821   4.746
 2200SOL    HW2 7500   3.237   0.768   4.897
 2201SOL     OW 7501   5.704   3.284   1.957
 2201SOL    HW1 7502   5.743   3.197   1.987
 2201SOL    HW2 7503   5.706   3.290   1.858
 2202SOL     OW 7504   4.679   5.996   3.937
 2202SOL    HW1 7505   4.613   5.943   3.990
 2202SOL    HW2 7506   4.704   6.078   3.987
 2203SOL     OW 7507   3.408   2.101   3.453
 2203SOL    HW1 7508   3.370   2.011   3.433
 2203SOL    HW2 7509   3.496   2.111   3.406
 2204SOL     OW 7510   3.659   2.447   0.426
 2204SOL    HW1 7511   3.583   2.510   0.442
 2204SOL    HW2 7512   3.650   2.408   0.334
 2205SOL     OW 7513   2.985   6.635   0.689
 2205SOL    HW1 7514   3.018   6.541   0.677
 2205SOL    HW2 7515   2.931   6.641   0.772
 2206SOL     OW 7516   1.958   3.116   6.579
 2206SOL    HW1 7517   2.029   3.051   6.552
 2206SOL    HW2 7518   1.983   3.208   6.548
 2207SOL     OW 7519   0.646   4.258   5.880
 2207SOL    HW1 7520   0.700   4.174   5.868
 2207SOL    HW2 7521   0.570   4.257   5.816
 2208SOL     OW 7522   0.459   4.090   1.891
 2208SOL    HW1 7523   0.529   4.098   1.962
 2208SOL    HW2 7524   0.491   4.030   1.818
 2209SOL     OW 7525   0.802   6.141   0.100
 2209SOL    HW1 7526   0.817   6.047   0.071
 2209SOL    HW2 7527   0.862   6.202   0.050
 2210SOL     OW 7528   0.652   5.589   4.195
 2210SOL    HW1 7529   0.564   5.580   4.148
 2210SOL    HW2 7530   0.702   5.667   4.158
 2211SOL     OW 7531   6.289   1.258   5.285
 2211SOL    HW1 7532   6.365   1.306   5.330
 2211SOL    HW2 7533   6.205   1.310   5.296
 2212SOL     OW 7534   1.917   0.148   6.444
 2212SOL    HW1 7535   1.869   0.120   6.527
 2212SOL    HW2 7536   1.858   0.207   6.389
 2213SOL     OW 7537   3.685   1.758   3.777
 2213SOL    HW1 7538   3.654   1.757   3.682
 2213SOL    HW2 7539   3.667   1.848   3.817
 2214SOL     OW 7540   4.615   0.081   4.168
 2214SOL    HW1 7541   4.532   0.047   4.124
 2214SOL    HW2 7542   4.663   0.005   4.212
 2215SOL     OW 7543   6.255   2.251   5.271
 2215SOL    HW1 7544   6.313   2.256   5.189
 2215SOL    HW2 7545   6.204   2.166   5.271
 2216SOL     OW 7546   1.959   0.017   1.573
 2216SOL    HW1 7547   1.970   6.939   1.586
 2216SOL    HW2 7548   1.957   0.038   1.476
 2217SOL     OW 7549   4.156   0.633   1.186
 2217SOL    HW1 7550   4.217   0.678   1.251
 2217SOL    HW2 7551   4.095   0.571   1.236
 2218SOL     OW 7552   0.818   5.703   0.673
 2218SOL    HW1 7553   0.800   5.790   0.719
 2218SOL    HW2 7554   0.820   5.630   0.740
 2219SOL     OW 7555   1.492   4.070   3.664
 2219SOL    HW1 7556   1.554   4.128   3.611
 2219SOL    HW2 7557   1.473   3.987   3.612
 2220SOL     OW 7558   0.438   0.862   6.555
 2220SOL    HW1 7559   0.344   0.873   6.589
 2220SOL    HW2 7560   0.463   0.765   6.560
 2221SOL     OW 7561   6.493   2.488   1.204
 2221SOL    HW1 7562   6.493   2.402   1.256
 2221SOL    HW2 7563   6.411   2.540   1.226
 2222SOL     OW 7564   5.135   6.615   2.663
 2222SOL    HW1 7565   5.179   6.703   2.648
 2222SOL    HW2 7566   5.042   6.630   2.697
 2223SOL     OW 7567   5.469   5.676   2.216
 2223SOL    HW1 7568   5.503   5.592   2.257
 2223SOL    HW2 7569   5.526   5.701   2.138
 2224SOL     OW 7570   1.405   4.486   0.857
 2224SOL    HW1 7571   1.465   4.520   0.929
 2224SOL    HW2 7572   1.378   4.562   0.798
 2225SOL     OW 7573   5.985   4.852   1.826
 2225SOL    HW1 7574   5.983   4.763   1.780
 2225SOL    HW2 7575   6.078   4.888   1.824
 2226SOL     OW 7576   4.178   4.152   1.290
 2226SOL    HW1 7577   4.176   4.197   1.379
 2226SOL    HW2 7578   4.238   4.202   1.228
 2227SOL     OW 7579   0.047   4.388   4.651
 2227SOL    HW1 7580   0.119   4.458   4.642
 2227SOL    HW2 7581   0.068   4.311   4.591
 2228SOL     OW 7582   3.232   5.156   5.892
 2228SOL    HW1 7583   3.281   5.068   5.889
 2228SOL    HW2 7584   3.281   5.219   5.952
 2229SOL     OW 7585   5.083   0.596   3.521
 2229SOL    HW1 7586   4.996   0.562   3.556
 2229SOL    HW2 7587   5.126   0.655   3.589
 2230SOL     OW 7588   1.222   6.068   0.065
 2230SOL    HW1 7589   1.162   6.024   7.019
 2230SOL    HW2 7590   1.311   6.021   0.065
 2231SOL     OW 7591   2.837   6.853   1.515
 2231SOL    HW1 7592   2.811   6.770   1.565
 2231SOL    HW2 7593   2.769   6.873   1.445
 2232SOL     OW 7594   6.307   2.459   3.061
 2232SOL    HW1 7595   6.396   2.459   3.106
 2232SOL    HW2 7596   6.304   2.386   2.992
 2233SOL     OW 7597   4.222   0.539   0.106
 2233SOL    HW1 7598   4.144   0.507   0.159
 2233SOL    HW2 7599   4.228   0.639   0.114
 2234SOL     OW 7600   3.179   1.527   0.959
 2234SOL    HW1 7601   3.253   1.558   1.019
 2234SOL    HW2 7602   3.208   1.533   0.863
 2235SOL     OW 7603   1.841   6.948   1.213
 2235SOL    HW1 7604   1.877   0.019   1.226
 2235SOL    HW2 7605   1.745   6.953   1.186
 2236SOL     OW 7606   0.228   4.118   1.307
 2236SOL    HW1 7607   0.248   4.074   1.394
 2236SOL    HW2 7608   0.209   4.215   1.322
 2237SOL     OW 7609   6.163   2.217   4.013
 2237SOL    HW1 7610   6.153   2.205   3.914
 2237SOL    HW2 7611   6.109   2.295   4.043
 2238SOL     OW 7612   1.700   5.892   2.292
 2238SOL    HW1 7613   1.632   5.954   2.332
 2238SOL    HW2 7614   1.735   5.831   2.363
 2239SOL     OW 7615   4.243   5.383   3.153
 2239SOL    HW1 7616   4.239   5.312   3.082
 2239SOL    HW2 7617   4.293   5.348   3.232
 2240SOL     OW 7618   5.447   4.016   2.180
 2240SOL    HW1 7619   5.402   4.097   2.219
 2240SOL    HW2 7620   5.488   3.963   2.254
 2241SOL     OW 7621   0.529   0.403   2.547
 2241SOL    HW1 7622   0.621   0.421   2.581
 2241SOL    HW2 7623   0.505   0.469   2.476
 2242SOL     OW 7624   4.995   2.115   2.419
 2242SOL    HW1 7625   4.924   2.165   2.469
 2242SOL    HW2 7626   4.954   2.069   2.340
 2243SOL     OW 7627   2.269   6.336   5.259
 2243SOL    HW1 7628   2.313   6.408   5.312
 2243SOL    HW2 7629   2.290   6.350   5.162
 2244SOL     OW 7630   2.951   0.444   5.014
 2244SOL    HW1 7631   2.897   0.362   4.997
 2244SOL    HW2 7632   2.998   0.436   5.102
 2245SOL     OW 7633   1.726   1.424   1.874
 2245SOL    HW1 7634   1.642   1.374   1.852
 2245SOL    HW2 7635   1.709   1.488   1.948
 2246SOL     OW 7636   1.352   3.431   5.440
 2246SOL    HW1 7637   1.415   3.399   5.511
 2246SOL    HW2 7638   1.397   3.500   5.384
 2247SOL     OW 7639   1.810   2.185   6.006
 2247SOL    HW1 7640   1.881   2.142   6.062
 2247SOL    HW2 7641   1.733   2.210   6.064
 2248SOL     OW 7642   5.185   3.009   5.106
 2248SOL    HW1 7643   5.129   2.930   5.081
 2248SOL    HW2 7644   5.153   3.045   5.194
 2249SOL     OW 7645   5.102   5.220   4.321
 2249SOL    HW1 7646   5.131   5.288   4.388
 2249SOL    HW2 7647   5.174   5.210   4.251
 2250SOL     OW 7648   6.391   4.288   0.042
 2250SOL    HW1 7649   6.442   4.212   0.081
 2250SOL    HW2 7650   6.454   4.349   7.014
 2251SOL     OW 7651   6.096   0.930   6.766
 2251SOL    HW1 7652   6.176   0.971   6.722
 2251SOL    HW2 7653   6.120   0.904   6.860
 2252SOL     OW 7654   4.066   1.840   5.644
 2252SOL    HW1 7655   4.162   1.868   5.654
 2252SOL    HW2 7656   4.007   1.919   5.659
 2253SOL     OW 7657   2.197   3.539   6.520
 2253SOL    HW1 7658   2.195   3.629   6.476
 2253SOL    HW2 7659   2.279   3.531   6.576
 2254SOL     OW 7660   1.955   3.832   6.348
 2254SOL    HW1 7661   2.045   3.827   6.392
 2254SOL    HW2 7662   1.951   3.913   6.290
 2255SOL     OW 7663   5.749   3.034   1.160
 2255SOL    HW1 7664   5.788   3.124   1.178
 2255SOL    HW2 7665   5.814   2.980   1.105
 2256SOL     OW 7666   4.251   4.938   1.776
 2256SOL    HW1 7667   4.168   4.914   1.725
 2256SOL    HW2 7668   4.226   4.995   1.854
 2257SOL     OW 7669   2.227   4.282   4.012
 2257SOL    HW1 7670   2.211   4.189   3.977
 2257SOL    HW2 7671   2.301   4.325   3.960
 2258SOL     OW 7672   1.583   5.563   4.093
 2258SOL    HW1 7673   1.669   5.517   4.071
 2258SOL    HW2 7674   1.568   5.558   4.192
 2259SOL     OW 7675   6.008   3.005   6.413
 2259SOL    HW1 7676   6.011   3.100   6.445
 2259SOL    HW2 7677   5.914   2.982   6.387
 2260SOL     OW 7678   5.736   5.248   0.974
 2260SOL    HW1 7679   5.782   5.165   1.005
 2260SOL    HW2 7680   5.659   5.224   0.915
 2261SOL     OW 7681   4.820   6.150   6.536
 2261SOL    HW1 7682   4.875   6.099   6.601
 2261SOL    HW2 7683   4.852   6.245   6.530
 2262SOL     OW 7684   4.487   2.074   2.955
 2262SOL    HW1 7685   4.503   2.147   3.021
 2262SOL    HW2 7686   4.504   1.986   2.999
 2263SOL     OW 7687   0.144   5.361   6.257
 2263SOL    HW1 7688   0.227   5.357   6.202
 2263SOL    HW2 7689   0.065   5.337   6.201
 2264SOL     OW 7690   3.633   4.109   4.104
 2264SOL    HW1 7691   3.619   4.151   4.014
 2264SOL    HW2 7692   3.548   4.063   4.132
 2265SOL     OW 7693   0.313   0.870   1.722
 2265SOL    HW1 7694   0.322   0.808   1.645
 2265SOL    HW2 7695   0.355   0.829   1.803
 2266SOL     OW 7696   5.955   6.750   0.991
 2266SOL    HW1 7697   5.966   6.822   1.060
 2266SOL    HW2 7698   6.035   6.691   0.989
 2267SOL     OW 7699   6.160   2.447   5.815
 2267SOL    HW1 7700   6.066   2.463   5.784
 2267SOL    HW2 7701   6.163   2.452   5.915
 2268SOL     OW 7702   6.581   5.429   0.213
 2268SOL    HW1 7703   6.538   5.378   0.288
 2268SOL    HW2 7704   6.517   5.498   0.180
 2269SOL     OW 7705   6.769   5.296   5.427
 2269SOL    HW1 7706   6.771   5.209   5.379
 2269SOL    HW2 7707   6.763   5.371   5.361
 2270SOL     OW 7708   4.145   3.569   1.809
 2270SOL    HW1 7709   4.161   3.561   1.907
 2270SOL    HW2 7710   4.076   3.503   1.780
 2271SOL     OW 7711   6.499   4.343   2.631
 2271SOL    HW1 7712   6.511   4.422   2.571
 2271SOL    HW2 7713   6.414   4.296   2.609
 2272SOL     OW 7714   5.937   1.825   6.557
 2272SOL    HW1 7715   6.012   1.783   6.608
 2272SOL    HW2 7716   5.852   1.816   6.609
 2273SOL     OW 7717   1.561   1.413   3.345
 2273SOL    HW1 7718   1.556   1.511   3.325
 2273SOL    HW2 7719   1.470   1.373   3.337
 2274SOL     OW 7720   1.723   3.483   4.016
 2274SOL    HW1 7721   1.671   3.553   4.066
 2274SOL    HW2 7722   1.790   3.442   4.077
 2275SOL     OW 7723   5.215   6.184   3.296
 2275SOL    HW1 7724   5.177   6.143   3.379
 2275SOL    HW2 7725   5.143   6.237   3.249
 2276SOL     OW 7726   4.946   4.740   1.578
 2276SOL    HW1 7727   4.948   4.655   1.526
 2276SOL    HW2 7728   4.953   4.720   1.676
 2277SOL     OW 7729   3.006   3.665   0.212
 2277SOL    HW1 7730   2.950   3.731   0.263
 2277SOL    HW2 7731   3.009   3.579   0.261
 2278SOL     OW 7732   5.667   6.593   1.325
 2278SOL    HW1 7733   5.672   6.523   1.254
 2278SOL    HW2 7734   5.759   6.623   1.349
 2279SOL     OW 7735   5.647   4.246   4.769
 2279SOL    HW1 7736   5.614   4.204   4.853
 2279SOL    HW2 7737   5.570   4.262   4.707
 2280SOL     OW 7738   6.157   6.423   6.233
 2280SOL    HW1 7739   6.115   6.380   6.154
 2280SOL    HW2 7740   6.256   6.431   6.218
 2281SOL     OW 7741   3.727   2.856   0.864
 2281SOL    HW1 7742   3.714   2.891   0.956
 2281SOL    HW2 7743   3.672   2.774   0.851
 2282SOL     OW 7744   3.980   5.055   3.071
 2282SOL    HW1 7745   3.926   5.136   3.093
 2282SOL    HW2 7746   4.040   5.032   3.148
 2283SOL     OW 7747   6.719   3.536   3.564
 2283SOL    HW1 7748   6.799   3.548   3.505
 2283SOL    HW2 7749   6.741   3.471   3.637
 2284SOL     OW 7750   2.042   2.552   2.425
 2284SOL    HW1 7751   2.128   2.586   2.387
 2284SOL    HW2 7752   2.024   2.599   2.512
 2285SOL     OW 7753   2.027   4.537   0.245
 2285SOL    HW1 7754   2.062   4.508   0.334
 2285SOL    HW2 7755   1.928   4.543   0.248
 2286SOL     OW 7756   6.063   6.620   4.483
 2286SOL    HW1 7757   6.010   6.662   4.557
 2286SOL    HW2 7758   6.047   6.521   4.482
 2287SOL     OW 7759   2.345   2.732   2.052
 2287SOL    HW1 7760   2.348   2.647   2.000
 2287SOL    HW2 7761   2.367   2.809   1.992
 2288SOL     OW 7762   0.257   6.542   4.200
 2288SOL    HW1 7763   0.255   6.636   4.168
 2288SOL    HW2 7764   0.170   6.497   4.178
 2289SOL     OW 7765   5.111   2.519   1.449
 2289SOL    HW1 7766   5.052   2.575   1.507
 2289SOL    HW2 7767   5.090   2.422   1.463
 2290SOL     OW 7768   3.360   3.146   3.244
 2290SOL    HW1 7769   3.312   3.083   3.306
 2290SOL    HW2 7770   3.316   3.144   3.154
 2291SOL     OW 7771   1.703   2.593   0.272
 2291SOL    HW1 7772   1.752   2.531   0.209
 2291SOL    HW2 7773   1.631   2.641   0.222
 2292SOL     OW 7774   4.510   1.968   2.716
 2292SOL    HW1 7775   4.477   2.006   2.802
 2292SOL    HW2 7776   4.435   1.964   2.650
 2293SOL     OW 7777   6.236   1.211   0.080
 2293SOL    HW1 7778   6.142   1.189   0.106
 2293SOL    HW2 7779   6.241   1.232   7.004
 2294SOL     OW 7780   0.528   1.994   6.070
 2294SOL    HW1 7781   0.580   1.910   6.089
 2294SOL    HW2 7782   0.550   2.025   5.978
 2295SOL     OW 7783   5.963   6.265   1.521
 2295SOL    HW1 7784   5.880   6.211   1.506
 2295SOL    HW2 7785   6.018   6.265   1.437
 2296SOL     OW 7786   3.015   5.390   4.055
 2296SOL    HW1 7787   3.076   5.462   4.089
 2296SOL    HW2 7788   3.029   5.307   4.109
 2297SOL     OW 7789   4.325   4.336   5.399
 2297SOL    HW1 7790   4.298   4.381   5.314
 2297SOL    HW2 7791   4.246   4.331   5.460
 2298SOL     OW 7792   4.034   3.497   4.365
 2298SOL    HW1 7793   4.045   3.506   4.266
 2298SOL    HW2 7794   4.014   3.402   4.388
 2299SOL     OW 7795   5.142   3.404   4.912
 2299SOL    HW1 7796   5.222   3.346   4.896
 2299SOL    HW2 7797   5.132   3.469   4.837
 2300SOL     OW 7798   4.400   6.539   2.236
 2300SOL    HW1 7799   4.345   6.463   2.202
 2300SOL    HW2 7800   4.385   6.550   2.334
 2301SOL     OW 7801   3.990   3.265   4.150
 2301SOL    HW1 7802   3.899   3.305   4.163
 2301SOL    HW2 7803   3.985   3.188   4.088
 2302SOL     OW 7804   4.015   1.996   0.303
 2302SOL    HW1 7805   4.067   2.044   0.373
 2302SOL    HW2 7806   4.078   1.956   0.236
 2303SOL     OW 7807   3.668   2.391   0.157
 2303SOL    HW1 7808   3.680   2.310   0.100
 2303SOL    HW2 7809   3.591   2.445   0.121
 2304SOL     OW 7810   6.025   5.851   1.824
 2304SOL    HW1 7811   6.084   5.774   1.848
 2304SOL    HW2 7812   6.082   5.930   1.801
 2305SOL     OW 7813   2.194   1.101   5.468
 2305SOL    HW1 7814   2.236   1.192   5.476
 2305SOL    HW2 7815   2.110   1.108   5.414
 2306SOL     OW 7816   1.865   5.488   4.121
 2306SOL    HW1 7817   1.913   5.401   4.105
 2306SOL    HW2 7818   1.886   5.552   4.047
 2307SOL     OW 7819   0.094   3.044   6.055
 2307SOL    HW1 7820   0.153   3.090   5.988
 2307SOL    HW2 7821   0.146   2.973   6.102
 2308SOL     OW 7822   2.570   4.791   1.569
 2308SOL    HW1 7823   2.511   4.712   1.586
 2308SOL    HW2 7824   2.650   4.786   1.628
 2309SOL     OW 7825   1.766   6.439   5.329
 2309SOL    HW1 7826   1.774   6.466   5.424
 2309SOL    HW2 7827   1.833   6.368   5.308
 2310SOL     OW 7828   4.591   6.445   1.624
 2310SOL    HW1 7829   4.607   6.389   1.542
 2310SOL    HW2 7830   4.663   6.514   1.632
 2311SOL     OW 7831   2.600   6.065   1.393
 2311SOL    HW1 7832   2.571   6.045   1.300
 2311SOL    HW2 7833   2.534   6.026   1.457
 2312SOL     OW 7834   3.067   5.044   2.465
 2312SOL    HW1 7835   3.139   5.001   2.519
 2312SOL    HW2 7836   3.101   5.130   2.426
 2313SOL     OW 7837   4.123   5.610   1.748
 2313SOL    HW1 7838   4.214   5.651   1.740
 2313SOL    HW2 7839   4.078   5.610   1.659
 2314SOL     OW 7840   2.777   5.755   4.000
 2314SOL    HW1 7841   2.707   5.683   4.003
 2314SOL    HW2 7842   2.864   5.718   4.030
 2315SOL     OW 7843   4.585   2.966   6.383
 2315SOL    HW1 7844   4.588   3.058   6.422
 2315SOL    HW2 7845   4.542   2.969   6.293
 2316SOL     OW 7846   5.502   3.051   2.781
 2316SOL    HW1 7847   5.578   3.057   2.717
 2316SOL    HW2 7848   5.507   2.965   2.831
 2317SOL     OW 7849   0.717   4.962   3.512
 2317SOL    HW1 7850   0.701   5.027   3.587
 2317SOL    HW2 7851   0.733   4.871   3.550
 2318SOL     OW 7852   0.096   1.513   3.643
 2318SOL    HW1 7853   0.129   1.602   3.674
 2318SOL    HW2 7854   0.142   1.441   3.693
 2319SOL     OW 7855   0.984   4.080   4.394
 2319SOL    HW1 7856   1.071   4.125   4.375
 2319SOL    HW2 7857   0.949   4.113   4.482
 2320SOL     OW 7858   6.352   4.155   4.791
 2320SOL    HW1 7859   6.260   4.125   4.766
 2320SOL    HW2 7860   6.419   4.088   4.760
 2321SOL     OW 7861   2.895   6.433   5.373
 2321SOL    HW1 7862   2.949   6.365   5.324
 2321SOL    HW2 7863   2.905   6.522   5.329
 2322SOL     OW 7864   2.523   6.926   6.019
 2322SOL    HW1 7865   2.528   7.015   5.973
 2322SOL    HW2 7866   2.564   6.934   6.110
 2323SOL     OW 7867   4.936   4.922   2.122
 2323SOL    HW1 7868   4.845   4.895   2.152
 2323SOL    HW2 7869   5.005   4.871   2.173
 2324SOL     OW 7870   6.314   5.498   3.445
 2324SOL    HW1 7871   6.237   5.554   3.476
 2324SOL    HW2 7872   6.383   5.557   3.403
 2325SOL     OW 7873   0.085   3.745   0.509
 2325SOL    HW1 7874   0.136   3.756   0.423
 2325SOL    HW2 7875   0.053   3.651   0.516
 2326SOL     OW 7876   1.512   5.401   0.151
 2326SOL    HW1 7877   1.568   5.477   0.183
 2326SOL    HW2 7878   1.571   5.331   0.110
 2327SOL     OW 7879   5.163   2.409   4.786
 2327SOL    HW1 7880   5.079   2.405   4.732
 2327SOL    HW2 7881   5.223   2.334   4.759
 2328SOL     OW 7882   4.656   6.547   3.196
 2328SOL    HW1 7883   4.650   6.463   3.143
 2328SOL    HW2 7884   4.683   6.623   3.137
 2329SOL     OW 7885   0.356   5.866   3.746
 2329SOL    HW1 7886   0.382   5.955   3.709
 2329SOL    HW2 7887   0.258   5.865   3.765
 2330SOL     OW 7888   0.163   4.135   2.787
 2330SOL    HW1 7889   0.100   4.058   2.774
 2330SOL    HW2 7890   0.117   4.206   2.841
 2331SOL     OW 7891   1.077   4.631   5.225
 2331SOL    HW1 7892   1.049   4.543   5.263
 2331SOL    HW2 7893   1.105   4.692   5.299
 2332SOL     OW 7894   5.462   2.243   5.380
 2332SOL    HW1 7895   5.403   2.295   5.318
 2332SOL    HW2 7896   5.474   2.151   5.345
 2333SOL     OW 7897   1.164   5.752   4.202
 2333SOL    HW1 7898   1.098   5.819   4.235
 2333SOL    HW2 7899   1.205   5.785   4.116
 2334SOL     OW 7900   2.903   6.986   0.419
 2334SOL    HW1 7901   2.929   0.012   0.504
 2334SOL    HW2 7902   2.891   6.889   0.437
 2335SOL     OW 7903   5.314   6.513   3.734
 2335SOL    HW1 7904   5.296   6.424   3.776
 2335SOL    HW2 7905   5.389   6.504   3.668
 2336SOL     OW 7906   4.715   1.559   6.165
 2336SOL    HW1 7907   4.661   1.528   6.087
 2336SOL    HW2 7908   4.742   1.481   6.221
 2337SOL     OW 7909   5.656   0.458   2.571
 2337SOL    HW1 7910   5.621   0.406   2.649
 2337SOL    HW2 7911   5.656   0.401   2.489
 2338SOL     OW 7912   1.004   6.689   6.409
 2338SOL    HW1 7913   0.969   6.611   6.461
 2338SOL    HW2 7914   1.067   6.741   6.466
 2339SOL     OW 7915   3.610   4.357   0.209
 2339SOL    HW1 7916   3.637   4.273   0.162
 2339SOL    HW2 7917   3.533   4.338   0.271
 2340SOL     OW 7918   3.329   5.159   5.088
 2340SOL    HW1 7919   3.366   5.076   5.129
 2340SOL    HW2 7920   3.299   5.221   5.161
 2341SOL     OW 7921   5.837   5.211   0.010
 2341SOL    HW1 7922   5.843   5.296   6.977
 2341SOL    HW2 7923   5.869   5.228   0.103
 2342SOL     OW 7924   6.630   0.528   5.723
 2342SOL    HW1 7925   6.707   0.591   5.718
 2342SOL    HW2 7926   6.663   0.434   5.708
 2343SOL     OW 7927   1.370   6.762   1.158
 2343SOL    HW1 7928   1.405   6.759   1.065
 2343SOL    HW2 7929   1.306   6.837   1.168
 2344SOL     OW 7930   2.062   1.998   2.427
 2344SOL    HW1 7931   2.044   1.902   2.451
 2344SOL    HW2 7932   2.027   2.016   2.335
 2345SOL     OW 7933   1.990   1.574   4.458
 2345SOL    HW1 7934   2.027   1.654   4.505
 2345SOL    HW2 7935   2.010   1.491   4.511
 2346SOL     OW 7936   4.673   3.357   5.897
 2346SOL    HW1 7937   4.674   3.381   5.799
 2346SOL    HW2 7938   4.596   3.401   5.942
 2347SOL     OW 7939   1.632   3.068   1.821
 2347SOL    HW1 7940   1.676   3.109   1.901
 2347SOL    HW2 7941   1.536   3.094   1.818
 2348SOL     OW 7942   2.724   6.651   1.676
 2348SOL    HW1 7943   2.688   6.641   1.769
 2348SOL    HW2 7944   2.761   6.564   1.644
 2349SOL     OW 7945   5.072   5.492   5.622
 2349SOL    HW1 7946   5.134   5.427   5.576
 2349SOL    HW2 7947   5.043   5.453   5.709
 2350SOL     OW 7948   2.430   6.533   5.395
 2350SOL    HW1 7949   2.513   6.518   5.448
 2350SOL    HW2 7950   2.371   6.598   5.442
 2351SOL     OW 7951   2.386   5.321   4.616
 2351SOL    HW1 7952   2.357   5.328   4.712
 2351SOL    HW2 7953   2.401   5.413   4.580
 2352SOL     OW 7954   0.887   3.535   2.364
 2352SOL    HW1 7955   0.865   3.439   2.344
 2352SOL    HW2 7956   0.883   3.588   2.279
 2353SOL     OW 7957   2.928   4.117   6.233
 2353SOL    HW1 7958   3.013   4.100   6.282
 2353SOL    HW2 7959   2.941   4.194   6.169
 2354SOL     OW 7960   4.316   2.281   0.465
 2354SOL    HW1 7961   4.269   2.359   0.505
 2354SOL    HW2 7962   4.286   2.197   0.510
 2355SOL     OW 7963   0.518   6.807   0.853
 2355SOL    HW1 7964   0.521   6.773   0.759
 2355SOL    HW2 7965   0.519   6.907   0.852
 2356SOL     OW 7966   2.794   4.982   3.330
 2356SOL    HW1 7967   2.823   4.888   3.348
 2356SOL    HW2 7968   2.845   5.045   3.389
 2357SOL     OW 7969   6.620   4.492   1.444
 2357SOL    HW1 7970   6.616   4.485   1.544
 2357SOL    HW2 7971   6.653   4.406   1.406
 2358SOL     OW 7972   4.389   1.649   5.816
 2358SOL    HW1 7973   4.306   1.638   5.871
 2358SOL    HW2 7974   4.367   1.637   5.719
 2359SOL     OW 7975   1.373   1.293   5.819
 2359SOL    HW1 7976   1.421   1.326   5.738
 2359SOL    HW2 7977   1.439   1.274   5.892
 2360SOL     OW 7978   4.308   4.239   0.655
 2360SOL    HW1 7979   4.399   4.274   0.678
 2360SOL    HW2 7980   4.239   4.296   0.700
 2361SOL     OW 7981   3.892   6.031   1.742
 2361SOL    HW1 7982   3.978   6.070   1.775
 2361SOL    HW2 7983   3.860   6.083   1.663
 2362SOL     OW 7984   4.157   6.262   3.841
 2362SOL    HW1 7985   4.093   6.225   3.908
 2362SOL    HW2 7986   4.250   6.254   3.877
 2363SOL     OW 7987   3.035   3.569   0.754
 2363SOL    HW1 7988   3.006   3.618   0.671
 2363SOL    HW2 7989   3.131   3.591   0.773
 2364SOL     OW 7990   4.413   1.357   2.291
 2364SOL    HW1 7991   4.313   1.358   2.289
 2364SOL    HW2 7992   4.447   1.449   2.272
 2365SOL     OW 7993   4.852   3.134   3.666
 2365SOL    HW1 7994   4.853   3.194   3.587
 2365SOL    HW2 7995   4.819   3.043   3.639
 2366SOL     OW 7996   2.609   4.586   5.225
 2366SOL    HW1 7997   2.659   4.593   5.311
 2366SOL    HW2 7998   2.673   4.584   5.149
 2367SOL     OW 7999   6.945   4.478   5.424
 2367SOL    HW1 8000   0.010   4.528   5.409
 2367SOL    HW2 8001   6.965   4.385   5.453
 2368SOL     OW 8002   5.553   6.268   4.215
 2368SOL    HW1 8003   5.613   6.197   4.176
 2368SOL    HW2 8004   5.579   6.285   4.310
 2369SOL     OW 8005   3.134   1.877   4.314
 2369SOL    HW1 8006   3.096   1.797   4.360
 2369SOL    HW2 8007   3.170   1.850   4.225
 2370SOL     OW 8008   5.303   2.821   1.137
 2370SOL    HW1 8009   5.389   2.779   1.166
 2370SOL    HW2 8010   5.322   2.905   1.086
 2371SOL     OW 8011   0.812   6.478   3.057
 2371SOL    HW1 8012   0.903   6.485   3.017
 2371SOL    HW2 8013   0.797   6.384   3.088
 2372SOL     OW 8014   6.060   1.117   6.031
 2372SOL    HW1 8015   6.147   1.110   5.982
 2372SOL    HW2 8016   6.028   1.026   6.056
 2373SOL     OW 8017   5.867   5.787   6.235
 2373SOL    HW1 8018   5.945   5.835   6.195
 2373SOL    HW2 8019   5.786   5.845   6.229
 2374SOL     OW 8020   5.859   6.076   2.217
 2374SOL    HW1 8021   5.834   6.152   2.277
 2374SOL    HW2 8022   5.826   5.990   2.256
 2375SOL     OW 8023   1.169   0.464   4.126
 2375SOL    HW1 8024   1.101   0.419   4.185
 2375SOL    HW2 8025   1.251   0.482   4.180
 2376SOL     OW 8026   5.652   1.379   3.155
 2376SOL    HW1 8027   5.668   1.444   3.081
 2376SOL    HW2 8028   5.712   1.400   3.232
 2377SOL     OW 8029   4.598   5.202   5.752
 2377SOL    HW1 8030   4.504   5.234   5.764
 2377SOL    HW2 8031   4.598   5.102   5.747
 2378SOL     OW 8032   6.880   1.064   0.551
 2378SOL    HW1 8033   6.935   1.045   0.632
 2378SOL    HW2 8034   6.909   1.005   0.476
 2379SOL     OW 8035   0.125   4.974   1.153
 2379SOL    HW1 8036   0.201   4.930   1.201
 2379SOL    HW2 8037   0.103   5.060   1.199
 2380SOL     OW 8038   4.946   4.898   5.022
 2380SOL    HW1 8039   5.020   4.857   5.074
 2380SOL    HW2 8040   4.970   4.900   4.925
 2381SOL     OW 8041   2.576   5.000   4.763
 2381SOL    HW1 8042   2.610   5.080   4.713
 2381SOL    HW2 8043   2.640   4.924   4.752
 2382SOL     OW 8044   1.084   5.697   2.188
 2382SOL    HW1 8045   1.097   5.655   2.278
 2382SOL    HW2 8046   1.153   5.663   2.125
 2383SOL     OW 8047   5.088   5.569   5.202
 2383SOL    HW1 8048   5.074   5.643   5.267
 2383SOL    HW2 8049   5.087   5.606   5.108
 2384SOL     OW 8050   0.649   2.054   2.134
 2384SOL    HW1 8051   0.565   2.006   2.157
 2384SOL    HW2 8052   0.686   2.099   2.215
 2385SOL     OW 8053   0.837   2.221   1.130
 2385SOL    HW1 8054   0.934   2.233   1.149
 2385SOL    HW2 8055   0.802   2.300   1.080
 2386SOL     OW 8056   4.825   5.981   4.536
 2386SOL    HW1 8057   4.738   6.027   4.524
 2386SOL    HW2 8058   4.815   5.884   4.512
 2387SOL     OW 8059   1.544   1.672   4.137
 2387SOL    HW1 8060   1.507   1.748   4.083
 2387SOL    HW2 8061   1.613   1.707   4.201
 2388SOL     OW 8062   6.583   1.825   5.531
 2388SOL    HW1 8063   6.624   1.901   5.480
 2388SOL    HW2 8064   6.542   1.861   5.616
 2389SOL     OW 8065   5.555   4.616   4.021
 2389SOL    HW1 8066   5.549   4.667   4.106
 2389SOL    HW2 8067   5.465   4.578   3.998
 2390SOL     OW 8068   4.255   4.049   5.734
 2390SOL    HW1 8069   4.195   4.083   5.662
 2390SOL    HW2 8070   4.220   3.962   5.768
 2391SOL     OW 8071   3.649   3.968   6.190
 2391SOL    HW1 8072   3.672   4.043   6.252
 2391SOL    HW2 8073   3.569   3.993   6.135
 2392SOL     OW 8074   3.740   5.086   5.643
 2392SOL    HW1 8075   3.747   5.084   5.544
 2392SOL    HW2 8076   3.734   5.181   5.674
 2393SOL     OW 8077   3.124   5.677   1.769
 2393SOL    HW1 8078   3.061   5.736   1.821
 2393SOL    HW2 8079   3.073   5.599   1.733
 2394SOL     OW 8080   1.058   2.841   3.647
 2394SOL    HW1 8081   1.000   2.790   3.583
 2394SOL    HW2 8082   1.131   2.780   3.680
 2395SOL     OW 8083   0.221   2.179   4.789
 2395SOL    HW1 8084   0.274   2.263   4.777
 2395SOL    HW2 8085   0.208   2.134   4.701
 2396SOL     OW 8086   6.873   1.084   5.315
 2396SOL    HW1 8087   6.918   1.170   5.291
 2396SOL    HW2 8088   6.806   1.100   5.387
 2397SOL     OW 8089   0.206   4.849   5.427
 2397SOL    HW1 8090   0.295   4.859   5.473
 2397SOL    HW2 8091   0.180   4.752   5.427
 2398SOL     OW 8092   3.131   6.315   3.099
 2398SOL    HW1 8093   3.093   6.405   3.122
 2398SOL    HW2 8094   3.066   6.244   3.125
 2399SOL     OW 8095   2.622   2.459   4.469
 2399SOL    HW1 8096   2.610   2.532   4.536
 2399SOL    HW2 8097   2.562   2.382   4.492
 2400SOL     OW 8098   0.644   4.272   0.935
 2400SOL    HW1 8099   0.615   4.195   0.879
 2400SOL    HW2 8100   0.653   4.353   0.877
 2401SOL     OW 8101   3.692   6.842   5.817
 2401SOL    HW1 8102   3.719   6.868   5.725
 2401SOL    HW2 8103   3.592   6.836   5.822
 2402SOL     OW 8104   1.191   4.429   2.147
 2402SOL    HW1 8105   1.253   4.375   2.204
 2402SOL    HW2 8106   1.243   4.475   2.075
 2403SOL     OW 8107   3.242   4.142   3.091
 2403SOL    HW1 8108   3.191   4.116   3.173
 2403SOL    HW2 8109   3.193   4.113   3.009
 2404SOL     OW 8110   6.262   1.723   1.258
 2404SOL    HW1 8111   6.359   1.728   1.235
 2404SOL    HW2 8112   6.241   1.792   1.328
 2405SOL     OW 8113   2.180   3.547   0.793
 2405SOL    HW1 8114   2.137   3.623   0.744
 2405SOL    HW2 8115   2.112   3.501   0.850
 2406SOL     OW 8116   2.370   6.664   4.644
 2406SOL    HW1 8117   2.405   6.719   4.720
 2406SOL    HW2 8118   2.446   6.622   4.595
 2407SOL     OW 8119   3.667   1.430   3.518
 2407SOL    HW1 8120   3.585   1.470   3.558
 2407SOL    HW2 8121   3.725   1.503   3.482
 2408SOL     OW 8122   3.186   5.651   4.614
 2408SOL    HW1 8123   3.086   5.650   4.605
 2408SOL    HW2 8124   3.226   5.697   4.535
 2409SOL     OW 8125   2.022   2.723   1.462
 2409SOL    HW1 8126   2.038   2.624   1.463
 2409SOL    HW2 8127   2.047   2.761   1.373
 2410SOL     OW 8128   0.375   3.700   5.281
 2410SOL    HW1 8129   0.361   3.651   5.368
 2410SOL    HW2 8130   0.461   3.669   5.239
 2411SOL     OW 8131   2.204   3.843   0.172
 2411SOL    HW1 8132   2.252   3.928   0.193
 2411SOL    HW2 8133   2.178   3.843   0.075
 2412SOL     OW 8134   3.634   1.584   6.651
 2412SOL    HW1 8135   3.573   1.658   6.624
 2412SOL    HW2 8136   3.689   1.613   6.729
 2413SOL     OW 8137   6.474   2.911   6.656
 2413SOL    HW1 8138   6.389   2.951   6.689
 2413SOL    HW2 8139   6.457   2.819   6.622
 2414SOL     OW 8140   6.446   2.430   4.436
 2414SOL    HW1 8141   6.421   2.352   4.378
 2414SOL    HW2 8142   6.390   2.429   4.519
 2415SOL     OW 8143   2.649   5.457   0.869
 2415SOL    HW1 8144   2.647   5.557   0.872
 2415SOL    HW2 8145   2.712   5.427   0.796
 2416SOL     OW 8146   6.857   3.514   2.627
 2416SOL    HW1 8147   6.886   3.577   2.555
 2416SOL    HW2 8148   6.923   3.439   2.634
 2417SOL     OW 8149   3.577   3.583   1.035
 2417SOL    HW1 8150   3.598   3.646   0.961
 2417SOL    HW2 8151   3.478   3.565   1.037
 2418SOL     OW 8152   4.420   3.699   5.648
 2418SOL    HW1 8153   4.407   3.760   5.569
 2418SOL    HW2 8154   4.420   3.604   5.617
 2419SOL     OW 8155   1.776   6.610   4.237
 2419SOL    HW1 8156   1.703   6.670   4.268
 2419SOL    HW2 8157   1.736   6.525   4.202
 2420SOL     OW 8158   2.023   4.241   2.684
 2420SOL    HW1 8159   1.947   4.224   2.746
 2420SOL    HW2 8160   2.100   4.182   2.708
 2421SOL     OW 8161   2.742   6.588   4.306
 2421SOL    HW1 8162   2.712   6.574   4.212
 2421SOL    HW2 8163   2.841   6.577   4.312
 2422SOL     OW 8164   4.535   6.277   0.488
 2422SOL    HW1 8165   4.612   6.301   0.548
 2422SOL    HW2 8166   4.527   6.177   0.483
 2423SOL     OW 8167   2.422   5.287   2.365
 2423SOL    HW1 8168   2.397   5.227   2.289
 2423SOL    HW2 8169   2.511   5.260   2.401
 2424SOL     OW 8170   5.541   1.241   5.777
 2424SOL    HW1 8171   5.442   1.234   5.774
 2424SOL    HW2 8172   5.572   1.239   5.872
 2425SOL     OW 8173   4.893   5.385   5.435
 2425SOL    HW1 8174   4.929   5.391   5.342
 2425SOL    HW2 8175   4.947   5.442   5.496
 2426SOL     OW 8176   1.420   4.885   5.934
 2426SOL    HW1 8177   1.375   4.857   5.850
 2426SOL    HW2 8178   1.355   4.935   5.992
 2427SOL     OW 8179   5.369   0.657   6.755
 2427SOL    HW1 8180   5.461   0.650   6.794
 2427SOL    HW2 8181   5.303   0.618   6.820
 2428SOL     OW 8182   0.297   1.203   3.394
 2428SOL    HW1 8183   0.346   1.239   3.474
 2428SOL    HW2 8184   0.206   1.245   3.389
 2429SOL     OW 8185   5.149   5.494   1.599
 2429SOL    HW1 8186   5.082   5.568   1.592
 2429SOL    HW2 8187   5.123   5.434   1.675
 2430SOL     OW 8188   6.257   2.277   6.591
 2430SOL    HW1 8189   6.288   2.217   6.665
 2430SOL    HW2 8190   6.199   2.349   6.630
 2431SOL     OW 8191   6.811   2.347   1.482
 2431SOL    HW1 8192   6.836   2.254   1.456
 2431SOL    HW2 8193   6.846   2.366   1.573
 2432SOL     OW 8194   3.314   5.567   2.489
 2432SOL    HW1 8195   3.229   5.609   2.521
 2432SOL    HW2 8196   3.392   5.615   2.530
 2433SOL     OW 8197   6.499   3.982   0.023
 2433SOL    HW1 8198   6.465   3.913   0.087
 2433SOL    HW2 8199   6.597   3.994   0.037
 2434SOL     OW 8200   4.430   1.611   3.077
 2434SOL    HW1 8201   4.477   1.564   3.002
 2434SOL    HW2 8202   4.408   1.546   3.149
 2435SOL     OW 8203   5.549   6.358   6.948
 2435SOL    HW1 8204   5.581   6.421   6.877
 2435SOL    HW2 8205   5.606   6.369   0.009
 2436SOL     OW 8206   2.740   1.541   1.922
 2436SOL    HW1 8207   2.833   1.509   1.901
 2436SOL    HW2 8208   2.745   1.625   1.976
 2437SOL     OW 8209   0.061   5.127   2.452
 2437SOL    HW1 8210   0.154   5.163   2.453
 2437SOL    HW2 8211   0.048   5.065   2.530
 2438SOL     OW 8212   3.075   1.497   4.973
 2438SOL    HW1 8213   2.991   1.489   4.919
 2438SOL    HW2 8214   3.151   1.520   4.913
 2439SOL     OW 8215   0.582   5.579   0.554
 2439SOL    HW1 8216   0.674   5.616   0.571
 2439SOL    HW2 8217   0.518   5.618   0.620
 2440SOL     OW 8218   5.248   0.756   5.246
 2440SOL    HW1 8219   5.224   0.851   5.224
 2440SOL    HW2 8220   5.191   0.694   5.193
 2441SOL     OW 8221   5.829   0.173   0.174
 2441SOL    HW1 8222   5.809   0.144   0.268
 2441SOL    HW2 8223   5.904   0.239   0.174
 2442SOL     OW 8224   5.004   3.451   2.170
 2442SOL    HW1 8225   4.956   3.386   2.111
 2442SOL    HW2 8226   5.099   3.459   2.140
 2443SOL     OW 8227   2.160   2.074   0.900
 2443SOL    HW1 8228   2.175   1.983   0.939
 2443SOL    HW2 8229   2.236   2.097   0.839
 2444SOL     OW 8230   3.803   5.787   1.118
 2444SOL    HW1 8231   3.772   5.837   1.200
 2444SOL    HW2 8232   3.740   5.806   1.042
 2445SOL     OW 8233   6.990   2.713   0.670
 2445SOL    HW1 8234   6.940   2.725   0.756
 2445SOL    HW2 8235   6.944   2.645   0.614
 2446SOL     OW 8236   1.876   4.093   1.552
 2446SOL    HW1 8237   1.782   4.110   1.522
 2446SOL    HW2 8238   1.884   3.999   1.585
 2447SOL     OW 8239   3.439   6.998   0.650
 2447SOL    HW1 8240   3.467   0.045   0.718
 2447SOL    HW2 8241   3.356   6.952   0.680
 2448SOL     OW 8242   6.025   1.528   3.555
 2448SOL    HW1 8243   6.104   1.503   3.611
 2448SOL    HW2 8244   6.004   1.625   3.569
 2449SOL     OW 8245   2.042   4.584   2.002
 2449SOL    HW1 8246   2.122   4.552   1.951
 2449SOL    HW2 8247   1.959   4.559   1.954
 2450SOL     OW 8248   1.551   5.785   6.238
 2450SOL    HW1 8249   1.453   5.801   6.244
 2450SOL    HW2 8250   1.600   5.862   6.279
 2451SOL     OW 8251   0.785   0.254   4.781
 2451SOL    HW1 8252   0.795   0.339   4.730
 2451SOL    HW2 8253   0.777   0.177   4.718
 2452SOL     OW 8254   2.888   1.983   4.135
 2452SOL    HW1 8255   2.904   2.058   4.072
 2452SOL    HW2 8256   2.879   2.018   4.228
 2453SOL     OW 8257   1.017   1.473   6.810
 2453SOL    HW1 8258   1.051   1.380   6.800
 2453SOL    HW2 8259   0.993   1.510   6.720
 2454SOL     OW 8260   3.869   5.436   1.039
 2454SOL    HW1 8261   3.931   5.363   1.067
 2454SOL    HW2 8262   3.904   5.480   0.957
 2455SOL     OW 8263   4.298   1.332   0.529
 2455SOL    HW1 8264   4.251   1.245   0.546
 2455SOL    HW2 8265   4.254   1.379   0.453
 2456SOL     OW 8266   0.790   4.474   6.688
 2456SOL    HW1 8267   0.767   4.562   6.730
 2456SOL    HW2 8268   0.859   4.488   6.617
 2457SOL     OW 8269   5.476   1.968   5.316
 2457SOL    HW1 8270   5.452   1.895   5.252
 2457SOL    HW2 8271   5.452   1.940   5.409
 2458SOL     OW 8272   1.150   6.928   2.772
 2458SOL    HW1 8273   1.223   6.865   2.796
 2458SOL    HW2 8274   1.131   6.989   2.849
 2459SOL     OW 8275   2.560   6.075   0.888
 2459SOL    HW1 8276   2.534   6.069   0.791
 2459SOL    HW2 8277   2.629   6.146   0.900
 2460SOL     OW 8278   1.681   0.695   6.058
 2460SOL    HW1 8279   1.644   0.778   6.016
 2460SOL    HW2 8280   1.671   0.700   6.158
 2461SOL     OW 8281   4.103   1.073   4.090
 2461SOL    HW1 8282   4.119   1.149   4.028
 2461SOL    HW2 8283   4.035   1.100   4.158
 2462SOL     OW 8284   0.713   5.022   1.329
 2462SOL    HW1 8285   0.693   5.068   1.243
 2462SOL    HW2 8286   0.725   5.090   1.401
 2463SOL     OW 8287   0.113   0.898   6.193
 2463SOL    HW1 8288   0.080   0.989   6.219
 2463SOL    HW2 8289   0.119   0.840   6.274
 2464SOL     OW 8290   0.962   1.796   3.029
 2464SOL    HW1 8291   0.987   1.713   3.079
 2464SOL    HW2 8292   0.873   1.828   3.061
 2465SOL     OW 8293   0.772   4.575   5.621
 2465SOL    HW1 8294   0.680   4.537   5.612
 2465SOL    HW2 8295   0.823   4.524   5.690
 2466SOL     OW 8296   1.602   2.059   1.892
 2466SOL    HW1 8297   1.647   2.059   1.803
 2466SOL    HW2 8298   1.506   2.083   1.882
 2467SOL     OW 8299   5.082   1.330   5.943
 2467SOL    HW1 8300   5.096   1.425   5.973
 2467SOL    HW2 8301   4.993   1.298   5.976
 2468SOL     OW 8302   3.844   0.123   5.495
 2468SOL    HW1 8303   3.792   0.193   5.446
 2468SOL    HW2 8304   3.905   0.167   5.561
 2469SOL     OW 8305   3.703   2.788   5.322
 2469SOL    HW1 8306   3.613   2.809   5.284
 2469SOL    HW2 8307   3.714   2.834   5.409
 2470SOL     OW 8308   3.467   5.203   0.330
 2470SOL    HW1 8309   3.428   5.112   0.316
 2470SOL    HW2 8310   3.400   5.272   0.303
 2471SOL     OW 8311   3.790   6.397   1.183
 2471SOL    HW1 8312   3.838   6.473   1.140
 2471SOL    HW2 8313   3.844   6.314   1.174
 2472SOL     OW 8314   4.922   2.252   3.834
 2472SOL    HW1 8315   4.893   2.275   3.927
 2472SOL    HW2 8316   4.995   2.183   3.838
 2473SOL     OW 8317   0.628   4.507   4.874
 2473SOL    HW1 8318   0.612   4.431   4.937
 2473SOL    HW2 8319   0.625   4.593   4.924
 2474SOL     OW 8320   1.028   5.928   1.194
 2474SOL    HW1 8321   1.078   5.974   1.120
 2474SOL    HW2 8322   1.091   5.901   1.266
 2475SOL     OW 8323   5.163   0.501   0.717
 2475SOL    HW1 8324   5.221   0.541   0.646
 2475SOL    HW2 8325   5.168   0.401   0.712
 2476SOL     OW 8326   5.969   0.571   1.141
 2476SOL    HW1 8327   5.895   0.590   1.205
 2476SOL    HW2 8328   6.056   0.601   1.180
 2477SOL     OW 8329   3.398   0.724   3.262
 2477SOL    HW1 8330   3.401   0.822   3.241
 2477SOL    HW2 8331   3.483   0.696   3.305
 2478SOL     OW 8332   4.406   1.402   3.281
 2478SOL    HW1 8333   4.493   1.448   3.296
 2478SOL    HW2 8334   4.421   1.315   3.233
 2479SOL     OW 8335   0.942   3.035   1.304
 2479SOL    HW1 8336   0.925   3.056   1.207
 2479SOL    HW2 8337   0.905   3.109   1.361
 2480SOL     OW 8338   3.709   2.399   1.009
 2480SOL    HW1 8339   3.674   2.488   1.039
 2480SOL    HW2 8340   3.642   2.356   0.949
 2481SOL     OW 8341   3.675   0.825   1.572
 2481SOL    HW1 8342   3.710   0.801   1.662
 2481SOL    HW2 8343   3.733   0.782   1.502
 2482SOL     OW 8344   5.575   3.640   6.883
 2482SOL    HW1 8345   5.552   3.600   6.972
 2482SOL    HW2 8346   5.512   3.716   6.864
 2483SOL     OW 8347   0.795   2.538   0.445
 2483SOL    HW1 8348   0.807   2.634   0.420
 2483SOL    HW2 8349   0.822   2.480   0.368
 2484SOL     OW 8350   4.786   1.679   2.217
 2484SOL    HW1 8351   4.809   1.767   2.260
 2484SOL    HW2 8352   4.804   1.605   2.282
 2485SOL     OW 8353   5.280   1.867   6.339
 2485SOL    HW1 8354   5.258   1.939   6.404
 2485SOL    HW2 8355   5.378   1.867   6.321
 2486SOL     OW 8356   0.156   4.405   5.618
 2486SOL    HW1 8357   0.161   4.308   5.642
 2486SOL    HW2 8358   0.171   4.460   5.700
 2487SOL     OW 8359   4.864   6.120   0.511
 2487SOL    HW1 8360   4.881   6.033   0.556
 2487SOL    HW2 8361   4.832   6.187   0.579
 2488SOL     OW 8362   7.013   4.163   1.964
 2488SOL    HW1 8363   7.011   4.112   1.878
 2488SOL    HW2 8364   0.074   4.139   2.016
 2489SOL     OW 8365   0.416   6.011   4.238
 2489SOL    HW1 8366   0.432   6.045   4.331
 2489SOL    HW2 8367   0.338   5.949   4.238
 2490SOL     OW 8368   1.310   6.312   2.107
 2490SOL    HW1 8369   1.304   6.299   2.206
 2490SOL    HW2 8370   1.334   6.225   2.063
 2491SOL     OW 8371   4.152   4.566   1.759
 2491SOL    HW1 8372   4.166   4.644   1.697
 2491SOL    HW2 8373   4.220   4.495   1.738
 2492SOL     OW 8374   4.794   3.326   0.770
 2492SOL    HW1 8375   4.833   3.319   0.862
 2492SOL    HW2 8376   4.711   3.271   0.764
 2493SOL     OW 8377   6.858   6.840   1.339
 2493SOL    HW1 8378   6.916   6.887   1.405
 2493SOL    HW2 8379   6.903   6.756   1.310
 2494SOL     OW 8380   6.026   2.796   1.863
 2494SOL    HW1 8381   6.076   2.872   1.905
 2494SOL    HW2 8382   6.081   2.713   1.870
 2495SOL     OW 8383   5.208   5.528   3.543
 2495SOL    HW1 8384   5.146   5.552   3.468
 2495SOL    HW2 8385   5.300   5.561   3.522
 2496SOL     OW 8386   6.892   3.757   6.645
 2496SOL    HW1 8387   6.966   3.793   6.701
 2496SOL    HW2 8388   6.899   3.657   6.642
 2497SOL     OW 8389   0.422   0.491   0.869
 2497SOL    HW1 8390   0.367   0.550   0.810
 2497SOL    HW2 8391   0.509   0.471   0.823
 2498SOL     OW 8392   3.390   2.718   5.645
 2498SOL    HW1 8393   3.325   2.643   5.648
 2498SOL    HW2 8394   3.350   2.796   5.597
 2499SOL     OW 8395   5.874   3.316   0.968
 2499SOL    HW1 8396   5.809   3.341   1.040
 2499SOL    HW2 8397   5.846   3.229   0.927
 2500SOL     OW 8398   3.416   3.728   6.201
 2500SOL    HW1 8399   3.359   3.657   6.242
 2500SOL    HW2 8400   3.507   3.727   6.242
 2501SOL     OW 8401   6.130   5.884   0.186
 2501SOL    HW1 8402   6.102   5.902   0.280
 2501SOL    HW2 8403   6.143   5.785   0.173
 2502SOL     OW 8404   2.200   6.487   4.764
 2502SOL    HW1 8405   2.260   6.561   4.732
 2502SOL    HW2 8406   2.106   6.519   4.765
 2503SOL     OW 8407   3.138   6.546   5.620
 2503SOL    HW1 8408   3.160   6.452   5.646
 2503SOL    HW2 8409   3.090   6.545   5.532
 2504SOL     OW 8410   3.111   5.229   2.808
 2504SOL    HW1 8411   3.125   5.157   2.875
 2504SOL    HW2 8412   3.189   5.291   2.808
 2505SOL     OW 8413   0.264   5.870   3.380
 2505SOL    HW1 8414   0.326   5.948   3.371
 2505SOL    HW2 8415   0.314   5.790   3.413
 2506SOL     OW 8416   6.140   3.494   6.127
 2506SOL    HW1 8417   6.082   3.414   6.140
 2506SOL    HW2 8418   6.112   3.566   6.190
 2507SOL     OW 8419   6.999   3.396   0.116
 2507SOL    HW1 8420   6.928   3.393   0.186
 2507SOL    HW2 8421   6.957   3.398   0.026
 2508SOL     OW 8422   2.744   2.105   4.830
 2508SOL    HW1 8423   2.696   2.190   4.850
 2508SOL    HW2 8424   2.842   2.122   4.828
 2509SOL     OW 8425   6.764   4.161   0.261
 2509SOL    HW1 8426   6.801   4.084   0.313
 2509SOL    HW2 8427   6.810   4.165   0.172
 2510SOL     OW 8428   3.520   4.374   0.998
 2510SOL    HW1 8429   3.552   4.347   1.089
 2510SOL    HW2 8430   3.439   4.321   0.974
 2511SOL     OW 8431   2.122   1.214   5.025
 2511SOL    HW1 8432   2.182   1.146   4.982
 2511SOL    HW2 8433   2.100   1.185   5.118
 2512SOL     OW 8434   4.083   4.200   5.511
 2512SOL    HW1 8435   4.071   4.280   5.452
 2512SOL    HW2 8436   4.014   4.131   5.488
 2513SOL     OW 8437   2.001   5.820   5.747
 2513SOL    HW1 8438   2.087   5.828   5.797
 2513SOL    HW2 8439   1.974   5.724   5.743
 2514SOL     OW 8440   0.541   3.445   4.342
 2514SOL    HW1 8441   0.584   3.386   4.410
 2514SOL    HW2 8442   0.457   3.402   4.309
 2515SOL     OW 8443   1.972   0.512   1.499
 2515SOL    HW1 8444   1.908   0.491   1.426
 2515SOL    HW2 8445   2.066   0.499   1.466
 2516SOL     OW 8446   4.941   1.255   2.761
 2516SOL    HW1 8447   5.031   1.213   2.773
 2516SOL    HW2 8448   4.874   1.206   2.816
 2517SOL     OW 8449   2.373   6.960   5.669
 2517SOL    HW1 8450   2.322   7.004   5.743
 2517SOL    HW2 8451   2.427   6.885   5.706
 2518SOL     OW 8452   1.788   5.520   1.378
 2518SOL    HW1 8453   1.793   5.523   1.477
 2518SOL    HW2 8454   1.693   5.501   1.350
 2519SOL     OW 8455   3.516   0.978   1.236
 2519SOL    HW1 8456   3.521   1.014   1.143
 2519SOL    HW2 8457   3.427   0.934   1.250
 2520SOL     OW 8458   3.264   1.834   6.772
 2520SOL    HW1 8459   3.324   1.779   6.713
 2520SOL    HW2 8460   3.305   1.924   6.787
 2521SOL     OW 8461   3.509   1.912   5.655
 2521SOL    HW1 8462   3.473   2.006   5.650
 2521SOL    HW2 8463   3.599   1.914   5.697
 2522SOL     OW 8464   1.060   1.639   5.456
 2522SOL    HW1 8465   1.073   1.723   5.403
 2522SOL    HW2 8466   0.963   1.618   5.461
 2523SOL     OW 8467   1.588   3.807   0.965
 2523SOL    HW1 8468   1.663   3.847   1.019
 2523SOL    HW2 8469   1.501   3.823   1.012
 2524SOL     OW 8470   0.373   6.783   4.616
 2524SOL    HW1 8471   0.439   6.853   4.586
 2524SOL    HW2 8472   0.423   6.702   4.648
 2525SOL     OW 8473   1.293   3.130   4.704
 2525SOL    HW1 8474   1.364   3.114   4.635
 2525SOL    HW2 8475   1.322   3.091   4.791
 2526SOL     OW 8476   1.483   4.865   6.708
 2526SOL    HW1 8477   1.459   4.807   6.630
 2526SOL    HW2 8478   1.405   4.870   6.771
 2527SOL     OW 8479   5.330   5.393   5.515
 2527SOL    HW1 8480   5.316   5.302   5.554
 2527SOL    HW2 8481   5.340   5.385   5.416
 2528SOL     OW 8482   5.554   4.143   5.463
 2528SOL    HW1 8483   5.595   4.069   5.516
 2528SOL    HW2 8484   5.586   4.231   5.498
 2529SOL     OW 8485   0.486   0.300   6.825
 2529SOL    HW1 8486   0.407   0.311   6.765
 2529SOL    HW2 8487   0.460   0.244   6.904
 2530SOL     OW 8488   2.560   6.142   5.650
 2530SOL    HW1 8489   2.628   6.071   5.666
 2530SOL    HW2 8490   2.556   6.164   5.553
 2531SOL     OW 8491   5.833   5.616   5.741
 2531SOL    HW1 8492   5.881   5.544   5.692
 2531SOL    HW2 8493   5.815   5.587   5.835
 2532SOL     OW 8494   0.431   6.493   0.514
 2532SOL    HW1 8495   0.500   6.546   0.563
 2532SOL    HW2 8496   0.456   6.487   0.417
 2533SOL     OW 8497   4.555   1.040   3.718
 2533SOL    HW1 8498   4.598   0.953   3.743
 2533SOL    HW2 8499   4.465   1.045   3.760
 2534SOL     OW 8500   4.314   1.594   1.561
 2534SOL    HW1 8501   4.385   1.629   1.622
 2534SOL    HW2 8502   4.353   1.525   1.500
 2535SOL     OW 8503   2.887   2.187   6.779
 2535SOL    HW1 8504   2.978   2.210   6.813
 2535SOL    HW2 8505   2.819   2.244   6.825
 2536SOL     OW 8506   1.655   0.762   6.336
 2536SOL    HW1 8507   1.560   0.751   6.306
 2536SOL    HW2 8508   1.667   0.717   6.425
 2537SOL     OW 8509   3.430   6.845   6.311
 2537SOL    HW1 8510   3.397   6.909   6.242
 2537SOL    HW2 8511   3.482   6.895   6.380
 2538SOL     OW 8512   0.512   3.993   4.143
 2538SOL    HW1 8513   0.428   3.975   4.194
 2538SOL    HW2 8514   0.493   3.989   4.045
 2539SOL     OW 8515   5.364   0.689   4.087
 2539SOL    HW1 8516   5.271   0.700   4.051
 2539SOL    HW2 8517   5.405   0.779   4.099
 2540SOL     OW 8518   4.298   1.959   2.537
 2540SOL    HW1 8519   4.262   2.052   2.538
 2540SOL    HW2 8520   4.262   1.908   2.615
 2541SOL     OW 8521   2.736   6.742   5.688
 2541SOL    HW1 8522   2.643   6.736   5.724
 2541SOL    HW2 8523   2.734   6.782   5.597
 2542SOL     OW 8524   3.215   3.788   6.930
 2542SOL    HW1 8525   3.123   3.753   6.952
 2542SOL    HW2 8526   3.218   3.887   6.948
 2543SOL     OW 8527   1.124   1.522   3.898
 2543SOL    HW1 8528   1.187   1.589   3.860
 2543SOL    HW2 8529   1.158   1.430   3.879
 2544SOL     OW 8530   0.383   5.985   0.470
 2544SOL    HW1 8531   0.405   6.079   0.496
 2544SOL    HW2 8532   0.464   5.942   0.429
 2545SOL     OW 8533   1.333   0.069   2.339
 2545SOL    HW1 8534   1.341   0.046   2.436
 2545SOL    HW2 8535   1.374   7.017   2.284
 2546SOL     OW 8536   6.855   1.929   1.098
 2546SOL    HW1 8537   6.831   1.883   1.183
 2546SOL    HW2 8538   6.909   2.011   1.118
 2547SOL     OW 8539   0.203   3.599   0.037
 2547SOL    HW1 8540   0.191   3.506   0.073
 2547SOL    HW2 8541   0.288   3.603   7.006
 2548SOL     OW 8542   0.533   6.935   4.435
 2548SOL    HW1 8543   0.540   0.010   4.463
 2548SOL    HW2 8544   0.501   6.930   4.341
 2549SOL     OW 8545   1.040   0.771   1.536
 2549SOL    HW1 8546   1.019   0.681   1.498
 2549SOL    HW2 8547   1.135   0.793   1.517
 2550SOL     OW 8548   6.494   6.785   0.630
 2550SOL    HW1 8549   6.554   6.845   0.578
 2550SOL    HW2 8550   6.409   6.832   0.651
 2551SOL     OW 8551   3.045   4.690   0.356
 2551SOL    HW1 8552   3.033   4.729   0.447
 2551SOL    HW2 8553   3.010   4.596   0.355
 2552SOL     OW 8554   2.495   5.747   5.253
 2552SOL    HW1 8555   2.417   5.745   5.316
 2552SOL    HW2 8556   2.466   5.786   5.166
 2553SOL     OW 8557   3.886   3.401   5.827
 2553SOL    HW1 8558   3.803   3.449   5.855
 2553SOL    HW2 8559   3.950   3.466   5.786
 2554SOL     OW 8560   2.888   1.012   0.157
 2554SOL    HW1 8561   2.873   0.925   0.203
 2554SOL    HW2 8562   2.842   1.085   0.208
 2555SOL     OW 8563   5.741   2.005   4.186
 2555SOL    HW1 8564   5.720   2.100   4.162
 2555SOL    HW2 8565   5.737   1.948   4.104
 2556SOL     OW 8566   4.222   5.807   0.309
 2556SOL    HW1 8567   4.213   5.832   0.213
 2556SOL    HW2 8568   4.303   5.851   0.348
 2557SOL     OW 8569   1.990   3.717   6.758
 2557SOL    HW1 8570   2.047   3.766   6.825
 2557SOL    HW2 8571   2.002   3.619   6.770
 2558SOL     OW 8572   5.402   1.076   5.452
 2558SOL    HW1 8573   5.407   1.115   5.360
 2558SOL    HW2 8574   5.306   1.069   5.479
 2559SOL     OW 8575   1.262   4.559   5.661
 2559SOL    HW1 8576   1.170   4.599   5.659
 2559SOL    HW2 8577   1.295   4.556   5.755
 2560SOL     OW 8578   6.783   2.334   5.765
 2560SOL    HW1 8579   6.718   2.333   5.688
 2560SOL    HW2 8580   6.871   2.368   5.733
 2561SOL     OW 8581   2.537   4.891   5.283
 2561SOL    HW1 8582   2.557   4.795   5.267
 2561SOL    HW2 8583   2.536   4.941   5.196
 2562SOL     OW 8584   2.443   4.330   1.321
 2562SOL    HW1 8585   2.347   4.340   1.349
 2562SOL    HW2 8586   2.447   4.287   1.231
 2563SOL     OW 8587   3.199   1.292   0.614
 2563SOL    HW1 8588   3.291   1.273   0.582
 2563SOL    HW2 8589   3.143   1.209   0.607
 2564SOL     OW 8590   1.270   5.542   0.659
 2564SOL    HW1 8591   1.359   5.524   0.617
 2564SOL    HW2 8592   1.209   5.464   0.642
 2565SOL     OW 8593   0.899   0.627   0.002
 2565SOL    HW1 8594   0.972   0.575   6.980
 2565SOL    HW2 8595   0.812   0.609   6.976
 2566SOL     OW 8596   2.515   6.642   1.431
 2566SOL    HW1 8597   2.548   6.725   1.387
 2566SOL    HW2 8598   2.593   6.582   1.452
 2567SOL     OW 8599   1.379   0.254   1.064
 2567SOL    HW1 8600   1.381   0.196   1.146
 2567SOL    HW2 8601   1.349   0.200   0.986
 2568SOL     OW 8602   4.200   2.372   6.834
 2568SOL    HW1 8603   4.179   2.321   6.751
 2568SOL    HW2 8604   4.288   2.418   6.824
 2569SOL     OW 8605   3.393   0.997   3.211
 2569SOL    HW1 8606   3.384   1.024   3.115
 2569SOL    HW2 8607   3.414   1.078   3.266
 2570SOL     OW 8608   5.763   0.751   5.508
 2570SOL    HW1 8609   5.718   0.823   5.561
 2570SOL    HW2 8610   5.750   0.768   5.410
 2571SOL     OW 8611   1.427   4.875   3.936
 2571SOL    HW1 8612   1.464   4.846   4.024
 2571SOL    HW2 8613   1.331   4.900   3.947
 2572SOL     OW 8614   2.802   5.127   2.362
 2572SOL    HW1 8615   2.781   5.217   2.400
 2572SOL    HW2 8616   2.892   5.097   2.395
 2573SOL     OW 8617   1.054   2.012   0.806
 2573SOL    HW1 8618   1.055   1.959   0.721
 2573SOL    HW2 8619   0.960   2.031   0.834
 2574SOL     OW 8620   4.977   3.684   0.884
 2574SOL    HW1 8621   5.052   3.714   0.942
 2574SOL    HW2 8622   5.013   3.645   0.799
 2575SOL     OW 8623   5.964   5.571   6.666
 2575SOL    HW1 8624   6.060   5.599   6.665
 2575SOL    HW2 8625   5.907   5.646   6.632
 2576SOL     OW 8626   4.214   6.345   4.911
 2576SOL    HW1 8627   4.236   6.432   4.955
 2576SOL    HW2 8628   4.173   6.283   4.978
 2577SOL     OW 8629   2.727   5.163   2.081
 2577SOL    HW1 8630   2.749   5.143   2.176
 2577SOL    HW2 8631   2.631   5.142   2.064
 2578SOL     OW 8632   4.021   1.500   3.795
 2578SOL    HW1 8633   4.037   1.467   3.702
 2578SOL    HW2 8634   3.983   1.593   3.791
 2579SOL     OW 8635   0.318   6.254   3.880
 2579SOL    HW1 8636   0.279   6.164   3.858
 2579SOL    HW2 8637   0.410   6.242   3.917
 2580SOL     OW 8638   2.144   4.747   0.131
 2580SOL    HW1 8639   2.092   4.663   0.148
 2580SOL    HW2 8640   2.146   4.765   0.033
 2581SOL     OW 8641   2.339   6.047   0.147
 2581SOL    HW1 8642   2.438   6.056   0.134
 2581SOL    HW2 8643   2.302   5.985   0.077
 2582SOL     OW 8644   0.119   4.233   1.560
 2582SOL    HW1 8645   0.106   4.304   1.491
 2582SOL    HW2 8646   0.033   4.185   1.576
 2583SOL     OW 8647   0.456   0.682   0.028
 2583SOL    HW1 8648   0.503   0.758   0.073
 2583SOL    HW2 8649   0.357   0.692   0.040
 2584SOL     OW 8650   4.337   5.280   5.773
 2584SOL    HW1 8651   4.357   5.342   5.849
 2584SOL    HW2 8652   4.279   5.205   5.806
 2585SOL     OW 8653   2.907   4.625   6.966
 2585SOL    HW1 8654   2.827   4.667   7.008
 2585SOL    HW2 8655   2.939   4.549   0.001
 2586SOL     OW 8656   2.861   0.979   5.766
 2586SOL    HW1 8657   2.838   1.069   5.803
 2586SOL    HW2 8658   2.906   0.925   5.837
 2587SOL     OW 8659   0.403   1.523   3.009
 2587SOL    HW1 8660   0.431   1.481   2.922
 2587SOL    HW2 8661   0.398   1.622   2.999
 2588SOL     OW 8662   3.957   2.408   5.322
 2588SOL    HW1 8663   3.859   2.428   5.326
 2588SOL    HW2 8664   4.007   2.490   5.294
 2589SOL     OW 8665   1.083   6.525   6.776
 2589SOL    HW1 8666   1.033   6.502   6.692
 2589SOL    HW2 8667   1.175   6.487   6.772
 2590SOL     OW 8668   2.617   5.158   0.441
 2590SOL    HW1 8669   2.583   5.214   0.517
 2590SOL    HW2 8670   2.679   5.212   0.384
 2591SOL     OW 8671   5.911   5.619   3.781
 2591SOL    HW1 8672   5.988   5.595   3.723
 2591SOL    HW2 8673   5.944   5.655   3.868
 2592SOL     OW 8674   2.618   4.043   6.588
 2592SOL    HW1 8675   2.678   4.032   6.509
 2592SOL    HW2 8676   2.648   3.984   6.662
 2593SOL     OW 8677   3.234   5.682   0.822
 2593SOL    HW1 8678   3.266   5.702   0.915
 2593SOL    HW2 8679   3.267   5.591   0.795
 2594SOL     OW 8680   2.665   4.296   6.307
 2594SOL    HW1 8681   2.736   4.302   6.237
 2594SOL    HW2 8682   2.605   4.218   6.286
 2595SOL     OW 8683   0.722   1.338   4.441
 2595SOL    HW1 8684   0.629   1.369   4.463
 2595SOL    HW2 8685   0.739   1.349   4.344
 2596SOL     OW 8686   2.100   2.721   1.155
 2596SOL    HW1 8687   2.136   2.809   1.125
 2596SOL    HW2 8688   2.024   2.694   1.096
 2597SOL     OW 8689   6.845   4.987   6.311
 2597SOL    HW1 8690   6.747   5.003   6.295
 2597SOL    HW2 8691   6.860   4.890   6.331
 2598SOL     OW 8692   6.313   1.443   1.809
 2598SOL    HW1 8693   6.304   1.438   1.710
 2598SOL    HW2 8694   6.307   1.538   1.838
 2599SOL     OW 8695   2.027   6.545   1.388
 2599SOL    HW1 8696   2.031   6.543   1.488
 2599SOL    HW2 8697   1.960   6.478   1.355
 2600SOL     OW 8698   5.808   3.695   4.535
 2600SOL    HW1 8699   5.824   3.596   4.536
 2600SOL    HW2 8700   5.890   3.742   4.566
 2601SOL     OW 8701   1.719   1.930   2.419
 2601SOL    HW1 8702   1.684   2.014   2.462
 2601SOL    HW2 8703   1.765   1.953   2.333
 2602SOL     OW 8704   1.930   4.952   3.967
 2602SOL    HW1 8705   2.029   4.952   3.984
 2602SOL    HW2 8706   1.883   4.912   4.046
 2603SOL     OW 8707   3.253   1.167   2.292
 2603SOL    HW1 8708   3.213   1.114   2.366
 2603SOL    HW2 8709   3.188   1.173   2.216
 2604SOL     OW 8710   4.780   1.785   1.833
 2604SOL    HW1 8711   4.740   1.720   1.898
 2604SOL    HW2 8712   4.873   1.755   1.810
 2605SOL     OW 8713   1.247   4.228   2.449
 2605SOL    HW1 8714   1.255   4.282   2.533
 2605SOL    HW2 8715   1.320   4.255   2.385
 2606SOL     OW 8716   5.572   4.928   1.253
 2606SOL    HW1 8717   5.628   4.912   1.171
 2606SOL    HW2 8718   5.611   5.004   1.305
 2607SOL     OW 8719   1.675   2.333   1.436
 2607SOL    HW1 8720   1.712   2.397   1.503
 2607SOL    HW2 8721   1.586   2.300   1.468
 2608SOL     OW 8722   2.175   6.415   6.452
 2608SOL    HW1 8723   2.135   6.446   6.538
 2608SOL    HW2 8724   2.162   6.316   6.444
 2609SOL     OW 8725   0.692   1.183   1.012
 2609SOL    HW1 8726   0.636   1.104   0.987
 2609SOL    HW2 8727   0.636   1.250   1.061
 2610SOL     OW 8728   1.363   5.273   4.323
 2610SOL    HW1 8729   1.450   5.321   4.321
 2610SOL    HW2 8730   1.317   5.284   4.235
 2611SOL     OW 8731   5.034   6.140   0.314
 2611SOL    HW1 8732   4.999   6.225   0.275
 2611SOL    HW2 8733   4.973   6.109   0.387
 2612SOL     OW 8734   4.883   6.590   4.683
 2612SOL    HW1 8735   4.880   6.491   4.702
 2612SOL    HW2 8736   4.960   6.610   4.622
 2613SOL     OW 8737   1.032   5.710   6.285
 2613SOL    HW1 8738   0.990   5.686   6.372
 2613SOL    HW2 8739   0.974   5.777   6.238
 2614SOL     OW 8740   5.818   1.106   5.861
 2614SOL    HW1 8741   5.844   1.095   5.957
 2614SOL    HW2 8742   5.737   1.050   5.842
 2615SOL     OW 8743   1.192   3.345   1.404
 2615SOL    HW1 8744   1.154   3.274   1.463
 2615SOL    HW2 8745   1.139   3.429   1.415
 2616SOL     OW 8746   1.415   1.080   5.536
 2616SOL    HW1 8747   1.337   1.140   5.522
 2616SOL    HW2 8748   1.409   1.001   5.474
 2617SOL     OW 8749   5.394   0.195   0.715
 2617SOL    HW1 8750   5.298   0.192   0.690
 2617SOL    HW2 8751   5.403   0.192   0.815
 2618SOL     OW 8752   1.748   5.629   5.693
 2618SOL    HW1 8753   1.735   5.532   5.717
 2618SOL    HW2 8754   1.821   5.637   5.626
 2619SOL     OW 8755   4.229   2.002   1.701
 2619SOL    HW1 8756   4.148   2.031   1.751
 2619SOL    HW2 8757   4.251   1.907   1.724
 2620SOL     OW 8758   6.238   5.684   1.925
 2620SOL    HW1 8759   6.254   5.651   1.832
 2620SOL    HW2 8760   6.325   5.707   1.968
 2621SOL     OW 8761   0.368   5.741   2.572
 2621SOL    HW1 8762   0.320   5.828   2.556
 2621SOL    HW2 8763   0.316   5.686   2.637
 2622SOL     OW 8764   3.128   3.017   6.093
 2622SOL    HW1 8765   3.040   3.065   6.091
 2622SOL    HW2 8766   3.163   3.016   6.186
 2623SOL     OW 8767   0.255   6.836   4.153
 2623SOL    HW1 8768   0.354   6.846   4.142
 2623SOL    HW2 8769   0.226   6.884   4.236
 2624SOL     OW 8770   6.607   1.838   4.580
 2624SOL    HW1 8771   6.699   1.807   4.605
 2624SOL    HW2 8772   6.613   1.918   4.520
 2625SOL     OW 8773   1.876   5.415   5.415
 2625SOL    HW1 8774   1.965   5.400   5.371
 2625SOL    HW2 8775   1.803   5.405   5.347
 2626SOL     OW 8776   6.585   6.758   5.391
 2626SOL    HW1 8777   6.530   6.712   5.321
 2626SOL    HW2 8778   6.539   6.844   5.417
 2627SOL     OW 8779   0.988   0.044   5.605
 2627SOL    HW1 8780   1.040   0.129   5.603
 2627SOL    HW2 8781   1.034   7.000   5.666
 2628SOL     OW 8782   1.746   3.591   3.743
 2628SOL    HW1 8783   1.749   3.560   3.838
 2628SOL    HW2 8784   1.836   3.624   3.716
 2629SOL     OW 8785   3.088   4.003   3.614
 2629SOL    HW1 8786   3.184   3.991   3.638
 2629SOL    HW2 8787   3.081   4.032   3.519
 2630SOL     OW 8788   4.149   1.419   3.215
 2630SOL    HW1 8789   4.241   1.406   3.251
 2630SOL    HW2 8790   4.097   1.479   3.276
 2631SOL     OW 8791   5.747   0.511   6.656
 2631SOL    HW1 8792   5.652   0.530   6.629
 2631SOL    HW2 8793   5.765   0.413   6.647
 2632SOL     OW 8794   5.777   4.794   1.559
 2632SOL    HW1 8795   5.843   4.735   1.605
 2632SOL    HW2 8796   5.820   4.881   1.536
 2633SOL     OW 8797   6.917   2.566   5.184
 2633SOL    HW1 8798   6.846   2.620   5.139
 2633SOL    HW2 8799   6.937   2.485   5.129
 2634SOL     OW 8800   6.263   6.804   4.431
 2634SOL    HW1 8801   6.185   6.742   4.438
 2634SOL    HW2 8802   6.343   6.761   4.472
 2635SOL     OW 8803   5.226   5.548   4.024
 2635SOL    HW1 8804   5.148   5.562   3.963
 2635SOL    HW2 8805   5.291   5.485   3.982
 2636SOL     OW 8806   4.031   0.427   5.711
 2636SOL    HW1 8807   4.021   0.371   5.793
 2636SOL    HW2 8808   4.061   0.519   5.738
 2637SOL     OW 8809   0.630   1.776   2.788
 2637SOL    HW1 8810   0.616   1.717   2.708
 2637SOL    HW2 8811   0.722   1.816   2.784
 2638SOL     OW 8812   0.857   0.691   4.182
 2638SOL    HW1 8813   0.796   0.628   4.134
 2638SOL    HW2 8814   0.863   0.777   4.131
 2639SOL     OW 8815   4.509   4.875   4.787
 2639SOL    HW1 8816   4.516   4.940   4.711
 2639SOL    HW2 8817   4.545   4.916   4.870
 2640SOL     OW 8818   1.056   0.086   4.694
 2640SOL    HW1 8819   0.956   0.076   4.701
 2640SOL    HW2 8820   1.085   0.164   4.749
 2641SOL     OW 8821   5.119   2.429   0.172
 2641SOL    HW1 8822   5.114   2.411   0.270
 2641SOL    HW2 8823   5.074   2.517   0.152
 2642SOL     OW 8824   6.963   1.554   4.438
 2642SOL    HW1 8825   7.010   1.488   4.380
 2642SOL    HW2 8826   6.871   1.521   4.458
 2643SOL     OW 8827   1.252   3.779   3.765
 2643SOL    HW1 8828   1.185   3.718   3.721
 2643SOL    HW2 8829   1.319   3.810   3.698
 2644SOL     OW 8830   4.965   5.365   4.565
 2644SOL    HW1 8831   4.874   5.332   4.589
 2644SOL    HW2 8832   5.033   5.294   4.584
 2645SOL     OW 8833   4.810   5.436   3.749
 2645SOL    HW1 8834   4.729   5.434   3.807
 2645SOL    HW2 8835   4.860   5.349   3.757
 2646SOL     OW 8836   0.565   3.650   6.112
 2646SOL    HW1 8837   0.592   3.604   6.028
 2646SOL    HW2 8838   0.497   3.594   6.160
 2647SOL     OW 8839   5.522   0.087   1.697
 2647SOL    HW1 8840   5.540   7.010   1.688
 2647SOL    HW2 8841   5.537   0.115   1.792
 2648SOL     OW 8842   0.652   0.409   4.092
 2648SOL    HW1 8843   0.571   0.375   4.044
 2648SOL    HW2 8844   0.692   0.485   4.039
 2649SOL     OW 8845   5.227   2.835   1.926
 2649SOL    HW1 8846   5.157   2.905   1.913
 2649SOL    HW2 8847   5.287   2.833   1.845
 2650SOL     OW 8848   3.430   5.810   5.029
 2650SOL    HW1 8849   3.473   5.739   5.084
 2650SOL    HW2 8850   3.428   5.896   5.080
 2651SOL     OW 8851   3.959   1.996   5.377
 2651SOL    HW1 8852   3.883   1.932   5.361
 2651SOL    HW2 8853   3.969   2.011   5.475
 2652SOL     OW 8854   5.014   3.362   5.424
 2652SOL    HW1 8855   5.015   3.338   5.521
 2652SOL    HW2 8856   4.924   3.338   5.386
 2653SOL     OW 8857   3.406   6.384   6.654
 2653SOL    HW1 8858   3.498   6.420   6.670
 2653SOL    HW2 8859   3.412   6.287   6.632
 2654SOL     OW 8860   5.270   0.156   0.394
 2654SOL    HW1 8861   5.275   0.189   0.300
 2654SOL    HW2 8862   5.196   0.089   0.402
 2655SOL     OW 8863   5.255   6.268   2.931
 2655SOL    HW1 8864   5.187   6.310   2.990
 2655SOL    HW2 8865   5.330   6.332   2.916
 2656SOL     OW 8866   3.529   5.893   3.576
 2656SOL    HW1 8867   3.595   5.956   3.535
 2656SOL    HW2 8868   3.520   5.812   3.518
 2657SOL     OW 8869   2.358   3.271   0.277
 2657SOL    HW1 8870   2.301   3.199   0.237
 2657SOL    HW2 8871   2.383   3.246   0.370
 2658SOL     OW 8872   4.381   4.360   6.263
 2658SOL    HW1 8873   4.401   4.388   6.169
 2658SOL    HW2 8874   4.302   4.299   6.264
 2659SOL     OW 8875   5.491   2.230   5.039
 2659SOL    HW1 8876   5.567   2.165   5.047
 2659SOL    HW2 8877   5.413   2.184   4.998
 2660SOL     OW 8878   1.194   1.448   0.991
 2660SOL    HW1 8879   1.145   1.527   0.956
 2660SOL    HW2 8880   1.133   1.394   1.049
 2661SOL     OW 8881   1.485   0.628   1.342
 2661SOL    HW1 8882   1.570   0.632   1.394
 2661SOL    HW2 8883   1.464   0.719   1.305
 2662SOL     OW 8884   3.080   0.728   3.037
 2662SOL    HW1 8885   3.131   0.813   3.027
 2662SOL    HW2 8886   3.106   0.664   2.965
 2663SOL     OW 8887   3.133   0.186   6.247
 2663SOL    HW1 8888   3.192   0.256   6.207
 2663SOL    HW2 8889   3.183   0.100   6.252
 2664SOL     OW 8890   3.730   3.050   5.032
 2664SOL    HW1 8891   3.792   3.015   5.102
 2664SOL    HW2 8892   3.655   2.985   5.020
 2665SOL     OW 8893   2.286   3.834   5.323
 2665SOL    HW1 8894   2.209   3.807   5.265
 2665SOL    HW2 8895   2.353   3.883   5.268
 2666SOL     OW 8896   2.268   4.229   2.409
 2666SOL    HW1 8897   2.228   4.155   2.356
 2666SOL    HW2 8898   2.212   4.311   2.400
 2667SOL     OW 8899   5.788   4.188   3.552
 2667SOL    HW1 8900   5.821   4.281   3.565
 2667SOL    HW2 8901   5.862   4.123   3.567
 2668SOL     OW 8902   5.834   1.557   4.598
 2668SOL    HW1 8903   5.790   1.474   4.566
 2668SOL    HW2 8904   5.881   1.602   4.522
 2669SOL     OW 8905   2.265   6.852   0.600
 2669SOL    HW1 8906   2.353   6.855   0.553
 2669SOL    HW2 8907   2.194   6.893   0.542
 2670SOL     OW 8908   6.974   1.453   5.629
 2670SOL    HW1 8909   6.939   1.478   5.538
 2670SOL    HW2 8910   0.052   1.447   5.625
 2671SOL     OW 8911   4.078   5.584   6.030
 2671SOL    HW1 8912   4.014   5.530   5.975
 2671SOL    HW2 8913   4.045   5.678   6.036
 2672SOL     OW 8914   3.989   1.107   1.627
 2672SOL    HW1 8915   3.954   1.079   1.717
 2672SOL    HW2 8916   3.947   1.050   1.556
 2673SOL     OW 8917   4.742   0.277   2.676
 2673SOL    HW1 8918   4.733   0.181   2.704
 2673SOL    HW2 8919   4.798   0.282   2.593
 2674SOL     OW 8920   0.958   5.543   3.008
 2674SOL    HW1 8921   0.990   5.637   3.021
 2674SOL    HW2 8922   1.008   5.482   3.070
 2675SOL     OW 8923   6.676   6.579   3.818
 2675SOL    HW1 8924   6.745   6.582   3.891
 2675SOL    HW2 8925   6.656   6.671   3.787
 2676SOL     OW 8926   3.343   3.808   2.916
 2676SOL    HW1 8927   3.292   3.731   2.879
 2676SOL    HW2 8928   3.318   3.823   3.012
 2677SOL     OW 8929   1.977   4.707   1.418
 2677SOL    HW1 8930   2.005   4.732   1.510
 2677SOL    HW2 8931   1.886   4.743   1.399
 2678SOL     OW 8932   5.695   2.609   2.786
 2678SOL    HW1 8933   5.628   2.602   2.712
 2678SOL    HW2 8934   5.666   2.551   2.862
 2679SOL     OW 8935   1.839   4.921   3.137
 2679SOL    HW1 8936   1.935   4.897   3.148
 2679SOL    HW2 8937   1.782   4.855   3.187
 2680SOL     OW 8938   1.131   2.413   6.630
 2680SOL    HW1 8939   1.143   2.457   6.719
 2680SOL    HW2 8940   1.208   2.436   6.571
 2681SOL     OW 8941   1.372   2.902   5.178
 2681SOL    HW1 8942   1.406   2.811   5.204
 2681SOL    HW2 8943   1.424   2.972   5.228
 2682SOL     OW 8944   4.776   4.200   2.002
 2682SOL    HW1 8945   4.709   4.257   1.954
 2682SOL    HW2 8946   4.868   4.226   1.973
 2683SOL     OW 8947   2.177   3.989   3.065
 2683SOL    HW1 8948   2.192   4.027   2.973
 2683SOL    HW2 8949   2.184   3.890   3.061
 2684SOL     OW 8950   5.538   6.040   2.116
 2684SOL    HW1 8951   5.584   5.951   2.115
 2684SOL    HW2 8952   5.600   6.109   2.078
 2685SOL     OW 8953   0.177   5.857   4.913
 2685SOL    HW1 8954   0.201   5.940   4.862
 2685SOL    HW2 8955   0.246   5.786   4.895
 2686SOL     OW 8956   0.967   1.345   4.613
 2686SOL    HW1 8957   0.984   1.424   4.554
 2686SOL    HW2 8958   0.885   1.298   4.582
 2687SOL     OW 8959   4.086   1.330   2.237
 2687SOL    HW1 8960   4.006   1.390   2.238
 2687SOL    HW2 8961   4.127   1.329   2.146
 2688SOL     OW 8962   3.553   2.396   6.479
 2688SOL    HW1 8963   3.501   2.450   6.544
 2688SOL    HW2 8964   3.618   2.338   6.528
 2689SOL     OW 8965   0.626   4.466   3.124
 2689SOL    HW1 8966   0.605   4.390   3.186
 2689SOL    HW2 8967   0.721   4.495   3.139
 2690SOL     OW 8968   3.540   1.620   5.854
 2690SOL    HW1 8969   3.634   1.613   5.822
 2690SOL    HW2 8970   3.480   1.563   5.797
 2691SOL     OW 8971   0.193   4.175   3.956
 2691SOL    HW1 8972   0.229   4.248   3.897
 2691SOL    HW2 8973   0.100   4.153   3.928
 2692SOL     OW 8974   3.026   5.632   2.441
 2692SOL    HW1 8975   2.985   5.590   2.522
 2692SOL    HW2 8976   2.956   5.649   2.372
 2693SOL     OW 8977   1.490   5.913   3.988
 2693SOL    HW1 8978   1.563   5.864   4.035
 2693SOL    HW2 8979   1.527   5.957   3.906
 2694SOL     OW 8980   3.135   6.665   3.905
 2694SOL    HW1 8981   3.165   6.660   3.810
 2694SOL    HW2 8982   3.097   6.756   3.924
 2695SOL     OW 8983   6.732   6.568   2.761
 2695SOL    HW1 8984   6.694   6.658   2.783
 2695SOL    HW2 8985   6.658   6.503   2.747
 2696SOL     OW 8986   5.201   4.031   6.146
 2696SOL    HW1 8987   5.282   4.050   6.202
 2696SOL    HW2 8988   5.145   4.114   6.140
 2697SOL     OW 8989   4.192   2.087   0.634
 2697SOL    HW1 8990   4.209   2.008   0.575
 2697SOL    HW2 8991   4.111   2.069   0.691
 2698SOL     OW 8992   1.467   4.753   6.195
 2698SOL    HW1 8993   1.391   4.818   6.200
 2698SOL    HW2 8994   1.554   4.803   6.196
 2699SOL     OW 8995   3.490   5.880   2.388
 2699SOL    HW1 8996   3.510   5.960   2.446
 2699SOL    HW2 8997   3.391   5.870   2.378
 2700SOL     OW 8998   2.726   2.183   1.240
 2700SOL    HW1 8999   2.780   2.140   1.312
 2700SOL    HW2 9000   2.684   2.113   1.183
 2701SOL     OW 9001   5.315   2.627   4.751
 2701SOL    HW1 9002   5.324   2.706   4.811
 2701SOL    HW2 9003   5.223   2.588   4.760
 2702SOL     OW 9004   2.807   1.913   4.615
 2702SOL    HW1 9005   2.775   1.973   4.688
 2702SOL    HW2 9006   2.741   1.839   4.602
 2703SOL     OW 9007   1.627   6.519   2.498
 2703SOL    HW1 9008   1.713   6.496   2.453
 2703SOL    HW2 9009   1.552   6.512   2.432
 2704SOL     OW 9010   6.477   6.183   3.565
 2704SOL    HW1 9011   6.419   6.129   3.504
 2704SOL    HW2 9012   6.560   6.212   3.516
 2705SOL     OW 9013   0.695   0.815   4.690
 2705SOL    HW1 9014   0.671   0.872   4.768
 2705SOL    HW2 9015   0.681   0.865   4.605
 2706SOL     OW 9016   6.476   4.621   4.429
 2706SOL    HW1 9017   6.434   4.645   4.516
 2706SOL    HW2 9018   6.408   4.627   4.356
 2707SOL     OW 9019   4.252   0.341   3.053
 2707SOL    HW1 9020   4.185   0.308   2.986
 2707SOL    HW2 9021   4.243   0.440   3.063
 2708SOL     OW 9022   5.632   2.839   7.021
 2708SOL    HW1 9023   5.710   2.902   0.001
 2708SOL    HW2 9024   5.557   2.879   0.051
 2709SOL     OW 9025   5.475   7.019   5.488
 2709SOL    HW1 9026   5.438   0.064   5.423
 2709SOL    HW2 9027   5.501   6.935   5.440
 2710SOL     OW 9028   1.563   3.054   4.065
 2710SOL    HW1 9029   1.564   2.995   3.985
 2710SOL    HW2 9030   1.483   3.114   4.061
 2711SOL     OW 9031   3.382   2.048   3.730
 2711SOL    HW1 9032   3.380   2.085   3.637
 2711SOL    HW2 9033   3.340   1.957   3.731
 2712SOL     OW 9034   3.936   5.535   2.480
 2712SOL    HW1 9035   3.860   5.499   2.534
 2712SOL    HW2 9036   3.968   5.621   2.520
 2713SOL     OW 9037   4.287   4.610   6.433
 2713SOL    HW1 9038   4.305   4.599   6.531
 2713SOL    HW2 9039   4.340   4.543   6.381
 2714SOL     OW 9040   3.130   4.077   6.920
 2714SOL    HW1 9041   3.069   4.083   6.841
 2714SOL    HW2 9042   3.075   4.058   7.002
 2715SOL     OW 9043   5.381   1.223   1.014
 2715SOL    HW1 9044   5.427   1.239   0.927
 2715SOL    HW2 9045   5.437   1.163   1.071
 2716SOL     OW 9046   4.245   1.895   2.977
 2716SOL    HW1 9047   4.209   1.838   3.051
 2716SOL    HW2 9048   4.283   1.979   3.015
 2717SOL     OW 9049   1.072   1.359   2.573
 2717SOL    HW1 9050   1.153   1.416   2.557
 2717SOL    HW2 9051   1.098   1.278   2.626
 2718SOL     OW 9052   0.646   0.235   6.129
 2718SOL    HW1 9053   0.557   0.220   6.173
 2718SOL    HW2 9054   0.630   0.268   6.035
 2719SOL     OW 9055   1.927   3.937   2.019
 2719SOL    HW1 9056   1.911   3.843   1.989
 2719SOL    HW2 9057   2.019   3.946   2.055
 2720SOL     OW 9058   1.018   0.239   5.335
 2720SOL    HW1 9059   1.021   0.284   5.424
 2720SOL    HW2 9060   0.923   0.217   5.311
 2721SOL     OW 9061   2.729   5.545   1.747
 2721SOL    HW1 9062   2.654   5.525   1.684
 2721SOL    HW2 9063   2.812   5.499   1.716
 2722SOL     OW 9064   4.280   5.261   6.897
 2722SOL    HW1 9065   4.244   5.348   6.930
 2722SOL    HW2 9066   4.346   5.224   6.963
 2723SOL     OW 9067   3.223   6.475   0.548
 2723SOL    HW1 9068   3.300   6.454   0.610
 2723SOL    HW2 9069   3.144   6.419   0.573
 2724SOL     OW 9070   0.856   5.789   0.414
 2724SOL    HW1 9071   0.886   5.884   0.409
 2724SOL    HW2 9072   0.861   5.757   0.509
 2725SOL     OW 9073   5.061   3.089   4.645
 2725SOL    HW1 9074   5.150   3.130   4.625
 2725SOL    HW2 9075   5.013   3.145   4.713
 2726SOL     OW 9076   0.556   1.726   1.290
 2726SOL    HW1 9077   0.614   1.783   1.230
 2726SOL    HW2 9078   0.614   1.677   1.355
 2727SOL     OW 9079   2.188   4.150   4.694
 2727SOL    HW1 9080   2.154   4.080   4.631
 2727SOL    HW2 9081   2.160   4.127   4.787
 2728SOL     OW 9082   5.171   5.027   6.547
 2728SOL    HW1 9083   5.248   5.082   6.513
 2728SOL    HW2 9084   5.160   4.946   6.489
 2729SOL     OW 9085   5.304   6.042   6.183
 2729SOL    HW1 9086   5.383   5.981   6.175
 2729SOL    HW2 9087   5.266   6.060   6.092
 2730SOL     OW 9088   0.667   5.702   2.005
 2730SOL    HW1 9089   0.758   5.719   1.967
 2730SOL    HW2 9090   0.675   5.670   2.099
 2731SOL     OW 9091   3.178   2.999   3.804
 2731SOL    HW1 9092   3.194   2.970   3.898
 2731SOL    HW2 9093   3.170   3.098   3.800
 2732SOL     OW 9094   4.957   1.368   1.400
 2732SOL    HW1 9095   4.932   1.283   1.353
 2732SOL    HW2 9096   4.941   1.446   1.339
 2733SOL     OW 9097   0.171   0.319   6.002
 2733SOL    HW1 9098   0.245   0.298   5.939
 2733SOL    HW2 9099   0.129   0.407   5.975
 2734SOL     OW 9100   3.431   6.092   1.643
 2734SOL    HW1 9101   3.353   6.151   1.665
 2734SOL    HW2 9102   3.486   6.078   1.726
 2735SOL     OW 9103   1.440   1.856   1.028
 2735SOL    HW1 9104   1.473   1.810   1.111
 2735SOL    HW2 9105   1.345   1.886   1.042
 2736SOL     OW 9106   4.911   6.105   3.421
 2736SOL    HW1 9107   4.824   6.062   3.446
 2736SOL    HW2 9108   4.983   6.036   3.417
 2737SOL     OW 9109   2.742   1.762   6.152
 2737SOL    HW1 9110   2.798   1.845   6.149
 2737SOL    HW2 9111   2.670   1.773   6.221
 2738SOL     OW 9112   5.697   0.211   1.057
 2738SOL    HW1 9113   5.774   0.263   1.021
 2738SOL    HW2 9114   5.679   0.239   1.152
 2739SOL     OW 9115   1.149   5.325   1.994
 2739SOL    HW1 9116   1.242   5.290   1.987
 2739SOL    HW2 9117   1.122   5.329   2.091
 2740SOL     OW 9118   0.169   6.219   2.408
 2740SOL    HW1 9119   0.092   6.270   2.370
 2740SOL    HW2 9120   0.255   6.263   2.382
 2741SOL     OW 9121   1.103   2.107   4.195
 2741SOL    HW1 9122   1.191   2.116   4.149
 2741SOL    HW2 9123   1.063   2.198   4.208
 2742SOL     OW 9124   3.442   4.684   1.476
 2742SOL    HW1 9125   3.354   4.726   1.455
 2742SOL    HW2 9126   3.428   4.609   1.541
 2743SOL     OW 9127   6.571   4.823   2.326
 2743SOL    HW1 9128   6.590   4.858   2.234
 2743SOL    HW2 9129   6.530   4.732   2.319
 2744SOL     OW 9130   3.030   3.125   3.038
 2744SOL    HW1 9131   3.039   3.194   2.965
 2744SOL    HW2 9132   3.081   3.043   3.012
 2745SOL     OW 9133   6.508   1.036   5.734
 2745SOL    HW1 9134   6.582   1.032   5.667
 2745SOL    HW2 9135   6.433   0.977   5.705
 2746SOL     OW 9136   1.005   1.115   3.678
 2746SOL    HW1 9137   1.063   1.036   3.657
 2746SOL    HW2 9138   0.934   1.123   3.608
 2747SOL     OW 9139   3.626   5.512   0.981
 2747SOL    HW1 9140   3.700   5.446   0.995
 2747SOL    HW2 9141   3.665   5.598   0.946
 2748SOL     OW 9142   4.578   0.109   1.207
 2748SOL    HW1 9143   4.553   0.206   1.208
 2748SOL    HW2 9144   4.502   0.055   1.245
 2749SOL     OW 9145   1.891   3.344   0.656
 2749SOL    HW1 9146   1.898   3.366   0.754
 2749SOL    HW2 9147   1.981   3.319   0.621
 2750SOL     OW 9148   2.444   5.315   2.774
 2750SOL    HW1 9149   2.358   5.268   2.793
 2750SOL    HW2 9150   2.503   5.257   2.718
 2751SOL     OW 9151   1.438   2.580   1.478
 2751SOL    HW1 9152   1.343   2.608   1.465
 2751SOL    HW2 9153   1.498   2.658   1.467
 2752SOL     OW 9154   4.352   4.848   5.534
 2752SOL    HW1 9155   4.282   4.889   5.474
 2752SOL    HW2 9156   4.376   4.757   5.499
 2753SOL     OW 9157   6.278   6.389   5.233
 2753SOL    HW1 9158   6.181   6.411   5.242
 2753SOL    HW2 9159   6.307   6.334   5.311
 2754SOL     OW 9160   0.502   6.516   6.554
 2754SOL    HW1 9161   0.452   6.460   6.620
 2754SOL    HW2 9162   0.590   6.543   6.593
 2755SOL     OW 9163   2.679   6.611   2.641
 2755SOL    HW1 9164   2.673   6.690   2.701
 2755SOL    HW2 9165   2.710   6.639   2.550
 2756SOL     OW 9166   5.298   6.788   0.454
 2756SOL    HW1 9167   5.332   6.820   0.365
 2756SOL    HW2 9168   5.361   6.816   0.526
 2757SOL     OW 9169   0.915   5.228   1.529
 2757SOL    HW1 9170   0.917   5.276   1.616
 2757SOL    HW2 9171   1.003   5.185   1.512
 2758SOL     OW 9172   5.423   0.140   5.250
 2758SOL    HW1 9173   5.493   0.205   5.280
 2758SOL    HW2 9174   5.337   0.188   5.233
 2759SOL     OW 9175   5.930   6.320   3.843
 2759SOL    HW1 9176   6.019   6.296   3.805
 2759SOL    HW2 9177   5.926   6.292   3.939
 2760SOL     OW 9178   2.076   5.467   2.206
 2760SOL    HW1 9179   2.087   5.419   2.293
 2760SOL    HW2 9180   2.146   5.436   2.142
 2761SOL     OW 9181   0.831   5.722   3.334
 2761SOL    HW1 9182   0.906   5.678   3.382
 2761SOL    HW2 9183   0.859   5.747   3.242
 2762SOL     OW 9184   1.454   6.803   5.583
 2762SOL    HW1 9185   1.477   6.811   5.486
 2762SOL    HW2 9186   1.524   6.748   5.629
 2763SOL     OW 9187   5.648   2.173   3.610
 2763SOL    HW1 9188   5.609   2.242   3.671
 2763SOL    HW2 9189   5.624   2.193   3.516
 2764SOL     OW 9190   5.650   6.826   1.182
 2764SOL    HW1 9191   5.608   6.803   1.094
 2764SOL    HW2 9192   5.656   6.743   1.238
 2765SOL     OW 9193   5.478   1.342   2.074
 2765SOL    HW1 9194   5.407   1.367   2.140
 2765SOL    HW2 9195   5.436   1.325   1.985
 2766SOL     OW 9196   5.508   1.509   1.224
 2766SOL    HW1 9197   5.411   1.507   1.247
 2766SOL    HW2 9198   5.532   1.425   1.175
 2767SOL     OW 9199   6.040   4.192   6.538
 2767SOL    HW1 9200   6.087   4.215   6.624
 2767SOL    HW2 9201   6.038   4.271   6.478
 2768SOL     OW 9202   5.261   1.057   0.144
 2768SOL    HW1 9203   5.231   1.150   0.166
 2768SOL    HW2 9204   5.330   1.060   0.072
 2769SOL     OW 9205   6.871   4.102   2.654
 2769SOL    HW1 9206   6.891   4.053   2.569
 2769SOL    HW2 9207   6.912   4.053   2.731
 2770SOL     OW 9208   1.482   5.419   1.262
 2770SOL    HW1 9209   1.530   5.428   1.174
 2770SOL    HW2 9210   1.393   5.465   1.256
 2771SOL     OW 9211   5.018   1.615   1.283
 2771SOL    HW1 9212   5.019   1.686   1.353
 2771SOL    HW2 9213   5.032   1.656   1.193
 2772SOL     OW 9214   4.521   2.737   0.166
 2772SOL    HW1 9215   4.504   2.676   0.244
 2772SOL    HW2 9216   4.491   2.693   0.082
 2773SOL     OW 9217   4.221   3.696   6.133
 2773SOL    HW1 9218   4.309   3.742   6.122
 2773SOL    HW2 9219   4.236   3.599   6.153
 2774SOL     OW 9220   5.627   2.381   2.290
 2774SOL    HW1 9221   5.531   2.364   2.269
 2774SOL    HW2 9222   5.680   2.383   2.205
 2775SOL     OW 9223   0.028   6.019   1.376
 2775SOL    HW1 9224   6.989   5.985   1.448
 2775SOL    HW2 9225   6.995   6.041   1.295
 2776SOL     OW 9226   3.742   5.762   5.520
 2776SOL    HW1 9227   3.786   5.777   5.609
 2776SOL    HW2 9228   3.755   5.842   5.462
 2777SOL     OW 9229   3.419   1.094   2.615
 2777SOL    HW1 9230   3.507   1.124   2.652
 2777SOL    HW2 9231   3.423   0.996   2.593
 2778SOL     OW 9232   2.017   1.604   5.533
 2778SOL    HW1 9233   1.984   1.603   5.438
 2778SOL    HW2 9234   2.084   1.531   5.546
 2779SOL     OW 9235   5.324   6.884   0.054
 2779SOL    HW1 9236   5.314   6.805   7.014
 2779SOL    HW2 9237   5.405   6.871   0.111
 2780SOL     OW 9238   5.346   5.323   6.142
 2780SOL    HW1 9239   5.442   5.299   6.155
 2780SOL    HW2 9240   5.332   5.420   6.163
 2781SOL     OW 9241   5.968   4.574   1.764
 2781SOL    HW1 9242   5.968   4.521   1.849
 2781SOL    HW2 9243   6.046   4.547   1.707
 2782SOL     OW 9244   2.830   2.811   6.368
 2782SOL    HW1 9245   2.906   2.772   6.317
 2782SOL    HW2 9246   2.744   2.771   6.336
 2783SOL     OW 9247   6.659   4.131   5.039
 2783SOL    HW1 9248   6.598   4.202   5.072
 2783SOL    HW2 9249   6.680   4.147   4.942
 2784SOL     OW 9250   2.282   2.638   1.362
 2784SOL    HW1 9251   2.221   2.650   1.284
 2784SOL    HW2 9252   2.311   2.727   1.397
 2785SOL     OW 9253   6.520   1.380   6.729
 2785SOL    HW1 9254   6.568   1.312   6.785
 2785SOL    HW2 9255   6.548   1.472   6.756
 2786SOL     OW 9256   3.887   6.358   0.782
 2786SOL    HW1 9257   3.969   6.377   0.728
 2786SOL    HW2 9258   3.894   6.266   0.821
 2787SOL     OW 9259   2.005   4.194   6.791
 2787SOL    HW1 9260   2.028   4.187   6.694
 2787SOL    HW2 9261   2.080   4.239   6.840
 2788SOL     OW 9262   2.275   4.206   0.429
 2788SOL    HW1 9263   2.244   4.224   0.335
 2788SOL    HW2 9264   2.365   4.163   0.426
 2789SOL     OW 9265   1.416   1.717   3.553
 2789SOL    HW1 9266   1.505   1.751   3.523
 2789SOL    HW2 9267   1.429   1.645   3.621
 2790SOL     OW 9268   3.359   5.124   3.368
 2790SOL    HW1 9269   3.372   5.185   3.289
 2790SOL    HW2 9270   3.415   5.157   3.445
 2791SOL     OW 9271   1.713   4.924   5.331
 2791SOL    HW1 9272   1.801   4.960   5.361
 2791SOL    HW2 9273   1.714   4.912   5.231
 2792SOL     OW 9274   1.160   0.366   5.132
 2792SOL    HW1 9275   1.158   0.431   5.209
 2792SOL    HW2 9276   1.117   0.280   5.159
 2793SOL     OW 9277   5.296   1.402   2.616
 2793SOL    HW1 9278   5.313   1.324   2.554
 2793SOL    HW2 9279   5.214   1.450   2.587
 2794SOL     OW 9280   0.311   2.446   0.344
 2794SOL    HW1 9281   0.305   2.513   0.270
 2794SOL    HW2 9282   0.377   2.478   0.412
 2795SOL     OW 9283   3.040   4.036   1.425
 2795SOL    HW1 9284   3.079   3.989   1.504
 2795SOL    HW2 9285   2.961   4.090   1.455
 2796SOL     OW 9286   6.340   4.041   2.397
 2796SOL    HW1 9287   6.263   4.091   2.358
 2796SOL    HW2 9288   6.422   4.058   2.341
 2797SOL     OW 9289   5.257   5.435   4.508
 2797SOL    HW1 9290   5.240   5.511   4.571
 2797SOL    HW2 9291   5.351   5.440   4.475
 2798SOL     OW 9292   0.855   3.793   3.013
 2798SOL    HW1 9293   0.764   3.831   3.031
 2798SOL    HW2 9294   0.903   3.851   2.948
 2799SOL     OW 9295   0.051   5.964   6.569
 2799SOL    HW1 9296   0.065   6.050   6.617
 2799SOL    HW2 9297   0.049   5.889   6.635
 2800SOL     OW 9298   4.089   5.040   6.853
 2800SOL    HW1 9299   3.995   5.061   6.822
 2800SOL    HW2 9300   4.138   5.126   6.866
 2801SOL     OW 9301   4.294   5.436   2.671
 2801SOL    HW1 9302   4.296   5.449   2.770
 2801SOL    HW2 9303   4.229   5.500   2.631
 2802SOL     OW 9304   3.847   1.969   6.117
 2802SOL    HW1 9305   3.779   2.042   6.126
 2802SOL    HW2 9306   3.937   2.010   6.100
 2803SOL     OW 9307   2.258   5.849   5.880
 2803SOL    HW1 9308   2.281   5.941   5.848
 2803SOL    HW2 9309   2.181   5.853   5.943
 2804SOL     OW 9310   6.977   4.556   3.446
 2804SOL    HW1 9311   6.920   4.611   3.506
 2804SOL    HW2 9312   0.002   4.485   3.500
 2805SOL     OW 9313   4.880   3.295   1.329
 2805SOL    HW1 9314   4.813   3.246   1.385
 2805SOL    HW2 9315   4.971   3.285   1.369
 2806SOL     OW 9316   5.665   5.233   2.875
 2806SOL    HW1 9317   5.740   5.171   2.897
 2806SOL    HW2 9318   5.606   5.192   2.805
 2807SOL     OW 9319   4.541   4.706   3.759
 2807SOL    HW1 9320   4.526   4.612   3.729
 2807SOL    HW2 9321   4.604   4.706   3.837
 2808SOL     OW 9322   5.195   1.519   3.281
 2808SOL    HW1 9323   5.224   1.583   3.352
 2808SOL    HW2 9324   5.204   1.562   3.191
 2809SOL     OW 9325   5.909   2.794   1.106
 2809SOL    HW1 9326   5.952   2.726   1.166
 2809SOL    HW2 9327   5.905   2.757   1.013
 2810SOL     OW 9328   3.208   6.547   4.960
 2810SOL    HW1 9329   3.271   6.603   5.015
 2810SOL    HW2 9330   3.216   6.452   4.987
 2811SOL     OW 9331   0.906   1.039   2.720
 2811SOL    HW1 9332   1.003   1.059   2.704
 2811SOL    HW2 9333   0.875   0.970   2.655
 2812SOL     OW 9334   5.100   3.264   2.342
 2812SOL    HW1 9335   5.044   3.324   2.285
 2812SOL    HW2 9336   5.123   3.181   2.291
 2813SOL     OW 9337   5.885   6.400   5.747
 2813SOL    HW1 9338   5.843   6.482   5.786
 2813SOL    HW2 9339   5.899   6.412   5.649
 2814SOL     OW 9340   3.863   4.276   5.795
 2814SOL    HW1 9341   3.864   4.370   5.829
 2814SOL    HW2 9342   3.924   4.268   5.716
 2815SOL     OW 9343   6.395   0.905   4.514
 2815SOL    HW1 9344   6.345   0.828   4.474
 2815SOL    HW2 9345   6.348   0.935   4.597
 2816SOL     OW 9346   6.036   6.720   3.600
 2816SOL    HW1 9347   6.084   6.659   3.664
 2816SOL    HW2 9348   5.959   6.672   3.560
 2817SOL     OW 9349   1.703   0.693   1.518
 2817SOL    HW1 9350   1.691   0.767   1.584
 2817SOL    HW2 9351   1.788   0.644   1.537
 2818SOL     OW 9352   6.651   5.100   6.563
 2818SOL    HW1 9353   6.712   5.025   6.589
 2818SOL    HW2 9354   6.687   5.186   6.600
 2819SOL     OW 9355   0.226   2.307   0.752
 2819SOL    HW1 9356   0.307   2.360   0.776
 2819SOL    HW2 9357   0.144   2.358   0.776
 2820SOL     OW 9358   0.199   2.422   2.281
 2820SOL    HW1 9359   0.246   2.508   2.302
 2820SOL    HW2 9360   0.266   2.354   2.251
 2821SOL     OW 9361   2.505   4.009   6.277
 2821SOL    HW1 9362   2.591   3.980   6.319
 2821SOL    HW2 9363   2.453   3.928   6.250
 2822SOL     OW 9364   4.429   2.692   6.939
 2822SOL    HW1 9365   4.368   2.756   6.986
 2822SOL    HW2 9366   4.380   2.652   6.861
 2823SOL     OW 9367   2.592   6.626   1.903
 2823SOL    HW1 9368   2.610   6.548   1.964
 2823SOL    HW2 9369   2.547   6.699   1.955
 2824SOL     OW 9370   2.277   1.459   5.014
 2824SOL    HW1 9371   2.353   1.482   5.076
 2824SOL    HW2 9372   2.244   1.367   5.036
 2825SOL     OW 9373   0.210   6.909   0.771
 2825SOL    HW1 9374   0.221   6.874   0.864
 2825SOL    HW2 9375   0.245   6.842   0.705
 2826SOL     OW 9376   5.395   1.863   5.549
 2826SOL    HW1 9377   5.378   1.780   5.602
 2826SOL    HW2 9378   5.389   1.943   5.608
 2827SOL     OW 9379   6.846   1.464   4.888
 2827SOL    HW1 9380   6.803   1.387   4.841
 2827SOL    HW2 9381   6.775   1.527   4.921
 2828SOL     OW 9382   3.831   0.970   6.208
 2828SOL    HW1 9383   3.828   1.042   6.139
 2828SOL    HW2 9384   3.830   0.880   6.164
 2829SOL     OW 9385   3.704   4.901   6.280
 2829SOL    HW1 9386   3.616   4.882   6.237
 2829SOL    HW2 9387   3.751   4.974   6.229
 2830SOL     OW 9388   5.858   3.907   6.217
 2830SOL    HW1 9389   5.950   3.876   6.195
 2830SOL    HW2 9390   5.855   3.938   6.312
 2831SOL     OW 9391   6.010   6.178   4.508
 2831SOL    HW1 9392   6.053   6.136   4.587
 2831SOL    HW2 9393   6.080   6.215   4.447
 2832SOL     OW 9394   0.259   1.635   1.621
 2832SOL    HW1 9395   0.330   1.570   1.651
 2832SOL    HW2 9396   0.196   1.589   1.559
 2833SOL     OW 9397   5.927   1.958   2.054
 2833SOL    HW1 9398   5.887   1.924   2.139
 2833SOL    HW2 9399   5.856   2.005   2.001
 2834SOL     OW 9400   2.998   1.404   6.376
 2834SOL    HW1 9401   2.906   1.442   6.364
 2834SOL    HW2 9402   2.997   1.336   6.449
 2835SOL     OW 9403   0.125   0.088   1.974
 2835SOL    HW1 9404   0.115   0.170   2.031
 2835SOL    HW2 9405   0.119   0.115   1.877
 2836SOL     OW 9406   6.918   0.122   1.729
 2836SOL    HW1 9407   6.850   0.194   1.717
 2836SOL    HW2 9408   7.009   0.162   1.730
 2837SOL     OW 9409   5.147   3.148   3.037
 2837SOL    HW1 9410   5.155   3.108   2.946
 2837SOL    HW2 9411   5.055   3.133   3.072
 2838SOL     OW 9412   2.265   4.566   1.832
 2838SOL    HW1 9413   2.297   4.559   1.737
 2838SOL    HW2 9414   2.344   4.562   1.893
 2839SOL     OW 9415   5.510   1.002   2.558
 2839SOL    HW1 9416   5.551   0.966   2.475
 2839SOL    HW2 9417   5.460   0.930   2.606
 2840SOL     OW 9418   0.555   1.230   5.245
 2840SOL    HW1 9419   0.504   1.240   5.330
 2840SOL    HW2 9420   0.579   1.134   5.232
 2841SOL     OW 9421   0.826   6.477   0.044
 2841SOL    HW1 9422   0.803   6.485   0.141
 2841SOL    HW2 9423   0.912   6.427   0.034
 2842SOL     OW 9424   0.013   2.754   3.781
 2842SOL    HW1 9425   7.007   2.735   3.687
 2842SOL    HW2 9426   0.066   2.677   3.816
 2843SOL     OW 9427   3.534   1.401   4.245
 2843SOL    HW1 9428   3.488   1.360   4.166
 2843SOL    HW2 9429   3.501   1.358   4.328
 2844SOL     OW 9430   0.951   4.039   0.009
 2844SOL    HW1 9431   1.031   4.067   0.063
 2844SOL    HW2 9432   0.869   4.083   0.046
 2845SOL     OW 9433   1.011   3.894   0.444
 2845SOL    HW1 9434   1.038   3.976   0.394
 2845SOL    HW2 9435   1.087   3.829   0.447
 2846SOL     OW 9436   5.178   1.299   6.899
 2846SOL    HW1 9437   5.162   1.212   6.851
 2846SOL    HW2 9438   5.111   1.366   6.868
 2847SOL     OW 9439   5.531   3.915   3.238
 2847SOL    HW1 9440   5.506   4.011   3.226
 2847SOL    HW2 9441   5.524   3.868   3.150
 2848SOL     OW 9442   0.326   4.433   5.207
 2848SOL    HW1 9443   0.373   4.518   5.183
 2848SOL    HW2 9444   0.329   4.370   5.130
 2849SOL     OW 9445   3.375   1.050   0.760
 2849SOL    HW1 9446   3.344   1.120   0.825
 2849SOL    HW2 9447   3.455   1.003   0.797
 2850SOL     OW 9448   3.457   0.565   1.343
 2850SOL    HW1 9449   3.390   0.592   1.412
 2850SOL    HW2 9450   3.471   0.466   1.348
 2851SOL     OW 9451   1.351   4.874   5.150
 2851SOL    HW1 9452   1.301   4.894   5.234
 2851SOL    HW2 9453   1.427   4.812   5.170
 2852SOL     OW 9454   5.889   3.957   6.764
 2852SOL    HW1 9455   5.880   4.008   6.849
 2852SOL    HW2 9456   5.986   3.938   6.747
 2853SOL     OW 9457   3.317   2.526   0.406
 2853SOL    HW1 9458   3.309   2.623   0.429
 2853SOL    HW2 9459   3.328   2.473   0.489
 2854SOL     OW 9460   2.693   1.078   4.258
 2854SOL    HW1 9461   2.664   0.986   4.285
 2854SOL    HW2 9462   2.643   1.106   4.176
 2855SOL     OW 9463   2.128   0.528   5.969
 2855SOL    HW1 9464   2.087   0.616   5.993
 2855SOL    HW2 9465   2.192   0.540   5.893
 2856SOL     OW 9466   2.678   2.906   5.999
 2856SOL    HW1 9467   2.703   2.942   6.089
 2856SOL    HW2 9468   2.690   2.978   5.930
 2857SOL     OW 9469   2.908   1.825   1.685
 2857SOL    HW1 9470   2.879   1.892   1.753
 2857SOL    HW2 9471   3.002   1.796   1.704
 2858SOL     OW 9472   6.444   2.683   2.246
 2858SOL    HW1 9473   6.459   2.732   2.331
 2858SOL    HW2 9474   6.390   2.739   2.184
 2859SOL     OW 9475   4.628   1.008   0.887
 2859SOL    HW1 9476   4.687   0.933   0.857
 2859SOL    HW2 9477   4.554   1.021   0.820
 2860SOL     OW 9478   4.521   1.680   1.710
 2860SOL    HW1 9479   4.613   1.674   1.749
 2860SOL    HW2 9480   4.468   1.747   1.762
 2861SOL     OW 9481   4.692   5.660   5.573
 2861SOL    HW1 9482   4.601   5.690   5.601
 2861SOL    HW2 9483   4.727   5.595   5.641
 2862SOL     OW 9484   5.686   1.885   3.606
 2862SOL    HW1 9485   5.738   1.823   3.664
 2862SOL    HW2 9486   5.675   1.973   3.652
 2863SOL     OW 9487   6.191   1.732   0.164
 2863SOL    HW1 9488   6.102   1.736   0.117
 2863SOL    HW2 9489   6.264   1.728   0.096
 2864SOL     OW 9490   3.639   0.356   0.994
 2864SOL    HW1 9491   3.711   0.424   0.984
 2864SOL    HW2 9492   3.550   0.400   0.986
 2865SOL     OW 9493   4.611   4.415   5.161
 2865SOL    HW1 9494   4.672   4.387   5.235
 2865SOL    HW2 9495   4.622   4.352   5.084
 2866SOL     OW 9496   6.488   6.606   6.706
 2866SOL    HW1 9497   6.497   6.704   6.723
 2866SOL    HW2 9498   6.497   6.588   6.608
 2867SOL     OW 9499   6.113   4.198   2.317
 2867SOL    HW1 9500   6.089   4.267   2.387
 2867SOL    HW2 9501   6.030   4.168   2.270
 2868SOL     OW 9502   0.803   3.571   5.551
 2868SOL    HW1 9503   0.824   3.526   5.638
 2868SOL    HW2 9504   0.802   3.503   5.477
 2869SOL     OW 9505   6.410   0.724   2.337
 2869SOL    HW1 9506   6.318   0.688   2.348
 2869SOL    HW2 9507   6.406   0.823   2.322
 2870SOL     OW 9508   6.447   1.614   3.790
 2870SOL    HW1 9509   6.518   1.544   3.795
 2870SOL    HW2 9510   6.488   1.701   3.761
 2871SOL     OW 9511   1.860   1.742   6.620
 2871SOL    HW1 9512   1.950   1.783   6.611
 2871SOL    HW2 9513   1.847   1.672   6.549
 2872SOL     OW 9514   2.976   1.512   4.025
 2872SOL    HW1 9515   3.006   1.606   4.006
 2872SOL    HW2 9516   2.919   1.512   4.107
 2873SOL     OW 9517   0.591   5.951   2.718
 2873SOL    HW1 9518   0.591   5.947   2.817
 2873SOL    HW2 9519   0.497   5.953   2.684
 2874SOL     OW 9520   5.385   4.290   2.223
 2874SOL    HW1 9521   5.322   4.303   2.146
 2874SOL    HW2 9522   5.343   4.323   2.307
 2875SOL     OW 9523   3.844   6.320   6.355
 2875SOL    HW1 9524   3.812   6.340   6.262
 2875SOL    HW2 9525   3.883   6.228   6.358
 2876SOL     OW 9526   0.685   1.179   1.861
 2876SOL    HW1 9527   0.774   1.135   1.874
 2876SOL    HW2 9528   0.633   1.129   1.791
 2877SOL     OW 9529   3.344   2.887   5.419
 2877SOL    HW1 9530   3.364   2.812   5.355
 2877SOL    HW2 9531   3.387   2.971   5.385
 2878SOL     OW 9532   2.849   5.182   5.072
 2878SOL    HW1 9533   2.934   5.178   5.020
 2878SOL    HW2 9534   2.858   5.127   5.155
 2879SOL     OW 9535   5.101   5.154   0.356
 2879SOL    HW1 9536   5.037   5.229   0.341
 2879SOL    HW2 9537   5.195   5.190   0.359
 2880SOL     OW 9538   6.882   6.568   0.560
 2880SOL    HW1 9539   6.784   6.579   0.576
 2880SOL    HW2 9540   6.925   6.527   0.641
 2881SOL     OW 9541   6.912   6.363   1.225
 2881SOL    HW1 9542   6.937   6.285   1.168
 2881SOL    HW2 9543   6.849   6.334   1.297
 2882SOL     OW 9544   1.070   3.462   2.574
 2882SOL    HW1 9545   1.077   3.371   2.535
 2882SOL    HW2 9546   1.041   3.527   2.503
 2883SOL     OW 9547   3.429   6.909   3.626
 2883SOL    HW1 9548   3.392   6.958   3.546
 2883SOL    HW2 9549   3.361   6.911   3.700
 2884SOL     OW 9550   0.343   6.907   3.441
 2884SOL    HW1 9551   0.370   6.860   3.357
 2884SOL    HW2 9552   0.368   7.004   3.433
 2885SOL     OW 9553   0.418   2.312   3.240
 2885SOL    HW1 9554   0.382   2.235   3.293
 2885SOL    HW2 9555   0.506   2.340   3.277
 2886SOL     OW 9556   2.376   2.755   6.755
 2886SOL    HW1 9557   2.424   2.820   6.697
 2886SOL    HW2 9558   2.433   2.733   6.834
 2887SOL     OW 9559   2.738   6.610   5.179
 2887SOL    HW1 9560   2.692   6.522   5.195
 2887SOL    HW2 9561   2.810   6.598   5.111
 2888SOL     OW 9562   0.067   5.102   6.323
 2888SOL    HW1 9563   0.087   5.198   6.303
 2888SOL    HW2 9564   6.993   5.083   6.302
 2889SOL     OW 9565   1.721   0.938   1.689
 2889SOL    HW1 9566   1.710   0.967   1.784
 2889SOL    HW2 9567   1.814   0.959   1.659
 2890SOL     OW 9568   3.613   0.288   1.559
 2890SOL    HW1 9569   3.583   0.265   1.467
 2890SOL    HW2 9570   3.713   0.289   1.562
 2891SOL     OW 9571   2.108   4.776   3.536
 2891SOL    HW1 9572   2.037   4.731   3.482
 2891SOL    HW2 9573   2.067   4.850   3.590
 2892SOL     OW 9574   4.416   4.168   6.598
 2892SOL    HW1 9575   4.489   4.200   6.537
 2892SOL    HW2 9576   4.337   4.139   6.544
 2893SOL     OW 9577   2.227   6.398   5.766
 2893SOL    HW1 9578   2.275   6.437   5.844
 2893SOL    HW2 9579   2.213   6.469   5.697
 2894SOL     OW 9580   2.579   2.674   6.954
 2894SOL    HW1 9581   2.676   2.676   6.930
 2894SOL    HW2 9582   2.569   2.656   0.031
 2895SOL     OW 9583   3.700   3.170   6.462
 2895SOL    HW1 9584   3.650   3.089   6.493
 2895SOL    HW2 9585   3.790   3.142   6.427
 2896SOL     OW 9586   2.592   5.572   6.851
 2896SOL    HW1 9587   2.630   5.509   6.919
 2896SOL    HW2 9588   2.664   5.631   6.815
 2897SOL     OW 9589   2.318   6.905   3.864
 2897SOL    HW1 9590   2.239   6.944   3.817
 2897SOL    HW2 9591   2.287   6.846   3.938
 2898SOL     OW 9592   4.528   5.289   2.729
 2898SOL    HW1 9593   4.602   5.356   2.718
 2898SOL    HW2 9594   4.445   5.325   2.686
 2899SOL     OW 9595   0.226   0.565   6.601
 2899SOL    HW1 9596   0.255   0.623   6.525
 2899SOL    HW2 9597   0.126   0.560   6.602
 2900SOL     OW 9598   1.018   4.704   5.697
 2900SOL    HW1 9599   0.936   4.669   5.652
 2900SOL    HW2 9600   0.998   4.719   5.794
 2901SOL     OW 9601   2.356   0.430   2.257
 2901SOL    HW1 9602   2.354   0.382   2.344
 2901SOL    HW2 9603   2.451   0.436   2.225
 2902SOL     OW 9604   5.451   6.367   0.601
 2902SOL    HW1 9605   5.362   6.394   0.566
 2902SOL    HW2 9606   5.517   6.362   0.526
 2903SOL     OW 9607   3.360   0.561   2.211
 2903SOL    HW1 9608   3.362   0.659   2.229
 2903SOL    HW2 9609   3.451   0.528   2.187
 2904SOL     OW 9610   2.465   3.261   5.338
 2904SOL    HW1 9611   2.505   3.174   5.308
 2904SOL    HW2 9612   2.388   3.284   5.279
 2905SOL     OW 9613   1.855   1.054   2.582
 2905SOL    HW1 9614   1.836   1.143   2.623
 2905SOL    HW2 9615   1.888   1.066   2.489
 2906SOL     OW 9616   5.359   5.031   1.563
 2906SOL    HW1 9617   5.282   5.027   1.627
 2906SOL    HW2 9618   5.438   4.984   1.602
 2907SOL     OW 9619   6.640   1.654   4.928
 2907SOL    HW1 9620   6.554   1.626   4.971
 2907SOL    HW2 9621   6.637   1.752   4.910
 2908SOL     OW 9622   3.640   6.444   4.115
 2908SOL    HW1 9623   3.574   6.472   4.045
 2908SOL    HW2 9624   3.606   6.362   4.161
 2909SOL     OW 9625   0.456   5.205   4.418
 2909SOL    HW1 9626   0.504   5.238   4.499
 2909SOL    HW2 9627   0.466   5.106   4.410
 2910SOL     OW 9628   3.591   6.251   5.055
 2910SOL    HW1 9629   3.672   6.309   5.069
 2910SOL    HW2 9630   3.594   6.211   4.963
 2911SOL     OW 9631   2.417   5.048   3.462
 2911SOL    HW1 9632   2.384   4.962   3.424
 2911SOL    HW2 9633   2.341   5.112   3.471
 2912SOL     OW 9634   2.614   6.409   0.387
 2912SOL    HW1 9635   2.701   6.458   0.390
 2912SOL    HW2 9636   2.574   6.406   0.479
 2913SOL     OW 9637   1.951   4.075   2.456
 2913SOL    HW1 9638   1.963   4.155   2.514
 2913SOL    HW2 9639   2.033   4.018   2.461
 2914SOL     OW 9640   5.902   4.767   5.969
 2914SOL    HW1 9641   5.903   4.668   5.952
 2914SOL    HW2 9642   5.954   4.813   5.898
 2915SOL     OW 9643   4.578   1.418   4.043
 2915SOL    HW1 9644   4.673   1.403   4.071
 2915SOL    HW2 9645   4.573   1.496   3.980
 2916SOL     OW 9646   6.306   4.496   5.756
 2916SOL    HW1 9647   6.357   4.457   5.833
 2916SOL    HW2 9648   6.310   4.434   5.678
 2917SOL     OW 9649   3.800   0.049   0.721
 2917SOL    HW1 9650   3.774   0.140   0.690
 2917SOL    HW2 9651   3.805   0.048   0.821
 2918SOL     OW 9652   6.955   3.586   3.379
 2918SOL    HW1 9653   0.026   3.563   3.348
 2918SOL    HW2 9654   6.891   3.579   3.302
 2919SOL     OW 9655   6.066   6.999   0.580
 2919SOL    HW1 9656   6.092   0.074   0.568
 2919SOL    HW2 9657   6.021   6.987   0.668
 2920SOL     OW 9658   3.596   2.065   2.740
 2920SOL    HW1 9659   3.644   2.063   2.653
 2920SOL    HW2 9660   3.653   2.108   2.810
 2921SOL     OW 9661   0.226   1.655   2.415
 2921SOL    HW1 9662   0.256   1.577   2.469
 2921SOL    HW2 9663   0.305   1.694   2.367
 2922SOL     OW 9664   5.896   6.592   6.296
 2922SOL    HW1 9665   5.838   6.590   6.215
 2922SOL    HW2 9666   5.977   6.537   6.280
 2923SOL     OW 9667   6.574   5.632   2.708
 2923SOL    HW1 9668   6.565   5.593   2.617
 2923SOL    HW2 9669   6.662   5.680   2.716
 2924SOL     OW 9670   1.033   1.606   6.099
 2924SOL    HW1 9671   1.132   1.591   6.103
 2924SOL    HW2 9672   0.986   1.525   6.136
 2925SOL     OW 9673   5.810   1.844   2.585
 2925SOL    HW1 9674   5.848   1.793   2.662
 2925SOL    HW2 9675   5.720   1.807   2.562
 2926SOL     OW 9676   0.049   1.524   4.768
 2926SOL    HW1 9677   0.041   1.620   4.743
 2926SOL    HW2 9678   6.987   1.494   4.815
 2927SOL     OW 9679   1.349   2.745   2.239
 2927SOL    HW1 9680   1.259   2.703   2.226
 2927SOL    HW2 9681   1.404   2.688   2.300
 2928SOL     OW 9682   6.861   1.024   6.900
 2928SOL    HW1 9683   6.779   1.072   6.867
 2928SOL    HW2 9684   6.907   1.079   6.969
 2929SOL     OW 9685   0.358   0.931   6.084
 2929SOL    HW1 9686   0.269   0.931   6.129
 2929SOL    HW2 9687   0.423   0.879   6.140
 2930SOL     OW 9688   5.033   6.903   4.387
 2930SOL    HW1 9689   4.935   6.898   4.366
 2930SOL    HW2 9690   5.046   6.903   4.486
 2931SOL     OW 9691   5.044   5.579   6.254
 2931SOL    HW1 9692   5.142   5.596   6.247
 2931SOL    HW2 9693   5.023   5.488   6.216
 2932SOL     OW 9694   1.845   4.532   1.846
 2932SOL    HW1 9695   1.765   4.516   1.903
 2932SOL    HW2 9696   1.818   4.538   1.750
 2933SOL     OW 9697   5.636   2.300   4.093
 2933SOL    HW1 9698   5.588   2.319   4.178
 2933SOL    HW2 9699   5.575   2.251   4.030
 2934SOL     OW 9700   3.636   6.776   0.777
 2934SOL    HW1 9701   3.582   6.843   0.726
 2934SOL    HW2 9702   3.673   6.819   0.859
 2935SOL     OW 9703   6.450   3.558   1.433
 2935SOL    HW1 9704   6.378   3.579   1.499
 2935SOL    HW2 9705   6.492   3.470   1.455
 2936SOL     OW 9706   4.944   5.897   1.076
 2936SOL    HW1 9707   4.983   5.831   1.012
 2936SOL    HW2 9708   4.938   5.987   1.032
 2937SOL     OW 9709   3.077   5.392   0.771
 2937SOL    HW1 9710   3.013   5.368   0.843
 2937SOL    HW2 9711   3.042   5.359   0.683
 2938SOL     OW 9712   4.695   4.822   5.302
 2938SOL    HW1 9713   4.704   4.783   5.210
 2938SOL    HW2 9714   4.648   4.910   5.296
 2939SOL     OW 9715   6.199   0.035   4.553
 2939SOL    HW1 9716   6.234   6.968   4.520
 2939SOL    HW2 9717   6.099   0.031   4.558
 2940SOL     OW 9718   6.006   6.555   5.472
 2940SOL    HW1 9719   6.016   6.617   5.394
 2940SOL    HW2 9720   6.052   6.593   5.552
 2941SOL     OW 9721   1.853   2.061   5.773
 2941SOL    HW1 9722   1.884   2.128   5.705
 2941SOL    HW2 9723   1.822   2.108   5.855
 2942SOL     OW 9724   3.272   0.391   2.417
 2942SOL    HW1 9725   3.296   0.473   2.365
 2942SOL    HW2 9726   3.192   0.348   2.376
 2943SOL     OW 9727   5.552   3.228   2.430
 2943SOL    HW1 9728   5.457   3.255   2.416
 2943SOL    HW2 9729   5.555   3.136   2.468
 2944SOL     OW 9730   3.025   5.281   5.746
 2944SOL    HW1 9731   2.980   5.352   5.800
 2944SOL    HW2 9732   3.085   5.227   5.804
 2945SOL     OW 9733   3.666   3.604   2.828
 2945SOL    HW1 9734   3.622   3.690   2.802
 2945SOL    HW2 9735   3.738   3.622   2.895
 2946SOL     OW 9736   6.753   6.116   5.546
 2946SOL    HW1 9737   6.710   6.169   5.619
 2946SOL    HW2 9738   6.842   6.156   5.524
 2947SOL     OW 9739   6.883   3.860   6.240
 2947SOL    HW1 9740   6.823   3.787   6.272
 2947SOL    HW2 9741   6.844   3.903   6.159
 2948SOL     OW 9742   6.339   3.507   5.638
 2948SOL    HW1 9743   6.243   3.519   5.613
 2948SOL    HW2 9744   6.345   3.451   5.721
 2949SOL     OW 9745   1.758   6.528   1.217
 2949SOL    HW1 9746   1.683   6.570   1.268
 2949SOL    HW2 9747   1.781   6.439   1.256
 2950SOL     OW 9748   5.458   3.686   4.036
 2950SOL    HW1 9749   5.404   3.680   4.121
 2950SOL    HW2 9750   5.555   3.675   4.058
 2951SOL     OW 9751   6.798   2.192   0.336
 2951SOL    HW1 9752   6.885   2.241   0.348
 2951SOL    HW2 9753   6.814   2.094   0.348
 2952SOL     OW 9754   0.967   4.799   3.120
 2952SOL    HW1 9755   1.061   4.816   3.148
 2952SOL    HW2 9756   0.949   4.701   3.125
 2953SOL     OW 9757   5.076   2.710   2.163
 2953SOL    HW1 9758   5.114   2.770   2.093
 2953SOL    HW2 9759   5.050   2.622   2.121
 2954SOL     OW 9760   0.600   6.327   1.922
 2954SOL    HW1 9761   0.547   6.260   1.871
 2954SOL    HW2 9762   0.537   6.395   1.962
 2955SOL     OW 9763   0.737   3.236   0.481
 2955SOL    HW1 9764   0.722   3.200   0.573
 2955SOL    HW2 9765   0.652   3.232   0.429
 2956SOL     OW 9766   0.517   5.959   2.986
 2956SOL    HW1 9767   0.570   6.010   3.054
 2956SOL    HW2 9768   0.420   5.985   2.993
 2957SOL     OW 9769   0.526   3.838   0.487
 2957SOL    HW1 9770   0.622   3.830   0.513
 2957SOL    HW2 9771   0.495   3.751   0.449
 2958SOL     OW 9772   1.965   4.254   5.812
 2958SOL    HW1 9773   2.016   4.246   5.898
 2958SOL    HW2 9774   2.010   4.321   5.753
 2959SOL     OW 9775   5.607   4.705   6.074
 2959SOL    HW1 9776   5.631   4.765   5.998
 2959SOL    HW2 9777   5.531   4.646   6.047
 2960SOL     OW 9778   3.199   1.283   0.275
 2960SOL    HW1 9779   3.136   1.360   0.290
 2960SOL    HW2 9780   3.264   1.279   0.350
 2961SOL     OW 9781   5.338   3.198   4.959
 2961SOL    HW1 9782   5.272   3.146   5.013
 2961SOL    HW2 9783   5.421   3.213   5.014
 2962SOL     OW 9784   4.600   1.307   3.633
 2962SOL    HW1 9785   4.671   1.310   3.563
 2962SOL    HW2 9786   4.601   1.218   3.678
 2963SOL     OW 9787   1.956   1.813   5.707
 2963SOL    HW1 9788   1.928   1.908   5.695
 2963SOL    HW2 9789   1.952   1.765   5.620
 2964SOL     OW 9790   1.790   0.279   2.139
 2964SOL    HW1 9791   1.843   0.362   2.157
 2964SOL    HW2 9792   1.843   0.199   2.169
 2965SOL     OW 9793   0.290   0.903   5.127
 2965SOL    HW1 9794   0.218   0.972   5.120
 2965SOL    HW2 9795   0.326   0.902   5.220
 2966SOL     OW 9796   5.407   4.442   3.413
 2966SOL    HW1 9797   5.376   4.532   3.442
 2966SOL    HW2 9798   5.337   4.400   3.354
 2967SOL     OW 9799   6.219   2.540   3.640
 2967SOL    HW1 9800   6.287   2.588   3.584
 2967SOL    HW2 9801   6.128   2.578   3.621
 2968SOL     OW 9802   0.841   3.917   5.273
 2968SOL    HW1 9803   0.803   4.010   5.268
 2968SOL    HW2 9804   0.854   3.893   5.369
 2969SOL     OW 9805   5.679   2.028   4.967
 2969SOL    HW1 9806   5.615   1.963   4.926
 2969SOL    HW2 9807   5.758   1.979   5.003
 2970SOL     OW 9808   1.371   4.526   6.728
 2970SOL    HW1 9809   1.360   4.571   6.639
 2970SOL    HW2 9810   1.356   4.428   6.717
 2971SOL     OW 9811   5.900   3.196   3.663
 2971SOL    HW1 9812   5.997   3.198   3.642
 2971SOL    HW2 9813   5.881   3.121   3.726
 2972SOL     OW 9814   6.676   3.845   6.803
 2972SOL    HW1 9815   6.628   3.760   6.819
 2972SOL    HW2 9816   6.748   3.831   6.735
 2973SOL     OW 9817   5.398   0.259   3.977
 2973SOL    HW1 9818   5.310   0.282   3.935
 2973SOL    HW2 9819   5.384   0.196   4.053
 2974SOL     OW 9820   5.452   4.088   2.907
 2974SOL    HW1 9821   5.523   4.080   2.837
 2974SOL    HW2 9822   5.403   4.001   2.915
 2975SOL     OW 9823   0.702   1.734   5.227
 2975SOL    HW1 9824   0.701   1.635   5.215
 2975SOL    HW2 9825   0.730   1.778   5.142
 2976SOL     OW 9826   4.154   1.156   3.114
 2976SOL    HW1 9827   4.132   1.238   3.166
 2976SOL    HW2 9828   4.070   1.108   3.089
 2977SOL     OW 9829   2.668   0.210   4.259
 2977SOL    HW1 9830   2.583   0.159   4.271
 2977SOL    HW2 9831   2.732   0.184   4.331
 2978SOL     OW 9832   4.537   5.180   0.352
 2978SOL    HW1 9833   4.604   5.106   0.343
 2978SOL    HW2 9834   4.451   5.144   0.389
 2979SOL     OW 9835   3.565   0.478   3.674
 2979SOL    HW1 9836   3.658   0.444   3.692
 2979SOL    HW2 9837   3.508   0.402   3.642
 2980SOL     OW 9838   0.902   6.522   4.339
 2980SOL    HW1 9839   0.964   6.443   4.345
 2980SOL    HW2 9840   0.817   6.501   4.387
 2981SOL     OW 9841   1.273   0.687   5.867
 2981SOL    HW1 9842   1.252   0.778   5.831
 2981SOL    HW2 9843   1.358   0.653   5.825
 2982SOL     OW 9844   3.906   6.310   3.029
 2982SOL    HW1 9845   3.942   6.388   2.978
 2982SOL    HW2 9846   3.919   6.226   2.975
 2983SOL     OW 9847   0.300   1.049   4.146
 2983SOL    HW1 9848   0.267   0.955   4.156
 2983SOL    HW2 9849   0.370   1.052   4.076
 2984SOL     OW 9850   6.181   5.437   1.325
 2984SOL    HW1 9851   6.260   5.493   1.347
 2984SOL    HW2 9852   6.134   5.410   1.410
 2985SOL     OW 9853   0.768   1.908   4.315
 2985SOL    HW1 9854   0.740   1.948   4.403
 2985SOL    HW2 9855   0.866   1.889   4.316
 2986SOL     OW 9856   2.341   4.252   5.604
 2986SOL    HW1 9857   2.312   4.164   5.640
 2986SOL    HW2 9858   2.404   4.238   5.527
 2987SOL     OW 9859   5.004   0.927   4.314
 2987SOL    HW1 9860   4.970   0.952   4.405
 2987SOL    HW2 9861   4.932   0.878   4.264
 2988SOL     OW 9862   1.105   0.728   2.267
 2988SOL    HW1 9863   1.195   0.696   2.298
 2988SOL    HW2 9864   1.047   0.649   2.246
 2989SOL     OW 9865   6.449   5.322   1.110
 2989SOL    HW1 9866   6.497   5.248   1.157
 2989SOL    HW2 9867   6.511   5.401   1.101
 2990SOL     OW 9868   3.804   0.609   3.000
 2990SOL    HW1 9869   3.881   0.603   2.938
 2990SOL    HW2 9870   3.833   0.581   3.092
 2991SOL     OW 9871   0.102   4.070   0.510
 2991SOL    HW1 9872   0.031   4.055   0.578
 2991SOL    HW2 9873   0.166   3.993   0.511
 2992SOL     OW 9874   3.041   5.648   6.384
 2992SOL    HW1 9875   3.026   5.569   6.443
 2992SOL    HW2 9876   2.959   5.666   6.330
 2993SOL     OW 9877   2.111   4.391   2.276
 2993SOL    HW1 9878   2.023   4.406   2.323
 2993SOL    HW2 9879   2.138   4.476   2.230
 2994SOL     OW 9880   4.968   6.941   6.874
 2994SOL    HW1 9881   4.974   6.843   6.853
 2994SOL    HW2 9882   4.895   6.982   6.820
 2995SOL     OW 9883   1.260   1.867   0.194
 2995SOL    HW1 9884   1.216   1.906   0.275
 2995SOL    HW2 9885   1.220   1.907   0.112
 2996SOL     OW 9886   2.891   5.763   4.908
 2996SOL    HW1 9887   2.858   5.701   4.979
 2996SOL    HW2 9888   2.950   5.833   4.948
 2997SOL     OW 9889   5.099   6.073   1.975
 2997SOL    HW1 9890   5.145   6.009   2.036
 2997SOL    HW2 9891   5.163   6.105   1.906
 2998SOL     OW 9892   4.859   6.222   4.365
 2998SOL    HW1 9893   4.943   6.184   4.328
 2998SOL    HW2 9894   4.804   6.150   4.406
 2999SOL     OW 9895   3.270   6.021   3.481
 2999SOL    HW1 9896   3.188   6.076   3.498
 2999SOL    HW2 9897   3.245   5.924   3.481
 3000SOL     OW 9898   1.573   3.279   5.667
 3000SOL    HW1 9899   1.490   3.224   5.656
 3000SOL    HW2 9900   1.651   3.219   5.686
 3001SOL     OW 9901   4.872   0.161   6.436
 3001SOL    HW1 9902   4.778   0.181   6.409
 3001SOL    HW2 9903   4.911   0.092   6.374
 3002SOL     OW 9904   4.243   6.964   5.573
 3002SOL    HW1 9905   4.197   0.032   5.579
 3002SOL    HW2 9906   4.271   6.947   5.479
 3003SOL     OW 9907   2.724   6.183   6.085
 3003SOL    HW1 9908   2.632   6.205   6.051
 3003SOL    HW2 9909   2.788   6.253   6.056
 3004SOL     OW 9910   6.257   3.824   3.767
 3004SOL    HW1 9911   6.348   3.863   3.778
 3004SOL    HW2 9912   6.242   3.800   3.671
 3005SOL     OW 9913   3.380   3.203   1.724
 3005SOL    HW1 9914   3.304   3.231   1.783
 3005SOL    HW2 9915   3.455   3.169   1.781
 3006SOL     OW 9916   6.266   1.263   0.756
 3006SOL    HW1 9917   6.188   1.306   0.801
 3006SOL    HW2 9918   6.341   1.252   0.821
 3007SOL     OW 9919   5.355   5.083   1.986
 3007SOL    HW1 9920   5.448   5.053   1.965
 3007SOL    HW2 9921   5.326   5.045   2.074
 3008SOL     OW 9922   4.150   0.221   6.087
 3008SOL    HW1 9923   4.079   0.276   6.131
 3008SOL    HW2 9924   4.202   0.278   6.023
 3009SOL     OW 9925   0.449   0.302   2.778
 3009SOL    HW1 9926   0.448   0.309   2.678
 3009SOL    HW2 9927   0.406   0.383   2.818
 3010SOL     OW 9928   4.080   5.916   3.018
 3010SOL    HW1 9929   4.059   5.997   2.963
 3010SOL    HW2 9930   3.995   5.869   3.043
 3011SOL     OW 9931   6.344   0.981   6.666
 3011SOL    HW1 9932   6.372   0.898   6.618
 3011SOL    HW2 9933   6.391   1.060   6.626
 3012SOL     OW 9934   0.224   3.641   4.032
 3012SOL    HW1 9935   0.139   3.644   3.979
 3012SOL    HW2 9936   0.301   3.626   3.971
 3013SOL     OW 9937   5.839   5.902   2.855
 3013SOL    HW1 9938   5.936   5.909   2.831
 3013SOL    HW2 9939   5.791   5.984   2.824
 3014SOL     OW 9940   5.508   1.762   4.185
 3014SOL    HW1 9941   5.497   1.683   4.245
 3014SOL    HW2 9942   5.606   1.782   4.174
 3015SOL     OW 9943   2.155   2.051   0.171
 3015SOL    HW1 9944   2.103   2.063   0.256
 3015SOL    HW2 9945   2.167   1.954   0.152
 3016SOL     OW 9946   3.584   5.670   4.472
 3016SOL    HW1 9947   3.510   5.735   4.489
 3016SOL    HW2 9948   3.545   5.580   4.451
 3017SOL     OW 9949   0.666   5.616   0.960
 3017SOL    HW1 9950   0.648   5.518   0.965
 3017SOL    HW2 9951   0.745   5.638   1.016
 3018SOL     OW 9952   4.154   0.453   6.870
 3018SOL    HW1 9953   4.157   0.459   6.970
 3018SOL    HW2 9954   4.065   0.418   6.841
 3019SOL     OW 9955   3.132   6.623   0.998
 3019SOL    HW1 9956   3.165   6.538   0.958
 3019SOL    HW2 9957   3.198   6.696   0.981
 3020SOL     OW 9958   3.772   3.633   1.620
 3020SOL    HW1 9959   3.781   3.731   1.604
 3020SOL    HW2 9960   3.690   3.599   1.575
 3021SOL     OW 9961   1.414   1.994   6.668
 3021SOL    HW1 9962   1.353   2.072   6.685
 3021SOL    HW2 9963   1.369   1.910   6.698
 3022SOL     OW 9964   3.713   5.894   2.865
 3022SOL    HW1 9965   3.706   5.834   2.785
 3022SOL    HW2 9966   3.625   5.938   2.882
 3023SOL     OW 9967   3.530   6.140   3.427
 3023SOL    HW1 9968   3.531   6.145   3.328
 3023SOL    HW2 9969   3.444   6.098   3.457
 3024SOL     OW 9970   2.925   0.639   6.559
 3024SOL    HW1 9971   2.865   0.718   6.567
 3024SOL    HW2 9972   2.981   0.631   6.642
 3025SOL     OW 9973   2.903   3.121   0.941
 3025SOL    HW1 9974   2.951   3.208   0.950
 3025SOL    HW2 9975   2.916   3.086   0.848
 3026SOL     OW 9976   1.530   3.419   1.193
 3026SOL    HW1 9977   1.614   3.396   1.143
 3026SOL    HW2 9978   1.451   3.385   1.143
 3027SOL     OW 9979   3.948   0.814   2.594
 3027SOL    HW1 9980   3.869   0.829   2.535
 3027SOL    HW2 9981   4.028   0.790   2.539
 3028SOL     OW 9982   1.253   5.124   0.127
 3028SOL    HW1 9983   1.185   5.145   0.057
 3028SOL    HW2 9984   1.269   5.205   0.183
 3029SOL     OW 9985   6.177   4.656   5.441
 3029SOL    HW1 9986   6.191   4.722   5.367
 3029SOL    HW2 9987   6.109   4.588   5.413
 3030SOL     OW 9988   0.870   1.289   5.685
 3030SOL    HW1 9989   0.941   1.311   5.752
 3030SOL    HW2 9990   0.817   1.371   5.665
 3031SOL     OW 9991   0.755   3.777   0.635
 3031SOL    HW1 9992   0.722   3.794   0.728
 3031SOL    HW2 9993   0.854   3.792   0.632
 3032SOL     OW 9994   5.094   0.029   0.089
 3032SOL    HW1 9995   5.053   7.009   0.007
 3032SOL    HW2 9996   5.177   7.001   0.113
 3033SOL     OW 9997   1.000   3.198   0.409
 3033SOL    HW1 9998   1.056   3.271   0.448
 3033SOL    HW2 9999   0.906   3.208   0.441
 3034SOL     OW10000   2.163   6.659   3.445
 3034SOL    HW110001   2.193   6.598   3.372
 3034SOL    HW210002   2.091   6.616   3.497
 3035SOL     OW10003   6.387   1.450   0.522
 3035SOL    HW110004   6.288   1.459   0.512
 3035SOL    HW210005   6.409   1.433   0.618
 3036SOL     OW10006   1.566   3.931   6.888
 3036SOL    HW110007   1.556   3.955   6.792
 3036SOL    HW210008   1.620   3.847   6.896
 3037SOL     OW10009   5.793   5.829   4.671
 3037SOL    HW110010   5.849   5.870   4.743
 3037SOL    HW210011   5.824   5.860   4.581
 3038SOL     OW10012   5.670   6.603   6.103
 3038SOL    HW110013   5.586   6.549   6.102
 3038SOL    HW210014   5.648   6.699   6.120
 3039SOL     OW10015   6.451   4.672   2.587
 3039SOL    HW110016   6.422   4.614   2.663
 3039SOL    HW210017   6.520   4.737   2.619
 3040SOL     OW10018   3.993   4.034   6.294
 3040SOL    HW110019   4.038   4.085   6.220
 3040SOL    HW210020   3.927   4.094   6.339
 3041SOL     OW10021   2.040   3.195   5.957
 3041SOL    HW110022   1.980   3.118   5.979
 3041SOL    HW210023   2.063   3.192   5.859
 3042SOL     OW10024   4.910   0.365   2.202
 3042SOL    HW110025   4.838   0.435   2.194
 3042SOL    HW210026   4.998   0.406   2.180
 3043SOL     OW10027   0.320   5.580   0.290
 3043SOL    HW110028   0.309   5.618   0.382
 3043SOL    HW210029   0.417   5.577   0.267
 3044SOL     OW10030   3.386   4.677   5.479
 3044SOL    HW110031   3.289   4.693   5.494
 3044SOL    HW210032   3.403   4.579   5.469
 3045SOL     OW10033   5.291   0.839   2.843
 3045SOL    HW110034   5.370   0.831   2.904
 3045SOL    HW210035   5.232   0.759   2.854
 3046SOL     OW10036   0.777   3.336   5.159
 3046SOL    HW110037   0.822   3.248   5.144
 3046SOL    HW210038   0.714   3.355   5.084
 3047SOL     OW10039   5.541   5.246   1.665
 3047SOL    HW110040   5.453   5.204   1.646
 3047SOL    HW210041   5.603   5.230   1.588
 3048SOL     OW10042   4.465   3.356   1.330
 3048SOL    HW110043   4.550   3.323   1.370
 3048SOL    HW210044   4.394   3.286   1.340
 3049SOL     OW10045   0.909   7.018   1.330
 3049SOL    HW110046   0.995   0.040   1.358
 3049SOL    HW210047   0.848   7.011   1.408
 3050SOL     OW10048   3.169   6.798   3.510
 3050SOL    HW110049   3.146   6.866   3.579
 3050SOL    HW210050   3.213   6.719   3.554
 3051SOL     OW10051   2.356   4.535   6.652
 3051SOL    HW110052   2.438   4.512   6.599
 3051SOL    HW210053   2.366   4.625   6.692
 3052SOL     OW10054   3.911   0.276   3.219
 3052SOL    HW110055   3.895   0.181   3.244
 3052SOL    HW210056   3.873   0.294   3.128
 3053SOL     OW10057   5.932   0.445   6.896
 3053SOL    HW110058   5.898   0.359   6.858
 3053SOL    HW210059   6.028   0.458   6.871
 3054SOL     OW10060   6.667   3.037   7.018
 3054SOL    HW110061   6.717   3.078   0.073
 3054SOL    HW210062   6.637   2.945   0.022
 3055SOL     OW10063   5.179   0.147   3.660
 3055SOL    HW110064   5.141   0.175   3.749
 3055SOL    HW210065   5.116   0.173   3.587
 3056SOL     OW10066   6.313   0.302   0.340
 3056SOL    HW110067   6.303   0.392   0.297
 3056SOL    HW210068   6.308   0.231   0.270
 3057SOL     OW10069   5.028   5.246   2.565
 3057SOL    HW110070   5.106   5.265   2.506
 3057SOL    HW210071   4.980   5.331   2.588
 3058SOL     OW10072   6.515   5.994   1.291
 3058SOL    HW110073   6.479   6.068   1.348
 3058SOL    HW210074   6.477   6.001   1.199
 3059SOL     OW10075   0.899   3.109   5.101
 3059SOL    HW110076   0.997   3.116   5.119
 3059SOL    HW210077   0.883   3.114   5.003
 3060SOL     OW10078   0.799   7.003   0.249
 3060SOL    HW110079   0.869   0.054   0.249
 3060SOL    HW210080   0.715   0.017   0.291
 3061SOL     OW10081   0.230   0.649   5.044
 3061SOL    HW110082   0.284   0.730   5.065
 3061SOL    HW210083   0.287   0.567   5.053
 3062SOL     OW10084   2.404   6.685   1.691
 3062SOL    HW110085   2.482   6.670   1.751
 3062SOL    HW210086   2.420   6.640   1.603
 3063SOL     OW10087   2.133   4.856   1.977
 3063SOL    HW110088   2.226   4.887   1.961
 3063SOL    HW210089   2.131   4.756   1.980
 3064SOL     OW10090   5.520   3.218   4.028
 3064SOL    HW110091   5.459   3.241   4.104
 3064SOL    HW210092   5.550   3.302   3.984
 3065SOL     OW10093   2.070   0.645   6.492
 3065SOL    HW110094   2.148   0.651   6.431
 3065SOL    HW210095   2.061   0.552   6.527
 3066SOL     OW10096   5.844   4.513   0.197
 3066SOL    HW110097   5.902   4.441   0.236
 3066SOL    HW210098   5.778   4.543   0.265
 3067SOL     OW10099   3.895   0.908   5.109
 3067SOL    HW110100   3.818   0.973   5.107
 3067SOL    HW210101   3.928   0.892   5.017
 3068SOL     OW10102   6.049   5.939   0.760
 3068SOL    HW110103   6.042   5.841   0.737
 3068SOL    HW210104   6.068   5.948   0.858
 3069SOL     OW10105   0.468   5.602   1.834
 3069SOL    HW110106   0.529   5.634   1.906
 3069SOL    HW210107   0.410   5.678   1.803
 3070SOL     OW10108   2.198   1.410   2.935
 3070SOL    HW110109   2.197   1.314   2.963
 3070SOL    HW210110   2.218   1.467   3.015
 3071SOL     OW10111   6.063   0.319   3.599
 3071SOL    HW110112   6.024   0.244   3.546
 3071SOL    HW210113   5.989   0.368   3.645
 3072SOL     OW10114   0.850   6.897   1.824
 3072SOL    HW110115   0.927   6.835   1.810
 3072SOL    HW210116   0.827   6.940   1.737
 3073SOL     OW10117   0.609   3.650   5.180
 3073SOL    HW110118   0.694   3.700   5.163
 3073SOL    HW210119   0.601   3.574   5.116
 3074SOL     OW10120   4.810   3.090   0.023
 3074SOL    HW110121   4.711   3.076   0.022
 3074SOL    HW210122   4.830   3.186   0.043
 3075SOL     OW10123   1.723   6.746   1.720
 3075SOL    HW110124   1.770   6.745   1.632
 3075SOL    HW210125   1.714   6.840   1.753
 3076SOL     OW10126   6.423   0.467   4.869
 3076SOL    HW110127   6.368   0.513   4.799
 3076SOL    HW210128   6.481   0.399   4.825
 3077SOL     OW10129   5.675   4.962   3.669
 3077SOL    HW110130   5.612   4.934   3.741
 3077SOL    HW210131   5.692   5.060   3.676
 3078SOL     OW10132   2.123   3.715   2.115
 3078SOL    HW110133   2.058   3.715   2.190
 3078SOL    HW210134   2.163   3.624   2.104
 3079SOL     OW10135   1.557   2.622   5.167
 3079SOL    HW110136   1.521   2.534   5.198
 3079SOL    HW210137   1.646   2.608   5.123
 3080SOL     OW10138   6.319   5.036   1.357
 3080SOL    HW110139   6.270   4.949   1.350
 3080SOL    HW210140   6.355   5.061   1.268
 3081SOL     OW10141   0.227   4.552   5.819
 3081SOL    HW110142   0.242   4.474   5.879
 3081SOL    HW210143   0.285   4.628   5.847
 3082SOL     OW10144   3.737   6.660   3.433
 3082SOL    HW110145   3.718   6.569   3.469
 3082SOL    HW210146   3.826   6.691   3.465
 3083SOL     OW10147   3.528   0.178   2.608
 3083SOL    HW110148   3.621   0.190   2.642
 3083SOL    HW210149   3.525   0.203   2.511
 3084SOL     OW10150   4.441   4.548   4.056
 3084SOL    HW110151   4.473   4.462   4.016
 3084SOL    HW210152   4.499   4.623   4.026
 3085SOL     OW10153   6.927   4.723   3.250
 3085SOL    HW110154   6.964   4.651   3.309
 3085SOL    HW210155   6.831   4.738   3.272
 3086SOL     OW10156   4.254   1.074   1.947
 3086SOL    HW110157   4.185   1.006   1.924
 3086SOL    HW210158   4.216   1.166   1.936
 3087SOL     OW10159   6.531   4.547   3.569
 3087SOL    HW110160   6.585   4.508   3.643
 3087SOL    HW210161   6.460   4.482   3.541
 3088SOL     OW10162   2.803   4.998   5.312
 3088SOL    HW110163   2.703   4.994   5.304
 3088SOL    HW210164   2.830   4.972   5.405
 3089SOL     OW10165   1.331   3.014   0.334
 3089SOL    HW110166   1.247   2.968   0.361
 3089SOL    HW210167   1.321   3.113   0.348
 3090SOL     OW10168   1.860   1.295   1.252
 3090SOL    HW110169   1.880   1.299   1.154
 3090SOL    HW210170   1.813   1.378   1.280
 3091SOL     OW10171   3.293   0.052   0.344
 3091SOL    HW110172   3.340   0.031   0.430
 3091SOL    HW210173   3.252   0.143   0.350
 3092SOL     OW10174   5.418   6.605   0.083
 3092SOL    HW110175   5.441   6.662   0.004
 3092SOL    HW210176   5.498   6.596   0.142
 3093SOL     OW10177   5.945   5.141   5.625
 3093SOL    HW110178   6.027   5.146   5.567
 3093SOL    HW210179   5.868   5.109   5.570
 3094SOL     OW10180   3.023   6.102   4.907
 3094SOL    HW110181   3.004   6.146   4.820
 3094SOL    HW210182   2.942   6.105   4.965
 3095SOL     OW10183   2.544   4.473   4.457
 3095SOL    HW110184   2.499   4.411   4.391
 3095SOL    HW210185   2.554   4.425   4.545
 3096SOL     OW10186   6.679   0.433   4.633
 3096SOL    HW110187   6.677   0.356   4.697
 3096SOL    HW210188   6.771   0.445   4.598
 3097SOL     OW10189   0.708   2.704   0.926
 3097SOL    HW110190   0.705   2.771   0.852
 3097SOL    HW210191   0.670   2.744   1.009
 3098SOL     OW10192   2.775   3.133   1.427
 3098SOL    HW110193   2.769   3.088   1.338
 3098SOL    HW210194   2.710   3.209   1.430
 3099SOL     OW10195   6.671   5.680   4.421
 3099SOL    HW110196   6.659   5.581   4.411
 3099SOL    HW210197   6.682   5.702   4.518
 3100SOL     OW10198   6.938   0.051   4.771
 3100SOL    HW110199   6.888   0.013   4.849
 3100SOL    HW210200   7.001   0.122   4.803
 3101SOL     OW10201   4.827   5.776   5.190
 3101SOL    HW110202   4.740   5.791   5.236
 3101SOL    HW210203   4.901   5.818   5.243
 3102SOL     OW10204   0.955   4.249   1.328
 3102SOL    HW110205   0.968   4.321   1.395
 3102SOL    HW210206   0.919   4.288   1.243
 3103SOL     OW10207   3.687   2.397   0.694
 3103SOL    HW110208   3.651   2.306   0.711
 3103SOL    HW210209   3.688   2.415   0.595
 3104SOL     OW10210   5.565   5.896   4.313
 3104SOL    HW110211   5.558   5.922   4.216
 3104SOL    HW210212   5.615   5.967   4.362
 3105SOL     OW10213   5.603   6.143   3.436
 3105SOL    HW110214   5.699   6.154   3.462
 3105SOL    HW210215   5.597   6.115   3.340
 3106SOL     OW10216   6.442   2.199   2.331
 3106SOL    HW110217   6.491   2.282   2.304
 3106SOL    HW210218   6.386   2.218   2.412
 3107SOL     OW10219   3.462   0.593   4.033
 3107SOL    HW110220   3.466   0.495   4.016
 3107SOL    HW210221   3.369   0.618   4.062
 3108SOL     OW10222   1.525   0.981   4.509
 3108SOL    HW110223   1.577   1.062   4.536
 3108SOL    HW210224   1.492   0.992   4.415
 3109SOL     OW10225   5.162   5.907   2.553
 3109SOL    HW110226   5.174   5.931   2.649
 3109SOL    HW210227   5.249   5.912   2.505
 3110SOL     OW10228   0.442   2.679   4.098
 3110SOL    HW110229   0.423   2.581   4.109
 3110SOL    HW210230   0.515   2.690   4.030
 3111SOL     OW10231   6.090   5.290   3.953
 3111SOL    HW110232   6.149   5.322   4.027
 3111SOL    HW210233   6.097   5.352   3.875
 3112SOL     OW10234   4.606   2.407   5.952
 3112SOL    HW110235   4.530   2.472   5.952
 3112SOL    HW210236   4.571   2.314   5.946
 3113SOL     OW10237   2.454   0.102   3.971
 3113SOL    HW110238   2.403   0.046   3.906
 3113SOL    HW210239   2.525   0.046   4.015
 3114SOL     OW10240   5.394   3.605   6.547
 3114SOL    HW110241   5.479   3.565   6.583
 3114SOL    HW210242   5.353   3.664   6.616
 3115SOL     OW10243   3.760   4.106   0.381
 3115SOL    HW110244   3.662   4.104   0.358
 3115SOL    HW210245   3.805   4.025   0.344
 3116SOL     OW10246   6.626   2.392   6.636
 3116SOL    HW110247   6.700   2.332   6.667
 3116SOL    HW210248   6.616   2.385   6.537
 3117SOL     OW10249   4.414   3.427   5.590
 3117SOL    HW110250   4.506   3.388   5.587
 3117SOL    HW210251   4.388   3.456   5.498
 3118SOL     OW10252   6.542   4.519   6.966
 3118SOL    HW110253   6.521   4.613   6.994
 3118SOL    HW210254   6.525   4.509   6.868
 3119SOL     OW10255   2.050   4.305   5.378
 3119SOL    HW110256   2.009   4.221   5.415
 3119SOL    HW210257   2.132   4.282   5.326
 3120SOL     OW10258   2.416   5.860   4.582
 3120SOL    HW110259   2.326   5.830   4.551
 3120SOL    HW210260   2.464   5.906   4.507
 3121SOL     OW10261   0.705   1.757   1.825
 3121SOL    HW110262   0.735   1.661   1.816
 3121SOL    HW210263   0.720   1.805   1.739
 3122SOL     OW10264   3.021   5.223   6.365
 3122SOL    HW110265   2.940   5.282   6.362
 3122SOL    HW210266   3.041   5.190   6.273
 3123SOL     OW10267   3.298   6.274   3.716
 3123SOL    HW110268   3.241   6.245   3.639
 3123SOL    HW210269   3.367   6.204   3.734
 3124SOL     OW10270   4.748   0.435   5.326
 3124SOL    HW110271   4.794   0.518   5.358
 3124SOL    HW210272   4.791   0.355   5.367
 3125SOL     OW10273   6.141   1.937   5.530
 3125SOL    HW110274   6.078   1.958   5.455
 3125SOL    HW210275   6.130   2.005   5.603
 3126SOL     OW10276   5.419   4.536   5.997
 3126SOL    HW110277   5.332   4.583   5.981
 3126SOL    HW210278   5.411   4.480   6.080
 3127SOL     OW10279   1.041   1.564   3.442
 3127SOL    HW110280   0.980   1.593   3.515
 3127SOL    HW210281   1.027   1.467   3.423
 3128SOL     OW10282   1.644   0.783   0.273
 3128SOL    HW110283   1.609   0.724   0.346
 3128SOL    HW210284   1.644   0.878   0.303
 3129SOL     OW10285   0.683   3.826   5.529
 3129SOL    HW110286   0.712   3.731   5.518
 3129SOL    HW210287   0.593   3.828   5.573
 3130SOL     OW10288   2.614   4.795   2.573
 3130SOL    HW110289   2.619   4.787   2.672
 3130SOL    HW210290   2.706   4.795   2.535
 3131SOL     OW10291   0.898   2.914   3.375
 3131SOL    HW110292   0.956   2.886   3.298
 3131SOL    HW210293   0.930   3.002   3.410
 3132SOL     OW10294   5.584   5.630   4.979
 3132SOL    HW110295   5.668   5.645   4.926
 3132SOL    HW210296   5.599   5.557   5.045
 3133SOL     OW10297   2.178   2.091   4.364
 3133SOL    HW110298   2.107   2.082   4.294
 3133SOL    HW210299   2.145   2.052   4.450
 3134SOL     OW10300   5.096   3.331   1.516
 3134SOL    HW110301   5.106   3.236   1.546
 3134SOL    HW210302   5.165   3.352   1.447
 3135SOL     OW10303   4.009   2.157   4.285
 3135SOL    HW110304   4.022   2.129   4.190
 3135SOL    HW210305   4.093   2.197   4.320
 3136SOL     OW10306   5.856   5.800   6.514
 3136SOL    HW110307   5.789   5.870   6.539
 3136SOL    HW210308   5.854   5.785   6.415
 3137SOL     OW10309   5.031   1.816   4.062
 3137SOL    HW110310   4.975   1.777   3.989
 3137SOL    HW210311   5.127   1.793   4.047
 3138SOL     OW10312   6.199   1.644   4.805
 3138SOL    HW110313   6.273   1.703   4.775
 3138SOL    HW210314   6.111   1.691   4.791
 3139SOL     OW10315   4.915   6.534   5.723
 3139SOL    HW110316   4.992   6.471   5.720
 3139SOL    HW210317   4.831   6.483   5.741
 3140SOL     OW10318   6.533   6.576   6.425
 3140SOL    HW110319   6.492   6.527   6.348
 3140SOL    HW210320   6.520   6.674   6.412
 3141SOL     OW10321   0.331   6.408   6.957
 3141SOL    HW110322   0.392   6.456   7.020
 3141SOL    HW210323   0.276   6.342   7.008
 3142SOL     OW10324   4.877   5.855   7.012
 3142SOL    HW110325   4.976   5.841   7.007
 3142SOL    HW210326   4.831   5.798   6.945
 3143SOL     OW10327   6.774   1.953   0.050
 3143SOL    HW110328   6.865   1.963   0.089
 3143SOL    HW210329   6.737   2.043   0.028
 3144SOL     OW10330   1.969   3.436   0.917
 3144SOL    HW110331   1.892   3.374   0.932
 3144SOL    HW210332   1.966   3.510   0.984
 3145SOL     OW10333   3.171   5.890   2.839
 3145SOL    HW110334   3.137   5.979   2.869
 3145SOL    HW210335   3.101   5.821   2.853
 3146SOL     OW10336   1.504   7.019   3.412
 3146SOL    HW110337   1.541   0.042   3.330
 3146SOL    HW210338   1.423   0.047   3.443
 3147SOL     OW10339   4.403   5.040   0.685
 3147SOL    HW110340   4.481   5.087   0.727
 3147SOL    HW210341   4.338   5.108   0.651
 3148SOL     OW10342   3.916   5.311   3.840
 3148SOL    HW110343   3.900   5.363   3.923
 3148SOL    HW210344   4.013   5.290   3.832
 3149SOL     OW10345   3.159   0.571   5.479
 3149SOL    HW110346   3.136   0.474   5.480
 3149SOL    HW210347   3.093   0.622   5.535
 3150SOL     OW10348   5.210   6.934   4.897
 3150SOL    HW110349   5.192   6.864   4.829
 3150SOL    HW210350   5.221   6.891   4.987
 3151SOL     OW10351   4.890   1.009   6.728
 3151SOL    HW110352   4.826   0.968   6.663
 3151SOL    HW210353   4.975   0.956   6.729
 3152SOL     OW10354   0.687   5.367   1.421
 3152SOL    HW110355   0.659   5.381   1.516
 3152SOL    HW210356   0.784   5.345   1.418
 3153SOL     OW10357   6.280   3.926   1.525
 3153SOL    HW110358   6.208   3.956   1.588
 3153SOL    HW210359   6.293   3.995   1.454
 3154SOL     OW10360   6.675   2.317   6.336
 3154SOL    HW110361   6.749   2.292   6.275
 3154SOL    HW210362   6.628   2.234   6.367
 3155SOL     OW10363   6.419   5.208   0.855
 3155SOL    HW110364   6.330   5.232   0.815
 3155SOL    HW210365   6.431   5.257   0.942
 3156SOL     OW10366   3.517   4.068   3.094
 3156SOL    HW110367   3.585   4.069   3.020
 3156SOL    HW210368   3.432   4.110   3.061
 3157SOL     OW10369   2.154   3.567   4.854
 3157SOL    HW110370   2.124   3.493   4.913
 3157SOL    HW210371   2.245   3.547   4.818
 3158SOL     OW10372   4.814   6.613   1.637
 3158SOL    HW110373   4.792   6.597   1.733
 3158SOL    HW210374   4.891   6.676   1.631
 3159SOL     OW10375   4.909   5.547   5.863
 3159SOL    HW110376   4.816   5.527   5.833
 3159SOL    HW210377   4.925   5.646   5.859
 3160SOL     OW10378   5.221   3.602   5.928
 3160SOL    HW110379   5.281   3.655   5.989
 3160SOL    HW210380   5.185   3.523   5.978
 3161SOL     OW10381   1.436   1.000   2.755
 3161SOL    HW110382   1.426   1.099   2.769
 3161SOL    HW210383   1.527   0.971   2.784
 3162SOL     OW10384   0.360   5.433   6.829
 3162SOL    HW110385   0.407   5.521   6.832
 3162SOL    HW210386   0.384   5.379   6.910
 3163SOL     OW10387   3.889   3.061   6.697
 3163SOL    HW110388   3.921   3.098   6.610
 3163SOL    HW210389   3.794   3.086   6.711
 3164SOL     OW10390   5.376   4.230   0.748
 3164SOL    HW110391   5.461   4.195   0.787
 3164SOL    HW210392   5.396   4.286   0.668
 3165SOL     OW10393   0.637   0.143   1.942
 3165SOL    HW110394   0.573   0.078   1.984
 3165SOL    HW210395   0.686   0.192   2.014
 3166SOL     OW10396   4.738   2.773   5.881
 3166SOL    HW110397   4.747   2.863   5.924
 3166SOL    HW210398   4.812   2.760   5.815
 3167SOL     OW10399   0.282   4.272   1.802
 3167SOL    HW110400   0.349   4.209   1.842
 3167SOL    HW210401   0.239   4.230   1.723
 3168SOL     OW10402   5.400   2.789   0.606
 3168SOL    HW110403   5.335   2.753   0.674
 3168SOL    HW210404   5.407   2.888   0.616
 3169SOL     OW10405   0.853   2.751   5.792
 3169SOL    HW110406   0.853   2.653   5.770
 3169SOL    HW210407   0.841   2.763   5.891
 3170SOL     OW10408   4.642   0.568   6.541
 3170SOL    HW110409   4.586   0.486   6.529
 3170SOL    HW210410   4.648   0.618   6.455
 3171SOL     OW10411   6.677   0.247   2.008
 3171SOL    HW110412   6.666   0.347   2.010
 3171SOL    HW210413   6.610   0.208   1.945
 3172SOL     OW10414   6.393   6.957   4.764
 3172SOL    HW110415   6.339   7.005   4.833
 3172SOL    HW210416   6.451   6.889   4.808
 3173SOL     OW10417   2.676   0.368   1.982
 3173SOL    HW110418   2.652   0.428   2.059
 3173SOL    HW210419   2.613   0.291   1.980
 3174SOL     OW10420   3.089   2.934   5.750
 3174SOL    HW110421   3.150   2.990   5.694
 3174SOL    HW210422   3.022   2.890   5.692
 3175SOL     OW10423   1.000   6.269   6.975
 3175SOL    HW110424   1.059   6.223   0.020
 3175SOL    HW210425   1.029   6.245   6.882
 3176SOL     OW10426   1.311   4.263   6.621
 3176SOL    HW110427   1.261   4.230   6.701
 3176SOL    HW210428   1.371   4.190   6.587
 3177SOL     OW10429   5.173   5.165   5.590
 3177SOL    HW110430   5.118   5.184   5.671
 3177SOL    HW210431   5.114   5.137   5.515
 3178SOL     OW10432   0.244   4.344   2.388
 3178SOL    HW110433   0.330   4.388   2.365
 3178SOL    HW210434   0.212   4.376   2.477
 3179SOL     OW10435   1.968   2.125   2.186
 3179SOL    HW110436   2.011   2.150   2.100
 3179SOL    HW210437   1.872   2.151   2.184
 3180SOL     OW10438   5.562   6.884   5.742
 3180SOL    HW110439   5.565   6.934   5.655
 3180SOL    HW210440   5.542   6.788   5.723
 3181SOL     OW10441   0.651   1.243   3.437
 3181SOL    HW110442   0.603   1.296   3.366
 3181SOL    HW210443   0.610   1.264   3.526
 3182SOL     OW10444   0.723   5.828   5.624
 3182SOL    HW110445   0.648   5.764   5.643
 3182SOL    HW210446   0.808   5.776   5.612
 3183SOL     OW10447   4.545   5.149   1.882
 3183SOL    HW110448   4.522   5.237   1.923
 3183SOL    HW210449   4.516   5.075   1.942
 3184SOL     OW10450   2.483   1.985   3.075
 3184SOL    HW110451   2.500   2.023   2.984
 3184SOL    HW210452   2.547   2.025   3.140
 3185SOL     OW10453   0.355   6.535   4.919
 3185SOL    HW110454   0.338   6.627   4.954
 3185SOL    HW210455   0.415   6.486   4.983
 3186SOL     OW10456   3.483   0.976   2.903
 3186SOL    HW110457   3.480   1.073   2.881
 3186SOL    HW210458   3.578   0.947   2.914
 3187SOL     OW10459   3.427   4.729   6.934
 3187SOL    HW110460   3.456   4.821   6.906
 3187SOL    HW210461   3.448   4.714   0.009
 3188SOL     OW10462   3.312   5.429   2.980
 3188SOL    HW110463   3.381   5.482   2.931
 3188SOL    HW210464   3.232   5.485   2.997
 3189SOL     OW10465   0.869   0.243   3.523
 3189SOL    HW110466   0.805   0.309   3.482
 3189SOL    HW210467   0.906   0.184   3.452
 3190SOL     OW10468   1.349   6.084   1.940
 3190SOL    HW110469   1.288   6.006   1.959
 3190SOL    HW210470   1.314   6.134   1.861
 3191SOL     OW10471   4.006   0.420   0.743
 3191SOL    HW110472   3.985   0.517   0.754
 3191SOL    HW210473   3.938   0.378   0.682
 3192SOL     OW10474   0.690   2.634   2.008
 3192SOL    HW110475   0.751   2.701   1.966
 3192SOL    HW210476   0.727   2.605   2.096
 3193SOL     OW10477   4.562   1.746   6.307
 3193SOL    HW110478   4.635   1.700   6.258
 3193SOL    HW210479   4.561   1.715   6.402
 3194SOL     OW10480   1.391   3.503   5.913
 3194SOL    HW110481   1.308   3.549   5.883
 3194SOL    HW210482   1.441   3.470   5.833
 3195SOL     OW10483   1.425   2.957   3.684
 3195SOL    HW110484   1.356   3.025   3.664
 3195SOL    HW210485   1.457   2.914   3.600
 3196SOL     OW10486   0.503   0.367   4.733
 3196SOL    HW110487   0.579   0.336   4.790
 3196SOL    HW210488   0.487   0.465   4.749
 3197SOL     OW10489   1.175   5.113   3.690
 3197SOL    HW110490   1.272   5.104   3.666
 3197SOL    HW210491   1.163   5.093   3.787
 3198SOL     OW10492   0.117   1.738   6.492
 3198SOL    HW110493   0.211   1.772   6.493
 3198SOL    HW210494   0.117   1.641   6.467
 3199SOL     OW10495   4.477   1.639   2.289
 3199SOL    HW110496   4.572   1.646   2.258
 3199SOL    HW210497   4.470   1.669   2.384
 3200SOL     OW10498   6.548   2.289   0.406
 3200SOL    HW110499   6.634   2.239   0.412
 3200SOL    HW210500   6.510   2.280   0.314
 3201SOL     OW10501   5.275   3.608   3.645
 3201SOL    HW110502   5.235   3.619   3.554
 3201SOL    HW210503   5.257   3.516   3.679
 3202SOL     OW10504   2.080   4.913   2.232
 3202SOL    HW110505   1.988   4.945   2.253
 3202SOL    HW210506   2.085   4.885   2.136
 3203SOL     OW10507   6.867   1.066   1.088
 3203SOL    HW110508   6.814   0.982   1.073
 3203SOL    HW210509   6.862   1.092   1.184
 3204SOL     OW10510   6.770   5.653   1.936
 3204SOL    HW110511   6.783   5.569   1.988
 3204SOL    HW210512   6.857   5.702   1.929
 3205SOL     OW10513   6.983   3.631   5.122
 3205SOL    HW110514   6.912   3.606   5.056
 3205SOL    HW210515   0.037   3.676   5.075
 3206SOL     OW10516   1.225   6.708   5.718
 3206SOL    HW110517   1.274   6.678   5.800
 3206SOL    HW210518   1.286   6.762   5.660
 3207SOL     OW10519   0.956   1.390   4.869
 3207SOL    HW110520   1.004   1.322   4.925
 3207SOL    HW210521   0.968   1.366   4.772
 3208SOL     OW10522   4.563   5.447   5.002
 3208SOL    HW110523   4.650   5.419   4.964
 3208SOL    HW210524   4.559   5.422   5.099
 3209SOL     OW10525   2.570   0.452   4.098
 3209SOL    HW110526   2.484   0.467   4.148
 3209SOL    HW210527   2.637   0.411   4.160
 3210SOL     OW10528   6.675   4.251   2.819
 3210SOL    HW110529   6.619   4.308   2.759
 3210SOL    HW210530   6.750   4.211   2.766
 3211SOL     OW10531   2.180   4.469   1.363
 3211SOL    HW110532   2.147   4.563   1.352
 3211SOL    HW210533   2.174   4.421   1.276
 3212SOL     OW10534   4.911   2.337   6.785
 3212SOL    HW110535   4.988   2.310   6.727
 3212SOL    HW210536   4.944   2.351   6.879
 3213SOL     OW10537   5.733   5.644   2.515
 3213SOL    HW110538   5.808   5.628   2.579
 3213SOL    HW210539   5.712   5.559   2.467
 3214SOL     OW10540   4.375   5.860   6.760
 3214SOL    HW110541   4.460   5.834   6.715
 3214SOL    HW210542   4.301   5.800   6.730
 3215SOL     OW10543   6.145   2.733   6.344
 3215SOL    HW110544   6.057   2.685   6.342
 3215SOL    HW210545   6.128   2.832   6.347
 3216SOL     OW10546   5.644   6.678   3.025
 3216SOL    HW110547   5.611   6.729   3.105
 3216SOL    HW210548   5.566   6.646   2.972
 3217SOL     OW10549   6.883   4.683   2.060
 3217SOL    HW110550   6.904   4.592   2.023
 3217SOL    HW210551   6.957   4.713   2.119
 3218SOL     OW10552   4.021   0.413   3.612
 3218SOL    HW110553   4.036   0.331   3.557
 3218SOL    HW210554   4.035   0.494   3.556
 3219SOL     OW10555   0.487   0.788   3.422
 3219SOL    HW110556   0.556   0.751   3.484
 3219SOL    HW210557   0.531   0.850   3.357
 3220SOL     OW10558   0.336   4.706   5.065
 3220SOL    HW110559   0.285   4.655   4.996
 3220SOL    HW210560   0.284   4.788   5.091
 3221SOL     OW10561   2.846   0.195   3.722
 3221SOL    HW110562   2.871   0.199   3.819
 3221SOL    HW210563   2.874   0.106   3.685
 3222SOL     OW10564   5.837   2.404   3.191
 3222SOL    HW110565   5.903   2.452   3.133
 3222SOL    HW210566   5.825   2.455   3.277
 3223SOL     OW10567   2.246   4.880   6.139
 3223SOL    HW110568   2.262   4.964   6.191
 3223SOL    HW210569   2.259   4.801   6.200
 3224SOL     OW10570   4.146   4.814   0.431
 3224SOL    HW110571   4.157   4.912   0.413
 3224SOL    HW210572   4.187   4.762   0.357
 3225SOL     OW10573   2.832   3.406   0.532
 3225SOL    HW110574   2.768   3.460   0.476
 3225SOL    HW210575   2.924   3.443   0.521
 3226SOL     OW10576   1.362   1.064   4.188
 3226SOL    HW110577   1.342   0.967   4.197
 3226SOL    HW210578   1.409   1.081   4.102
 3227SOL     OW10579   3.660   1.203   5.552
 3227SOL    HW110580   3.613   1.123   5.515
 3227SOL    HW210581   3.640   1.282   5.494
 3228SOL     OW10582   5.331   3.782   4.538
 3228SOL    HW110583   5.253   3.723   4.516
 3228SOL    HW210584   5.391   3.788   4.458
 3229SOL     OW10585   4.475   1.552   5.361
 3229SOL    HW110586   4.417   1.526   5.283
 3229SOL    HW210587   4.418   1.592   5.433
 3230SOL     OW10588   0.519   0.556   3.798
 3230SOL    HW110589   0.578   0.581   3.875
 3230SOL    HW210590   0.425   0.582   3.818
 3231SOL     OW10591   5.958   6.325   0.841
 3231SOL    HW110592   5.959   6.290   0.935
 3231SOL    HW210593   5.870   6.304   0.799
 3232SOL     OW10594   2.824   4.907   4.381
 3232SOL    HW110595   2.881   4.977   4.426
 3232SOL    HW210596   2.789   4.844   4.450
 3233SOL     OW10597   0.655   3.999   1.438
 3233SOL    HW110598   0.753   3.979   1.441
 3233SOL    HW210599   0.609   3.933   1.379
 3234SOL     OW10600   0.357   1.671   6.760
 3234SOL    HW110601   0.349   1.740   6.688
 3234SOL    HW210602   0.408   1.593   6.725
 3235SOL     OW10603   5.286   6.885   2.392
 3235SOL    HW110604   5.259   6.869   2.487
 3235SOL    HW210605   5.256   6.808   2.336
 3236SOL     OW10606   1.177   3.182   2.833
 3236SOL    HW110607   1.205   3.270   2.794
 3236SOL    HW210608   1.230   3.109   2.789
 3237SOL     OW10609   3.107   0.021   4.964
 3237SOL    HW110610   3.148   7.007   4.880
 3237SOL    HW210611   3.039   0.091   4.942
 3238SOL     OW10612   0.508   6.323   6.351
 3238SOL    HW110613   0.444   6.246   6.357
 3238SOL    HW210614   0.496   6.382   6.431
 3239SOL     OW10615   6.799   0.286   5.147
 3239SOL    HW110616   6.825   0.308   5.053
 3239SOL    HW210617   6.876   0.242   5.194
 3240SOL     OW10618   1.785   0.597   4.801
 3240SOL    HW110619   1.762   0.618   4.706
 3240SOL    HW210620   1.700   0.588   4.854
 3241SOL     OW10621   4.817   1.237   4.157
 3241SOL    HW110622   4.738   1.184   4.187
 3241SOL    HW210623   4.847   1.205   4.068
 3242SOL     OW10624   4.096   6.439   6.837
 3242SOL    HW110625   4.158   6.451   6.915
 3242SOL    HW210626   4.013   6.392   6.868
 3243SOL     OW10627   4.317   5.252   1.001
 3243SOL    HW110628   4.242   5.244   0.935
 3243SOL    HW210629   4.318   5.344   1.039
 3244SOL     OW10630   3.086   6.346   6.618
 3244SOL    HW110631   3.184   6.344   6.639
 3244SOL    HW210632   3.036   6.379   6.699
 3245SOL     OW10633   3.786   2.395   6.818
 3245SOL    HW110634   3.833   2.478   6.848
 3245SOL    HW210635   3.804   2.379   6.721
 3246SOL     OW10636   5.118   6.102   2.783
 3246SOL    HW110637   5.040   6.158   2.756
 3246SOL    HW210638   5.190   6.161   2.820
 3247SOL     OW10639   0.639   2.410   4.184
 3247SOL    HW110640   0.703   2.376   4.115
 3247SOL    HW210641   0.673   2.497   4.220
 3248SOL     OW10642   6.159   3.368   1.463
 3248SOL    HW110643   6.171   3.350   1.365
 3248SOL    HW210644   6.166   3.467   1.480
 3249SOL     OW10645   2.722   4.689   4.819
 3249SOL    HW110646   2.638   4.635   4.810
 3249SOL    HW210647   2.772   4.660   4.900
 3250SOL     OW10648   4.910   6.444   2.514
 3250SOL    HW110649   4.870   6.432   2.423
 3250SOL    HW210650   4.874   6.527   2.555
 3251SOL     OW10651   3.632   2.084   3.114
 3251SOL    HW110652   3.672   2.031   3.039
 3251SOL    HW210653   3.534   2.093   3.100
 3252SOL     OW10654   3.026   0.838   2.731
 3252SOL    HW110655   3.036   0.887   2.817
 3252SOL    HW210656   3.103   0.776   2.718
 3253SOL     OW10657   5.056   3.078   0.948
 3253SOL    HW110658   5.118   3.137   0.998
 3253SOL    HW210659   5.102   3.042   0.867
 3254SOL     OW10660   4.550   4.406   3.238
 3254SOL    HW110661   4.531   4.467   3.161
 3254SOL    HW210662   4.502   4.439   3.319
 3255SOL     OW10663   4.897   5.410   0.305
 3255SOL    HW110664   4.827   5.353   0.263
 3255SOL    HW210665   4.977   5.413   0.246
 3256SOL     OW10666   5.164   6.445   5.733
 3256SOL    HW110667   5.210   6.533   5.726
 3256SOL    HW210668   5.184   6.403   5.822
 3257SOL     OW10669   1.648   2.542   1.239
 3257SOL    HW110670   1.660   2.501   1.149
 3257SOL    HW210671   1.646   2.469   1.308
 3258SOL     OW10672   5.400   6.661   1.887
 3258SOL    HW110673   5.390   6.593   1.959
 3258SOL    HW210674   5.328   6.648   1.819
 3259SOL     OW10675   4.135   6.581   4.159
 3259SOL    HW110676   4.062   6.534   4.109
 3259SOL    HW210677   4.161   6.525   4.238
 3260SOL     OW10678   1.961   2.326   6.920
 3260SOL    HW110679   1.970   2.272   6.836
 3260SOL    HW210680   2.034   2.394   6.923
 3261SOL     OW10681   4.288   0.153   1.135
 3261SOL    HW110682   4.343   0.236   1.131
 3261SOL    HW210683   4.192   0.174   1.115
 3262SOL     OW10684   4.126   1.823   3.205
 3262SOL    HW110685   4.067   1.753   3.165
 3262SOL    HW210686   4.069   1.891   3.253
 3263SOL     OW10687   4.281   6.454   1.501
 3263SOL    HW110688   4.257   6.510   1.421
 3263SOL    HW210689   4.378   6.469   1.524
 3264SOL     OW10690   6.499   4.777   0.054
 3264SOL    HW110691   6.476   4.804   0.148
 3264SOL    HW210692   6.517   4.859   7.021
 3265SOL     OW10693   5.108   0.270   6.143
 3265SOL    HW110694   5.126   0.355   6.093
 3265SOL    HW210695   5.175   0.260   6.216
 3266SOL     OW10696   1.101   1.283   6.172
 3266SOL    HW110697   1.131   1.323   6.259
 3266SOL    HW210698   1.003   1.266   6.176
 3267SOL     OW10699   3.328   1.948   1.003
 3267SOL    HW110700   3.405   1.893   0.969
 3267SOL    HW210701   3.316   1.932   1.101
 3268SOL     OW10702   1.117   4.366   5.964
 3268SOL    HW110703   1.108   4.465   5.976
 3268SOL    HW210704   1.214   4.343   5.952
 3269SOL     OW10705   4.448   4.329   1.430
 3269SOL    HW110706   4.540   4.369   1.433
 3269SOL    HW210707   4.455   4.230   1.444
 3270SOL     OW10708   0.763   6.229   4.368
 3270SOL    HW110709   0.857   6.206   4.393
 3270SOL    HW210710   0.754   6.229   4.268
 3271SOL     OW10711   5.869   1.538   1.526
 3271SOL    HW110712   5.778   1.581   1.532
 3271SOL    HW210713   5.899   1.540   1.430
 3272SOL     OW10714   4.240   0.174   0.588
 3272SOL    HW110715   4.267   0.197   0.681
 3272SOL    HW210716   4.239   0.075   0.577
 3273SOL     OW10717   0.199   6.656   2.220
 3273SOL    HW110718   0.283   6.668   2.167
 3273SOL    HW210719   0.136   6.731   2.201
 3274SOL     OW10720   2.999   1.922   5.871
 3274SOL    HW110721   3.018   1.952   5.965
 3274SOL    HW210722   3.059   1.972   5.808
 3275SOL     OW10723   2.529   0.238   6.608
 3275SOL    HW110724   2.619   0.194   6.610
 3275SOL    HW210725   2.486   0.223   6.519
 3276SOL     OW10726   3.263   6.354   0.306
 3276SOL    HW110727   3.312   6.404   0.378
 3276SOL    HW210728   3.165   6.350   0.329
 3277SOL     OW10729   0.259   6.190   4.994
 3277SOL    HW110730   0.225   6.151   4.908
 3277SOL    HW210731   0.358   6.177   4.999
 3278SOL     OW10732   1.231   0.535   6.102
 3278SOL    HW110733   1.234   0.437   6.086
 3278SOL    HW210734   1.231   0.584   6.015
 3279SOL     OW10735   1.208   6.983   1.170
 3279SOL    HW110736   1.252   0.028   1.232
 3279SOL    HW210737   1.116   6.963   1.204
 3280SOL     OW10738   1.961   4.665   5.688
 3280SOL    HW110739   2.013   4.691   5.769
 3280SOL    HW210740   2.015   4.601   5.632
 3281SOL     OW10741   2.422   5.308   0.891
 3281SOL    HW110742   2.358   5.310   0.967
 3281SOL    HW210743   2.499   5.369   0.909
 3282SOL     OW10744   2.670   5.454   3.420
 3282SOL    HW110745   2.677   5.394   3.500
 3282SOL    HW210746   2.645   5.400   3.340
 3283SOL     OW10747   2.388   1.032   3.801
 3283SOL    HW110748   2.408   1.104   3.736
 3283SOL    HW210749   2.310   0.978   3.767
 3284SOL     OW10750   0.150   4.918   6.817
 3284SOL    HW110751   0.102   4.842   6.860
 3284SOL    HW210752   0.132   5.002   6.867
 3285SOL     OW10753   0.892   1.635   3.650
 3285SOL    HW110754   0.804   1.656   3.606
 3285SOL    HW210755   0.895   1.678   3.741
 3286SOL     OW10756   3.530   3.477   4.566
 3286SOL    HW110757   3.614   3.423   4.566
 3286SOL    HW210758   3.540   3.556   4.626
 3287SOL     OW10759   1.632   5.311   0.688
 3287SOL    HW110760   1.567   5.341   0.617
 3287SOL    HW210761   1.672   5.391   0.732
 3288SOL     OW10762   0.567   5.876   6.172
 3288SOL    HW110763   0.597   5.911   6.083
 3288SOL    HW210764   0.644   5.871   6.234
 3289SOL     OW10765   1.381   6.351   4.755
 3289SOL    HW110766   1.369   6.437   4.705
 3289SOL    HW210767   1.427   6.370   4.842
 3290SOL     OW10768   6.768   4.871   1.275
 3290SOL    HW110769   6.798   4.777   1.260
 3290SOL    HW210770   6.725   4.879   1.364
 3291SOL     OW10771   1.409   6.470   0.532
 3291SOL    HW110772   1.493   6.475   0.586
 3291SOL    HW210773   1.344   6.409   0.576
 3292SOL     OW10774   0.237   6.702   5.492
 3292SOL    HW110775   0.191   6.693   5.580
 3292SOL    HW210776   0.188   6.650   5.423
 3293SOL     OW10777   6.926   1.393   2.401
 3293SOL    HW110778   6.860   1.465   2.380
 3293SOL    HW210779   6.954   1.346   2.317
 3294SOL     OW10780   6.960   0.611   0.056
 3294SOL    HW110781   6.994   0.584   6.987
 3294SOL    HW210782   0.010   0.661   0.105
 3295SOL     OW10783   1.933   3.001   0.241
 3295SOL    HW110784   1.924   3.090   0.197
 3295SOL    HW210785   1.906   2.929   0.177
 3296SOL     OW10786   1.973   0.069   2.478
 3296SOL    HW110787   1.896   0.009   2.502
 3296SOL    HW210788   2.045   0.061   2.547
 3297SOL     OW10789   2.850   2.366   6.461
 3297SOL    HW110790   2.945   2.359   6.490
 3297SOL    HW210791   2.845   2.403   6.369
 3298SOL     OW10792   6.376   2.835   2.764
 3298SOL    HW110793   6.298   2.784   2.799
 3298SOL    HW210794   6.453   2.826   2.828
 3299SOL     OW10795   2.111   6.978   4.799
 3299SOL    HW110796   2.089   6.887   4.764
 3299SOL    HW210797   2.028   0.011   4.806
 3300SOL     OW10798   6.259   6.319   4.464
 3300SOL    HW110799   6.300   6.258   4.532
 3300SOL    HW210800   6.322   6.393   4.443
 3301SOL     OW10801   0.814   3.615   3.237
 3301SOL    HW110802   0.820   3.675   3.317
 3301SOL    HW210803   0.835   3.668   3.155
 3302SOL     OW10804   1.042   4.803   4.174
 3302SOL    HW110805   1.041   4.711   4.135
 3302SOL    HW210806   0.949   4.841   4.173
 3303SOL     OW10807   3.729   3.658   3.459
 3303SOL    HW110808   3.827   3.644   3.475
 3303SOL    HW210809   3.687   3.698   3.540
 3304SOL     OW10810   0.337   6.430   4.445
 3304SOL    HW110811   0.296   6.467   4.362
 3304SOL    HW210812   0.268   6.424   4.517
 3305SOL     OW10813   2.199   1.121   2.306
 3305SOL    HW110814   2.245   1.099   2.392
 3305SOL    HW210815   2.268   1.130   2.234
 3306SOL     OW10816   1.412   3.806   3.536
 3306SOL    HW110817   1.512   3.805   3.538
 3306SOL    HW210818   1.382   3.838   3.446
 3307SOL     OW10819   6.862   5.874   6.832
 3307SOL    HW110820   6.855   5.974   6.833
 3307SOL    HW210821   6.946   5.846   6.785
 3308SOL     OW10822   4.910   5.938   0.743
 3308SOL    HW110823   4.971   5.860   0.757
 3308SOL    HW210824   4.943   6.016   0.795
 3309SOL     OW10825   0.229   4.554   2.887
 3309SOL    HW110826   0.292   4.562   2.963
 3309SOL    HW210827   0.139   4.590   2.913
 3310SOL     OW10828   1.092   5.301   2.292
 3310SOL    HW110829   1.156   5.224   2.293
 3310SOL    HW210830   1.118   5.367   2.362
 3311SOL     OW10831   4.324   6.644   0.785
 3311SOL    HW110832   4.366   6.573   0.729
 3311SOL    HW210833   4.225   6.638   0.777
 3312SOL     OW10834   3.391   3.601   6.932
 3312SOL    HW110835   3.331   3.675   6.963
 3312SOL    HW210836   3.384   3.594   6.832
 3313SOL     OW10837   6.756   5.521   3.864
 3313SOL    HW110838   6.759   5.493   3.768
 3313SOL    HW210839   6.813   5.459   3.919
 3314SOL     OW10840   1.118   3.323   5.348
 3314SOL    HW110841   1.201   3.364   5.386
 3314SOL    HW210842   1.105   3.356   5.255
 3315SOL     OW10843   0.050   2.253   3.799
 3315SOL    HW110844   0.108   2.204   3.864
 3315SOL    HW210845   0.106   2.298   3.730
 3316SOL     OW10846   4.715   1.732   6.696
 3316SOL    HW110847   4.751   1.739   6.789
 3316SOL    HW210848   4.783   1.686   6.638
 3317SOL     OW10849   4.494   2.775   0.915
 3317SOL    HW110850   4.513   2.792   0.819
 3317SOL    HW210851   4.545   2.694   0.945
 3318SOL     OW10852   2.579   5.605   5.791
 3318SOL    HW110853   2.627   5.518   5.784
 3318SOL    HW210854   2.631   5.675   5.741
 3319SOL     OW10855   0.600   5.910   5.162
 3319SOL    HW110856   0.628   5.833   5.219
 3319SOL    HW210857   0.508   5.940   5.190
 3320SOL     OW10858   6.313   1.075   5.931
 3320SOL    HW110859   6.351   1.076   5.839
 3320SOL    HW210860   6.340   1.159   5.979
 3321SOL     OW10861   3.500   3.450   3.080
 3321SOL    HW110862   3.499   3.542   3.041
 3321SOL    HW210863   3.568   3.394   3.032
 3322SOL     OW10864   3.529   1.452   0.560
 3322SOL    HW110865   3.592   1.510   0.509
 3322SOL    HW210866   3.505   1.371   0.506
 3323SOL     OW10867   2.281   4.926   0.483
 3323SOL    HW110868   2.237   5.014   0.467
 3323SOL    HW210869   2.230   4.854   0.435
 3324SOL     OW10870   1.187   2.699   0.923
 3324SOL    HW110871   1.241   2.643   0.860
 3324SOL    HW210872   1.207   2.672   1.017
 3325SOL     OW10873   1.274   2.797   1.435
 3325SOL    HW110874   1.327   2.878   1.409
 3325SOL    HW210875   1.207   2.777   1.364
 3326SOL     OW10876   6.259   1.473   1.197
 3326SOL    HW110877   6.191   1.409   1.161
 3326SOL    HW210878   6.218   1.563   1.209
 3327SOL     OW10879   2.908   6.747   2.238
 3327SOL    HW110880   2.901   6.727   2.141
 3327SOL    HW210881   2.947   6.838   2.251
 3328SOL     OW10882   4.677   1.110   1.964
 3328SOL    HW110883   4.688   1.062   2.051
 3328SOL    HW210884   4.726   1.062   1.892
 3329SOL     OW10885   4.812   6.988   5.402
 3329SOL    HW110886   4.898   6.951   5.436
 3329SOL    HW210887   4.736   6.946   5.452
 3330SOL     OW10888   6.404   5.849   2.612
 3330SOL    HW110889   6.310   5.832   2.642
 3330SOL    HW210890   6.463   5.775   2.644
 3331SOL     OW10891   2.109   3.465   2.727
 3331SOL    HW110892   2.022   3.456   2.679
 3331SOL    HW210893   2.129   3.381   2.777
 3332SOL     OW10894   4.197   5.527   1.014
 3332SOL    HW110895   4.276   5.534   0.952
 3332SOL    HW210896   4.118   5.572   0.972
 3333SOL     OW10897   4.086   3.760   1.380
 3333SOL    HW110898   4.048   3.667   1.385
 3333SOL    HW210899   4.121   3.786   1.469
 3334SOL     OW10900   1.669   2.220   2.833
 3334SOL    HW110901   1.714   2.132   2.820
 3334SOL    HW210902   1.733   2.283   2.880
 3335SOL     OW10903   4.045   4.422   5.340
 3335SOL    HW110904   3.966   4.477   5.313
 3335SOL    HW210905   4.115   4.428   5.269
 3336SOL     OW10906   4.769   6.194   4.071
 3336SOL    HW110907   4.686   6.250   4.067
 3336SOL    HW210908   4.795   6.180   4.166
 3337SOL     OW10909   3.475   3.739   3.347
 3337SOL    HW110910   3.436   3.672   3.411
 3337SOL    HW210911   3.561   3.774   3.384
 3338SOL     OW10912   2.380   1.419   1.534
 3338SOL    HW110913   2.325   1.401   1.452
 3338SOL    HW210914   2.387   1.517   1.548
 3339SOL     OW10915   2.179   6.928   5.352
 3339SOL    HW110916   2.198   6.937   5.254
 3339SOL    HW210917   2.223   7.003   5.402
 3340SOL     OW10918   4.242   0.912   4.409
 3340SOL    HW110919   4.210   0.925   4.314
 3340SOL    HW210920   4.163   0.901   4.469
 3341SOL     OW10921   2.296   4.403   2.957
 3341SOL    HW110922   2.325   4.357   2.873
 3341SOL    HW210923   2.314   4.343   3.035
 3342SOL     OW10924   6.993   0.722   2.976
 3342SOL    HW110925   0.030   0.723   3.058
 3342SOL    HW210926   0.007   0.789   2.910
 3343SOL     OW10927   5.038   5.198   6.738
 3343SOL    HW110928   5.011   5.146   6.820
 3343SOL    HW210929   5.093   5.139   6.678
 3344SOL     OW10930   0.427   2.758   3.224
 3344SOL    HW110931   0.421   2.720   3.131
 3344SOL    HW210932   0.514   2.731   3.265
 3345SOL     OW10933   6.902   4.485   0.554
 3345SOL    HW110934   6.969   4.522   0.490
 3345SOL    HW210935   6.839   4.558   0.583
 3346SOL     OW10936   2.186   0.943   0.147
 3346SOL    HW110937   2.242   0.963   0.228
 3346SOL    HW210938   2.181   0.844   0.133
 3347SOL     OW10939   0.147   3.403   6.383
 3347SOL    HW110940   0.091   3.341   6.327
 3347SOL    HW210941   0.244   3.385   6.365
 3348SOL     OW10942   3.818   3.856   6.021
 3348SOL    HW110943   3.770   3.879   6.106
 3348SOL    HW210944   3.860   3.766   6.029
 3349SOL     OW10945   2.481   5.203   3.932
 3349SOL    HW110946   2.434   5.283   3.895
 3349SOL    HW210947   2.450   5.187   4.026
 3350SOL     OW10948   0.412   3.960   5.274
 3350SOL    HW110949   0.403   3.860   5.268
 3350SOL    HW210950   0.477   3.991   5.205
 3351SOL     OW10951   5.544   0.759   1.422
 3351SOL    HW110952   5.504   0.711   1.500
 3351SOL    HW210953   5.612   0.825   1.454
 3352SOL     OW10954   5.322   2.310   6.687
 3352SOL    HW110955   5.336   2.334   6.783
 3352SOL    HW210956   5.234   2.347   6.656
 3353SOL     OW10957   2.939   0.521   1.610
 3353SOL    HW110958   2.952   0.450   1.679
 3353SOL    HW210959   2.983   0.606   1.641
 3354SOL     OW10960   3.554   3.485   6.419
 3354SOL    HW110961   3.536   3.466   6.515
 3354SOL    HW210962   3.616   3.563   6.411
 3355SOL     OW10963   2.311   0.445   5.474
 3355SOL    HW110964   2.408   0.436   5.452
 3355SOL    HW210965   2.285   0.541   5.476
 3356SOL     OW10966   1.746   6.699   5.205
 3356SOL    HW110967   1.841   6.717   5.231
 3356SOL    HW210968   1.718   6.610   5.241
 3357SOL     OW10969   3.422   3.487   1.644
 3357SOL    HW110970   3.452   3.503   1.550
 3357SOL    HW210971   3.395   3.391   1.653
 3358SOL     OW10972   0.259   1.265   2.613
 3358SOL    HW110973   0.276   1.304   2.523
 3358SOL    HW210974   0.339   1.211   2.641
 3359SOL     OW10975   6.593   6.234   4.198
 3359SOL    HW110976   6.601   6.304   4.269
 3359SOL    HW210977   6.567   6.276   4.111
 3360SOL     OW10978   0.082   3.154   5.422
 3360SOL    HW110979   0.153   3.167   5.491
 3360SOL    HW210980   7.020   3.201   5.451
 3361SOL     OW10981   0.289   0.801   4.525
 3361SOL    HW110982   0.376   0.844   4.501
 3361SOL    HW210983   0.220   0.826   4.456
 3362SOL     OW10984   3.615   1.502   3.873
 3362SOL    HW110985   3.627   1.591   3.828
 3362SOL    HW210986   3.683   1.491   3.945
 3363SOL     OW10987   5.670   3.820   0.655
 3363SOL    HW110988   5.704   3.907   0.621
 3363SOL    HW210989   5.713   3.799   0.742
 3364SOL     OW10990   1.921   4.232   4.187
 3364SOL    HW110991   1.907   4.314   4.243
 3364SOL    HW210992   1.909   4.255   4.090
 3365SOL     OW10993   2.130   4.043   3.933
 3365SOL    HW110994   2.060   4.094   3.883
 3365SOL    HW210995   2.135   3.950   3.896
 3366SOL     OW10996   5.692   3.864   4.326
 3366SOL    HW110997   5.603   3.881   4.368
 3366SOL    HW210998   5.755   3.828   4.395
 3367SOL     OW10999   3.823   3.389   3.864
 3367SOL    HW111000   3.828   3.418   3.959
 3367SOL    HW211001   3.858   3.296   3.855
 3368SOL     OW11002   1.362   5.901   0.884
 3368SOL    HW111003   1.325   5.973   0.942
 3368SOL    HW211004   1.423   5.941   0.816
 3369SOL     OW11005   4.457   2.860   1.416
 3369SOL    HW111006   4.409   2.822   1.496
 3369SOL    HW211007   4.414   2.947   1.390
 3370SOL     OW11008   0.360   5.695   2.893
 3370SOL    HW111009   0.269   5.672   2.929
 3370SOL    HW211010   0.404   5.761   2.954
 3371SOL     OW11011   1.657   3.038   3.438
 3371SOL    HW111012   1.661   3.042   3.338
 3371SOL    HW211013   1.572   3.081   3.470
 3372SOL     OW11014   6.807   3.866   1.674
 3372SOL    HW111015   6.753   3.950   1.676
 3372SOL    HW211016   6.791   3.814   1.757
 3373SOL     OW11017   0.043   2.926   1.500
 3373SOL    HW111018   7.019   2.944   1.413
 3373SOL    HW211019   0.138   2.900   1.484
 3374SOL     OW11020   0.343   0.606   4.355
 3374SOL    HW111021   0.257   0.573   4.315
 3374SOL    HW211022   0.323   0.667   4.431
 3375SOL     OW11023   6.457   5.207   5.983
 3375SOL    HW111024   6.422   5.286   6.032
 3375SOL    HW211025   6.383   5.142   5.966
 3376SOL     OW11026   2.740   3.904   5.234
 3376SOL    HW111027   2.777   3.856   5.155
 3376SOL    HW211028   2.647   3.934   5.214
 3377SOL     OW11029   6.216   4.387   3.213
 3377SOL    HW111030   6.206   4.439   3.298
 3377SOL    HW211031   6.287   4.430   3.157
 3378SOL     OW11032   1.025   6.322   0.404
 3378SOL    HW111033   1.053   6.406   0.451
 3378SOL    HW211034   1.103   6.286   0.352
 3379SOL     OW11035   6.656   4.465   3.799
 3379SOL    HW111036   6.683   4.553   3.837
 3379SOL    HW211037   6.595   4.418   3.864
 3380SOL     OW11038   3.296   4.293   6.611
 3380SOL    HW111039   3.211   4.304   6.662
 3380SOL    HW211040   3.318   4.378   6.564
 3381SOL     OW11041   1.313   3.509   0.798
 3381SOL    HW111042   1.402   3.485   0.760
 3381SOL    HW211043   1.258   3.555   0.728
 3382SOL     OW11044   0.227   2.608   1.366
 3382SOL    HW111045   0.150   2.576   1.311
 3382SOL    HW211046   0.237   2.549   1.447
 3383SOL     OW11047   5.356   5.262   0.401
 3383SOL    HW111048   5.371   5.342   0.343
 3383SOL    HW211049   5.395   5.181   0.357
 3384SOL     OW11050   2.483   4.831   6.821
 3384SOL    HW111051   2.573   4.832   6.864
 3384SOL    HW211052   2.491   4.861   6.726
 3385SOL     OW11053   0.365   1.963   3.852
 3385SOL    HW111054   0.396   2.017   3.773
 3385SOL    HW211055   0.440   1.905   3.883
 3386SOL     OW11056   6.628   4.568   6.350
 3386SOL    HW111057   6.607   4.497   6.283
 3386SOL    HW211058   6.717   4.608   6.329
 3387SOL     OW11059   6.512   0.535   3.426
 3387SOL    HW111060   6.420   0.498   3.419
 3387SOL    HW211061   6.548   0.519   3.518
 3388SOL     OW11062   6.246   3.303   1.203
 3388SOL    HW111063   6.206   3.295   1.112
 3388SOL    HW211064   6.319   3.235   1.213
 3389SOL     OW11065   6.462   6.276   0.626
 3389SOL    HW111066   6.452   6.342   0.552
 3389SOL    HW211067   6.530   6.309   0.692
 3390SOL     OW11068   3.838   6.600   5.901
 3390SOL    HW111069   3.934   6.591   5.872
 3390SOL    HW211070   3.809   6.695   5.890
 3391SOL     OW11071   5.661   3.034   4.198
 3391SOL    HW111072   5.588   3.032   4.266
 3391SOL    HW211073   5.629   3.081   4.116
 3392SOL     OW11074   4.519   6.572   5.822
 3392SOL    HW111075   4.483   6.665   5.822
 3392SOL    HW211076   4.483   6.522   5.900
 3393SOL     OW11077   4.963   5.827   1.342
 3393SOL    HW111078   5.016   5.910   1.359
 3393SOL    HW211079   4.939   5.823   1.245
 3394SOL     OW11080   2.977   5.469   1.645
 3394SOL    HW111081   3.014   5.436   1.558
 3394SOL    HW211082   2.991   5.401   1.716
 3395SOL     OW11083   2.701   0.342   3.533
 3395SOL    HW111084   2.745   0.388   3.455
 3395SOL    HW211085   2.769   0.288   3.583
 3396SOL     OW11086   4.477   2.065   4.441
 3396SOL    HW111087   4.567   2.088   4.406
 3396SOL    HW211088   4.470   1.966   4.454
 3397SOL     OW11089   2.528   5.578   0.541
 3397SOL    HW111090   2.558   5.582   0.446
 3397SOL    HW211091   2.540   5.669   0.583
 3398SOL     OW11092   6.619   1.919   4.059
 3398SOL    HW111093   6.522   1.909   4.080
 3398SOL    HW211094   6.631   1.944   3.963
 3399SOL     OW11095   6.426   5.367   2.411
 3399SOL    HW111096   6.487   5.446   2.403
 3399SOL    HW211097   6.429   5.314   2.327
 3400SOL     OW11098   5.491   1.836   6.115
 3400SOL    HW111099   5.431   1.915   6.120
 3400SOL    HW211100   5.461   1.776   6.040
 3401SOL     OW11101   6.900   3.404   5.417
 3401SOL    HW111102   6.800   3.412   5.410
 3401SOL    HW211103   6.939   3.396   5.326
 3402SOL     OW11104   6.495   3.871   1.739
 3402SOL    HW111105   6.431   3.902   1.668
 3402SOL    HW211106   6.550   3.796   1.704
 3403SOL     OW11107   4.732   6.267   0.225
 3403SOL    HW111108   4.710   6.365   0.224
 3403SOL    HW211109   4.703   6.227   0.311
 3404SOL     OW11110   5.119   4.102   4.885
 3404SOL    HW111111   5.188   4.040   4.924
 3404SOL    HW211112   5.136   4.195   4.917
 3405SOL     OW11113   5.244   5.749   5.726
 3405SOL    HW111114   5.151   5.713   5.730
 3405SOL    HW211115   5.295   5.705   5.652
 3406SOL     OW11116   2.297   4.983   1.689
 3406SOL    HW111117   2.360   4.992   1.611
 3406SOL    HW211118   2.340   4.928   1.760
 3407SOL     OW11119   1.163   3.682   0.646
 3407SOL    HW111120   1.189   3.699   0.551
 3407SOL    HW211121   1.188   3.761   0.702
 3408SOL     OW11122   5.025   2.530   3.682
 3408SOL    HW111123   5.119   2.523   3.648
 3408SOL    HW211124   4.997   2.443   3.723
 3409SOL     OW11125   4.574   0.396   0.490
 3409SOL    HW111126   4.594   0.333   0.416
 3409SOL    HW211127   4.593   0.490   0.461
 3410SOL     OW11128   4.886   0.233   2.444
 3410SOL    HW111129   4.976   0.254   2.482
 3410SOL    HW211130   4.871   0.286   2.360
 3411SOL     OW11131   6.172   2.580   0.533
 3411SOL    HW111132   6.169   2.566   0.632
 3411SOL    HW211133   6.119   2.509   0.488
 3412SOL     OW11134   5.249   3.404   1.293
 3412SOL    HW111135   5.164   3.456   1.301
 3412SOL    HW211136   5.321   3.465   1.261
 3413SOL     OW11137   0.192   2.825   6.198
 3413SOL    HW111138   0.116   2.810   6.261
 3413SOL    HW211139   0.218   2.738   6.155
 3414SOL     OW11140   3.264   3.731   0.811
 3414SOL    HW111141   3.232   3.816   0.770
 3414SOL    HW211142   3.364   3.730   0.812
 3415SOL     OW11143   2.201   2.576   5.596
 3415SOL    HW111144   2.202   2.645   5.668
 3415SOL    HW211145   2.199   2.485   5.638
 3416SOL     OW11146   5.842   6.999   6.260
 3416SOL    HW111147   5.942   6.990   6.260
 3416SOL    HW211148   5.817   0.072   6.285
 3417SOL     OW11149   6.520   0.168   2.729
 3417SOL    HW111150   6.453   0.145   2.659
 3417SOL    HW211151   6.494   0.254   2.773
 3418SOL     OW11152   5.066   4.632   0.893
 3418SOL    HW111153   5.157   4.671   0.911
 3418SOL    HW211154   5.049   4.557   0.956
 3419SOL     OW11155   3.074   6.029   5.770
 3419SOL    HW111156   3.043   6.033   5.866
 3419SOL    HW211157   3.002   5.989   5.714
 3420SOL     OW11158   4.337   2.326   3.043
 3420SOL    HW111159   4.370   2.405   2.991
 3420SOL    HW211160   4.308   2.356   3.134
 3421SOL     OW11161   6.341   2.239   3.375
 3421SOL    HW111162   6.251   2.280   3.360
 3421SOL    HW211163   6.389   2.231   3.287
 3422SOL     OW11164   2.547   0.038   1.121
 3422SOL    HW111165   2.533   0.133   1.149
 3422SOL    HW211166   2.585   0.036   1.028
 3423SOL     OW11167   1.293   5.004   6.153
 3423SOL    HW111168   1.271   5.096   6.120
 3423SOL    HW211169   1.297   5.005   6.253
 3424SOL     OW11170   4.429   0.583   1.744
 3424SOL    HW111171   4.406   0.520   1.818
 3424SOL    HW211172   4.345   0.625   1.708
 3425SOL     OW11173   5.722   3.647   0.882
 3425SOL    HW111174   5.750   3.618   0.973
 3425SOL    HW211175   5.658   3.580   0.844
 3426SOL     OW11176   5.681   3.101   6.696
 3426SOL    HW111177   5.772   3.141   6.684
 3426SOL    HW211178   5.686   3.002   6.687
 3427SOL     OW11179   1.283   2.504   0.489
 3427SOL    HW111180   1.261   2.595   0.525
 3427SOL    HW211181   1.365   2.509   0.432
 3428SOL     OW11182   4.489   5.886   6.341
 3428SOL    HW111183   4.565   5.828   6.313
 3428SOL    HW211184   4.524   5.963   6.394
 3429SOL     OW11185   6.648   0.222   1.216
 3429SOL    HW111186   6.730   0.239   1.271
 3429SOL    HW211187   6.612   0.309   1.183
 3430SOL     OW11188   2.328   4.641   5.159
 3430SOL    HW111189   2.280   4.560   5.126
 3430SOL    HW211190   2.424   4.619   5.175
 3431SOL     OW11191   1.721   5.803   3.452
 3431SOL    HW111192   1.661   5.863   3.399
 3431SOL    HW211193   1.753   5.728   3.394
 3432SOL     OW11194   1.895   4.271   1.124
 3432SOL    HW111195   1.984   4.282   1.078
 3432SOL    HW211196   1.824   4.253   1.056
 3433SOL     OW11197   2.425   1.378   6.843
 3433SOL    HW111198   2.409   1.281   6.825
 3433SOL    HW211199   2.427   1.394   6.942
 3434SOL     OW11200   3.362   2.440   0.664
 3434SOL    HW111201   3.299   2.468   0.737
 3434SOL    HW211202   3.436   2.386   0.703
 3435SOL     OW11203   2.528   0.449   0.516
 3435SOL    HW111204   2.552   0.374   0.454
 3435SOL    HW211205   2.505   0.530   0.463
 3436SOL     OW11206   3.059   6.021   6.743
 3436SOL    HW111207   3.069   6.082   6.822
 3436SOL    HW211208   3.086   6.070   6.660
 3437SOL     OW11209   1.658   6.605   6.646
 3437SOL    HW111210   1.686   6.590   6.741
 3437SOL    HW211211   1.664   6.518   6.596
 3438SOL     OW11212   1.321   4.071   1.402
 3438SOL    HW111213   1.414   4.107   1.408
 3438SOL    HW211214   1.321   3.975   1.430
 3439SOL     OW11215   2.294   5.114   2.169
 3439SOL    HW111216   2.220   5.053   2.197
 3439SOL    HW211217   2.274   5.151   2.079
 3440SOL     OW11218   3.885   3.644   4.816
 3440SOL    HW111219   3.934   3.639   4.730
 3440SOL    HW211220   3.932   3.707   4.878
 3441SOL     OW11221   5.410   5.032   5.684
 3441SOL    HW111222   5.322   5.056   5.726
 3441SOL    HW211223   5.393   4.988   5.595
 3442SOL     OW11224   3.269   3.166   0.872
 3442SOL    HW111225   3.187   3.199   0.918
 3442SOL    HW211226   3.339   3.237   0.874
 3443SOL     OW11227   1.468   6.923   2.183
 3443SOL    HW111228   1.374   6.899   2.161
 3443SOL    HW211229   1.529   6.850   2.154
 3444SOL     OW11230   6.326   3.811   0.207
 3444SOL    HW111231   6.260   3.871   0.160
 3444SOL    HW211232   6.353   3.852   0.293
 3445SOL     OW11233   5.957   4.523   2.764
 3445SOL    HW111234   5.996   4.439   2.801
 3445SOL    HW211235   6.030   4.579   2.725
 3446SOL     OW11236   5.155   1.130   0.953
 3446SOL    HW111237   5.106   1.100   1.035
 3446SOL    HW211238   5.247   1.160   0.978
 3447SOL     OW11239   5.649   1.349   6.876
 3447SOL    HW111240   5.655   1.252   6.854
 3447SOL    HW211241   5.573   1.365   6.939
 3448SOL     OW11242   1.692   6.190   5.036
 3448SOL    HW111243   1.603   6.154   5.007
 3448SOL    HW211244   1.688   6.290   5.038
 3449SOL     OW11245   6.935   4.169   5.170
 3449SOL    HW111246   6.919   4.217   5.084
 3449SOL    HW211247   6.917   4.071   5.158
 3450SOL     OW11248   1.447   6.363   1.466
 3450SOL    HW111249   1.503   6.355   1.549
 3450SOL    HW211250   1.466   6.450   1.421
 3451SOL     OW11251   2.567   0.852   1.439
 3451SOL    HW111252   2.588   0.888   1.530
 3451SOL    HW211253   2.493   0.785   1.446
 3452SOL     OW11254   4.476   6.951   5.052
 3452SOL    HW111255   4.561   6.900   5.063
 3452SOL    HW211256   4.451   6.994   5.139
 3453SOL     OW11257   4.443   6.216   6.238
 3453SOL    HW111258   4.467   6.293   6.296
 3453SOL    HW211259   4.425   6.136   6.295
 3454SOL     OW11260   1.055   2.631   1.664
 3454SOL    HW111261   1.141   2.681   1.675
 3454SOL    HW211262   0.978   2.695   1.671
 3455SOL     OW11263   0.690   3.136   5.557
 3455SOL    HW111264   0.789   3.125   5.545
 3455SOL    HW211265   0.664   3.230   5.535
 3456SOL     OW11266   5.659   4.334   2.202
 3456SOL    HW111267   5.560   4.326   2.208
 3456SOL    HW211268   5.686   4.348   2.106
 3457SOL     OW11269   3.907   4.919   5.828
 3457SOL    HW111270   3.879   4.952   5.738
 3457SOL    HW211271   3.928   4.821   5.822
 3458SOL     OW11272   4.070   1.222   2.802
 3458SOL    HW111273   4.049   1.267   2.889
 3458SOL    HW211274   4.032   1.275   2.727
 3459SOL     OW11275   4.855   6.389   2.871
 3459SOL    HW111276   4.769   6.439   2.859
 3459SOL    HW211277   4.880   6.345   2.785
 3460SOL     OW11278   3.995   1.271   5.190
 3460SOL    HW111279   3.966   1.303   5.281
 3460SOL    HW211280   4.085   1.230   5.197
 3461SOL     OW11281   6.123   5.449   5.049
 3461SOL    HW111282   6.079   5.391   5.118
 3461SOL    HW211283   6.101   5.545   5.068
 3462SOL     OW11284   1.484   4.233   6.887
 3462SOL    HW111285   1.532   4.288   6.819
 3462SOL    HW211286   1.523   4.141   6.889
 3463SOL     OW11287   6.175   4.269   1.098
 3463SOL    HW111288   6.265   4.312   1.101
 3463SOL    HW211289   6.180   4.177   1.136
 3464SOL     OW11290   6.557   4.918   6.102
 3464SOL    HW111291   6.532   4.826   6.131
 3464SOL    HW211292   6.513   4.985   6.162
 3465SOL     OW11293   2.041   0.684   1.113
 3465SOL    HW111294   1.969   0.637   1.061
 3465SOL    HW211295   2.002   0.722   1.197
 3466SOL     OW11296   6.537   4.355   5.156
 3466SOL    HW111297   6.456   4.400   5.195
 3466SOL    HW211298   6.617   4.412   5.172
 3467SOL     OW11299   1.831   2.026   6.973
 3467SOL    HW111300   1.882   2.072   6.901
 3467SOL    HW211301   1.886   2.023   0.035
 3468SOL     OW11302   3.264   6.765   4.161
 3468SOL    HW111303   3.171   6.803   4.167
 3468SOL    HW211304   3.259   6.665   4.161
 3469SOL     OW11305   5.431   2.487   2.559
 3469SOL    HW111306   5.345   2.464   2.604
 3469SOL    HW211307   5.504   2.431   2.595
 3470SOL     OW11308   0.254   5.696   0.948
 3470SOL    HW111309   0.232   5.683   1.045
 3470SOL    HW211310   0.173   5.729   0.900
 3471SOL     OW11311   3.890   6.429   4.644
 3471SOL    HW111312   3.887   6.455   4.547
 3471SOL    HW211313   3.802   6.390   4.670
 3472SOL     OW11314   3.140   1.093   5.391
 3472SOL    HW111315   3.184   1.092   5.301
 3472SOL    HW211316   3.111   1.000   5.415
 3473SOL     OW11317   5.479   0.402   6.030
 3473SOL    HW111318   5.391   0.379   5.989
 3473SOL    HW211319   5.553   0.363   5.974
 3474SOL     OW11320   4.970   5.481   1.081
 3474SOL    HW111321   5.037   5.411   1.058
 3474SOL    HW211322   5.014   5.553   1.135
 3475SOL     OW11323   1.581   5.962   4.444
 3475SOL    HW111324   1.655   5.989   4.383
 3475SOL    HW211325   1.563   6.036   4.509
 3476SOL     OW11326   4.915   0.598   4.557
 3476SOL    HW111327   4.942   0.605   4.461
 3476SOL    HW211328   4.883   0.506   4.576
 3477SOL     OW11329   3.949   6.145   1.232
 3477SOL    HW111330   3.945   6.052   1.268
 3477SOL    HW211331   3.983   6.206   1.304
 3478SOL     OW11332   4.011   4.745   0.653
 3478SOL    HW111333   4.077   4.754   0.579
 3478SOL    HW211334   3.981   4.650   0.660
 3479SOL     OW11335   0.900   0.663   2.452
 3479SOL    HW111336   0.947   0.730   2.394
 3479SOL    HW211337   0.836   0.610   2.396
 3480SOL     OW11338   1.005   1.303   3.356
 3480SOL    HW111339   0.961   1.227   3.404
 3480SOL    HW211340   1.035   1.273   3.266
 3481SOL     OW11341   2.467   6.379   0.138
 3481SOL    HW111342   2.370   6.356   0.135
 3481SOL    HW211343   2.502   6.366   0.231
 3482SOL     OW11344   0.539   2.489   0.468
 3482SOL    HW111345   0.627   2.535   0.477
 3482SOL    HW211346   0.531   2.450   0.376
 3483SOL     OW11347   3.243   0.047   1.448
 3483SOL    HW111348   3.340   0.028   1.460
 3483SOL    HW211349   3.222   0.138   1.484
 3484SOL     OW11350   3.707   4.078   3.437
 3484SOL    HW111351   3.634   4.066   3.370
 3484SOL    HW211352   3.716   4.175   3.460
 3485SOL     OW11353   1.141   2.407   5.151
 3485SOL    HW111354   1.209   2.439   5.085
 3485SOL    HW211355   1.188   2.374   5.233
 3486SOL     OW11356   4.326   1.734   1.922
 3486SOL    HW111357   4.311   1.635   1.924
 3486SOL    HW211358   4.238   1.782   1.933
 3487SOL     OW11359   6.472   0.760   6.994
 3487SOL    HW111360   6.464   0.737   6.897
 3487SOL    HW211361   6.566   0.784   7.016
 3488SOL     OW11362   5.564   3.442   3.880
 3488SOL    HW111363   5.571   3.485   3.790
 3488SOL    HW211364   5.569   3.512   3.951
 3489SOL     OW11365   3.416   0.054   1.177
 3489SOL    HW111366   3.475   6.994   1.172
 3489SOL    HW211367   3.321   0.025   1.191
 3490SOL     OW11368   4.016   4.222   6.978
 3490SOL    HW111369   4.093   4.247   0.016
 3490SOL    HW211370   3.936   4.277   7.001
 3491SOL     OW11371   0.442   3.185   4.760
 3491SOL    HW111372   0.465   3.167   4.856
 3491SOL    HW211373   0.391   3.271   4.755
 3492SOL     OW11374   6.805   4.419   6.899
 3492SOL    HW111375   6.718   4.452   6.935
 3492SOL    HW211376   6.812   4.440   6.801
 3493SOL     OW11377   6.544   4.139   0.768
 3493SOL    HW111378   6.591   4.184   0.692
 3493SOL    HW211379   6.589   4.164   0.854
 3494SOL     OW11380   3.197   0.358   0.626
 3494SOL    HW111381   3.105   0.399   0.628
 3494SOL    HW211382   3.215   0.322   0.535
 3495SOL     OW11383   5.095   4.877   0.504
 3495SOL    HW111384   5.063   4.964   0.467
 3495SOL    HW211385   5.072   4.872   0.601
 3496SOL     OW11386   2.244   2.957   1.168
 3496SOL    HW111387   2.195   3.035   1.207
 3496SOL    HW211388   2.296   2.911   1.239
 3497SOL     OW11389   4.680   0.084   3.520
 3497SOL    HW111390   4.653   0.179   3.506
 3497SOL    HW211391   4.607   0.035   3.568
 3498SOL     OW11392   2.716   1.395   2.186
 3498SOL    HW111393   2.708   1.454   2.105
 3498SOL    HW211394   2.755   1.447   2.262
 3499SOL     OW11395   6.611   3.077   3.960
 3499SOL    HW111396   6.593   3.174   3.943
 3499SOL    HW211397   6.670   3.041   3.888
 3500SOL     OW11398   6.306   3.632   0.004
 3500SOL    HW111399   6.310   3.701   0.076
 3500SOL    HW211400   6.385   3.643   6.964
 3501SOL     OW11401   1.472   4.703   4.583
 3501SOL    HW111402   1.483   4.749   4.495
 3501SOL    HW211403   1.423   4.763   4.646
 3502SOL     OW11404   0.751   2.852   1.378
 3502SOL    HW111405   0.840   2.896   1.371
 3502SOL    HW211406   0.700   2.894   1.454
 3503SOL     OW11407   5.088   5.863   4.618
 3503SOL    HW111408   5.013   5.922   4.589
 3503SOL    HW211409   5.157   5.858   4.546
 3504SOL     OW11410   2.236   3.313   1.679
 3504SOL    HW111411   2.269   3.385   1.741
 3504SOL    HW211412   2.149   3.341   1.638
 3505SOL     OW11413   5.486   4.839   5.440
 3505SOL    HW111414   5.436   4.780   5.503
 3505SOL    HW211415   5.519   4.784   5.363
 3506SOL     OW11416   4.509   5.229   3.038
 3506SOL    HW111417   4.491   5.269   2.948
 3506SOL    HW211418   4.572   5.153   3.027
 3507SOL     OW11419   1.014   6.985   6.201
 3507SOL    HW111420   1.007   0.027   6.278
 3507SOL    HW211421   0.937   7.000   6.138
 3508SOL     OW11422   5.831   3.417   6.958
 3508SOL    HW111423   5.812   3.509   6.923
 3508SOL    HW211424   5.853   3.356   6.881
 3509SOL     OW11425   6.667   6.802   0.859
 3509SOL    HW111426   6.597   6.777   0.791
 3509SOL    HW211427   6.750   6.830   0.812
 3510SOL     OW11428   2.213   2.999   2.234
 3510SOL    HW111429   2.192   3.072   2.299
 3510SOL    HW211430   2.260   2.925   2.281
 3511SOL     OW11431   0.900   1.858   6.258
 3511SOL    HW111432   0.906   1.957   6.270
 3511SOL    HW211433   0.829   1.837   6.192
 3512SOL     OW11434   2.623   3.202   0.968
 3512SOL    HW111435   2.718   3.171   0.973
 3512SOL    HW211436   2.611   3.263   0.890
 3513SOL     OW11437   6.481   5.039   1.153
 3513SOL    HW111438   6.558   5.017   1.212
 3513SOL    HW211439   6.463   4.962   1.090
 3514SOL     OW11440   0.603   6.133   1.098
 3514SOL    HW111441   0.681   6.071   1.085
 3514SOL    HW211442   0.559   6.113   1.185
 3515SOL     OW11443   2.584   6.275   3.724
 3515SOL    HW111444   2.557   6.268   3.821
 3515SOL    HW211445   2.609   6.369   3.703
 3516SOL     OW11446   2.816   1.392   1.180
 3516SOL    HW111447   2.817   1.491   1.195
 3516SOL    HW211448   2.856   1.372   1.091
 3517SOL     OW11449   0.770   0.952   6.208
 3517SOL    HW111450   0.800   1.024   6.271
 3517SOL    HW211451   0.794   0.863   6.247
 3518SOL     OW11452   3.863   3.013   5.783
 3518SOL    HW111453   3.858   3.079   5.708
 3518SOL    HW211454   3.805   3.043   5.858
 3519SOL     OW11455   1.701   6.149   0.518
 3519SOL    HW111456   1.617   6.135   0.570
 3519SOL    HW211457   1.779   6.148   0.581
 3520SOL     OW11458   4.237   6.104   0.905
 3520SOL    HW111459   4.239   6.058   0.994
 3520SOL    HW211460   4.213   6.200   0.917
 3521SOL     OW11461   5.693   2.945   0.609
 3521SOL    HW111462   5.763   2.975   0.544
 3521SOL    HW211463   5.728   2.867   0.661
 3522SOL     OW11464   2.883   4.889   2.081
 3522SOL    HW111465   2.826   4.826   2.134
 3522SOL    HW211466   2.918   4.961   2.142
 3523SOL     OW11467   2.184   4.972   5.361
 3523SOL    HW111468   2.214   4.957   5.267
 3523SOL    HW211469   2.195   4.888   5.414
 3524SOL     OW11470   2.844   0.330   0.655
 3524SOL    HW111471   2.744   0.339   0.649
 3524SOL    HW211472   2.884   0.419   0.672
 3525SOL     OW11473   0.857   2.563   2.801
 3525SOL    HW111474   0.916   2.575   2.721
 3525SOL    HW211475   0.820   2.652   2.829
 3526SOL     OW11476   2.294   1.106   2.568
 3526SOL    HW111477   2.247   1.032   2.616
 3526SOL    HW211478   2.393   1.091   2.573
 3527SOL     OW11479   5.194   2.548   5.794
 3527SOL    HW111480   5.184   2.451   5.774
 3527SOL    HW211481   5.290   2.574   5.787
 3528SOL     OW11482   0.121   6.890   4.795
 3528SOL    HW111483   0.042   6.949   4.775
 3528SOL    HW211484   0.186   6.896   4.719
 3529SOL     OW11485   3.667   6.281   6.591
 3529SOL    HW111486   3.737   6.238   6.647
 3529SOL    HW211487   3.707   6.313   6.506
 3530SOL     OW11488   1.899   6.260   3.394
 3530SOL    HW111489   1.915   6.163   3.412
 3530SOL    HW211490   1.986   6.309   3.397
 3531SOL     OW11491   4.983   3.782   6.616
 3531SOL    HW111492   4.960   3.693   6.575
 3531SOL    HW211493   5.060   3.822   6.567
 3532SOL     OW11494   1.812   6.635   0.231
 3532SOL    HW111495   1.713   6.632   0.218
 3532SOL    HW211496   1.853   6.551   0.195
 3533SOL     OW11497   1.635   1.264   2.881
 3533SOL    HW111498   1.640   1.306   2.972
 3533SOL    HW211499   1.725   1.269   2.837
 3534SOL     OW11500   5.217   0.782   4.572
 3534SOL    HW111501   5.122   0.757   4.588
 3534SOL    HW211502   5.276   0.729   4.634
 3535SOL     OW11503   5.577   5.198   6.296
 3535SOL    HW111504   5.609   5.281   6.341
 3535SOL    HW211505   5.655   5.142   6.269
 3536SOL     OW11506   1.191   4.167   3.389
 3536SOL    HW111507   1.141   4.134   3.469
 3536SOL    HW211508   1.232   4.255   3.410
 3537SOL     OW11509   2.158   5.152   1.015
 3537SOL    HW111510   2.161   5.106   1.104
 3537SOL    HW211511   2.229   5.114   0.956
 3538SOL     OW11512   2.731   1.336   4.424
 3538SOL    HW111513   2.763   1.245   4.397
 3538SOL    HW211514   2.658   1.327   4.491
 3539SOL     OW11515   5.300   5.190   5.909
 3539SOL    HW111516   5.379   5.131   5.926
 3539SOL    HW211517   5.310   5.274   5.963
 3540SOL     OW11518   2.923   3.827   6.631
 3540SOL    HW111519   2.941   3.800   6.537
 3540SOL    HW211520   2.940   3.925   6.641
 3541SOL     OW11521   3.062   2.629   0.908
 3541SOL    HW111522   3.134   2.686   0.870
 3541SOL    HW211523   2.973   2.664   0.880
 3542SOL     OW11524   5.648   2.208   6.127
 3542SOL    HW111525   5.699   2.244   6.206
 3542SOL    HW211526   5.666   2.110   6.117
 3543SOL     OW11527   1.124   2.531   3.553
 3543SOL    HW111528   1.086   2.456   3.499
 3543SOL    HW211529   1.167   2.597   3.492
 3544SOL     OW11530   2.427   4.507   6.087
 3544SOL    HW111531   2.412   4.482   5.991
 3544SOL    HW211532   2.490   4.441   6.129
 3545SOL     OW11533   3.559   6.850   1.208
 3545SOL    HW111534   3.616   6.768   1.217
 3545SOL    HW211535   3.466   6.830   1.239
 3546SOL     OW11536   0.003   3.857   3.450
 3546SOL    HW111537   6.990   3.799   3.376
 3546SOL    HW211538   6.949   3.881   3.511
 3547SOL     OW11539   0.506   4.221   5.650
 3547SOL    HW111540   0.487   4.130   5.686
 3547SOL    HW211541   0.467   4.230   5.559
 3548SOL     OW11542   6.269   0.458   5.293
 3548SOL    HW111543   6.350   0.516   5.286
 3548SOL    HW211544   6.227   0.469   5.383
 3549SOL     OW11545   2.800   6.318   0.039
 3549SOL    HW111546   2.739   6.253   7.015
 3549SOL    HW211547   2.765   6.411   0.028
 3550SOL     OW11548   5.587   0.907   4.887
 3550SOL    HW111549   5.586   0.994   4.838
 3550SOL    HW211550   5.521   0.910   4.962
 3551SOL     OW11551   4.358   1.674   4.172
 3551SOL    HW111552   4.404   1.759   4.146
 3551SOL    HW211553   4.282   1.695   4.234
 3552SOL     OW11554   0.496   6.427   2.963
 3552SOL    HW111555   0.458   6.405   2.873
 3552SOL    HW211556   0.574   6.489   2.953
 3553SOL     OW11557   5.135   5.406   0.161
 3553SOL    HW111558   5.209   5.463   0.199
 3553SOL    HW211559   5.153   5.389   0.064
 3554SOL     OW11560   5.212   3.262   1.057
 3554SOL    HW111561   5.209   3.344   1.000
 3554SOL    HW211562   5.186   3.284   1.151
 3555SOL     OW11563   2.318   1.939   5.517
 3555SOL    HW111564   2.319   1.839   5.507
 3555SOL    HW211565   2.393   1.966   5.577
 3556SOL     OW11566   5.098   0.764   5.639
 3556SOL    HW111567   5.041   0.716   5.706
 3556SOL    HW211568   5.040   0.812   5.573
 3557SOL     OW11569   6.776   1.126   1.339
 3557SOL    HW111570   6.761   1.070   1.420
 3557SOL    HW211571   6.808   1.217   1.368
 3558SOL     OW11572   3.207   6.456   2.168
 3558SOL    HW111573   3.125   6.437   2.223
 3558SOL    HW211574   3.196   6.542   2.119
 3559SOL     OW11575   4.102   6.162   5.075
 3559SOL    HW111576   4.105   6.063   5.057
 3559SOL    HW211577   4.040   6.179   5.152
 3560SOL     OW11578   2.235   5.430   4.321
 3560SOL    HW111579   2.186   5.436   4.409
 3560SOL    HW211580   2.316   5.372   4.332
 3561SOL     OW11581   4.930   4.004   5.422
 3561SOL    HW111582   4.938   3.905   5.406
 3561SOL    HW211583   4.866   4.020   5.497
 3562SOL     OW11584   2.419   1.627   5.795
 3562SOL    HW111585   2.342   1.563   5.801
 3562SOL    HW211586   2.472   1.623   5.880
 3563SOL     OW11587   5.971   2.689   4.879
 3563SOL    HW111588   5.889   2.720   4.832
 3563SOL    HW211589   5.960   2.592   4.904
 3564SOL     OW11590   6.596   4.131   2.087
 3564SOL    HW111591   6.691   4.101   2.097
 3564SOL    HW211592   6.536   4.051   2.086
 3565SOL     OW11593   3.844   5.802   3.388
 3565SOL    HW111594   3.770   5.735   3.393
 3565SOL    HW211595   3.924   5.761   3.345
 3566SOL     OW11596   1.438   0.623   5.504
 3566SOL    HW111597   1.450   0.568   5.587
 3566SOL    HW211598   1.462   0.567   5.425
 3567SOL     OW11599   0.537   3.946   6.077
 3567SOL    HW111600   0.535   4.016   6.149
 3567SOL    HW211601   0.513   3.857   6.116
 3568SOL     OW11602   6.172   3.723   5.863
 3568SOL    HW111603   6.199   3.802   5.916
 3568SOL    HW211604   6.164   3.643   5.923
 3569SOL     OW11605   1.643   1.906   5.455
 3569SOL    HW111606   1.650   1.894   5.554
 3569SOL    HW211607   1.732   1.935   5.419
 3570SOL     OW11608   6.285   1.438   4.020
 3570SOL    HW111609   6.327   1.347   4.027
 3570SOL    HW211610   6.330   1.500   4.084
 3571SOL     OW11611   6.477   5.944   5.948
 3571SOL    HW111612   6.402   5.882   5.969
 3571SOL    HW211613   6.516   5.921   5.859
 3572SOL     OW11614   5.616   4.832   4.683
 3572SOL    HW111615   5.671   4.905   4.642
 3572SOL    HW211616   5.565   4.785   4.612
 3573SOL     OW11617   1.262   2.987   2.686
 3573SOL    HW111618   1.346   2.944   2.653
 3573SOL    HW211619   1.188   2.967   2.623
 3574SOL     OW11620   0.300   3.926   0.665
 3574SOL    HW111621   0.364   3.926   0.588
 3574SOL    HW211622   0.319   3.848   0.724
 3575SOL     OW11623   5.964   4.408   1.997
 3575SOL    HW111624   6.012   4.459   2.068
 3575SOL    HW211625   5.995   4.312   1.998
 3576SOL     OW11626   0.460   1.316   6.314
 3576SOL    HW111627   0.478   1.242   6.379
 3576SOL    HW211628   0.519   1.304   6.233
 3577SOL     OW11629   0.710   3.008   0.134
 3577SOL    HW111630   0.692   3.097   0.174
 3577SOL    HW211631   0.673   2.936   0.194
 3578SOL     OW11632   3.348   5.021   0.592
 3578SOL    HW111633   3.436   4.983   0.619
 3578SOL    HW211634   3.284   5.017   0.669
 3579SOL     OW11635   6.875   3.768   4.543
 3579SOL    HW111636   6.923   3.783   4.457
 3579SOL    HW211637   6.831   3.854   4.572
 3580SOL     OW11638   6.024   2.233   2.099
 3580SOL    HW111639   6.015   2.136   2.075
 3580SOL    HW211640   6.089   2.277   2.037
 3581SOL     OW11641   0.417   0.404   3.157
 3581SOL    HW111642   0.354   0.417   3.233
 3581SOL    HW211643   0.402   0.315   3.115
 3582SOL     OW11644   1.453   0.272   6.381
 3582SOL    HW111645   1.486   0.290   6.288
 3582SOL    HW211646   1.441   0.173   6.393
 3583SOL     OW11647   1.097   5.483   0.282
 3583SOL    HW111648   1.037   5.480   0.202
 3583SOL    HW211649   1.097   5.576   0.320
 3584SOL     OW11650   5.111   5.928   6.348
 3584SOL    HW111651   5.187   5.966   6.295
 3584SOL    HW211652   5.034   5.908   6.288
 3585SOL     OW11653   3.299   4.883   4.133
 3585SOL    HW111654   3.244   4.881   4.216
 3585SOL    HW211655   3.241   4.863   4.054
 3586SOL     OW11656   6.671   3.316   5.883
 3586SOL    HW111657   6.708   3.376   5.953
 3586SOL    HW211658   6.572   3.331   5.876
 3587SOL     OW11659   4.292   6.630   0.012
 3587SOL    HW111660   4.317   6.716   6.987
 3587SOL    HW211661   4.374   6.573   0.022
 3588SOL     OW11662   1.105   2.153   5.979
 3588SOL    HW111663   1.179   2.087   5.974
 3588SOL    HW211664   1.142   2.246   5.985
 3589SOL     OW11665   3.044   0.899   5.563
 3589SOL    HW111666   2.984   0.920   5.640
 3589SOL    HW211667   2.990   0.857   5.490
 3590SOL     OW11668   1.301   5.276   6.586
 3590SOL    HW111669   1.300   5.217   6.666
 3590SOL    HW211670   1.393   5.279   6.547
 3591SOL     OW11671   5.306   2.060   5.986
 3591SOL    HW111672   5.287   2.107   6.072
 3591SOL    HW211673   5.358   2.120   5.925
 3592SOL     OW11674   5.235   2.876   2.533
 3592SOL    HW111675   5.167   2.839   2.470
 3592SOL    HW211676   5.312   2.912   2.481
 3593SOL     OW11677   1.362   6.611   3.783
 3593SOL    HW111678   1.293   6.676   3.816
 3593SOL    HW211679   1.453   6.644   3.807
 3594SOL     OW11680   2.856   1.552   4.259
 3594SOL    HW111681   2.865   1.492   4.338
 3594SOL    HW211682   2.763   1.544   4.222
 3595SOL     OW11683   2.821   5.674   6.258
 3595SOL    HW111684   2.761   5.752   6.275
 3595SOL    HW211685   2.824   5.655   6.160
 3596SOL     OW11686   6.311   1.986   2.187
 3596SOL    HW111687   6.366   1.984   2.103
 3596SOL    HW211688   6.342   2.060   2.246
 3597SOL     OW11689   2.827   5.833   3.739
 3597SOL    HW111690   2.771   5.800   3.815
 3597SOL    HW211691   2.840   5.932   3.749
 3598SOL     OW11692   1.280   0.084   6.579
 3598SOL    HW111693   1.304   0.033   6.496
 3598SOL    HW211694   1.340   0.055   6.654
 3599SOL     OW11695   0.506   1.580   4.851
 3599SOL    HW111696   0.529   1.598   4.755
 3599SOL    HW211697   0.543   1.492   4.878
 3600SOL     OW11698   5.827   2.564   0.642
 3600SOL    HW111699   5.910   2.532   0.595
 3600SOL    HW211700   5.784   2.637   0.589
 3601SOL     OW11701   0.172   4.090   6.553
 3601SOL    HW111702   0.181   4.177   6.506
 3601SOL    HW211703   0.082   4.051   6.534
 3602SOL     OW11704   2.097   1.048   6.942
 3602SOL    HW111705   2.127   1.032   0.015
 3602SOL    HW211706   2.089   0.961   6.894
 3603SOL     OW11707   4.091   4.887   3.665
 3603SOL    HW111708   4.154   4.819   3.704
 3603SOL    HW211709   4.033   4.924   3.738
 3604SOL     OW11710   0.327   2.276   2.659
 3604SOL    HW111711   0.344   2.343   2.731
 3604SOL    HW211712   0.240   2.297   2.614
 3605SOL     OW11713   5.922   3.344   6.181
 3605SOL    HW111714   5.852   3.387   6.124
 3605SOL    HW211715   5.889   3.338   6.276
 3606SOL     OW11716   0.440   4.241   5.373
 3606SOL    HW111717   0.406   4.149   5.358
 3606SOL    HW211718   0.388   4.306   5.318
 3607SOL     OW11719   5.407   6.921   0.697
 3607SOL    HW111720   5.411   7.007   0.646
 3607SOL    HW211721   5.368   6.939   0.788
 3608SOL     OW11722   0.494   2.294   1.432
 3608SOL    HW111723   0.484   2.195   1.439
 3608SOL    HW211724   0.591   2.319   1.445
 3609SOL     OW11725   6.640   0.867   5.107
 3609SOL    HW111726   6.599   0.831   5.023
 3609SOL    HW211727   6.740   0.857   5.102
 3610SOL     OW11728   1.292   6.354   6.068
 3610SOL    HW111729   1.263   6.372   6.162
 3610SOL    HW211730   1.278   6.258   6.047
 3611SOL     OW11731   3.672   5.373   5.780
 3611SOL    HW111732   3.602   5.388   5.849
 3611SOL    HW211733   3.653   5.430   5.700
 3612SOL     OW11734   1.472   6.594   1.360
 3612SOL    HW111735   1.478   6.672   1.422
 3612SOL    HW211736   1.451   6.626   1.268
 3613SOL     OW11737   5.318   5.007   6.820
 3613SOL    HW111738   5.262   5.020   6.738
 3613SOL    HW211739   5.301   4.916   6.858
 3614SOL     OW11740   3.848   3.097   3.185
 3614SOL    HW111741   3.832   3.123   3.280
 3614SOL    HW211742   3.832   2.998   3.175
 3615SOL     OW11743   5.748   5.293   5.411
 3615SOL    HW111744   5.715   5.244   5.331
 3615SOL    HW211745   5.727   5.241   5.494
 3616SOL     OW11746   6.896   2.213   5.388
 3616SOL    HW111747   6.941   2.147   5.449
 3616SOL    HW211748   6.909   2.184   5.293
 3617SOL     OW11749   6.804   1.416   6.451
 3617SOL    HW111750   6.823   1.506   6.410
 3617SOL    HW211751   6.873   1.396   6.520
 3618SOL     OW11752   1.689   2.005   6.682
 3618SOL    HW111753   1.728   1.916   6.704
 3618SOL    HW211754   1.593   1.995   6.657
 3619SOL     OW11755   5.732   1.878   3.951
 3619SOL    HW111756   5.786   1.953   3.912
 3619SOL    HW211757   5.753   1.793   3.902
 3620SOL     OW11758   5.906   0.315   5.227
 3620SOL    HW111759   5.867   0.292   5.137
 3620SOL    HW211760   5.907   0.414   5.238
 3621SOL     OW11761   2.702   3.088   5.799
 3621SOL    HW111762   2.652   3.064   5.716
 3621SOL    HW211763   2.689   3.185   5.819
 3622SOL     OW11764   1.154   2.108   2.462
 3622SOL    HW111765   1.161   2.034   2.395
 3622SOL    HW211766   1.077   2.167   2.437
 3623SOL     OW11767   4.926   5.142   3.704
 3623SOL    HW111768   4.988   5.186   3.640
 3623SOL    HW211769   4.960   5.154   3.797
 3624SOL     OW11770   2.675   6.816   2.825
 3624SOL    HW111771   2.641   6.777   2.911
 3624SOL    HW211772   2.727   6.899   2.845
 3625SOL     OW11773   6.151   3.094   5.539
 3625SOL    HW111774   6.187   3.031   5.607
 3625SOL    HW211775   6.226   3.143   5.496
 3626SOL     OW11776   1.792   3.941   5.605
 3626SOL    HW111777   1.851   3.974   5.679
 3626SOL    HW211778   1.834   3.963   5.517
 3627SOL     OW11779   3.469   3.855   3.875
 3627SOL    HW111780   3.414   3.786   3.827
 3627SOL    HW211781   3.519   3.811   3.950
 3628SOL     OW11782   2.290   5.744   2.601
 3628SOL    HW111783   2.295   5.695   2.514
 3628SOL    HW211784   2.345   5.697   2.669
 3629SOL     OW11785   5.862   1.839   5.028
 3629SOL    HW111786   5.893   1.790   4.946
 3629SOL    HW211787   5.901   1.796   5.109
 3630SOL     OW11788   6.270   2.218   4.408
 3630SOL    HW111789   6.178   2.255   4.418
 3630SOL    HW211790   6.301   2.182   4.496
 3631SOL     OW11791   2.416   0.118   4.366
 3631SOL    HW111792   2.319   0.125   4.388
 3631SOL    HW211793   2.458   0.209   4.374
 3632SOL     OW11794   4.916   0.982   0.848
 3632SOL    HW111795   4.975   0.924   0.792
 3632SOL    HW211796   4.972   1.048   0.899
 3633SOL     OW11797   2.820   2.457   6.207
 3633SOL    HW111798   2.901   2.474   6.152
 3633SOL    HW211799   2.769   2.542   6.220
 3634SOL     OW11800   1.893   6.351   4.816
 3634SOL    HW111801   1.936   6.281   4.872
 3634SOL    HW211802   1.858   6.309   4.732
 3635SOL     OW11803   2.697   1.644   5.409
 3635SOL    HW111804   2.672   1.641   5.506
 3635SOL    HW211805   2.793   1.668   5.399
 3636SOL     OW11806   0.111   5.699   5.852
 3636SOL    HW111807   0.089   5.776   5.793
 3636SOL    HW211808   0.197   5.657   5.822
 3637SOL     OW11809   5.435   1.357   1.540
 3637SOL    HW111810   5.457   1.265   1.509
 3637SOL    HW211811   5.366   1.397   1.481
 3638SOL     OW11812   6.737   4.755   4.399
 3638SOL    HW111813   6.700   4.724   4.487
 3638SOL    HW211814   6.663   4.790   4.342
 3639SOL     OW11815   2.543   4.097   0.776
 3639SOL    HW111816   2.511   4.009   0.808
 3639SOL    HW211817   2.571   4.154   0.854
 3640SOL     OW11818   3.150   5.899   1.339
 3640SOL    HW111819   3.179   5.824   1.279
 3640SOL    HW211820   3.228   5.960   1.355
 3641SOL     OW11821   3.170   1.222   4.960
 3641SOL    HW111822   3.090   1.167   4.935
 3641SOL    HW211823   3.140   1.314   4.987
 3642SOL     OW11824   4.506   0.309   4.836
 3642SOL    HW111825   4.490   0.210   4.837
 3642SOL    HW211826   4.585   0.329   4.778
 3643SOL     OW11827   3.103   5.118   4.965
 3643SOL    HW111828   3.195   5.119   5.003
 3643SOL    HW211829   3.096   5.044   4.898
 3644SOL     OW11830   6.527   2.413   0.946
 3644SOL    HW111831   6.513   2.429   1.043
 3644SOL    HW211832   6.443   2.375   0.906
 3645SOL     OW11833   4.642   1.561   3.305
 3645SOL    HW111834   4.635   1.648   3.257
 3645SOL    HW211835   4.738   1.537   3.316
 3646SOL     OW11836   0.119   4.867   5.738
 3646SOL    HW111837   0.093   4.772   5.726
 3646SOL    HW211838   0.120   4.914   5.650
 3647SOL     OW11839   1.154   2.962   0.889
 3647SOL    HW111840   1.098   3.001   0.962
 3647SOL    HW211841   1.186   2.871   0.916
 3648SOL     OW11842   3.806   5.464   1.974
 3648SOL    HW111843   3.803   5.541   2.037
 3648SOL    HW211844   3.800   5.379   2.026
 3649SOL     OW11845   4.307   4.010   0.911
 3649SOL    HW111846   4.274   3.942   0.846
 3649SOL    HW211847   4.260   3.998   0.999
 3650SOL     OW11848   0.323   6.179   1.280
 3650SOL    HW111849   0.352   6.157   1.186
 3650SOL    HW211850   0.257   6.111   1.311
 3651SOL     OW11851   0.470   5.814   2.325
 3651SOL    HW111852   0.447   5.776   2.415
 3651SOL    HW211853   0.394   5.798   2.262
 3652SOL     OW11854   4.664   6.001   3.528
 3652SOL    HW111855   4.602   6.027   3.601
 3652SOL    HW211856   4.620   5.933   3.469
 3653SOL     OW11857   5.876   1.613   3.185
 3653SOL    HW111858   5.826   1.595   3.100
 3653SOL    HW211859   5.850   1.544   3.254
 3654SOL     OW11860   2.110   6.585   0.467
 3654SOL    HW111861   2.116   6.617   0.561
 3654SOL    HW211862   2.038   6.516   0.459
 3655SOL     OW11863   1.951   0.207   4.678
 3655SOL    HW111864   1.891   0.271   4.631
 3655SOL    HW211865   1.911   0.182   4.766
 3656SOL     OW11866   2.103   2.494   2.021
 3656SOL    HW111867   2.107   2.517   1.924
 3656SOL    HW211868   2.187   2.524   2.066
 3657SOL     OW11869   3.957   5.727   0.387
 3657SOL    HW111870   3.921   5.741   0.479
 3657SOL    HW211871   4.057   5.736   0.388
 3658SOL     OW11872   1.257   5.630   5.181
 3658SOL    HW111873   1.190   5.594   5.246
 3658SOL    HW211874   1.295   5.554   5.128
 3659SOL     OW11875   2.856   4.833   0.216
 3659SOL    HW111876   2.764   4.804   0.244
 3659SOL    HW211877   2.924   4.784   0.271
 3660SOL     OW11878   4.674   5.802   1.582
 3660SOL    HW111879   4.602   5.812   1.514
 3660SOL    HW211880   4.680   5.707   1.611
 3661SOL     OW11881   5.273   1.955   0.792
 3661SOL    HW111882   5.353   2.007   0.820
 3661SOL    HW211883   5.193   1.986   0.844
 3662SOL     OW11884   3.455   0.255   5.276
 3662SOL    HW111885   3.430   0.199   5.355
 3662SOL    HW211886   3.432   0.351   5.294
 3663SOL     OW11887   1.587   2.183   0.305
 3663SOL    HW111888   1.618   2.117   0.373
 3663SOL    HW211889   1.610   2.151   0.214
 3664SOL     OW11890   5.288   1.622   0.578
 3664SOL    HW111891   5.212   1.625   0.644
 3664SOL    HW211892   5.317   1.527   0.566
 3665SOL     OW11893   0.561   6.907   5.030
 3665SOL    HW111894   0.577   6.944   5.121
 3665SOL    HW211895   0.480   6.848   5.033
 3666SOL     OW11896   1.594   4.465   4.103
 3666SOL    HW111897   1.630   4.374   4.081
 3666SOL    HW211898   1.662   4.534   4.080
 3667SOL     OW11899   6.483   0.763   6.558
 3667SOL    HW111900   6.454   0.814   6.478
 3667SOL    HW211901   6.578   0.732   6.546
 3668SOL     OW11902   1.384   0.087   2.909
 3668SOL    HW111903   1.386   0.150   2.831
 3668SOL    HW211904   1.317   0.119   2.976
 3669SOL     OW11905   5.952   1.972   4.337
 3669SOL    HW111906   5.963   2.068   4.365
 3669SOL    HW211907   5.864   1.960   4.293
 3670SOL     OW11908   2.045   5.402   6.890
 3670SOL    HW111909   2.067   5.448   6.804
 3670SOL    HW211910   1.963   5.442   6.930
 3671SOL     OW11911   0.143   0.492   3.371
 3671SOL    HW111912   0.055   0.538   3.385
 3671SOL    HW211913   0.131   0.415   3.309
 3672SOL     OW11914   6.313   2.299   0.560
 3672SOL    HW111915   6.257   2.255   0.491
 3672SOL    HW211916   6.404   2.317   0.523
 3673SOL     OW11917   4.281   1.240   6.718
 3673SOL    HW111918   4.184   1.264   6.719
 3673SOL    HW211919   4.296   1.164   6.655
 3674SOL     OW11920   0.420   6.659   0.035
 3674SOL    HW111921   0.360   6.729   0.073
 3674SOL    HW211922   0.463   6.694   6.973
 3675SOL     OW11923   1.557   2.798   5.910
 3675SOL    HW111924   1.642   2.784   5.961
 3675SOL    HW211925   1.533   2.714   5.862
 3676SOL     OW11926   3.691   5.118   4.176
 3676SOL    HW111927   3.676   5.062   4.258
 3676SOL    HW211928   3.647   5.073   4.098
 3677SOL     OW11929   0.092   0.004   2.871
 3677SOL    HW111930   7.019   0.030   2.851
 3677SOL    HW211931   0.151   0.033   2.795
 3678SOL     OW11932   1.562   2.494   3.885
 3678SOL    HW111933   1.588   2.398   3.885
 3678SOL    HW211934   1.465   2.503   3.908
 3679SOL     OW11935   0.545   0.916   2.625
 3679SOL    HW111936   0.603   0.941   2.547
 3679SOL    HW211937   0.589   0.842   2.676
 3680SOL     OW11938   6.086   2.973   3.931
 3680SOL    HW111939   6.138   2.991   3.848
 3680SOL    HW211940   6.148   2.971   4.009
 3681SOL     OW11941   0.888   0.479   6.180
 3681SOL    HW111942   0.804   0.503   6.132
 3681SOL    HW211943   0.939   0.563   6.200
 3682SOL     OW11944   6.422   1.826   5.287
 3682SOL    HW111945   6.500   1.809   5.347
 3682SOL    HW211946   6.372   1.741   5.271
 3683SOL     OW11947   6.280   6.337   4.819
 3683SOL    HW111948   6.206   6.273   4.800
 3683SOL    HW211949   6.257   6.427   4.781
 3684SOL     OW11950   2.028   2.971   1.889
 3684SOL    HW111951   2.077   3.054   1.917
 3684SOL    HW211952   1.992   2.926   1.971
 3685SOL     OW11953   6.290   5.860   6.388
 3685SOL    HW111954   6.212   5.878   6.448
 3685SOL    HW211955   6.336   5.946   6.366
 3686SOL     OW11956   6.104   4.889   2.358
 3686SOL    HW111957   6.007   4.866   2.367
 3686SOL    HW211958   6.143   4.838   2.281
 3687SOL     OW11959   2.892   6.842   6.684
 3687SOL    HW111960   2.849   6.766   6.733
 3687SOL    HW211961   2.956   6.889   6.746
 3688SOL     OW11962   0.839   3.512   0.427
 3688SOL    HW111963   0.801   3.441   0.367
 3688SOL    HW211964   0.899   3.470   0.495
 3689SOL     OW11965   1.770   1.300   5.228
 3689SOL    HW111966   1.729   1.374   5.173
 3689SOL    HW211967   1.708   1.277   5.303
 3690SOL     OW11968   5.214   0.438   5.932
 3690SOL    HW111969   5.230   0.443   5.834
 3690SOL    HW211970   5.193   0.529   5.968
 3691SOL     OW11971   2.945   3.737   6.974
 3691SOL    HW111972   2.908   3.656   6.928
 3691SOL    HW211973   2.969   3.714   0.047
 3692SOL     OW11974   0.919   5.930   4.901
 3692SOL    HW111975   0.847   5.963   4.841
 3692SOL    HW211976   0.901   5.835   4.927
 3693SOL     OW11977   2.515   2.424   3.582
 3693SOL    HW111978   2.607   2.387   3.570
 3693SOL    HW211979   2.492   2.482   3.503
 3694SOL     OW11980   0.630   6.071   3.213
 3694SOL    HW111981   0.682   6.048   3.296
 3694SOL    HW211982   0.608   6.168   3.213
 3695SOL     OW11983   1.429   2.015   2.808
 3695SOL    HW111984   1.378   2.078   2.749
 3695SOL    HW211985   1.527   2.026   2.792
 3696SOL     OW11986   4.718   6.327   5.437
 3696SOL    HW111987   4.682   6.264   5.369
 3696SOL    HW211988   4.647   6.393   5.462
 3697SOL     OW11989   6.765   6.932   3.565
 3697SOL    HW111990   6.758   6.854   3.504
 3697SOL    HW211991   6.819   6.907   3.645
 3698SOL     OW11992   3.422   0.532   5.368
 3698SOL    HW111993   3.402   0.575   5.280
 3698SOL    HW211994   3.358   0.566   5.437
 3699SOL     OW11995   0.104   3.328   2.858
 3699SOL    HW111996   0.156   3.247   2.887
 3699SOL    HW211997   0.136   3.357   2.768
 3700SOL     OW11998   6.083   0.171   4.211
 3700SOL    HW111999   6.119   0.077   4.206
 3700SOL    HW212000   6.149   0.234   4.172
 3701SOL     OW12001   0.111   0.830   3.796
 3701SOL    HW112002   0.027   0.784   3.765
 3701SOL    HW212003   0.150   0.882   3.720
 3702SOL     OW12004   3.881   0.297   1.607
 3702SOL    HW112005   3.955   0.232   1.592
 3702SOL    HW212006   3.885   0.332   1.700
 3703SOL     OW12007   4.184   4.406   6.034
 3703SOL    HW112008   4.101   4.404   6.090
 3703SOL    HW212009   4.212   4.501   6.020
 3704SOL     OW12010   3.119   1.039   2.506
 3704SOL    HW112011   3.184   1.028   2.582
 3704SOL    HW212012   3.035   1.079   2.540
 3705SOL     OW12013   4.876   0.779   4.119
 3705SOL    HW112014   4.845   0.685   4.129
 3705SOL    HW212015   4.801   0.835   4.083
 3706SOL     OW12016   1.549   3.178   4.543
 3706SOL    HW112017   1.560   3.276   4.562
 3706SOL    HW212018   1.603   3.125   4.609
 3707SOL     OW12019   5.259   2.274   5.695
 3707SOL    HW112020   5.205   2.192   5.678
 3707SOL    HW212021   5.339   2.249   5.751
 3708SOL     OW12022   6.294   0.527   6.909
 3708SOL    HW112023   6.296   0.560   6.814
 3708SOL    HW212024   6.269   0.430   6.909
 3709SOL     OW12025   4.295   0.435   5.896
 3709SOL    HW112026   4.347   0.369   5.840
 3709SOL    HW212027   4.259   0.507   5.837
 3710SOL     OW12028   6.384   5.324   0.393
 3710SOL    HW112029   6.368   5.371   0.480
 3710SOL    HW212030   6.297   5.293   0.355
 3711SOL     OW12031   0.436   6.120   2.073
 3711SOL    HW112032   0.457   6.110   2.170
 3711SOL    HW212033   0.360   6.185   2.062
 3712SOL     OW12034   0.718   6.637   6.728
 3712SOL    HW112035   0.675   6.557   6.769
 3712SOL    HW212036   0.817   6.632   6.740
 3713SOL     OW12037   2.486   6.023   4.887
 3713SOL    HW112038   2.411   6.053   4.829
 3713SOL    HW212039   2.458   5.944   4.941
 3714SOL     OW12040   4.396   6.955   4.067
 3714SOL    HW112041   4.335   6.914   4.135
 3714SOL    HW212042   4.343   7.010   4.003
 3715SOL     OW12043   5.535   4.942   3.912
 3715SOL    HW112044   5.548   4.871   3.982
 3715SOL    HW212045   5.492   5.022   3.954
 3716SOL     OW12046   6.321   0.286   4.594
 3716SOL    HW112047   6.335   0.328   4.504
 3716SOL    HW212048   6.293   0.190   4.582
 3717SOL     OW12049   6.414   5.712   0.994
 3717SOL    HW112050   6.482   5.728   1.066
 3717SOL    HW212051   6.442   5.758   0.910
 3718SOL     OW12052   1.069   6.735   0.014
 3718SOL    HW112053   1.029   6.662   6.980
 3718SOL    HW212054   1.086   6.815   6.978
 3719SOL     OW12055   5.058   4.933   0.185
 3719SOL    HW112056   5.076   4.997   0.260
 3719SOL    HW212057   5.060   4.839   0.220
 3720SOL     OW12058   6.781   1.656   6.313
 3720SOL    HW112059   6.859   1.700   6.268
 3720SOL    HW212060   6.736   1.722   6.373
 3721SOL     OW12061   6.122   4.640   6.982
 3721SOL    HW112062   6.112   4.576   6.905
 3721SOL    HW212063   6.107   4.733   6.950
 3722SOL     OW12064   0.071   5.928   2.839
 3722SOL    HW112065   0.058   5.839   2.794
 3722SOL    HW212066   0.159   5.967   2.812
 3723SOL     OW12067   5.849   6.819   1.798
 3723SOL    HW112068   5.807   6.858   1.716
 3723SOL    HW212069   5.948   6.811   1.784
 3724SOL     OW12070   0.832   5.243   0.384
 3724SOL    HW112071   0.767   5.244   0.308
 3724SOL    HW212072   0.909   5.182   0.361
 3725SOL     OW12073   6.558   6.341   6.906
 3725SOL    HW112074   6.592   6.298   6.823
 3725SOL    HW212075   6.459   6.353   6.899
 3726SOL     OW12076   6.335   3.654   1.690
 3726SOL    HW112077   6.280   3.584   1.734
 3726SOL    HW212078   6.390   3.702   1.759
 3727SOL     OW12079   1.054   2.901   4.839
 3727SOL    HW112080   1.051   2.945   4.749
 3727SOL    HW212081   0.964   2.861   4.859
 3728SOL     OW12082   2.194   3.108   0.529
 3728SOL    HW112083   2.128   3.046   0.571
 3728SOL    HW212084   2.146   3.183   0.484
 3729SOL     OW12085   1.031   2.090   2.931
 3729SOL    HW112086   1.028   1.991   2.943
 3729SOL    HW212087   1.001   2.113   2.838
 3730SOL     OW12088   3.122   0.606   6.773
 3730SOL    HW112089   3.140   0.671   6.847
 3730SOL    HW212090   3.132   0.512   6.808
 3731SOL     OW12091   4.517   1.541   1.206
 3731SOL    HW112092   4.490   1.542   1.110
 3731SOL    HW212093   4.581   1.616   1.223
 3732SOL     OW12094   2.096   3.526   5.431
 3732SOL    HW112095   2.174   3.578   5.465
 3732SOL    HW212096   2.068   3.459   5.500
 3733SOL     OW12097   2.607   3.916   1.389
 3733SOL    HW112098   2.701   3.883   1.380
 3733SOL    HW212099   2.594   3.955   1.480
 3734SOL     OW12100   4.452   1.161   2.451
 3734SOL    HW112101   4.543   1.166   2.492
 3734SOL    HW212102   4.440   1.237   2.388
 3735SOL     OW12103   1.846   2.398   2.995
 3735SOL    HW112104   1.933   2.370   2.954
 3735SOL    HW212105   1.859   2.415   3.093
 3736SOL     OW12106   6.785   2.751   0.844
 3736SOL    HW112107   6.705   2.738   0.786
 3736SOL    HW212108   6.770   2.707   0.933
 3737SOL     OW12109   5.145   0.223   2.612
 3737SOL    HW112110   5.189   0.289   2.674
 3737SOL    HW212111   5.215   0.175   2.560
 3738SOL     OW12112   6.255   6.155   3.385
 3738SOL    HW112113   6.221   6.243   3.419
 3738SOL    HW212114   6.178   6.094   3.368
 3739SOL     OW12115   1.524   4.011   2.195
 3739SOL    HW112116   1.561   3.938   2.253
 3739SOL    HW212117   1.599   4.057   2.148
 3740SOL     OW12118   5.069   1.270   0.186
 3740SOL    HW112119   5.031   1.283   0.094
 3740SOL    HW212120   4.995   1.248   0.250
 3741SOL     OW12121   4.412   3.632   0.954
 3741SOL    HW112122   4.441   3.549   1.002
 3741SOL    HW212123   4.493   3.679   0.918
 3742SOL     OW12124   3.406   2.051   5.939
 3742SOL    HW112125   3.348   2.080   5.863
 3742SOL    HW212126   3.479   2.118   5.953
 3743SOL     OW12127   6.438   5.026   0.304
 3743SOL    HW112128   6.470   5.098   0.366
 3743SOL    HW212129   6.351   4.990   0.338
 3744SOL     OW12130   0.140   5.165   3.881
 3744SOL    HW112131   0.161   5.231   3.809
 3744SOL    HW212132   0.189   5.191   3.964
 3745SOL     OW12133   3.746   5.399   2.627
 3745SOL    HW112134   3.682   5.337   2.581
 3745SOL    HW212135   3.738   5.388   2.726
 3746SOL     OW12136   4.169   2.229   1.478
 3746SOL    HW112137   4.119   2.315   1.490
 3746SOL    HW212138   4.136   2.161   1.544
 3747SOL     OW12139   3.244   6.791   6.997
 3747SOL    HW112140   3.192   6.843   0.044
 3747SOL    HW212141   3.324   6.750   0.021
 3748SOL     OW12142   6.061   0.812   1.353
 3748SOL    HW112143   5.966   0.829   1.325
 3748SOL    HW212144   6.123   0.861   1.292
 3749SOL     OW12145   1.172   0.071   4.000
 3749SOL    HW112146   1.087   0.108   3.962
 3749SOL    HW212147   1.170   0.078   4.100
 3750SOL     OW12148   0.234   3.750   0.243
 3750SOL    HW112149   0.201   3.836   0.204
 3750SOL    HW212150   0.243   3.682   0.170
 3751SOL     OW12151   7.019   4.182   3.252
 3751SOL    HW112152   0.001   4.105   3.188
 3751SOL    HW212153   0.044   4.156   3.337
 3752SOL     OW12154   5.790   1.369   5.793
 3752SOL    HW112155   5.789   1.269   5.797
 3752SOL    HW212156   5.851   1.405   5.864
 3753SOL     OW12157   6.281   1.107   3.801
 3753SOL    HW112158   6.304   1.119   3.704
 3753SOL    HW212159   6.342   1.164   3.856
 3754SOL     OW12160   2.233   1.473   2.344
 3754SOL    HW112161   2.207   1.381   2.371
 3754SOL    HW212162   2.162   1.512   2.284
 3755SOL     OW12163   3.000   5.129   4.180
 3755SOL    HW112164   3.005   5.032   4.156
 3755SOL    HW212165   3.021   5.140   4.277
 3756SOL     OW12166   2.347   6.085   0.423
 3756SOL    HW112167   2.328   6.053   0.330
 3756SOL    HW212168   2.444   6.074   0.443
 3757SOL     OW12169   6.588   4.445   1.710
 3757SOL    HW112170   6.541   4.358   1.695
 3757SOL    HW212171   6.543   4.494   1.785
 3758SOL     OW12172   1.804   0.266   3.531
 3758SOL    HW112173   1.899   0.246   3.505
 3758SOL    HW212174   1.779   0.211   3.611
 3759SOL     OW12175   5.119   0.271   4.166
 3759SOL    HW112176   5.173   0.309   4.242
 3759SOL    HW212177   5.114   0.172   4.175
 3760SOL     OW12178   6.927   0.660   3.749
 3760SOL    HW112179   6.870   0.619   3.677
 3760SOL    HW212180   6.889   0.637   3.838
 3761SOL     OW12181   5.342   0.996   4.320
 3761SOL    HW112182   5.359   1.003   4.221
 3761SOL    HW212183   5.245   1.010   4.337
 3762SOL     OW12184   1.188   3.941   2.492
 3762SOL    HW112185   1.125   3.914   2.419
 3762SOL    HW212186   1.215   4.037   2.478
 3763SOL     OW12187   0.152   4.162   0.270
 3763SOL    HW112188   0.105   4.248   0.250
 3763SOL    HW212189   0.124   4.130   0.361
 3764SOL     OW12190   1.709   0.525   3.298
 3764SOL    HW112191   1.636   0.457   3.286
 3764SOL    HW212192   1.741   0.556   3.209
 3765SOL     OW12193   6.154   1.742   1.621
 3765SOL    HW112194   6.149   1.808   1.696
 3765SOL    HW212195   6.062   1.719   1.591
 3766SOL     OW12196   1.670   3.813   3.560
 3766SOL    HW112197   1.684   3.728   3.611
 3766SOL    HW212198   1.743   3.877   3.582
 3767SOL     OW12199   2.668   4.578   6.263
 3767SOL    HW112200   2.596   4.564   6.330
 3767SOL    HW212201   2.740   4.511   6.276
 3768SOL     OW12202   1.825   0.082   5.152
 3768SOL    HW112203   1.866   0.173   5.158
 3768SOL    HW212204   1.729   0.087   5.179
 3769SOL     OW12205   4.601   5.831   4.748
 3769SOL    HW112206   4.653   5.864   4.826
 3769SOL    HW212207   4.542   5.904   4.714
 3770SOL     OW12208   0.990   1.581   0.480
 3770SOL    HW112209   1.076   1.537   0.455
 3770SOL    HW212210   0.930   1.587   0.400
 3771SOL     OW12211   0.289   4.571   0.558
 3771SOL    HW112212   0.337   4.484   0.572
 3771SOL    HW212213   0.307   4.631   0.636
 3772SOL     OW12214   1.250   6.167   0.595
 3772SOL    HW112215   1.160   6.133   0.622
 3772SOL    HW212216   1.253   6.180   0.496
 3773SOL     OW12217   5.913   3.121   5.911
 3773SOL    HW112218   5.849   3.081   5.846
 3773SOL    HW212219   5.863   3.155   5.991
 3774SOL     OW12220   5.413   6.237   1.402
 3774SOL    HW112221   5.415   6.335   1.423
 3774SOL    HW212222   5.345   6.219   1.332
 3775SOL     OW12223   4.082   4.983   3.419
 3775SOL    HW112224   4.089   4.951   3.513
 3775SOL    HW212225   4.082   4.905   3.356
 3776SOL     OW12226   3.231   2.514   6.742
 3776SOL    HW112227   3.141   2.501   6.701
 3776SOL    HW212228   3.290   2.562   6.677
 3777SOL     OW12229   2.867   6.195   4.283
 3777SOL    HW112230   2.896   6.247   4.203
 3777SOL    HW212231   2.876   6.097   4.263
 3778SOL     OW12232   3.085   5.468   4.953
 3778SOL    HW112233   3.099   5.443   5.049
 3778SOL    HW212234   3.003   5.424   4.918
 3779SOL     OW12235   0.104   5.175   0.299
 3779SOL    HW112236   0.127   5.208   0.390
 3779SOL    HW212237   0.105   5.251   0.234
 3780SOL     OW12238   6.771   2.961   1.648
 3780SOL    HW112239   6.851   3.015   1.676
 3780SOL    HW212240   6.802   2.874   1.609
 3781SOL     OW12241   2.064   6.539   5.190
 3781SOL    HW112242   2.072   6.456   5.135
 3781SOL    HW212243   2.130   6.607   5.157
 3782SOL     OW12244   4.766   6.019   1.395
 3782SOL    HW112245   4.785   6.049   1.489
 3782SOL    HW212246   4.825   5.941   1.373
 3783SOL     OW12247   5.394   4.896   6.032
 3783SOL    HW112248   5.323   4.827   6.018
 3783SOL    HW212249   5.482   4.851   6.048
 3784SOL     OW12250   5.291   2.330   3.701
 3784SOL    HW112251   5.306   2.244   3.651
 3784SOL    HW212252   5.309   2.407   3.640
 3785SOL     OW12253   1.194   3.872   4.780
 3785SOL    HW112254   1.176   3.798   4.716
 3785SOL    HW212255   1.112   3.929   4.790
 3786SOL     OW12256   2.285   2.605   4.501
 3786SOL    HW112257   2.318   2.632   4.411
 3786SOL    HW212258   2.269   2.506   4.502
 3787SOL     OW12259   4.530   0.146   3.257
 3787SOL    HW112260   4.514   0.184   3.348
 3787SOL    HW212261   4.552   0.048   3.265
 3788SOL     OW12262   0.288   2.970   5.104
 3788SOL    HW112263   0.327   2.993   5.193
 3788SOL    HW212264   0.214   2.904   5.116
 3789SOL     OW12265   1.843   2.683   2.736
 3789SOL    HW112266   1.867   2.780   2.727
 3789SOL    HW212267   1.784   2.671   2.816
 3790SOL     OW12268   0.602   6.947   0.556
 3790SOL    HW112269   0.578   6.989   0.468
 3790SOL    HW212270   0.557   6.996   0.630
 3791SOL     OW12271   5.588   0.910   5.910
 3791SOL    HW112272   5.533   0.901   5.827
 3791SOL    HW212273   5.581   0.826   5.964
 3792SOL     OW12274   0.834   1.225   3.873
 3792SOL    HW112275   0.906   1.215   3.804
 3792SOL    HW212276   0.780   1.141   3.877
 3793SOL     OW12277   6.544   6.442   0.384
 3793SOL    HW112278   6.489   6.484   0.312
 3793SOL    HW212279   6.564   6.347   0.361
 3794SOL     OW12280   2.127   4.041   0.589
 3794SOL    HW112281   2.200   4.085   0.535
 3794SOL    HW212282   2.108   4.096   0.670
 3795SOL     OW12283   2.427   5.413   1.229
 3795SOL    HW112284   2.392   5.475   1.159
 3795SOL    HW212285   2.373   5.425   1.313
 3796SOL     OW12286   4.165   1.842   0.134
 3796SOL    HW112287   4.113   1.809   0.055
 3796SOL    HW212288   4.224   1.917   0.105
 3797SOL     OW12289   0.906   4.500   3.196
 3797SOL    HW112290   0.913   4.461   3.288
 3797SOL    HW212291   0.973   4.457   3.136
 3798SOL     OW12292   2.483   6.133   3.128
 3798SOL    HW112293   2.577   6.107   3.109
 3798SOL    HW212294   2.447   6.187   3.051
 3799SOL     OW12295   6.890   2.433   3.033
 3799SOL    HW112296   6.911   2.500   3.104
 3799SOL    HW212297   6.824   2.472   2.968
 3800SOL     OW12298   5.396   1.786   3.156
 3800SOL    HW112299   5.330   1.742   3.095
 3800SOL    HW212300   5.454   1.717   3.198
 3801SOL     OW12301   5.363   0.095   2.471
 3801SOL    HW112302   5.335   0.011   2.424
 3801SOL    HW212303   5.453   0.122   2.437
 3802SOL     OW12304   6.123   1.896   1.865
 3802SOL    HW112305   6.148   1.800   1.880
 3802SOL    HW212306   6.049   1.921   1.927
 3803SOL     OW12307   2.898   3.587   4.279
 3803SOL    HW112308   2.801   3.606   4.295
 3803SOL    HW212309   2.934   3.651   4.211
 3804SOL     OW12310   3.605   0.154   4.833
 3804SOL    HW112311   3.693   0.189   4.867
 3804SOL    HW212312   3.591   0.186   4.739
 3805SOL     OW12313   2.209   3.065   0.168
 3805SOL    HW112314   2.124   3.050   0.219
 3805SOL    HW212315   2.265   2.983   0.171
 3806SOL     OW12316   4.295   4.375   6.773
 3806SOL    HW112317   4.276   4.338   6.864
 3806SOL    HW212318   4.333   4.303   6.715
 3807SOL     OW12319   1.190   5.017   3.956
 3807SOL    HW112320   1.215   5.110   3.982
 3807SOL    HW212321   1.145   4.971   4.033
 3808SOL     OW12322   4.540   6.810   6.175
 3808SOL    HW112323   4.447   6.788   6.146
 3808SOL    HW212324   4.597   6.826   6.094
 3809SOL     OW12325   5.524   1.921   1.345
 3809SOL    HW112326   5.586   2.000   1.339
 3809SOL    HW212327   5.477   1.922   1.433
 3810SOL     OW12328   6.541   2.430   2.294
 3810SOL    HW112329   6.620   2.450   2.235
 3810SOL    HW212330   6.480   2.509   2.293
 3811SOL     OW12331   6.824   5.356   4.977
 3811SOL    HW112332   6.779   5.390   4.895
 3811SOL    HW212333   6.922   5.347   4.960
 3812SOL     OW12334   3.836   6.220   0.162
 3812SOL    HW112335   3.781   6.158   0.217
 3812SOL    HW212336   3.928   6.184   0.151
 3813SOL     OW12337   6.782   3.421   0.962
 3813SOL    HW112338   6.782   3.321   0.957
 3813SOL    HW212339   6.702   3.452   1.014
 3814SOL     OW12340   6.626   0.380   4.384
 3814SOL    HW112341   6.613   0.281   4.381
 3814SOL    HW212342   6.615   0.413   4.478
 3815SOL     OW12343   4.547   3.309   0.454
 3815SOL    HW112344   4.450   3.332   0.448
 3815SOL    HW212345   4.562   3.216   0.419
 3816SOL     OW12346   1.543   6.198   5.901
 3816SOL    HW112347   1.632   6.171   5.864
 3816SOL    HW212348   1.522   6.291   5.872
 3817SOL     OW12349   4.963   3.387   2.564
 3817SOL    HW112350   5.026   3.365   2.638
 3817SOL    HW212351   4.978   3.323   2.488
 3818SOL     OW12352   0.389   0.835   2.003
 3818SOL    HW112353   0.372   0.824   2.101
 3818SOL    HW212354   0.384   0.932   1.979
 3819SOL     OW12355   6.133   4.744   3.325
 3819SOL    HW112356   6.143   4.735   3.226
 3819SOL    HW212357   6.212   4.793   3.362
 3820SOL     OW12358   5.393   6.792   4.219
 3820SOL    HW112359   5.411   6.882   4.179
 3820SOL    HW212360   5.428   6.789   4.313
 3821SOL     OW12361   0.769   6.836   0.023
 3821SOL    HW112362   0.764   6.737   0.037
 3821SOL    HW212363   0.762   6.882   0.112
 3822SOL     OW12364   3.697   1.216   6.898
 3822SOL    HW112365   3.714   1.299   6.952
 3822SOL    HW212366   3.679   1.241   6.803
 3823SOL     OW12367   5.039   4.860   6.139
 3823SOL    HW112368   5.051   4.942   6.084
 3823SOL    HW212369   5.111   4.857   6.209
 3824SOL     OW12370   1.812   3.249   0.340
 3824SOL    HW112371   1.756   3.269   0.259
 3824SOL    HW212372   1.770   3.176   0.393
 3825SOL     OW12373   1.540   3.991   6.612
 3825SOL    HW112374   1.506   4.045   6.535
 3825SOL    HW212375   1.621   3.940   6.584
 3826SOL     OW12376   6.267   4.419   1.821
 3826SOL    HW112377   6.247   4.341   1.882
 3826SOL    HW212378   6.295   4.498   1.876
 3827SOL     OW12379   0.975   1.027   1.408
 3827SOL    HW112380   0.916   1.021   1.327
 3827SOL    HW212381   0.992   0.935   1.443
 3828SOL     OW12382   3.560   3.989   4.844
 3828SOL    HW112383   3.658   3.969   4.843
 3828SOL    HW212384   3.509   3.903   4.833
 3829SOL     OW12385   0.044   4.855   2.226
 3829SOL    HW112386   0.035   4.954   2.211
 3829SOL    HW212387   0.062   4.838   2.323
 3830SOL     OW12388   0.612   0.592   4.957
 3830SOL    HW112389   0.662   0.660   5.011
 3830SOL    HW212390   0.563   0.638   4.883
 3831SOL     OW12391   4.564   1.842   3.101
 3831SOL    HW112392   4.581   1.874   3.194
 3831SOL    HW212393   4.495   1.769   3.103
 3832SOL     OW12394   0.708   0.558   2.252
 3832SOL    HW112395   0.614   0.522   2.245
 3832SOL    HW212396   0.736   0.593   2.163
 3833SOL     OW12397   1.391   0.011   6.339
 3833SOL    HW112398   1.363   0.008   6.243
 3833SOL    HW212399   1.449   6.954   6.359
 3834SOL     OW12400   4.716   4.194   1.065
 3834SOL    HW112401   4.783   4.245   1.012
 3834SOL    HW212402   4.677   4.122   1.007
 3835SOL     OW12403   3.549   6.018   5.490
 3835SOL    HW112404   3.558   5.945   5.423
 3835SOL    HW212405   3.517   5.981   5.577
 3836SOL     OW12406   0.424   5.399   6.556
 3836SOL    HW112407   0.395   5.315   6.511
 3836SOL    HW212408   0.411   5.390   6.655
 3837SOL     OW12409   4.138   4.920   5.360
 3837SOL    HW112410   4.060   4.904   5.422
 3837SOL    HW212411   4.109   4.905   5.266
 3838SOL     OW12412   2.100   0.821   3.376
 3838SOL    HW112413   2.002   0.802   3.372
 3838SOL    HW212414   2.115   0.916   3.401
 3839SOL     OW12415   4.435   0.243   3.496
 3839SOL    HW112416   4.446   0.320   3.558
 3839SOL    HW212417   4.402   0.163   3.548
 3840SOL     OW12418   2.633   0.334   0.290
 3840SOL    HW112419   2.625   0.362   0.195
 3840SOL    HW212420   2.629   0.234   0.295
 3841SOL     OW12421   6.518   5.139   4.048
 3841SOL    HW112422   6.533   5.222   4.102
 3841SOL    HW212423   6.438   5.090   4.083
 3842SOL     OW12424   2.302   2.723   4.936
 3842SOL    HW112425   2.344   2.754   5.021
 3842SOL    HW212426   2.304   2.797   4.868
 3843SOL     OW12427   4.989   3.214   0.615
 3843SOL    HW112428   4.945   3.150   0.553
 3843SOL    HW212429   4.921   3.251   0.679
 3844SOL     OW12430   1.287   5.047   0.418
 3844SOL    HW112431   1.292   5.139   0.378
 3844SOL    HW212432   1.342   4.983   0.364
 3845SOL     OW12433   2.035   5.847   7.013
 3845SOL    HW112434   2.120   5.825   6.965
 3845SOL    HW212435   1.969   5.885   6.948
 3846SOL     OW12436   0.933   3.255   4.449
 3846SOL    HW112437   0.931   3.212   4.359
 3846SOL    HW212438   0.841   3.286   4.474
 3847SOL     OW12439   5.643   1.604   4.875
 3847SOL    HW112440   5.665   1.628   4.969
 3847SOL    HW212441   5.674   1.511   4.856
 3848SOL     OW12442   4.875   3.051   2.453
 3848SOL    HW112443   4.933   3.035   2.373
 3848SOL    HW212444   4.809   2.976   2.461
 3849SOL     OW12445   0.815   6.291   5.913
 3849SOL    HW112446   0.843   6.253   6.001
 3849SOL    HW212447   0.717   6.310   5.915
 3850SOL     OW12448   3.192   2.416   1.417
 3850SOL    HW112449   3.110   2.450   1.370
 3850SOL    HW212450   3.235   2.346   1.360
 3851SOL     OW12451   0.259   5.316   3.316
 3851SOL    HW112452   0.322   5.310   3.238
 3851SOL    HW212453   0.175   5.363   3.287
 3852SOL     OW12454   3.011   6.848   4.324
 3852SOL    HW112455   3.007   6.748   4.324
 3852SOL    HW212456   2.919   6.886   4.336
 3853SOL     OW12457   2.115   1.612   3.915
 3853SOL    HW112458   2.144   1.530   3.867
 3853SOL    HW212459   2.078   1.587   4.005
 3854SOL     OW12460   1.510   2.876   2.649
 3854SOL    HW112461   1.541   2.916   2.563
 3854SOL    HW212462   1.513   2.776   2.643
 3855SOL     OW12463   4.449   6.647   0.324
 3855SOL    HW112464   4.391   6.729   0.319
 3855SOL    HW212465   4.472   6.629   0.419
 3856SOL     OW12466   6.955   2.001   6.652
 3856SOL    HW112467   6.995   1.937   6.718
 3856SOL    HW212468   7.010   2.003   6.569
 3857SOL     OW12469   2.371   6.533   5.977
 3857SOL    HW112470   2.308   6.466   6.015
 3857SOL    HW212471   2.424   6.576   6.050
 3858SOL     OW12472   3.902   1.408   5.415
 3858SOL    HW112473   3.917   1.504   5.440
 3858SOL    HW212474   3.804   1.389   5.410
 3859SOL     OW12475   5.760   0.615   1.283
 3859SOL    HW112476   5.717   0.704   1.297
 3859SOL    HW212477   5.690   0.543   1.290
 3860SOL     OW12478   1.871   0.902   4.406
 3860SOL    HW112479   1.968   0.880   4.407
 3860SOL    HW212480   1.854   0.980   4.467
 3861SOL     OW12481   4.107   5.695   2.845
 3861SOL    HW112482   4.162   5.615   2.871
 3861SOL    HW212483   4.121   5.768   2.912
 3862SOL     OW12484   0.398   0.719   4.087
 3862SOL    HW112485   0.394   0.695   4.184
 3862SOL    HW212486   0.345   0.653   4.034
 3863SOL     OW12487   5.204   0.580   0.128
 3863SOL    HW112488   5.181   0.606   0.222
 3863SOL    HW212489   5.171   0.650   0.065
 3864SOL     OW12490   2.729   0.262   5.205
 3864SOL    HW112491   2.742   0.192   5.135
 3864SOL    HW212492   2.794   0.248   5.280
 3865SOL     OW12493   4.906   1.068   0.476
 3865SOL    HW112494   4.873   1.155   0.439
 3865SOL    HW212495   5.005   1.063   0.464
 3866SOL     OW12496   3.736   1.748   6.886
 3866SOL    HW112497   3.829   1.772   6.914
 3866SOL    HW212498   3.679   1.738   6.968
 3867SOL     OW12499   1.381   4.852   2.995
 3867SOL    HW112500   1.451   4.816   3.057
 3867SOL    HW212501   1.417   4.853   2.901
 3868SOL     OW12502   3.920   0.446   6.538
 3868SOL    HW112503   4.020   0.452   6.548
 3868SOL    HW212504   3.878   0.531   6.571
 3869SOL     OW12505   6.851   3.385   3.871
 3869SOL    HW112506   6.837   3.398   3.969
 3869SOL    HW212507   6.768   3.349   3.830
 3870SOL     OW12508   6.462   6.657   3.020
 3870SOL    HW112509   6.371   6.640   2.984
 3870SOL    HW212510   6.479   6.755   3.024
 3871SOL     OW12511   2.873   6.735   3.554
 3871SOL    HW112512   2.960   6.728   3.506
 3871SOL    HW212513   2.823   6.649   3.544
 3872SOL     OW12514   3.262   2.938   4.097
 3872SOL    HW112515   3.200   3.013   4.122
 3872SOL    HW212516   3.300   2.898   4.180
 3873SOL     OW12517   5.181   3.955   0.699
 3873SOL    HW112518   5.203   4.039   0.749
 3873SOL    HW212519   5.144   3.887   0.763
 3874SOL     OW12520   4.338   0.160   0.346
 3874SOL    HW112521   4.297   0.167   0.438
 3874SOL    HW212522   4.432   0.194   0.350
 3875SOL     OW12523   2.166   3.274   4.011
 3875SOL    HW112524   2.192   3.345   4.076
 3875SOL    HW212525   2.142   3.315   3.923
 3876SOL     OW12526   3.801   5.778   0.594
 3876SOL    HW112527   3.829   5.867   0.630
 3876SOL    HW212528   3.711   5.754   0.631
 3877SOL     OW12529   6.212   2.288   0.800
 3877SOL    HW112530   6.238   2.294   0.704
 3877SOL    HW212531   6.208   2.380   0.840
 3878SOL     OW12532   4.679   6.757   4.609
 3878SOL    HW112533   4.602   6.699   4.635
 3878SOL    HW212534   4.763   6.722   4.649
 3879SOL     OW12535   5.698   4.974   0.115
 3879SOL    HW112536   5.782   4.922   0.130
 3879SOL    HW212537   5.722   5.065   0.079
 3880SOL     OW12538   5.093   3.647   4.462
 3880SOL    HW112539   5.004   3.663   4.419
 3880SOL    HW212540   5.080   3.612   4.555
 3881SOL     OW12541   1.264   3.601   1.225
 3881SOL    HW112542   1.283   3.543   1.146
 3881SOL    HW212543   1.316   3.566   1.304
 3882SOL     OW12544   1.634   1.061   6.886
 3882SOL    HW112545   1.694   1.137   6.911
 3882SOL    HW212546   1.688   0.978   6.873
 3883SOL     OW12547   4.655   0.638   2.588
 3883SOL    HW112548   4.589   0.711   2.607
 3883SOL    HW212549   4.725   0.672   2.525
 3884SOL     OW12550   0.553   5.756   3.181
 3884SOL    HW112551   0.554   5.748   3.280
 3884SOL    HW212552   0.587   5.846   3.154
 3885SOL     OW12553   5.901   6.335   3.194
 3885SOL    HW112554   5.842   6.389   3.254
 3885SOL    HW212555   5.850   6.311   3.111
 3886SOL     OW12556   4.914   5.812   5.622
 3886SOL    HW112557   4.929   5.870   5.542
 3886SOL    HW212558   4.849   5.739   5.598
 3887SOL     OW12559   1.145   6.827   0.492
 3887SOL    HW112560   1.192   6.915   0.496
 3887SOL    HW212561   1.083   6.826   0.413
 3888SOL     OW12562   6.150   6.081   4.752
 3888SOL    HW112563   6.066   6.040   4.788
 3888SOL    HW212564   6.222   6.011   4.747
 3889SOL     OW12565   6.288   2.643   6.827
 3889SOL    HW112566   6.365   2.664   6.767
 3889SOL    HW212567   6.231   2.724   6.838
 3890SOL     OW12568   5.382   4.288   3.760
 3890SOL    HW112569   5.474   4.288   3.800
 3890SOL    HW212570   5.354   4.382   3.741
 3891SOL     OW12571   5.188   3.643   3.376
 3891SOL    HW112572   5.110   3.671   3.432
 3891SOL    HW212573   5.187   3.692   3.290
 3892SOL     OW12574   0.410   3.065   1.535
 3892SOL    HW112575   0.450   3.092   1.447
 3892SOL    HW212576   0.384   2.968   1.531
 3893SOL     OW12577   4.204   3.931   1.175
 3893SOL    HW112578   4.205   4.011   1.234
 3893SOL    HW212579   4.165   3.853   1.224
 3894SOL     OW12580   5.320   0.852   6.586
 3894SOL    HW112581   5.356   0.773   6.636
 3894SOL    HW212582   5.263   0.820   6.511
 3895SOL     OW12583   1.900   0.354   5.153
 3895SOL    HW112584   1.986   0.328   5.197
 3895SOL    HW212585   1.857   0.428   5.205
 3896SOL     OW12586   0.475   1.132   6.510
 3896SOL    HW112587   0.456   1.034   6.505
 3896SOL    HW212588   0.569   1.147   6.541
 3897SOL     OW12589   4.176   5.686   2.570
 3897SOL    HW112590   4.145   5.712   2.662
 3897SOL    HW212591   4.244   5.752   2.538
 3898SOL     OW12592   3.128   2.256   6.870
 3898SOL    HW112593   3.197   2.306   6.818
 3898SOL    HW212594   3.123   2.293   6.963
 3899SOL     OW12595   4.407   6.421   6.032
 3899SOL    HW112596   4.319   6.447   6.073
 3899SOL    HW212597   4.461   6.370   6.099
 3900SOL     OW12598   5.208   2.681   4.037
 3900SOL    HW112599   5.183   2.726   4.123
 3900SOL    HW212600   5.241   2.749   3.972
 3901SOL     OW12601   3.627   0.615   6.305
 3901SOL    HW112602   3.527   0.613   6.307
 3901SOL    HW212603   3.660   0.703   6.337
 3902SOL     OW12604   6.174   3.029   1.996
 3902SOL    HW112605   6.168   3.086   1.913
 3902SOL    HW212606   6.184   3.089   2.076
 3903SOL     OW12607   3.492   6.617   0.315
 3903SOL    HW112608   3.545   6.538   0.347
 3903SOL    HW212609   3.555   6.688   0.282
 3904SOL     OW12610   1.914   0.627   6.752
 3904SOL    HW112611   1.820   0.617   6.718
 3904SOL    HW212612   1.963   0.541   6.742
 3905SOL     OW12613   0.134   6.363   5.801
 3905SOL    HW112614   0.067   6.351   5.728
 3905SOL    HW212615   0.225   6.371   5.762
 3906SOL     OW12616   5.766   6.639   5.844
 3906SOL    HW112617   5.777   6.737   5.857
 3906SOL    HW212618   5.731   6.598   5.929
 3907SOL     OW12619   5.875   0.671   4.098
 3907SOL    HW112620   5.974   0.670   4.111
 3907SOL    HW212621   5.843   0.580   4.072
 3908SOL     OW12622   0.702   2.593   0.026
 3908SOL    HW112623   0.779   2.656   0.036
 3908SOL    HW212624   0.727   2.519   6.984
 3909SOL     OW12625   5.768   6.084   4.394
 3909SOL    HW112626   5.719   6.130   4.468
 3909SOL    HW212627   5.850   6.136   4.370
 3910SOL     OW12628   3.413   3.675   2.582
 3910SOL    HW112629   3.488   3.741   2.583
 3910SOL    HW212630   3.326   3.723   2.566
 3911SOL     OW12631   5.932   1.803   5.325
 3911SOL    HW112632   5.983   1.743   5.386
 3911SOL    HW212633   5.834   1.791   5.341
 3912SOL     OW12634   5.800   0.321   4.953
 3912SOL    HW112635   5.793   0.416   4.922
 3912SOL    HW212636   5.863   0.271   4.893
 3913SOL     OW12637   2.203   6.350   6.110
 3913SOL    HW112638   2.179   6.256   6.133
 3913SOL    HW212639   2.166   6.412   6.179
 3914SOL     OW12640   2.983   0.953   1.632
 3914SOL    HW112641   3.013   0.864   1.666
 3914SOL    HW212642   3.055   0.992   1.574
 3915SOL     OW12643   5.164   6.434   1.113
 3915SOL    HW112644   5.257   6.451   1.081
 3915SOL    HW212645   5.156   6.338   1.141
 3916SOL     OW12646   0.933   6.949   4.072
 3916SOL    HW112647   0.931   6.973   4.169
 3916SOL    HW212648   0.951   6.851   4.062
 3917SOL     OW12649   0.033   6.410   6.642
 3917SOL    HW112650   0.018   6.499   6.686
 3917SOL    HW212651   6.986   6.398   6.570
 3918SOL     OW12652   5.545   5.817   1.268
 3918SOL    HW112653   5.529   5.774   1.357
 3918SOL    HW212654   5.636   5.859   1.268
 3919SOL     OW12655   4.780   6.949   0.430
 3919SOL    HW112656   4.717   6.905   0.365
 3919SOL    HW212657   4.731   6.967   0.515
 3920SOL     OW12658   2.622   3.339   0.737
 3920SOL    HW112659   2.697   3.355   0.673
 3920SOL    HW212660   2.581   3.427   0.763
 3921SOL     OW12661   0.150   3.343   1.488
 3921SOL    HW112662   0.149   3.258   1.540
 3921SOL    HW212663   0.058   3.382   1.487
 3922SOL     OW12664   6.850   3.763   1.952
 3922SOL    HW112665   6.931   3.714   1.984
 3922SOL    HW212666   6.833   3.841   2.012
 3923SOL     OW12667   0.483   1.116   0.346
 3923SOL    HW112668   0.415   1.187   0.329
 3923SOL    HW212669   0.561   1.156   0.393
 3924SOL     OW12670   5.014   5.269   3.993
 3924SOL    HW112671   4.947   5.336   4.025
 3924SOL    HW212672   5.094   5.269   4.053
 3925SOL     OW12673   1.912   5.201   1.104
 3925SOL    HW112674   1.994   5.193   1.047
 3925SOL    HW212675   1.865   5.113   1.107
 3926SOL     OW12676   5.488   4.774   1.941
 3926SOL    HW112677   5.498   4.679   1.972
 3926SOL    HW212678   5.402   4.783   1.890
 3927SOL     OW12679   6.659   2.736   4.829
 3927SOL    HW112680   6.627   2.830   4.843
 3927SOL    HW212681   6.610   2.696   4.751
 3928SOL     OW12682   4.022   6.010   6.841
 3928SOL    HW112683   4.002   5.912   6.852
 3928SOL    HW212684   4.116   6.028   6.869
 3929SOL     OW12685   0.409   0.656   4.761
 3929SOL    HW112686   0.312   0.657   4.784
 3929SOL    HW212687   0.431   0.734   4.702
 3930SOL     OW12688   2.839   2.336   4.345
 3930SOL    HW112689   2.770   2.374   4.407
 3930SOL    HW212690   2.878   2.253   4.385
 3931SOL     OW12691   1.673   1.430   1.413
 3931SOL    HW112692   1.690   1.509   1.472
 3931SOL    HW212693   1.579   1.397   1.428
 3932SOL     OW12694   1.130   4.708   3.835
 3932SOL    HW112695   1.087   4.797   3.848
 3932SOL    HW212696   1.175   4.680   3.920
 3933SOL     OW12697   1.893   6.194   6.609
 3933SOL    HW112698   1.807   6.231   6.576
 3933SOL    HW212699   1.914   6.233   6.699
 3934SOL     OW12700   6.921   1.204   0.067
 3934SOL    HW112701   6.878   1.291   0.041
 3934SOL    HW212702   7.011   1.223   0.106
 3935SOL     OW12703   3.079   6.929   6.845
 3935SOL    HW112704   3.143   6.864   6.887
 3935SOL    HW212705   3.131   7.000   6.798
 3936SOL     OW12706   6.628   4.994   5.155
 3936SOL    HW112707   6.575   5.078   5.168
 3936SOL    HW212708   6.719   5.005   5.197
 3937SOL     OW12709   0.437   1.789   2.984
 3937SOL    HW112710   0.511   1.793   2.917
 3937SOL    HW212711   0.378   1.869   2.974
 3938SOL     OW12712   0.513   2.093   3.517
 3938SOL    HW112713   0.429   2.060   3.476
 3938SOL    HW212714   0.517   2.193   3.509
 3939SOL     OW12715   1.936   3.202   3.066
 3939SOL    HW112716   1.840   3.216   3.041
 3939SOL    HW212717   1.947   3.209   3.165
 3940SOL     OW12718   5.046   4.346   1.223
 3940SOL    HW112719   5.111   4.348   1.147
 3940SOL    HW212720   5.076   4.408   1.295
 3941SOL     OW12721   5.360   3.577   5.258
 3941SOL    HW112722   5.412   3.606   5.338
 3941SOL    HW212723   5.284   3.640   5.242
 3942SOL     OW12724   0.472   6.749   6.734
 3942SOL    HW112725   0.405   6.705   6.675
 3942SOL    HW212726   0.563   6.711   6.715
 3943SOL     OW12727   0.314   2.593   3.818
 3943SOL    HW112728   0.240   2.546   3.866
 3943SOL    HW212729   0.370   2.643   3.884
 3944SOL     OW12730   5.049   2.726   4.792
 3944SOL    HW112731   4.952   2.746   4.795
 3944SOL    HW212732   5.095   2.767   4.871
 3945SOL     OW12733   0.227   2.209   0.502
 3945SOL    HW112734   0.227   2.239   0.597
 3945SOL    HW212735   0.260   2.283   0.443
 3946SOL     OW12736   5.507   4.661   4.486
 3946SOL    HW112737   5.466   4.571   4.474
 3946SOL    HW212738   5.441   4.732   4.460
 3947SOL     OW12739   5.488   6.257   0.237
 3947SOL    HW112740   5.428   6.268   0.158
 3947SOL    HW212741   5.547   6.337   0.245
 3948SOL     OW12742   6.694   5.138   2.726
 3948SOL    HW112743   6.664   5.044   2.737
 3948SOL    HW212744   6.793   5.144   2.738
 3949SOL     OW12745   5.104   6.812   3.272
 3949SOL    HW112746   5.125   6.852   3.361
 3949SOL    HW212747   5.082   6.715   3.285
 3950SOL     OW12748   2.003   4.210   0.845
 3950SOL    HW112749   1.917   4.260   0.840
 3950SOL    HW212750   1.988   4.123   0.891
 3951SOL     OW12751   4.443   0.728   1.286
 3951SOL    HW112752   4.476   0.805   1.340
 3951SOL    HW212753   4.459   0.747   1.189
 3952SOL     OW12754   6.930   2.859   1.986
 3952SOL    HW112755   6.897   2.791   1.920
 3952SOL    HW212756   6.888   2.843   2.075
 3953SOL     OW12757   4.209   4.736   1.509
 3953SOL    HW112758   4.112   4.759   1.518
 3953SOL    HW212759   4.227   4.705   1.416
 3954SOL     OW12760   4.038   5.187   5.467
 3954SOL    HW112761   3.968   5.229   5.409
 3954SOL    HW212762   4.091   5.121   5.414
 3955SOL     OW12763   2.891   0.181   6.345
 3955SOL    HW112764   2.820   0.240   6.308
 3955SOL    HW212765   2.979   0.203   6.302
 3956SOL     OW12766   1.149   0.609   2.808
 3956SOL    HW112767   1.191   0.659   2.732
 3956SOL    HW212768   1.214   0.603   2.884
 3957SOL     OW12769   4.712   6.921   3.899
 3957SOL    HW112770   4.801   6.961   3.922
 3957SOL    HW212771   4.669   6.885   3.981
 3958SOL     OW12772   5.466   1.503   4.332
 3958SOL    HW112773   5.381   1.469   4.374
 3958SOL    HW212774   5.495   1.440   4.260
 3959SOL     OW12775   4.914   6.450   0.412
 3959SOL    HW112776   4.888   6.526   0.352
 3959SOL    HW212777   4.959   6.486   0.494
 3960SOL     OW12778   5.039   0.759   6.749
 3960SOL    HW112779   5.116   0.750   6.686
 3960SOL    HW212780   5.025   0.673   6.798
 3961SOL     OW12781   5.340   1.203   2.447
 3961SOL    HW112782   5.431   1.177   2.479
 3961SOL    HW212783   5.294   1.123   2.408
 3962SOL     OW12784   2.505   5.136   6.482
 3962SOL    HW112785   2.558   5.141   6.567
 3962SOL    HW212786   2.482   5.040   6.463
 3963SOL     OW12787   4.631   5.572   2.566
 3963SOL    HW112788   4.598   5.666   2.558
 3963SOL    HW212789   4.652   5.552   2.662
 3964SOL     OW12790   4.209   4.692   3.438
 3964SOL    HW112791   4.267   4.771   3.456
 3964SOL    HW212792   4.140   4.716   3.370
 3965SOL     OW12793   4.858   3.042   4.434
 3965SOL    HW112794   4.911   3.048   4.518
 3965SOL    HW212795   4.842   3.134   4.397
 3966SOL     OW12796   4.266   6.088   6.899
 3966SOL    HW112797   4.329   6.165   6.908
 3966SOL    HW212798   4.305   6.020   6.838
 3967SOL     OW12799   2.184   3.977   2.215
 3967SOL    HW112800   2.217   4.026   2.134
 3967SOL    HW212801   2.164   3.882   2.190
 3968SOL     OW12802   4.282   0.650   0.782
 3968SOL    HW112803   4.228   0.694   0.709
 3968SOL    HW212804   4.340   0.579   0.742
 3969SOL     OW12805   1.250   4.841   2.088
 3969SOL    HW112806   1.187   4.810   2.016
 3969SOL    HW212807   1.322   4.773   2.100
 3970SOL     OW12808   4.803   6.021   3.018
 3970SOL    HW112809   4.844   6.072   2.943
 3970SOL    HW212810   4.786   6.083   3.095
 3971SOL     OW12811   3.244   5.291   4.369
 3971SOL    HW112812   3.272   5.260   4.278
 3971SOL    HW212813   3.146   5.309   4.370
 3972SOL     OW12814   1.510   3.690   0.478
 3972SOL    HW112815   1.546   3.782   0.487
 3972SOL    HW212816   1.567   3.627   0.532
 3973SOL     OW12817   1.407   5.746   6.537
 3973SOL    HW112818   1.476   5.711   6.600
 3973SOL    HW212819   1.445   5.754   6.445
 3974SOL     OW12820   2.069   6.524   5.478
 3974SOL    HW112821   2.053   6.528   5.380
 3974SOL    HW212822   2.126   6.601   5.506
 3975SOL     OW12823   5.455   1.495   6.211
 3975SOL    HW112824   5.532   1.495   6.274
 3975SOL    HW212825   5.382   1.553   6.248
 3976SOL     OW12826   1.575   6.316   2.689
 3976SOL    HW112827   1.647   6.247   2.677
 3976SOL    HW212828   1.590   6.391   2.625
 3977SOL     OW12829   1.807   3.087   6.062
 3977SOL    HW112830   1.757   3.156   6.009
 3977SOL    HW212831   1.804   3.111   6.159
 3978SOL     OW12832   5.560   5.349   3.353
 3978SOL    HW112833   5.492   5.401   3.302
 3978SOL    HW212834   5.558   5.253   3.325
 3979SOL     OW12835   4.058   0.883   6.752
 3979SOL    HW112836   4.034   0.964   6.806
 3979SOL    HW212837   4.136   0.837   6.794
 3980SOL     OW12838   5.749   6.500   6.788
 3980SOL    HW112839   5.765   6.587   6.833
 3980SOL    HW212840   5.719   6.515   6.694
 3981SOL     OW12841   3.625   6.430   0.431
 3981SOL    HW112842   3.614   6.467   0.523
 3981SOL    HW212843   3.722   6.422   0.409
 3982SOL     OW12844   2.445   6.414   3.238
 3982SOL    HW112845   2.465   6.339   3.176
 3982SOL    HW212846   2.369   6.389   3.298
 3983SOL     OW12847   4.675   4.740   3.989
 3983SOL    HW112848   4.768   4.762   3.962
 3983SOL    HW212849   4.642   4.808   4.055
 3984SOL     OW12850   6.795   1.210   1.978
 3984SOL    HW112851   6.885   1.203   1.935
 3984SOL    HW212852   6.772   1.123   2.021
 3985SOL     OW12853   2.899   4.882   6.865
 3985SOL    HW112854   2.962   4.907   6.791
 3985SOL    HW212855   2.925   4.793   6.902
 3986SOL     OW12856   5.124   1.610   2.464
 3986SOL    HW112857   5.146   1.692   2.517
 3986SOL    HW212858   5.145   1.626   2.368
 3987SOL     OW12859   3.759   5.157   3.665
 3987SOL    HW112860   3.817   5.207   3.731
 3987SOL    HW212861   3.727   5.072   3.707
 3988SOL     OW12862   3.151   5.068   0.072
 3988SOL    HW112863   3.051   5.069   0.075
 3988SOL    HW212864   3.185   4.982   0.110
 3989SOL     OW12865   6.505   2.433   6.949
 3989SOL    HW112866   6.567   2.431   6.870
 3989SOL    HW212867   6.419   2.477   6.923
 3990SOL     OW12868   4.534   2.596   2.486
 3990SOL    HW112869   4.590   2.678   2.499
 3990SOL    HW212870   4.543   2.565   2.391
 3991SOL     OW12871   6.802   1.489   2.128
 3991SOL    HW112872   6.755   1.436   2.198
 3991SOL    HW212873   6.821   1.431   2.048
 3992SOL     OW12874   3.071   1.444   0.053
 3992SOL    HW112875   3.120   1.516   0.004
 3992SOL    HW212876   3.070   1.361   7.017
 3993SOL     OW12877   1.607   3.125   2.153
 3993SOL    HW112878   1.564   3.059   2.091
 3993SOL    HW212879   1.701   3.097   2.170
 3994SOL     OW12880   2.979   0.063   5.970
 3994SOL    HW112881   3.059   0.008   5.996
 3994SOL    HW212882   2.901   0.003   5.951
 3995SOL     OW12883   2.090   4.023   6.073
 3995SOL    HW112884   2.162   3.953   6.074
 3995SOL    HW212885   2.117   4.101   6.129
 3996SOL     OW12886   0.557   6.593   4.700
 3996SOL    HW112887   0.612   6.526   4.651
 3996SOL    HW212888   0.484   6.547   4.750
 3997SOL     OW12889   5.745   2.000   3.154
 3997SOL    HW112890   5.661   2.011   3.101
 3997SOL    HW212891   5.739   1.917   3.209
 3998SOL     OW12892   3.833   1.469   4.017
 3998SOL    HW112893   3.909   1.497   3.958
 3998SOL    HW212894   3.867   1.407   4.088
 3999SOL     OW12895   5.929   2.422   3.843
 3999SOL    HW112896   6.012   2.371   3.822
 3999SOL    HW212897   5.932   2.454   3.938
 4000SOL     OW12898   2.762   6.888   3.863
 4000SOL    HW112899   2.732   6.944   3.941
 4000SOL    HW212900   2.700   6.903   3.786
 4001SOL     OW12901   2.632   1.874   4.097
 4001SOL    HW112902   2.559   1.939   4.119
 4001SOL    HW212903   2.720   1.922   4.096
 4002SOL     OW12904   3.395   4.233   1.438
 4002SOL    HW112905   3.316   4.262   1.492
 4002SOL    HW212906   3.399   4.134   1.436
 4003SOL     OW12907   3.523   0.336   3.950
 4003SOL    HW112908   3.489   0.321   3.857
 4003SOL    HW212909   3.580   0.258   3.977
 4004SOL     OW12910   5.772   2.179   4.589
 4004SOL    HW112911   5.678   2.148   4.575
 4004SOL    HW212912   5.802   2.156   4.682
 4005SOL     OW12913   4.930   5.235   6.435
 4005SOL    HW112914   4.841   5.209   6.473
 4005SOL    HW212915   5.003   5.193   6.489
 4006SOL     OW12916   4.148   5.466   2.118
 4006SOL    HW112917   4.201   5.381   2.120
 4006SOL    HW212918   4.052   5.446   2.137
 4007SOL     OW12919   0.045   2.903   6.964
 4007SOL    HW112920   0.053   2.949   6.876
 4007SOL    HW212921   0.037   2.972   0.016
 4008SOL     OW12922   2.411   2.172   4.865
 4008SOL    HW112923   2.434   2.086   4.911
 4008SOL    HW212924   2.495   2.225   4.850
 4009SOL     OW12925   4.654   3.185   1.450
 4009SOL    HW112926   4.628   3.118   1.380
 4009SOL    HW212927   4.589   3.181   1.526
 4010SOL     OW12928   2.343   2.901   1.427
 4010SOL    HW112929   2.434   2.862   1.411
 4010SOL    HW212930   2.352   2.992   1.467
 4011SOL     OW12931   1.076   1.845   1.869
 4011SOL    HW112932   1.163   1.851   1.918
 4011SOL    HW212933   1.003   1.880   1.927
 4012SOL     OW12934   6.512   4.391   2.017
 4012SOL    HW112935   6.583   4.320   2.014
 4012SOL    HW212936   6.422   4.348   2.017
 4013SOL     OW12937   3.529   1.961   4.860
 4013SOL    HW112938   3.482   2.021   4.795
 4013SOL    HW212939   3.597   2.014   4.911
 4014SOL     OW12940   6.088   6.469   2.168
 4014SOL    HW112941   6.004   6.420   2.142
 4014SOL    HW212942   6.151   6.469   2.090
 4015SOL     OW12943   5.025   4.254   6.134
 4015SOL    HW112944   5.016   4.231   6.231
 4015SOL    HW212945   5.058   4.347   6.125
 4016SOL     OW12946   2.630   5.889   6.269
 4016SOL    HW112947   2.573   5.965   6.299
 4016SOL    HW212948   2.605   5.864   6.175
 4017SOL     OW12949   6.932   6.227   0.792
 4017SOL    HW112950   6.948   6.149   0.732
 4017SOL    HW212951   6.997   6.225   0.868
 4018SOL     OW12952   4.464   6.184   2.275
 4018SOL    HW112953   4.496   6.275   2.248
 4018SOL    HW212954   4.506   6.158   2.362
 4019SOL     OW12955   5.077   4.366   2.975
 4019SOL    HW112956   5.091   4.337   2.880
 4019SOL    HW212957   5.040   4.458   2.976
 4020SOL     OW12958   4.511   2.454   5.056
 4020SOL    HW112959   4.430   2.480   5.107
 4020SOL    HW212960   4.549   2.369   5.093
 4021SOL     OW12961   3.598   5.191   6.607
 4021SOL    HW112962   3.527   5.208   6.675
 4021SOL    HW212963   3.596   5.095   6.580
 4022SOL     OW12964   4.866   1.822   0.151
 4022SOL    HW112965   4.948   1.880   0.145
 4022SOL    HW212966   4.851   1.797   0.247
 4023SOL     OW12967   6.628   2.121   4.677
 4023SOL    HW112968   6.665   2.102   4.586
 4023SOL    HW212969   6.625   2.220   4.691
 4024SOL     OW12970   4.070   5.786   4.428
 4024SOL    HW112971   3.988   5.778   4.484
 4024SOL    HW212972   4.045   5.789   4.331
 4025SOL     OW12973   0.834   3.816   3.428
 4025SOL    HW112974   0.866   3.879   3.358
 4025SOL    HW212975   0.866   3.847   3.518
 4026SOL     OW12976   4.932   6.483   3.906
 4026SOL    HW112977   4.953   6.391   3.940
 4026SOL    HW212978   4.938   6.484   3.806
 4027SOL     OW12979   3.754   4.673   1.695
 4027SOL    HW112980   3.793   4.586   1.664
 4027SOL    HW212981   3.665   4.656   1.738
 4028SOL     OW12982   1.802   1.923   4.114
 4028SOL    HW112983   1.736   1.998   4.119
 4028SOL    HW212984   1.783   1.857   4.187
 4029SOL     OW12985   2.082   3.946   5.791
 4029SOL    HW112986   2.110   3.988   5.705
 4029SOL    HW212987   2.107   4.006   5.867
 4030SOL     OW12988   0.305   1.908   5.356
 4030SOL    HW112989   0.230   1.849   5.386
 4030SOL    HW212990   0.374   1.854   5.308
 4031SOL     OW12991   4.052   5.817   4.144
 4031SOL    HW112992   3.980   5.761   4.103
 4031SOL    HW212993   4.141   5.786   4.113
 4032SOL     OW12994   5.373   6.656   3.443
 4032SOL    HW112995   5.348   6.569   3.400
 4032SOL    HW212996   5.439   6.638   3.516
 4033SOL     OW12997   2.954   3.253   4.385
 4033SOL    HW112998   2.983   3.290   4.297
 4033SOL    HW212999   2.879   3.188   4.372
 4034SOL     OW13000   6.649   1.518   4.371
 4034SOL    HW113001   6.592   1.518   4.453
 4034SOL    HW213002   6.598   1.558   4.295
 4035SOL     OW13003   0.791   3.908   6.535
 4035SOL    HW113004   0.691   3.907   6.544
 4035SOL    HW213005   0.820   3.997   6.501
 4036SOL     OW13006   6.008   6.559   2.716
 4036SOL    HW113007   6.017   6.460   2.704
 4036SOL    HW213008   5.976   6.580   2.808
 4037SOL     OW13009   0.932   3.244   6.714
 4037SOL    HW113010   1.004   3.198   6.663
 4037SOL    HW213011   0.852   3.255   6.656
 4038SOL     OW13012   5.197   4.640   3.175
 4038SOL    HW113013   5.249   4.566   3.133
 4038SOL    HW213014   5.245   4.726   3.162
 4039SOL     OW13015   5.699   6.517   0.116
 4039SOL    HW113016   5.784   6.466   0.101
 4039SOL    HW213017   5.721   6.605   0.159
 4040SOL     OW13018   3.433   6.641   1.433
 4040SOL    HW113019   3.354   6.595   1.394
 4040SOL    HW213020   3.516   6.591   1.408
 4041SOL     OW13021   1.255   6.152   3.670
 4041SOL    HW113022   1.298   6.074   3.625
 4041SOL    HW213023   1.243   6.226   3.603
 4042SOL     OW13024   5.686   5.289   1.919
 4042SOL    HW113025   5.606   5.262   1.866
 4042SOL    HW213026   5.758   5.320   1.857
 4043SOL     OW13027   5.714   2.060   1.913
 4043SOL    HW113028   5.652   2.081   1.989
 4043SOL    HW213029   5.668   2.001   1.847
 4044SOL     OW13030   6.072   6.973   3.252
 4044SOL    HW113031   6.160   6.984   3.205
 4044SOL    HW213032   5.997   6.992   3.188
 4045SOL     OW13033   1.740   5.442   6.672
 4045SOL    HW113034   1.729   5.537   6.644
 4045SOL    HW213035   1.827   5.407   6.636
 4046SOL     OW13036   0.896   2.850   1.783
 4046SOL    HW113037   0.981   2.903   1.779
 4046SOL    HW213038   0.818   2.910   1.766
 4047SOL     OW13039   2.572   3.774   1.672
 4047SOL    HW113040   2.489   3.828   1.682
 4047SOL    HW213041   2.652   3.835   1.678
 4048SOL     OW13042   4.675   0.365   0.925
 4048SOL    HW113043   4.727   0.293   0.879
 4048SOL    HW213044   4.628   0.328   1.005
 4049SOL     OW13045   5.486   6.769   5.369
 4049SOL    HW113046   5.400   6.719   5.380
 4049SOL    HW213047   5.562   6.704   5.368
 4050SOL     OW13048   1.496   6.837   0.891
 4050SOL    HW113049   1.559   6.761   0.902
 4050SOL    HW213050   1.465   6.841   0.795
 4051SOL     OW13051   3.290   4.212   0.935
 4051SOL    HW113052   3.276   4.161   1.020
 4051SOL    HW213053   3.201   4.228   0.892
 4052SOL     OW13054   0.481   0.898   0.582
 4052SOL    HW113055   0.460   0.964   0.511
 4052SOL    HW213056   0.415   0.906   0.657
 4053SOL     OW13057   3.550   4.931   3.528
 4053SOL    HW113058   3.461   4.888   3.514
 4053SOL    HW213059   3.537   5.029   3.543
 4054SOL     OW13060   3.587   2.620   1.103
 4054SOL    HW113061   3.551   2.574   1.184
 4054SOL    HW213062   3.618   2.712   1.126
 4055SOL     OW13063   3.781   1.917   5.797
 4055SOL    HW113064   3.837   1.990   5.759
 4055SOL    HW213065   3.776   1.927   5.897
 4056SOL     OW13066   3.631   3.312   0.237
 4056SOL    HW113067   3.588   3.308   0.327
 4056SOL    HW213068   3.564   3.345   0.170
 4057SOL     OW13069   4.639   2.730   6.512
 4057SOL    HW113070   4.608   2.816   6.471
 4057SOL    HW213071   4.708   2.687   6.453
 4058SOL     OW13072   2.027   0.893   5.568
 4058SOL    HW113073   1.991   0.830   5.500
 4058SOL    HW213074   2.113   0.934   5.535
 4059SOL     OW13075   1.037   1.853   5.298
 4059SOL    HW113076   1.118   1.894   5.255
 4059SOL    HW213077   0.955   1.898   5.264
 4060SOL     OW13078   4.379   5.094   4.250
 4060SOL    HW113079   4.433   5.178   4.258
 4060SOL    HW213080   4.353   5.062   4.341
 4061SOL     OW13081   3.034   3.891   2.383
 4061SOL    HW113082   3.057   3.942   2.301
 4061SOL    HW213083   2.983   3.809   2.358
 4062SOL     OW13084   2.884   0.791   3.401
 4062SOL    HW113085   2.980   0.806   3.426
 4062SOL    HW213086   2.874   0.803   3.302
 4063SOL     OW13087   2.582   5.032   6.219
 4063SOL    HW113088   2.661   4.979   6.250
 4063SOL    HW213089   2.557   5.098   6.290
 4064SOL     OW13090   6.643   1.436   3.757
 4064SOL    HW113091   6.738   1.463   3.774
 4064SOL    HW213092   6.641   1.352   3.702
 4065SOL     OW13093   6.931   0.022   0.143
 4065SOL    HW113094   6.923   0.066   0.232
 4065SOL    HW213095   7.009   0.060   0.094
 4066SOL     OW13096   6.198   4.548   1.588
 4066SOL    HW113097   6.230   4.498   1.668
 4066SOL    HW213098   6.243   4.511   1.506
 4067SOL     OW13099   6.163   1.568   2.370
 4067SOL    HW113100   6.174   1.493   2.305
 4067SOL    HW213101   6.162   1.655   2.320
 4068SOL     OW13102   5.955   0.166   3.375
 4068SOL    HW113103   5.992   0.079   3.342
 4068SOL    HW213104   5.946   0.230   3.299
 4069SOL     OW13105   5.808   4.957   1.058
 4069SOL    HW113106   5.905   4.978   1.067
 4069SOL    HW213107   5.794   4.901   0.976
 4070SOL     OW13108   1.734   3.667   2.969
 4070SOL    HW113109   1.747   3.575   3.007
 4070SOL    HW213110   1.740   3.734   3.043
 4071SOL     OW13111   0.901   0.199   4.072
 4071SOL    HW113112   0.828   0.265   4.089
 4071SOL    HW213113   0.862   0.108   4.061
 4072SOL     OW13114   1.843   0.064   4.873
 4072SOL    HW113115   1.765   0.012   4.839
 4072SOL    HW213116   1.841   0.065   4.973
 4073SOL     OW13117   2.198   6.301   0.158
 4073SOL    HW113118   2.127   6.291   0.228
 4073SOL    HW213119   2.229   6.210   0.129
 4074SOL     OW13120   1.583   3.029   1.169
 4074SOL    HW113121   1.623   2.938   1.180
 4074SOL    HW213122   1.586   3.055   1.072
 4075SOL     OW13123   4.658   1.890   3.352
 4075SOL    HW113124   4.626   1.882   3.447
 4075SOL    HW213125   4.756   1.872   3.348
 4076SOL     OW13126   1.769   3.639   4.342
 4076SOL    HW113127   1.807   3.713   4.287
 4076SOL    HW213128   1.795   3.551   4.303
 4077SOL     OW13129   3.625   1.243   0.772
 4077SOL    HW113130   3.587   1.283   0.689
 4077SOL    HW213131   3.554   1.241   0.843
 4078SOL     OW13132   6.128   3.932   0.900
 4078SOL    HW113133   6.052   3.912   0.962
 4078SOL    HW213134   6.211   3.945   0.954
 4079SOL     OW13135   0.464   0.947   3.701
 4079SOL    HW113136   0.434   1.015   3.768
 4079SOL    HW213137   0.392   0.931   3.635
 4080SOL     OW13138   3.396   3.758   1.715
 4080SOL    HW113139   3.389   3.661   1.690
 4080SOL    HW213140   3.314   3.806   1.683
 4081SOL     OW13141   1.985   2.394   5.888
 4081SOL    HW113142   1.935   2.315   5.923
 4081SOL    HW213143   1.923   2.472   5.882
 4082SOL     OW13144   1.080   2.845   4.275
 4082SOL    HW113145   1.090   2.824   4.177
 4082SOL    HW213146   1.134   2.927   4.297
 4083SOL     OW13147   5.555   5.116   2.647
 4083SOL    HW113148   5.548   5.204   2.601
 4083SOL    HW213149   5.595   5.048   2.585
 4084SOL     OW13150   4.583   0.916   3.387
 4084SOL    HW113151   4.531   0.864   3.319
 4084SOL    HW213152   4.520   0.971   3.442
 4085SOL     OW13153   3.086   5.126   2.130
 4085SOL    HW113154   3.147   5.148   2.205
 4085SOL    HW213155   3.140   5.103   2.048
 4086SOL     OW13156   6.142   5.359   5.898
 4086SOL    HW113157   6.047   5.326   5.901
 4086SOL    HW213158   6.142   5.459   5.889
 4087SOL     OW13159   2.677   6.981   2.483
 4087SOL    HW113160   2.672   6.888   2.444
 4087SOL    HW213161   2.770   6.999   2.513
 4088SOL     OW13162   0.684   1.803   5.756
 4088SOL    HW113163   0.585   1.812   5.758
 4088SOL    HW213164   0.717   1.815   5.662
 4089SOL     OW13165   0.062   0.350   3.951
 4089SOL    HW113166   0.122   0.290   3.898
 4089SOL    HW213167   6.997   0.303   3.971
 4090SOL     OW13168   2.499   0.664   5.892
 4090SOL    HW113169   2.535   0.704   5.976
 4090SOL    HW213170   2.536   0.713   5.813
 4091SOL     OW13171   2.052   5.742   2.060
 4091SOL    HW113172   2.149   5.762   2.067
 4091SOL    HW213173   2.030   5.664   2.120
 4092SOL     OW13174   5.062   3.064   3.827
 4092SOL    HW113175   4.974   3.085   3.785
 4092SOL    HW213176   5.123   3.023   3.759
 4093SOL     OW13177   4.047   5.308   2.794
 4093SOL    HW113178   4.092   5.343   2.712
 4093SOL    HW213179   4.113   5.256   2.849
 4094SOL     OW13180   6.520   5.408   6.461
 4094SOL    HW113181   6.592   5.405   6.531
 4094SOL    HW213182   6.438   5.449   6.499
 4095SOL     OW13183   0.488   4.960   6.455
 4095SOL    HW113184   0.440   5.044   6.481
 4095SOL    HW213185   0.425   4.883   6.461
 4096SOL     OW13186   1.593   1.528   6.933
 4096SOL    HW113187   1.502   1.499   6.904
 4096SOL    HW213188   1.603   1.626   6.919
 4097SOL     OW13189   0.158   5.124   4.773
 4097SOL    HW113190   0.111   5.101   4.687
 4097SOL    HW213191   0.241   5.069   4.782
 4098SOL     OW13192   2.329   4.799   3.359
 4098SOL    HW113193   2.389   4.719   3.361
 4098SOL    HW213194   2.262   4.791   3.432
 4099SOL     OW13195   4.588   4.935   5.677
 4099SOL    HW113196   4.672   4.924   5.624
 4099SOL    HW213197   4.510   4.944   5.615
 4100SOL     OW13198   1.305   0.160   3.757
 4100SOL    HW113199   1.235   0.136   3.825
 4100SOL    HW213200   1.374   0.218   3.799
 4101SOL     OW13201   6.300   6.938   0.724
 4101SOL    HW113202   6.292   6.950   0.823
 4101SOL    HW213203   6.227   6.989   0.678
 4102SOL     OW13204   1.261   0.951   0.144
 4102SOL    HW113205   1.293   0.869   0.192
 4102SOL    HW213206   1.301   1.032   0.187
 4103SOL     OW13207   1.401   6.842   2.804
 4103SOL    HW113208   1.398   6.942   2.811
 4103SOL    HW213209   1.491   6.810   2.834
 4104SOL     OW13210   1.053   6.072   4.484
 4104SOL    HW113211   1.112   6.047   4.561
 4104SOL    HW213212   1.018   5.989   4.441
 4105SOL     OW13213   4.916   1.149   1.241
 4105SOL    HW113214   4.869   1.062   1.233
 4105SOL    HW213215   4.866   1.219   1.190
 4106SOL     OW13216   0.034   2.345   3.383
 4106SOL    HW113217   0.028   2.418   3.315
 4106SOL    HW213218   6.963   2.310   3.402
 4107SOL     OW13219   0.326   6.364   6.697
 4107SOL    HW113220   0.249   6.403   6.647
 4107SOL    HW213221   0.329   6.403   6.789
 4108SOL     OW13222   6.483   5.381   4.155
 4108SOL    HW113223   6.387   5.398   4.179
 4108SOL    HW213224   6.511   5.447   4.085
 4109SOL     OW13225   6.149   6.792   2.938
 4109SOL    HW113226   6.134   6.800   2.839
 4109SOL    HW213227   6.063   6.767   2.982
 4110SOL     OW13228   4.388   3.858   0.354
 4110SOL    HW113229   4.314   3.850   0.287
 4110SOL    HW213230   4.397   3.953   0.383
 4111SOL     OW13231   6.273   4.168   4.079
 4111SOL    HW113232   6.197   4.164   4.015
 4111SOL    HW213233   6.279   4.082   4.129
 4112SOL     OW13234   4.968   6.686   5.263
 4112SOL    HW113235   5.048   6.709   5.208
 4112SOL    HW213236   4.933   6.596   5.237
 4113SOL     OW13237   4.158   5.023   4.971
 4113SOL    HW113238   4.062   5.012   4.946
 4113SOL    HW213239   4.210   4.943   4.942
 4114SOL     OW13240   0.400   1.909   2.138
 4114SOL    HW113241   0.395   1.848   2.059
 4114SOL    HW213242   0.311   1.951   2.154
 4115SOL     OW13243   3.706   5.379   4.272
 4115SOL    HW113244   3.700   5.281   4.255
 4115SOL    HW213245   3.731   5.395   4.368
 4116SOL     OW13246   5.434   2.750   3.446
 4116SOL    HW113247   5.533   2.735   3.444
 4116SOL    HW213248   5.414   2.832   3.500
 4117SOL     OW13249   1.281   2.159   2.979
 4117SOL    HW113250   1.349   2.112   2.922
 4117SOL    HW213251   1.190   2.141   2.943
 4118SOL     OW13252   0.520   6.198   5.809
 4118SOL    HW113253   0.495   6.112   5.854
 4118SOL    HW213254   0.555   6.179   5.717
 4119SOL     OW13255   1.760   1.375   3.601
 4119SOL    HW113256   1.698   1.347   3.527
 4119SOL    HW213257   1.708   1.391   3.685
 4120SOL     OW13258   1.517   1.068   6.226
 4120SOL    HW113259   1.427   1.100   6.257
 4120SOL    HW213260   1.564   1.022   6.302
 4121SOL     OW13261   6.656   6.718   1.679
 4121SOL    HW113262   6.651   6.679   1.587
 4121SOL    HW213263   6.726   6.789   1.682
 4122SOL     OW13264   6.641   4.710   3.357
 4122SOL    HW113265   6.594   4.647   3.419
 4122SOL    HW213266   6.573   4.765   3.308
 4123SOL     OW13267   3.902   5.223   2.177
 4123SOL    HW113268   3.865   5.217   2.269
 4123SOL    HW213269   3.833   5.193   2.111
 4124SOL     OW13270   6.558   5.809   0.354
 4124SOL    HW113271   6.550   5.855   0.443
 4124SOL    HW213272   6.597   5.718   0.368
 4125SOL     OW13273   5.798   1.839   1.699
 4125SOL    HW113274   5.851   1.805   1.777
 4125SOL    HW213275   5.718   1.780   1.686
 4126SOL     OW13276   1.265   3.424   2.237
 4126SOL    HW113277   1.365   3.422   2.228
 4126SOL    HW213278   1.236   3.517   2.260
 4127SOL     OW13279   3.958   1.759   3.790
 4127SOL    HW113280   3.997   1.805   3.870
 4127SOL    HW213281   3.859   1.777   3.786
 4128SOL     OW13282   0.271   3.012   0.592
 4128SOL    HW113283   0.298   3.104   0.618
 4128SOL    HW213284   0.172   3.009   0.577
 4129SOL     OW13285   2.348   2.230   0.451
 4129SOL    HW113286   2.422   2.265   0.509
 4129SOL    HW213287   2.288   2.306   0.424
 4130SOL     OW13288   5.196   2.739   0.795
 4130SOL    HW113289   5.118   2.699   0.843
 4130SOL    HW213290   5.184   2.838   0.787
 4131SOL     OW13291   4.736   0.503   2.805
 4131SOL    HW113292   4.703   0.551   2.724
 4131SOL    HW213293   4.757   0.408   2.781
 4132SOL     OW13294   6.731   4.741   3.860
 4132SOL    HW113295   6.823   4.753   3.896
 4132SOL    HW213296   6.665   4.780   3.923
 4133SOL     OW13297   5.827   0.048   2.568
 4133SOL    HW113298   5.804   0.054   2.471
 4133SOL    HW213299   5.743   0.034   2.621
 4134SOL     OW13300   1.995   3.107   1.208
 4134SOL    HW113301   1.971   3.021   1.162
 4134SOL    HW213302   2.031   3.171   1.141
 4135SOL     OW13303   0.236   1.599   2.750
 4135SOL    HW113304   0.328   1.560   2.749
 4135SOL    HW213305   0.240   1.695   2.721
 4136SOL     OW13306   1.720   4.867   1.710
 4136SOL    HW113307   1.657   4.893   1.783
 4136SOL    HW213308   1.811   4.903   1.730
 4137SOL     OW13309   1.792   2.367   0.108
 4137SOL    HW113310   1.816   2.340   0.202
 4137SOL    HW213311   1.867   2.343   0.047
 4138SOL     OW13312   4.980   6.666   0.636
 4138SOL    HW113313   5.048   6.624   0.697
 4138SOL    HW213314   4.986   6.766   0.645
 4139SOL     OW13315   1.912   2.949   2.673
 4139SOL    HW113316   1.887   2.979   2.765
 4139SOL    HW213317   2.011   2.952   2.662
 4140SOL     OW13318   2.469   2.657   5.459
 4140SOL    HW113319   2.380   2.692   5.488
 4140SOL    HW213320   2.466   2.557   5.456
 4141SOL     OW13321   4.712   6.767   6.559
 4141SOL    HW113322   4.631   6.819   6.532
 4141SOL    HW213323   4.748   6.717   6.480
 4142SOL     OW13324   6.896   4.410   3.214
 4142SOL    HW113325   6.891   4.472   3.292
 4142SOL    HW213326   6.964   4.338   3.232
 4143SOL     OW13327   5.834   3.179   0.279
 4143SOL    HW113328   5.867   3.127   0.358
 4143SOL    HW213329   5.848   3.126   0.196
 4144SOL     OW13330   5.716   2.235   0.896
 4144SOL    HW113331   5.693   2.313   0.954
 4144SOL    HW213332   5.804   2.197   0.925
 4145SOL     OW13333   0.001   6.991   1.508
 4145SOL    HW113334   6.979   0.017   1.585
 4145SOL    HW213335   0.092   6.959   1.534
 4146SOL     OW13336   4.764   6.252   3.214
 4146SOL    HW113337   4.790   6.234   3.309
 4146SOL    HW213338   4.667   6.227   3.201
 4147SOL     OW13339   5.378   4.098   5.916
 4147SOL    HW113340   5.313   4.064   5.984
 4147SOL    HW213341   5.470   4.100   5.955
 4148SOL     OW13342   2.868   1.325   5.923
 4148SOL    HW113343   2.891   1.378   5.841
 4148SOL    HW213344   2.779   1.355   5.957
 4149SOL     OW13345   2.124   2.666   0.130
 4149SOL    HW113346   2.199   2.732   0.125
 4149SOL    HW213347   2.039   2.709   0.100
 4150SOL     OW13348   6.065   2.139   5.695
 4150SOL    HW113349   6.014   2.104   5.773
 4150SOL    HW213350   6.021   2.224   5.663
 4151SOL     OW13351   2.467   6.738   4.136
 4151SOL    HW113352   2.502   6.647   4.116
 4151SOL    HW213353   2.367   6.736   4.138
 4152SOL     OW13354   2.955   4.979   1.331
 4152SOL    HW113355   2.912   5.057   1.288
 4152SOL    HW213356   2.964   4.996   1.430
 4153SOL     OW13357   6.838   5.167   1.644
 4153SOL    HW113358   6.917   5.222   1.670
 4153SOL    HW213359   6.817   5.102   1.717
 4154SOL     OW13360   1.059   6.008   4.038
 4154SOL    HW113361   1.157   6.029   4.030
 4154SOL    HW213362   1.009   6.091   4.061
 4155SOL     OW13363   0.682   1.937   1.139
 4155SOL    HW113364   0.614   2.011   1.150
 4155SOL    HW213365   0.762   1.973   1.091
 4156SOL     OW13366   6.600   5.425   5.095
 4156SOL    HW113367   6.679   5.385   5.051
 4156SOL    HW213368   6.560   5.359   5.159
 4157SOL     OW13369   6.516   6.243   2.045
 4157SOL    HW113370   6.456   6.193   1.983
 4157SOL    HW213371   6.508   6.205   2.137
 4158SOL     OW13372   1.467   2.566   2.390
 4158SOL    HW113373   1.469   2.601   2.484
 4158SOL    HW213374   1.555   2.525   2.367
 4159SOL     OW13375   3.003   1.440   3.594
 4159SOL    HW113376   2.911   1.445   3.633
 4159SOL    HW213377   3.070   1.442   3.668
 4160SOL     OW13378   6.520   6.856   6.404
 4160SOL    HW113379   6.522   6.892   6.311
 4160SOL    HW213380   6.508   6.931   6.469
 4161SOL     OW13381   3.351   2.717   1.545
 4161SOL    HW113382   3.326   2.705   1.449
 4161SOL    HW213383   3.279   2.681   1.603
 4162SOL     OW13384   5.798   5.679   1.828
 4162SOL    HW113385   5.708   5.719   1.849
 4162SOL    HW213386   5.869   5.748   1.840
 4163SOL     OW13387   4.013   6.844   0.977
 4163SOL    HW113388   4.102   6.889   0.976
 4163SOL    HW213389   3.949   6.895   0.920
 4164SOL     OW13390   6.521   0.225   4.773
 4164SOL    HW113391   6.445   0.221   4.707
 4164SOL    HW213392   6.574   0.141   4.768
 4165SOL     OW13393   4.878   1.148   5.400
 4165SOL    HW113394   4.788   1.178   5.431
 4165SOL    HW213395   4.869   1.102   5.312
 4166SOL     OW13396   5.960   0.934   1.907
 4166SOL    HW113397   5.965   0.835   1.926
 4166SOL    HW213398   6.005   0.953   1.820
 4167SOL     OW13399   4.181   5.201   5.166
 4167SOL    HW113400   4.159   5.121   5.110
 4167SOL    HW213401   4.097   5.250   5.190
 4168SOL     OW13402   5.042   4.297   6.720
 4168SOL    HW113403   4.969   4.362   6.701
 4168SOL    HW213404   5.003   4.204   6.727
 4169SOL     OW13405   4.843   4.074   4.878
 4169SOL    HW113406   4.802   4.061   4.968
 4169SOL    HW213407   4.942   4.086   4.888
 4170SOL     OW13408   6.301   3.691   4.580
 4170SOL    HW113409   6.241   3.611   4.575
 4170SOL    HW213410   6.389   3.668   4.538
 4171SOL     OW13411   0.809   3.593   1.102
 4171SOL    HW113412   0.828   3.541   1.018
 4171SOL    HW213413   0.827   3.690   1.085
 4172SOL     OW13414   2.630   4.257   0.350
 4172SOL    HW113415   2.721   4.244   0.388
 4172SOL    HW213416   2.580   4.170   0.354
 4173SOL     OW13417   4.897   2.911   5.215
 4173SOL    HW113418   4.841   2.943   5.292
 4173SOL    HW213419   4.870   2.818   5.191
 4174SOL     OW13420   3.996   0.893   4.850
 4174SOL    HW113421   3.919   0.910   4.788
 4174SOL    HW213422   4.080   0.927   4.808
 4175SOL     OW13423   1.706   4.489   6.580
 4175SOL    HW113424   1.644   4.426   6.534
 4175SOL    HW213425   1.720   4.460   6.675
 4176SOL     OW13426   5.207   6.662   6.105
 4176SOL    HW113427   5.225   6.621   6.195
 4176SOL    HW213428   5.219   6.593   6.034
 4177SOL     OW13429   4.483   4.570   3.434
 4177SOL    HW113430   4.546   4.645   3.414
 4177SOL    HW213431   4.395   4.607   3.463
 4178SOL     OW13432   3.569   5.438   2.240
 4178SOL    HW113433   3.649   5.497   2.245
 4178SOL    HW213434   3.487   5.493   2.224
 4179SOL     OW13435   4.852   3.062   4.955
 4179SOL    HW113436   4.886   3.011   5.035
 4179SOL    HW213437   4.841   3.158   4.979
 4180SOL     OW13438   4.994   3.799   0.290
 4180SOL    HW113439   5.062   3.726   0.285
 4180SOL    HW213440   4.926   3.788   0.217
 4181SOL     OW13441   5.205   0.356   5.473
 4181SOL    HW113442   5.238   0.283   5.533
 4181SOL    HW213443   5.212   0.443   5.521
 4182SOL     OW13444   6.990   6.419   4.229
 4182SOL    HW113445   6.969   6.435   4.325
 4182SOL    HW213446   6.943   6.337   4.196
 4183SOL     OW13447   3.422   1.851   1.842
 4183SOL    HW113448   3.443   1.807   1.929
 4183SOL    HW213449   3.390   1.944   1.858
 4184SOL     OW13450   3.178   5.754   3.462
 4184SOL    HW113451   3.240   5.690   3.416
 4184SOL    HW213452   3.084   5.726   3.445
 4185SOL     OW13453   6.486   3.599   3.123
 4185SOL    HW113454   6.399   3.602   3.171
 4185SOL    HW213455   6.470   3.604   3.024
 4186SOL     OW13456   1.531   6.296   0.352
 4186SOL    HW113457   1.603   6.253   0.407
 4186SOL    HW213458   1.495   6.375   0.401
 4187SOL     OW13459   1.744   3.729   6.947
 4187SOL    HW113460   1.763   3.742   6.849
 4187SOL    HW213461   1.764   3.634   6.972
 4188SOL     OW13462   4.762   0.084   6.740
 4188SOL    HW113463   4.671   0.046   6.729
 4188SOL    HW213464   4.791   0.128   6.655
 4189SOL     OW13465   4.735   5.513   2.794
 4189SOL    HW113466   4.732   5.494   2.892
 4189SOL    HW213467   4.824   5.551   2.770
 4190SOL     OW13468   0.304   6.972   1.039
 4190SOL    HW113469   0.226   6.910   1.039
 4190SOL    HW213470   0.288   0.025   0.974
 4191SOL     OW13471   4.546   4.353   6.020
 4191SOL    HW113472   4.494   4.355   5.934
 4191SOL    HW213473   4.610   4.430   6.021
 4192SOL     OW13474   1.434   2.500   1.879
 4192SOL    HW113475   1.335   2.514   1.876
 4192SOL    HW213476   1.454   2.402   1.878
 4193SOL     OW13477   6.738   0.688   0.888
 4193SOL    HW113478   6.734   0.591   0.864
 4193SOL    HW213479   6.649   0.730   0.870
 4194SOL     OW13480   4.465   0.759   5.251
 4194SOL    HW113481   4.513   0.810   5.322
 4194SOL    HW213482   4.395   0.701   5.293
 4195SOL     OW13483   4.735   5.528   1.666
 4195SOL    HW113484   4.640   5.500   1.658
 4195SOL    HW213485   4.787   5.456   1.712
 4196SOL     OW13486   6.763   2.172   3.189
 4196SOL    HW113487   6.791   2.186   3.284
 4196SOL    HW213488   6.812   2.094   3.150
 4197SOL     OW13489   3.558   6.624   6.204
 4197SOL    HW113490   3.528   6.699   6.263
 4197SOL    HW213491   3.523   6.537   6.240
 4198SOL     OW13492   6.384   0.955   2.166
 4198SOL    HW113493   6.436   1.037   2.192
 4198SOL    HW213494   6.408   0.928   2.073
 4199SOL     OW13495   1.254   3.803   5.992
 4199SOL    HW113496   1.268   3.843   5.902
 4199SOL    HW213497   1.339   3.761   6.024
 4200SOL     OW13498   4.619   0.606   4.584
 4200SOL    HW113499   4.687   0.673   4.552
 4200SOL    HW213500   4.635   0.518   4.539
 4201SOL     OW13501   5.352   6.988   3.337
 4201SOL    HW113502   5.319   0.039   3.398
 4201SOL    HW213503   5.320   6.899   3.370
 4202SOL     OW13504   4.268   5.448   0.409
 4202SOL    HW113505   4.348   5.494   0.370
 4202SOL    HW213506   4.190   5.458   0.346
 4203SOL     OW13507   5.935   5.469   6.919
 4203SOL    HW113508   5.863   5.520   6.966
 4203SOL    HW213509   5.929   5.486   6.821
 4204SOL     OW13510   3.082   3.543   5.721
 4204SOL    HW113511   3.168   3.594   5.721
 4204SOL    HW213512   3.080   3.479   5.797
 4205SOL     OW13513   3.640   5.209   5.231
 4205SOL    HW113514   3.625   5.209   5.132
 4205SOL    HW213515   3.583   5.279   5.273
 4206SOL     OW13516   1.848   2.113   4.908
 4206SOL    HW113517   1.767   2.060   4.934
 4206SOL    HW213518   1.929   2.073   4.949
 4207SOL     OW13519   2.068   2.136   1.548
 4207SOL    HW113520   2.050   2.178   1.637
 4207SOL    HW213521   2.166   2.137   1.530
 4208SOL     OW13522   1.941   3.718   5.281
 4208SOL    HW113523   1.954   3.643   5.346
 4208SOL    HW213524   2.023   3.729   5.226
 4209SOL     OW13525   0.219   5.987   2.566
 4209SOL    HW113526   0.194   6.064   2.507
 4209SOL    HW213527   0.267   6.021   2.647
 4210SOL     OW13528   4.046   3.610   4.607
 4210SOL    HW113529   4.119   3.561   4.654
 4210SOL    HW213530   4.039   3.578   4.513
 4211SOL     OW13531   3.910   2.174   5.179
 4211SOL    HW113532   3.939   2.108   5.249
 4211SOL    HW213533   3.943   2.265   5.205
 4212SOL     OW13534   6.683   1.545   3.443
 4212SOL    HW113535   6.721   1.621   3.391
 4212SOL    HW213536   6.693   1.562   3.541
 4213SOL     OW13537   3.175   0.502   2.894
 4213SOL    HW113538   3.264   0.505   2.938
 4213SOL    HW213539   3.121   0.427   2.932
 4214SOL     OW13540   1.087   5.199   4.369
 4214SOL    HW113541   1.178   5.191   4.330
 4214SOL    HW213542   1.085   5.273   4.436
 4215SOL     OW13543   4.869   6.342   4.917
 4215SOL    HW113544   4.773   6.365   4.904
 4215SOL    HW213545   4.884   6.246   4.890
 4216SOL     OW13546   2.336   0.171   2.538
 4216SOL    HW113547   2.272   0.150   2.612
 4216SOL    HW213548   2.368   0.265   2.547
 4217SOL     OW13549   1.056   0.583   1.999
 4217SOL    HW113550   1.042   0.537   2.086
 4217SOL    HW213551   1.120   0.529   1.943
 4218SOL     OW13552   3.378   1.211   1.548
 4218SOL    HW113553   3.462   1.164   1.572
 4218SOL    HW213554   3.394   1.310   1.545
 4219SOL     OW13555   3.854   6.421   3.766
 4219SOL    HW113556   3.884   6.474   3.846
 4219SOL    HW213557   3.816   6.334   3.797
 4220SOL     OW13558   4.423   2.283   1.355
 4220SOL    HW113559   4.485   2.271   1.433
 4220SOL    HW213560   4.336   2.238   1.376
 4221SOL     OW13561   6.323   5.712   6.088
 4221SOL    HW113562   6.275   5.769   6.154
 4221SOL    HW213563   6.413   5.688   6.125
 4222SOL     OW13564   5.323   2.101   3.580
 4222SOL    HW113565   5.399   2.042   3.552
 4222SOL    HW213566   5.261   2.114   3.502
 4223SOL     OW13567   3.936   4.444   1.647
 4223SOL    HW113568   3.936   4.464   1.549
 4223SOL    HW213569   4.003   4.503   1.693
 4224SOL     OW13570   5.112   3.995   4.517
 4224SOL    HW113571   5.130   4.075   4.459
 4224SOL    HW213572   5.156   3.914   4.477
 4225SOL     OW13573   0.970   2.337   4.951
 4225SOL    HW113574   1.023   2.347   5.035
 4225SOL    HW213575   0.905   2.412   4.943
 4226SOL     OW13576   1.067   5.602   4.894
 4226SOL    HW113577   1.140   5.657   4.934
 4226SOL    HW213578   1.058   5.624   4.796
 4227SOL     OW13579   5.025   5.768   1.880
 4227SOL    HW113580   4.978   5.739   1.796
 4227SOL    HW213581   5.074   5.853   1.863
 4228SOL     OW13582   1.192   5.943   4.706
 4228SOL    HW113583   1.277   5.894   4.682
 4228SOL    HW213584   1.198   5.975   4.800
 4229SOL     OW13585   5.882   5.167   6.230
 4229SOL    HW113586   5.837   5.227   6.296
 4229SOL    HW213587   5.981   5.170   6.243
 4230SOL     OW13588   1.484   0.313   2.316
 4230SOL    HW113589   1.456   0.233   2.369
 4230SOL    HW213590   1.545   0.284   2.242
 4231SOL     OW13591   5.427   0.922   5.095
 4231SOL    HW113592   5.369   0.866   5.036
 4231SOL    HW213593   5.445   0.873   5.180
 4232SOL     OW13594   2.139   5.341   4.072
 4232SOL    HW113595   2.186   5.360   4.157
 4232SOL    HW213596   2.200   5.360   3.995
 4233SOL     OW13597   5.694   6.406   3.374
 4233SOL    HW113598   5.673   6.352   3.456
 4233SOL    HW213599   5.726   6.497   3.402
 4234SOL     OW13600   2.150   5.449   5.846
 4234SOL    HW113601   2.079   5.414   5.785
 4234SOL    HW213602   2.195   5.528   5.802
 4235SOL     OW13603   6.601   4.495   5.535
 4235SOL    HW113604   6.655   4.429   5.482
 4235SOL    HW213605   6.606   4.472   5.632
 4236SOL     OW13606   0.461   5.137   1.956
 4236SOL    HW113607   0.389   5.158   1.890
 4236SOL    HW213608   0.540   5.196   1.939
 4237SOL     OW13609   6.696   4.155   4.106
 4237SOL    HW113610   6.719   4.058   4.099
 4237SOL    HW213611   6.726   4.190   4.194
 4238SOL     OW13612   1.508   0.806   3.078
 4238SOL    HW113613   1.530   0.872   3.006
 4238SOL    HW213614   1.530   0.845   3.167
 4239SOL     OW13615   3.855   1.116   3.078
 4239SOL    HW113616   3.808   1.030   3.058
 4239SOL    HW213617   3.800   1.170   3.142
 4240SOL     OW13618   0.704   5.216   0.673
 4240SOL    HW113619   0.653   5.134   0.648
 4240SOL    HW213620   0.739   5.259   0.589
 4241SOL     OW13621   6.905   1.725   0.312
 4241SOL    HW113622   6.984   1.738   0.371
 4241SOL    HW213623   6.845   1.805   0.316
 4242SOL     OW13624   2.473   2.263   4.571
 4242SOL    HW113625   2.373   2.263   4.569
 4242SOL    HW213626   2.504   2.202   4.644
 4243SOL     OW13627   5.479   0.747   3.010
 4243SOL    HW113628   5.425   0.711   3.086
 4243SOL    HW213629   5.565   0.785   3.045
 4244SOL     OW13630   3.689   3.714   2.241
 4244SOL    HW113631   3.668   3.804   2.278
 4244SOL    HW213632   3.631   3.694   2.163
 4245SOL     OW13633   0.049   2.099   5.601
 4245SOL    HW113634   0.025   2.145   5.687
 4245SOL    HW213635   0.109   2.157   5.547
 4246SOL     OW13636   6.783   3.602   3.117
 4246SOL    HW113637   6.684   3.612   3.122
 4246SOL    HW213638   6.812   3.605   3.022
 4247SOL     OW13639   6.973   6.060   5.352
 4247SOL    HW113640   0.051   6.059   5.336
 4247SOL    HW213641   6.932   5.978   5.312
 4248SOL     OW13642   1.386   2.585   5.542
 4248SOL    HW113643   1.362   2.512   5.607
 4248SOL    HW213644   1.429   2.660   5.593
 4249SOL     OW13645   6.620   3.033   5.571
 4249SOL    HW113646   6.653   2.970   5.501
 4249SOL    HW213647   6.689   3.103   5.589
 4250SOL     OW13648   6.946   5.383   3.536
 4250SOL    HW113649   6.870   5.448   3.540
 4250SOL    HW213650   6.917   5.296   3.577
 4251SOL     OW13651   5.516   4.094   0.433
 4251SOL    HW113652   5.593   4.052   0.480
 4251SOL    HW213653   5.432   4.046   0.457
 4252SOL     OW13654   6.334   6.091   4.977
 4252SOL    HW113655   6.393   6.106   5.057
 4252SOL    HW213656   6.308   6.179   4.938
 4253SOL     OW13657   4.613   1.103   1.551
 4253SOL    HW113658   4.516   1.082   1.540
 4253SOL    HW213659   4.625   1.201   1.568
 4254SOL     OW13660   1.771   3.291   1.628
 4254SOL    HW113661   1.717   3.373   1.646
 4254SOL    HW213662   1.752   3.258   1.535
 4255SOL     OW13663   5.959   2.755   3.785
 4255SOL    HW113664   5.978   2.832   3.845
 4255SOL    HW213665   5.986   2.670   3.831
 4256SOL     OW13666   1.436   0.121   1.293
 4256SOL    HW113667   1.427   0.077   1.382
 4256SOL    HW213668   1.495   0.065   1.234
 4257SOL     OW13669   3.449   1.664   5.075
 4257SOL    HW113670   3.469   1.738   5.140
 4257SOL    HW213671   3.384   1.600   5.117
 4258SOL     OW13672   5.652   6.590   1.850
 4258SOL    HW113673   5.709   6.660   1.808
 4258SOL    HW213674   5.559   6.624   1.859
 4259SOL     OW13675   2.408   1.574   6.654
 4259SOL    HW113676   2.433   1.522   6.735
 4259SOL    HW213677   2.372   1.513   6.584
 4260SOL     OW13678   4.047   5.765   3.794
 4260SOL    HW113679   3.986   5.697   3.753
 4260SOL    HW213680   4.126   5.780   3.734
 4261SOL     OW13681   2.101   6.347   1.882
 4261SOL    HW113682   2.037   6.397   1.940
 4261SOL    HW213683   2.127   6.262   1.927
 4262SOL     OW13684   1.668   5.008   6.487
 4262SOL    HW113685   1.732   5.074   6.525
 4262SOL    HW213686   1.626   4.955   6.562
 4263SOL     OW13687   2.145   5.870   5.300
 4263SOL    HW113688   2.172   5.782   5.339
 4263SOL    HW213689   2.104   5.856   5.210
 4264SOL     OW13690   6.727   1.925   0.374
 4264SOL    HW113691   6.666   1.933   0.295
 4264SOL    HW213692   6.678   1.951   0.457
 4265SOL     OW13693   6.493   2.010   0.202
 4265SOL    HW113694   6.447   1.986   0.117
 4265SOL    HW213695   6.547   2.094   0.189
 4266SOL     OW13696   2.904   5.686   0.449
 4266SOL    HW113697   2.896   5.646   0.357
 4266SOL    HW213698   2.866   5.778   0.448
 4267SOL     OW13699   2.160   3.767   5.082
 4267SOL    HW113700   2.206   3.852   5.058
 4267SOL    HW213701   2.149   3.710   5.001
 4268SOL     OW13702   1.681   6.543   0.666
 4268SOL    HW113703   1.699   6.621   0.606
 4268SOL    HW213704   1.685   6.572   0.761
 4269SOL     OW13705   2.824   2.785   0.236
 4269SOL    HW113706   2.923   2.793   0.239
 4269SOL    HW213707   2.785   2.810   0.325
 4270SOL     OW13708   3.875   2.994   4.605
 4270SOL    HW113709   3.892   3.081   4.557
 4270SOL    HW213710   3.812   2.939   4.551
 4271SOL     OW13711   0.352   6.943   5.454
 4271SOL    HW113712   0.304   6.858   5.474
 4271SOL    HW213713   0.352   7.001   5.535
 4272SOL     OW13714   6.995   5.064   5.023
 4272SOL    HW113715   6.912   5.025   4.984
 4272SOL    HW213716   0.031   5.101   4.950
 4273SOL     OW13717   4.624   6.651   4.930
 4273SOL    HW113718   4.711   6.620   4.890
 4273SOL    HW213719   4.552   6.644   4.861
 4274SOL     OW13720   1.035   6.668   3.381
 4274SOL    HW113721   1.117   6.665   3.438
 4274SOL    HW213722   0.979   6.587   3.399
 4275SOL     OW13723   0.015   1.102   5.889
 4275SOL    HW113724   6.946   1.059   5.893
 4275SOL    HW213725   0.023   1.171   5.960
 4276SOL     OW13726   2.233   5.131   2.985
 4276SOL    HW113727   2.329   5.114   2.964
 4276SOL    HW213728   2.194   5.051   3.031
 4277SOL     OW13729   6.394   5.302   3.800
 4277SOL    HW113730   6.467   5.242   3.768
 4277SOL    HW213731   6.399   5.312   3.899
 4278SOL     OW13732   6.444   6.432   5.008
 4278SOL    HW113733   6.387   6.384   4.941
 4278SOL    HW213734   6.404   6.420   5.099
 4279SOL     OW13735   3.420   6.543   5.508
 4279SOL    HW113736   3.415   6.623   5.448
 4279SOL    HW213737   3.341   6.543   5.570
 4280SOL     OW13738   6.274   1.601   5.271
 4280SOL    HW113739   6.215   1.543   5.327
 4280SOL    HW213740   6.277   1.566   5.177
 4281SOL     OW13741   1.777   4.873   5.047
 4281SOL    HW113742   1.737   4.787   5.016
 4281SOL    HW213743   1.867   4.885   5.006
 4282SOL     OW13744   2.910   2.600   0.022
 4282SOL    HW113745   2.996   2.639   7.009
 4282SOL    HW213746   2.871   2.660   0.092
 4283SOL     OW13747   1.481   6.991   3.730
 4283SOL    HW113748   1.506   7.013   3.636
 4283SOL    HW213749   1.409   0.032   3.761
 4284SOL     OW13750   5.544   0.679   2.444
 4284SOL    HW113751   5.459   0.708   2.489
 4284SOL    HW213752   5.592   0.615   2.503
 4285SOL     OW13753   0.127   6.702   5.761
 4285SOL    HW113754   0.029   6.690   5.776
 4285SOL    HW213755   0.177   6.664   5.839
 4286SOL     OW13756   4.851   5.532   6.991
 4286SOL    HW113757   4.950   5.523   7.000
 4286SOL    HW213758   4.830   5.607   6.927
 4287SOL     OW13759   6.159   6.639   5.020
 4287SOL    HW113760   6.082   6.695   5.049
 4287SOL    HW213761   6.126   6.552   4.984
 4288SOL     OW13762   0.522   6.845   4.121
 4288SOL    HW113763   0.553   6.814   4.031
 4288SOL    HW213764   0.557   6.784   4.192
 4289SOL     OW13765   5.341   2.182   1.458
 4289SOL    HW113766   5.389   2.270   1.456
 4289SOL    HW213767   5.307   2.161   1.366
 4290SOL     OW13768   2.131   6.811   1.696
 4290SOL    HW113769   2.120   6.867   1.778
 4290SOL    HW213770   2.222   6.769   1.696
 4291SOL     OW13771   4.917   3.331   1.037
 4291SOL    HW113772   4.883   3.315   1.129
 4291SOL    HW213773   4.974   3.253   1.009
 4292SOL     OW13774   6.377   4.463   5.356
 4292SOL    HW113775   6.460   4.460   5.412
 4292SOL    HW213776   6.309   4.520   5.402
 4293SOL     OW13777   6.929   3.980   6.485
 4293SOL    HW113778   6.906   3.906   6.548
 4293SOL    HW213779   6.920   3.947   6.391
 4294SOL     OW13780   3.938   2.291   6.253
 4294SOL    HW113781   3.942   2.370   6.314
 4294SOL    HW213782   4.006   2.302   6.180
 4295SOL     OW13783   3.423   0.286   4.990
 4295SOL    HW113784   3.436   0.266   5.087
 4295SOL    HW213785   3.494   0.239   4.937
 4296SOL     OW13786   2.364   2.048   0.713
 4296SOL    HW113787   2.375   1.962   0.662
 4296SOL    HW213788   2.351   2.123   0.648
 4297SOL     OW13789   4.825   6.332   4.624
 4297SOL    HW113790   4.868   6.263   4.681
 4297SOL    HW213791   4.821   6.299   4.529
 4298SOL     OW13792   1.531   6.017   1.091
 4298SOL    HW113793   1.566   6.037   1.182
 4298SOL    HW213794   1.561   5.925   1.063
 4299SOL     OW13795   0.970   3.298   6.013
 4299SOL    HW113796   0.966   3.324   6.109
 4299SOL    HW213797   0.962   3.379   5.956
 4300SOL     OW13798   2.920   1.204   6.575
 4300SOL    HW113799   2.843   1.153   6.538
 4300SOL    HW213800   3.002   1.146   6.576
 4301SOL     OW13801   2.265   1.748   0.344
 4301SOL    HW113802   2.306   1.657   0.338
 4301SOL    HW213803   2.166   1.740   0.353
 4302SOL     OW13804   1.287   6.010   6.486
 4302SOL    HW113805   1.368   6.069   6.485
 4302SOL    HW213806   1.308   5.924   6.532
 4303SOL     OW13807   6.623   4.128   3.170
 4303SOL    HW113808   6.612   4.197   3.099
 4303SOL    HW213809   6.668   4.048   3.131
 4304SOL     OW13810   3.769   3.439   4.141
 4304SOL    HW113811   3.672   3.417   4.155
 4304SOL    HW213812   3.803   3.491   4.220
 4305SOL     OW13813   6.080   1.277   3.352
 4305SOL    HW113814   6.022   1.348   3.313
 4305SOL    HW213815   6.135   1.316   3.426
 4306SOL     OW13816   0.152   3.963   6.182
 4306SOL    HW113817   0.185   4.028   6.113
 4306SOL    HW213818   0.060   3.932   6.157
 4307SOL     OW13819   4.752   3.999   5.636
 4307SOL    HW113820   4.745   4.042   5.726
 4307SOL    HW213821   4.669   3.945   5.619
 4308SOL     OW13822   5.118   5.725   5.417
 4308SOL    HW113823   5.077   5.700   5.505
 4308SOL    HW213824   5.166   5.812   5.427
 4309SOL     OW13825   1.248   0.774   0.736
 4309SOL    HW113826   1.216   0.689   0.779
 4309SOL    HW213827   1.187   0.849   0.761
 4310SOL     OW13828   1.732   2.790   3.469
 4310SOL    HW113829   1.705   2.886   3.461
 4310SOL    HW213830   1.743   2.766   3.566
 4311SOL     OW13831   1.310   6.073   2.917
 4311SOL    HW113832   1.392   6.018   2.900
 4311SOL    HW213833   1.301   6.089   3.016
 4312SOL     OW13834   1.572   5.899   1.889
 4312SOL    HW113835   1.516   5.975   1.922
 4312SOL    HW213836   1.666   5.911   1.922
 4313SOL     OW13837   5.663   1.008   1.541
 4313SOL    HW113838   5.739   1.047   1.489
 4313SOL    HW213839   5.697   0.937   1.602
 4314SOL     OW13840   4.770   2.920   2.789
 4314SOL    HW113841   4.778   2.859   2.711
 4314SOL    HW213842   4.675   2.950   2.799
 4315SOL     OW13843   2.835   0.898   2.097
 4315SOL    HW113844   2.786   0.841   2.032
 4315SOL    HW213845   2.849   0.989   2.058
 4316SOL     OW13846   4.757   6.924   1.217
 4316SOL    HW113847   4.704   7.006   1.237
 4316SOL    HW213848   4.697   6.854   1.180
 4317SOL     OW13849   3.469   1.655   5.371
 4317SOL    HW113850   3.399   1.592   5.337
 4317SOL    HW213851   3.427   1.719   5.436
 4318SOL     OW13852   0.935   4.120   4.033
 4318SOL    HW113853   1.008   4.052   4.042
 4318SOL    HW213854   0.894   4.137   4.122
 4319SOL     OW13855   2.656   3.562   6.535
 4319SOL    HW113856   2.603   3.484   6.502
 4319SOL    HW213857   2.654   3.636   6.468
 4320SOL     OW13858   1.756   6.715   2.671
 4320SOL    HW113859   1.677   6.658   2.648
 4320SOL    HW213860   1.778   6.774   2.593
 4321SOL     OW13861   6.278   0.579   4.662
 4321SOL    HW113862   6.293   0.488   4.623
 4321SOL    HW213863   6.228   0.636   4.596
 4322SOL     OW13864   0.022   1.417   6.638
 4322SOL    HW113865   0.010   1.504   6.685
 4322SOL    HW213866   0.098   1.367   6.678
 4323SOL     OW13867   5.731   2.812   2.068
 4323SOL    HW113868   5.661   2.774   2.128
 4323SOL    HW213869   5.818   2.765   2.084
 4324SOL     OW13870   5.826   3.650   6.542
 4324SOL    HW113871   5.924   3.634   6.543
 4324SOL    HW213872   5.799   3.691   6.455
 4325SOL     OW13873   2.302   0.398   0.091
 4325SOL    HW113874   2.397   0.377   0.069
 4325SOL    HW213875   2.268   0.332   0.159
 4326SOL     OW13876   6.839   3.104   5.002
 4326SOL    HW113877   6.931   3.094   5.041
 4326SOL    HW213878   6.774   3.050   5.055
 4327SOL     OW13879   5.257   5.238   2.407
 4327SOL    HW113880   5.229   5.289   2.326
 4327SOL    HW213881   5.348   5.268   2.435
 4328SOL     OW13882   4.687   5.148   6.001
 4328SOL    HW113883   4.745   5.220   6.040
 4328SOL    HW213884   4.646   5.181   5.916
 4329SOL     OW13885   3.422   1.795   6.040
 4329SOL    HW113886   3.460   1.721   5.984
 4329SOL    HW213887   3.424   1.880   5.988
 4330SOL     OW13888   2.611   0.124   5.874
 4330SOL    HW113889   2.606   0.182   5.956
 4330SOL    HW213890   2.536   0.147   5.812
 4331SOL     OW13891   5.153   3.392   0.509
 4331SOL    HW113892   5.087   3.333   0.556
 4331SOL    HW213893   5.236   3.339   0.490
 4332SOL     OW13894   5.252   3.500   2.106
 4332SOL    HW113895   5.243   3.588   2.153
 4332SOL    HW213896   5.336   3.500   2.052
 4333SOL     OW13897   5.198   1.551   5.216
 4333SOL    HW113898   5.149   1.484   5.271
 4333SOL    HW213899   5.133   1.607   5.166
 4334SOL     OW13900   2.942   2.060   1.918
 4334SOL    HW113901   2.925   2.147   1.964
 4334SOL    HW213902   2.882   1.990   1.956
 4335SOL     OW13903   2.900   3.606   3.928
 4335SOL    HW113904   2.932   3.668   4.000
 4335SOL    HW213905   2.912   3.650   3.839
 4336SOL     OW13906   1.478   6.095   5.557
 4336SOL    HW113907   1.534   6.058   5.483
 4336SOL    HW213908   1.443   6.185   5.531
 4337SOL     OW13909   0.639   5.141   0.219
 4337SOL    HW113910   0.551   5.187   0.212
 4337SOL    HW213911   0.638   5.059   0.162
 4338SOL     OW13912   5.726   5.305   4.746
 4338SOL    HW113913   5.667   5.231   4.778
 4338SOL    HW213914   5.699   5.390   4.792
 4339SOL     OW13915   6.232   2.515   4.626
 4339SOL    HW113916   6.194   2.604   4.600
 4339SOL    HW213917   6.159   2.458   4.665
 4340SOL     OW13918   6.793   3.131   2.732
 4340SOL    HW113919   6.855   3.146   2.656
 4340SOL    HW213920   6.726   3.061   2.707
 4341SOL     OW13921   1.733   4.142   2.084
 4341SOL    HW113922   1.710   4.200   2.006
 4341SOL    HW213923   1.813   4.086   2.062
 4342SOL     OW13924   0.607   2.346   3.462
 4342SOL    HW113925   0.672   2.360   3.386
 4342SOL    HW213926   0.551   2.429   3.473
 4343SOL     OW13927   3.949   1.098   6.978
 4343SOL    HW113928   3.852   1.123   6.970
 4343SOL    HW213929   3.970   1.075   0.051
 4344SOL     OW13930   1.625   4.788   3.732
 4344SOL    HW113931   1.561   4.835   3.793
 4344SOL    HW213932   1.603   4.812   3.637
 4345SOL     OW13933   1.523   3.067   5.352
 4345SOL    HW113934   1.584   2.990   5.371
 4345SOL    HW213935   1.570   3.153   5.371
 4346SOL     OW13936   2.448   2.858   1.757
 4346SOL    HW113937   2.476   2.937   1.702
 4346SOL    HW213938   2.348   2.850   1.756
 4347SOL     OW13939   7.008   0.505   1.672
 4347SOL    HW113940   0.060   0.534   1.734
 4347SOL    HW213941   0.028   0.472   1.587
 4348SOL     OW13942   0.714   3.811   1.999
 4348SOL    HW113943   0.707   3.759   1.914
 4348SOL    HW213944   0.635   3.790   2.057
 4349SOL     OW13945   0.511   1.717   3.288
 4349SOL    HW113946   0.461   1.762   3.214
 4349SOL    HW213947   0.451   1.653   3.336
 4350SOL     OW13948   5.370   2.458   4.553
 4350SOL    HW113949   5.286   2.444   4.501
 4350SOL    HW213950   5.354   2.524   4.626
 4351SOL     OW13951   2.537   6.142   2.198
 4351SOL    HW113952   2.444   6.107   2.204
 4351SOL    HW213953   2.587   6.092   2.127
 4352SOL     OW13954   0.407   2.078   1.881
 4352SOL    HW113955   0.463   2.036   1.953
 4352SOL    HW213956   0.420   2.177   1.883
 4353SOL     OW13957   2.279   5.576   1.068
 4353SOL    HW113958   2.190   5.530   1.072
 4353SOL    HW213959   2.268   5.664   1.022
 4354SOL     OW13960   2.220   6.707   0.260
 4354SOL    HW113961   2.174   6.658   0.334
 4354SOL    HW213962   2.319   6.699   0.272
 4355SOL     OW13963   4.135   1.009   1.219
 4355SOL    HW113964   4.219   1.056   1.245
 4355SOL    HW213965   4.156   0.941   1.148
 4356SOL     OW13966   4.848   3.866   1.736
 4356SOL    HW113967   4.908   3.861   1.656
 4356SOL    HW213968   4.886   3.810   1.809
 4357SOL     OW13969   5.897   0.705   0.144
 4357SOL    HW113970   5.921   0.608   0.134
 4357SOL    HW213971   5.903   0.750   0.055
 4358SOL     OW13972   0.219   6.698   1.246
 4358SOL    HW113973   0.294   6.650   1.291
 4358SOL    HW213974   0.243   6.716   1.151
 4359SOL     OW13975   1.108   2.512   4.648
 4359SOL    HW113976   1.128   2.574   4.572
 4359SOL    HW213977   1.009   2.504   4.658
 4360SOL     OW13978   0.680   3.992   2.601
 4360SOL    HW113979   0.753   4.051   2.636
 4360SOL    HW213980   0.719   3.912   2.556
 4361SOL     OW13981   4.154   2.726   1.595
 4361SOL    HW113982   4.197   2.802   1.644
 4361SOL    HW213983   4.057   2.746   1.581
 4362SOL     OW13984   6.142   3.580   5.383
 4362SOL    HW113985   6.116   3.643   5.310
 4362SOL    HW213986   6.235   3.547   5.368
 4363SOL     OW13987   4.832   2.366   5.202
 4363SOL    HW113988   4.895   2.321   5.265
 4363SOL    HW213989   4.747   2.315   5.197
 4364SOL     OW13990   3.061   4.048   4.970
 4364SOL    HW113991   3.036   4.136   5.011
 4364SOL    HW213992   3.136   4.008   5.023
 4365SOL     OW13993   3.716   2.029   2.475
 4365SOL    HW113994   3.722   2.074   2.386
 4365SOL    HW213995   3.709   1.930   2.462
 4366SOL     OW13996   6.317   6.870   1.570
 4366SOL    HW113997   6.296   6.817   1.488
 4366SOL    HW213998   6.256   6.843   1.644
 4367SOL     OW13999   1.025   5.119   5.377
 4367SOL    HW114000   0.960   5.179   5.422
 4367SOL    HW214001   1.110   5.170   5.359
 4368SOL     OW14002   4.809   5.110   1.509
 4368SOL    HW114003   4.808   5.174   1.432
 4368SOL    HW214004   4.877   5.039   1.493
 4369SOL     OW14005   4.824   4.762   2.403
 4369SOL    HW114006   4.797   4.753   2.307
 4369SOL    HW214007   4.838   4.858   2.425
 4370SOL     OW14008   5.604   4.651   3.183
 4370SOL    HW114009   5.628   4.650   3.280
 4370SOL    HW214010   5.674   4.603   3.131
 4371SOL     OW14011   6.706   0.792   1.868
 4371SOL    HW114012   6.726   0.701   1.906
 4371SOL    HW214013   6.714   0.789   1.769
 4372SOL     OW14014   4.482   1.251   2.997
 4372SOL    HW114015   4.450   1.195   2.921
 4372SOL    HW214016   4.480   1.197   3.081
 4373SOL     OW14017   6.463   2.627   6.613
 4373SOL    HW114018   6.428   2.616   6.520
 4373SOL    HW214019   6.526   2.552   6.633
 4374SOL     OW14020   1.322   1.986   2.266
 4374SOL    HW114021   1.361   2.069   2.307
 4374SOL    HW214022   1.389   1.912   2.271
 4375SOL     OW14023   2.626   6.958   4.077
 4375SOL    HW114024   2.556   6.887   4.086
 4375SOL    HW214025   2.672   6.971   4.165
 4376SOL     OW14026   6.671   6.978   2.602
 4376SOL    HW114027   6.589   6.921   2.593
 4376SOL    HW214028   6.648   0.042   2.650
 4377SOL     OW14029   5.395   3.894   0.215
 4377SOL    HW114030   5.495   3.902   0.220
 4377SOL    HW214031   5.356   3.905   0.306
 4378SOL     OW14032   2.373   0.596   3.899
 4378SOL    HW114033   2.347   0.501   3.915
 4378SOL    HW214034   2.332   0.628   3.813
 4379SOL     OW14035   2.512   1.165   5.054
 4379SOL    HW114036   2.455   1.110   5.115
 4379SOL    HW214037   2.461   1.185   4.970
 4380SOL     OW14038   1.168   1.099   1.220
 4380SOL    HW114039   1.250   1.043   1.232
 4380SOL    HW214040   1.105   1.083   1.296
 4381SOL     OW14041   0.757   5.494   5.146
 4381SOL    HW114042   0.673   5.477   5.196
 4381SOL    HW214043   0.807   5.408   5.134
 4382SOL     OW14044   6.642   3.465   5.313
 4382SOL    HW114045   6.549   3.456   5.348
 4382SOL    HW214046   6.650   3.413   5.228
 4383SOL     OW14047   5.719   2.809   6.130
 4383SOL    HW114048   5.692   2.714   6.115
 4383SOL    HW214049   5.741   2.852   6.042
 4384SOL     OW14050   0.019   0.956   3.512
 4384SOL    HW114051   6.990   0.995   3.434
 4384SOL    HW214052   0.115   0.945   3.488
 4385SOL     OW14053   4.738   2.041   4.356
 4385SOL    HW114054   4.787   2.059   4.270
 4385SOL    HW214055   4.801   2.000   4.422
 4386SOL     OW14056   1.245   4.001   5.796
 4386SOL    HW114057   1.189   3.992   5.714
 4386SOL    HW214058   1.325   4.058   5.776
 4387SOL     OW14059   6.032   3.263   0.631
 4387SOL    HW114060   6.089   3.336   0.670
 4387SOL    HW214061   5.950   3.304   0.591
 4388SOL     OW14062   5.203   1.635   6.264
 4388SOL    HW114063   5.177   1.637   6.167
 4388SOL    HW214064   5.242   1.724   6.290
 4389SOL     OW14065   7.012   3.351   2.014
 4389SOL    HW114066   0.002   3.346   2.114
 4389SOL    HW214067   0.011   3.443   1.983
 4390SOL     OW14068   5.667   0.008   0.848
 4390SOL    HW114069   5.625   0.007   0.938
 4390SOL    HW214070   5.610   6.976   0.784
 4391SOL     OW14071   1.882   5.378   6.367
 4391SOL    HW114072   1.859   5.307   6.433
 4391SOL    HW214073   1.800   5.432   6.346
 4392SOL     OW14074   0.536   1.769   3.941
 4392SOL    HW114075   0.634   1.751   3.934
 4392SOL    HW214076   0.513   1.789   4.036
 4393SOL     OW14077   6.171   0.618   1.606
 4393SOL    HW114078   6.146   0.609   1.509
 4393SOL    HW214079   6.156   0.531   1.652
 4394SOL     OW14080   0.933   0.560   1.405
 4394SOL    HW114081   1.015   0.558   1.347
 4394SOL    HW214082   0.941   0.492   1.477
 4395SOL     OW14083   2.289   0.044   2.096
 4395SOL    HW114084   2.381   0.073   2.072
 4395SOL    HW214085   2.293   7.003   2.174
 4396SOL     OW14086   1.482   1.312   3.725
 4396SOL    HW114087   1.423   1.305   3.644
 4396SOL    HW214088   1.493   1.222   3.767
 4397SOL     OW14089   2.390   2.584   3.772
 4397SOL    HW114090   2.423   2.547   3.686
 4397SOL    HW214091   2.467   2.617   3.826
 4398SOL     OW14092   2.030   3.631   6.138
 4398SOL    HW114093   2.007   3.534   6.140
 4398SOL    HW214094   1.985   3.678   6.214
 4399SOL     OW14095   2.139   6.126   2.073
 4399SOL    HW114096   2.050   6.125   2.117
 4399SOL    HW214097   2.211   6.126   2.143
 4400SOL     OW14098   1.232   6.821   3.938
 4400SOL    HW114099   1.204   6.916   3.950
 4400SOL    HW214100   1.157   6.770   3.896
 4401SOL     OW14101   3.709   6.233   5.495
 4401SOL    HW114102   3.803   6.236   5.529
 4401SOL    HW214103   3.683   6.139   5.477
 4402SOL     OW14104   1.304   0.490   3.039
 4402SOL    HW114105   1.300   0.502   3.138
 4402SOL    HW214106   1.392   0.522   3.005
 4403SOL     OW14107   0.828   5.455   1.192
 4403SOL    HW114108   0.896   5.522   1.224
 4403SOL    HW214109   0.746   5.462   1.248
 4404SOL     OW14110   1.275   5.574   5.941
 4404SOL    HW114111   1.306   5.669   5.951
 4404SOL    HW214112   1.354   5.513   5.951
 4405SOL     OW14113   2.832   4.712   3.388
 4405SOL    HW114114   2.835   4.636   3.323
 4405SOL    HW214115   2.808   4.677   3.479
 4406SOL     OW14116   6.186   3.239   2.170
 4406SOL    HW114117   6.205   3.259   2.074
 4406SOL    HW214118   6.128   3.311   2.209
 4407SOL     OW14119   0.105   5.898   2.328
 4407SOL    HW114120   0.159   5.924   2.408
 4407SOL    HW214121   0.166   5.889   2.249
 4408SOL     OW14122   3.814   6.864   0.026
 4408SOL    HW114123   3.867   6.945   0.054
 4408SOL    HW214124   3.873   6.803   6.995
 4409SOL     OW14125   4.021   0.543   2.797
 4409SOL    HW114126   4.018   0.611   2.723
 4409SOL    HW214127   4.023   0.451   2.758
 4410SOL     OW14128   0.347   6.031   1.018
 4410SOL    HW114129   0.318   5.950   0.968
 4410SOL    HW214130   0.446   6.043   1.010
 4411SOL     OW14131   3.357   4.626   5.851
 4411SOL    HW114132   3.283   4.592   5.793
 4411SOL    HW214133   3.445   4.596   5.814
 4412SOL     OW14134   4.246   6.708   3.954
 4412SOL    HW114135   4.339   6.739   3.972
 4412SOL    HW214136   4.210   6.659   4.034
 4413SOL     OW14137   3.267   0.289   4.211
 4413SOL    HW114138   3.294   0.312   4.305
 4413SOL    HW214139   3.330   0.221   4.174
 4414SOL     OW14140   4.973   4.911   1.854
 4414SOL    HW114141   4.950   4.913   1.951
 4414SOL    HW214142   4.891   4.892   1.800
 4415SOL     OW14143   3.396   4.179   1.825
 4415SOL    HW114144   3.425   4.132   1.741
 4415SOL    HW214145   3.438   4.270   1.828
 4416SOL     OW14146   4.010   1.568   4.622
 4416SOL    HW114147   4.036   1.525   4.535
 4416SOL    HW214148   3.961   1.654   4.603
 4417SOL     OW14149   0.299   3.309   4.337
 4417SOL    HW114150   0.286   3.273   4.245
 4417SOL    HW214151   0.220   3.364   4.364
 4418SOL     OW14152   6.389   0.993   1.571
 4418SOL    HW114153   6.291   0.990   1.588
 4418SOL    HW214154   6.421   1.088   1.575
 4419SOL     OW14155   6.541   5.800   5.721
 4419SOL    HW114156   6.566   5.835   5.630
 4419SOL    HW214157   6.622   5.760   5.764
 4420SOL     OW14158   3.582   2.184   1.429
 4420SOL    HW114159   3.509   2.250   1.445
 4420SOL    HW214160   3.646   2.186   1.506
 4421SOL     OW14161   1.342   2.859   4.889
 4421SOL    HW114162   1.359   2.897   4.980
 4421SOL    HW214163   1.243   2.843   4.878
 4422SOL     OW14164   0.514   4.577   0.216
 4422SOL    HW114165   0.469   4.553   0.130
 4422SOL    HW214166   0.530   4.493   0.270
 4423SOL     OW14167   6.341   4.452   6.069
 4423SOL    HW114168   6.415   4.415   6.014
 4423SOL    HW214169   6.337   4.405   6.157
 4424SOL     OW14170   4.782   5.737   4.445
 4424SOL    HW114171   4.861   5.676   4.447
 4424SOL    HW214172   4.743   5.737   4.353
 4425SOL     OW14173   1.704   4.783   1.438
 4425SOL    HW114174   1.686   4.822   1.528
 4425SOL    HW214175   1.642   4.825   1.371
 4426SOL     OW14176   1.028   0.287   4.315
 4426SOL    HW114177   0.962   0.349   4.357
 4426SOL    HW214178   0.980   0.223   4.255
 4427SOL     OW14179   3.406   6.536   2.789
 4427SOL    HW114180   3.465   6.560   2.713
 4427SOL    HW214181   3.461   6.504   2.866
 4428SOL     OW14182   5.778   0.824   4.306
 4428SOL    HW114183   5.804   0.919   4.286
 4428SOL    HW214184   5.804   0.765   4.230
 4429SOL     OW14185   2.769   6.478   3.375
 4429SOL    HW114186   2.774   6.487   3.275
 4429SOL    HW214187   2.709   6.401   3.399
 4430SOL     OW14188   5.344   4.593   3.852
 4430SOL    HW114189   5.253   4.591   3.811
 4430SOL    HW214190   5.396   4.669   3.814
 4431SOL     OW14191   3.759   0.505   3.963
 4431SOL    HW114192   3.661   0.503   3.983
 4431SOL    HW214193   3.808   0.449   4.030
 4432SOL     OW14194   1.412   3.711   6.511
 4432SOL    HW114195   1.322   3.706   6.554
 4432SOL    HW214196   1.402   3.712   6.412
 4433SOL     OW14197   0.843   1.672   4.769
 4433SOL    HW114198   0.889   1.588   4.798
 4433SOL    HW214199   0.843   1.677   4.670
 4434SOL     OW14200   6.817   1.618   1.473
 4434SOL    HW114201   6.803   1.667   1.559
 4434SOL    HW214202   6.764   1.533   1.474
 4435SOL     OW14203   2.945   3.704   0.527
 4435SOL    HW114204   2.860   3.676   0.482
 4435SOL    HW214205   2.962   3.801   0.509
 4436SOL     OW14206   4.723   2.226   1.003
 4436SOL    HW114207   4.815   2.187   1.007
 4436SOL    HW214208   4.701   2.251   0.909
 4437SOL     OW14209   0.276   3.577   2.449
 4437SOL    HW114210   0.248   3.571   2.354
 4437SOL    HW214211   0.337   3.656   2.462
 4438SOL     OW14212   4.702   6.338   5.741
 4438SOL    HW114213   4.646   6.413   5.777
 4438SOL    HW214214   4.668   6.311   5.651
 4439SOL     OW14215   1.583   6.977   3.033
 4439SOL    HW114216   1.513   0.025   3.014
 4439SOL    HW214217   1.539   6.892   3.064
 4440SOL     OW14218   1.953   4.839   0.997
 4440SOL    HW114219   2.009   4.900   0.941
 4440SOL    HW214220   1.901   4.893   1.063
 4441SOL     OW14221   1.061   1.843   0.570
 4441SOL    HW114222   1.079   1.911   0.500
 4441SOL    HW214223   1.050   1.753   0.527
 4442SOL     OW14224   1.696   4.874   6.249
 4442SOL    HW114225   1.775   4.813   6.245
 4442SOL    HW214226   1.693   4.921   6.338
 4443SOL     OW14227   0.646   4.879   6.991
 4443SOL    HW114228   0.605   4.940   6.923
 4443SOL    HW214229   0.577   4.852   0.037
 4444SOL     OW14230   4.822   4.420   0.697
 4444SOL    HW114231   4.854   4.347   0.757
 4444SOL    HW214232   4.806   4.502   0.752
 4445SOL     OW14233   0.085   5.759   6.736
 4445SOL    HW114234   0.134   5.788   6.818
 4445SOL    HW214235   0.087   5.660   6.729
 4446SOL     OW14236   4.774   1.262   0.733
 4446SOL    HW114237   4.765   1.162   0.741
 4446SOL    HW214238   4.712   1.295   0.662
 4447SOL     OW14239   5.649   4.829   4.973
 4447SOL    HW114240   5.632   4.810   4.876
 4447SOL    HW214241   5.724   4.895   4.981
 4448SOL     OW14242   2.925   6.587   1.336
 4448SOL    HW114243   2.876   6.518   1.282
 4448SOL    HW214244   2.913   6.567   1.433
 4449SOL     OW14245   4.350   0.961   6.623
 4449SOL    HW114246   4.425   0.907   6.660
 4449SOL    HW214247   4.267   0.905   6.620
 4450SOL     OW14248   3.827   0.811   6.918
 4450SOL    HW114249   3.852   0.772   7.007
 4450SOL    HW214250   3.908   0.818   6.861
 4451SOL     OW14251   4.653   4.845   3.551
 4451SOL    HW114252   4.604   4.790   3.618
 4451SOL    HW214253   4.717   4.786   3.501
 4452SOL     OW14254   5.462   5.976   4.685
 4452SOL    HW114255   5.526   5.938   4.617
 4452SOL    HW214256   5.442   5.906   4.753
 4453SOL     OW14257   0.075   3.567   1.203
 4453SOL    HW114258   0.152   3.513   1.167
 4453SOL    HW214259   0.090   3.583   1.301
 4454SOL     OW14260   0.716   1.819   0.135
 4454SOL    HW114261   0.770   1.889   0.087
 4454SOL    HW214262   0.620   1.847   0.137
 4455SOL     OW14263   6.126   5.690   4.783
 4455SOL    HW114264   6.173   5.602   4.796
 4455SOL    HW214265   6.110   5.706   4.686
 4456SOL     OW14266   1.602   6.738   3.783
 4456SOL    HW114267   1.697   6.752   3.757
 4456SOL    HW214268   1.555   6.826   3.788
 4457SOL     OW14269   1.388   2.071   4.825
 4457SOL    HW114270   1.295   2.050   4.796
 4457SOL    HW214271   1.409   2.166   4.803
 4458SOL     OW14272   2.094   3.766   1.848
 4458SOL    HW114273   2.125   3.737   1.939
 4458SOL    HW214274   2.137   3.708   1.779
 4459SOL     OW14275   1.456   2.731   4.440
 4459SOL    HW114276   1.473   2.772   4.530
 4459SOL    HW214277   1.357   2.726   4.424
 4460SOL     OW14278   0.175   3.599   4.328
 4460SOL    HW114279   0.096   3.546   4.357
 4460SOL    HW214280   0.181   3.598   4.228
 4461SOL     OW14281   2.588   0.925   1.683
 4461SOL    HW114282   2.639   0.861   1.740
 4461SOL    HW214283   2.542   0.992   1.743
 4462SOL     OW14284   6.131   3.562   1.850
 4462SOL    HW114285   6.178   3.476   1.871
 4462SOL    HW214286   6.033   3.544   1.838
 4463SOL     OW14287   5.213   1.876   1.557
 4463SOL    HW114288   5.306   1.871   1.593
 4463SOL    HW214289   5.149   1.838   1.624
 4464SOL     OW14290   0.158   5.430   0.136
 4464SOL    HW114291   0.095   5.471   0.069
 4464SOL    HW214292   0.202   5.503   0.189
 4465SOL     OW14293   2.142   5.771   0.428
 4465SOL    HW114294   2.056   5.788   0.381
 4465SOL    HW214295   2.202   5.850   0.418
 4466SOL     OW14296   2.034   2.067   4.129
 4466SOL    HW114297   1.964   2.001   4.104
 4466SOL    HW214298   1.995   2.159   4.128
 4467SOL     OW14299   2.873   5.944   3.408
 4467SOL    HW114300   2.773   5.946   3.411
 4467SOL    HW214301   2.910   5.985   3.491
 4468SOL     OW14302   1.470   2.907   2.037
 4468SOL    HW114303   1.429   2.827   2.079
 4468SOL    HW214304   1.519   2.881   1.954
 4469SOL     OW14305   2.813   0.148   1.654
 4469SOL    HW114306   2.793   0.050   1.658
 4469SOL    HW214307   2.801   0.181   1.560
 4470SOL     OW14308   1.247   0.341   2.494
 4470SOL    HW114309   1.164   0.311   2.448
 4470SOL    HW214310   1.299   0.402   2.434
 4471SOL     OW14311   2.371   2.009   6.339
 4471SOL    HW114312   2.347   1.975   6.248
 4471SOL    HW214313   2.316   2.090   6.359
 4472SOL     OW14314   1.754   3.187   1.331
 4472SOL    HW114315   1.830   3.197   1.266
 4472SOL    HW214316   1.677   3.143   1.285
 4473SOL     OW14317   0.290   3.252   4.067
 4473SOL    HW114318   0.199   3.214   4.050
 4473SOL    HW214319   0.316   3.312   3.992
 4474SOL     OW14320   3.552   0.885   1.850
 4474SOL    HW114321   3.571   0.961   1.788
 4474SOL    HW214322   3.632   0.869   1.908
 4475SOL     OW14323   0.864   3.998   2.150
 4475SOL    HW114324   0.818   4.068   2.205
 4475SOL    HW214325   0.795   3.937   2.110
 4476SOL     OW14326   5.439   1.271   3.848
 4476SOL    HW114327   5.487   1.185   3.860
 4476SOL    HW214328   5.407   1.279   3.753
 4477SOL     OW14329   3.112   6.989   5.653
 4477SOL    HW114330   3.027   0.019   5.638
 4477SOL    HW214331   3.092   6.908   5.708
 4478SOL     OW14332   1.483   0.267   0.549
 4478SOL    HW114333   1.410   0.218   0.502
 4478SOL    HW214334   1.543   0.201   0.595
 4479SOL     OW14335   0.626   2.382   0.217
 4479SOL    HW114336   0.717   2.345   0.235
 4479SOL    HW214337   0.634   2.458   0.152
 4480SOL     OW14338   6.443   5.410   4.781
 4480SOL    HW114339   6.494   5.495   4.793
 4480SOL    HW214340   6.356   5.428   4.735
 4481SOL     OW14341   2.520   4.870   5.987
 4481SOL    HW114342   2.548   4.925   6.065
 4481SOL    HW214343   2.431   4.828   6.006
 4482SOL     OW14344   2.776   5.317   6.286
 4482SOL    HW114345   2.750   5.279   6.197
 4482SOL    HW214346   2.705   5.381   6.316
 4483SOL     OW14347   0.554   2.764   2.285
 4483SOL    HW114348   0.623   2.798   2.349
 4483SOL    HW214349   0.565   2.811   2.197
 4484SOL     OW14350   2.673   2.970   0.037
 4484SOL    HW114351   2.763   2.935   0.010
 4484SOL    HW214352   2.602   2.923   7.007
 4485SOL     OW14353   5.076   2.249   4.454
 4485SOL    HW114354   5.109   2.184   4.385
 4485SOL    HW214355   5.080   2.341   4.417
 4486SOL     OW14356   5.161   4.767   5.149
 4486SOL    HW114357   5.237   4.830   5.135
 4486SOL    HW214358   5.148   4.712   5.066
 4487SOL     OW14359   1.556   2.754   0.082
 4487SOL    HW114360   1.579   2.845   0.046
 4487SOL    HW214361   1.606   2.685   0.030
 4488SOL     OW14362   0.756   4.813   4.187
 4488SOL    HW114363   0.742   4.715   4.199
 4488SOL    HW214364   0.701   4.846   4.110
 4489SOL     OW14365   4.613   5.463   5.288
 4489SOL    HW114366   4.589   5.561   5.289
 4489SOL    HW214367   4.693   5.448   5.346
 4490SOL     OW14368   5.346   1.871   1.142
 4490SOL    HW114369   5.378   1.797   1.083
 4490SOL    HW214370   5.416   1.891   1.210
 4491SOL     OW14371   1.299   3.085   3.220
 4491SOL    HW114372   1.250   3.169   3.198
 4491SOL    HW214373   1.236   3.008   3.218
 4492SOL     OW14374   5.467   0.401   1.828
 4492SOL    HW114375   5.370   0.420   1.838
 4492SOL    HW214376   5.493   0.326   1.889
 4493SOL     OW14377   5.176   0.188   4.852
 4493SOL    HW114378   5.196   0.096   4.886
 4493SOL    HW214379   5.113   0.234   4.914
 4494SOL     OW14380   0.224   0.585   6.884
 4494SOL    HW114381   0.249   0.555   6.792
 4494SOL    HW214382   0.231   0.685   6.890
 4495SOL     OW14383   3.793   6.128   2.068
 4495SOL    HW114384   3.851   6.209   2.071
 4495SOL    HW214385   3.846   6.049   2.039
 4496SOL     OW14386   4.149   6.320   5.860
 4496SOL    HW114387   4.162   6.308   5.958
 4496SOL    HW214388   4.059   6.285   5.833
 4497SOL     OW14389   4.119   1.950   6.404
 4497SOL    HW114390   4.152   1.865   6.362
 4497SOL    HW214391   4.189   2.021   6.393
 4498SOL     OW14392   0.074   5.186   5.700
 4498SOL    HW114393   0.148   5.244   5.666
 4498SOL    HW214394   0.075   5.187   5.800
 4499SOL     OW14395   6.050   1.501   2.607
 4499SOL    HW114396   6.106   1.519   2.526
 4499SOL    HW214397   5.957   1.479   2.579
 4500SOL     OW14398   3.565   5.311   0.560
 4500SOL    HW114399   3.516   5.250   0.499
 4500SOL    HW214400   3.506   5.338   0.636
 4501SOL     OW14401   5.912   1.650   1.906
 4501SOL    HW114402   5.873   1.655   1.997
 4501SOL    HW214403   5.904   1.556   1.871
 4502SOL     OW14404   0.759   3.387   0.186
 4502SOL    HW114405   0.663   3.399   0.164
 4502SOL    HW214406   0.814   3.392   0.102
 4503SOL     OW14407   3.035   0.284   2.331
 4503SOL    HW114408   3.067   0.214   2.267
 4503SOL    HW214409   2.947   0.257   2.368
 4504SOL     OW14410   0.300   1.974   3.345
 4504SOL    HW114411   0.278   1.878   3.361
 4504SOL    HW214412   0.250   2.007   3.264
 4505SOL     OW14413   6.285   4.043   2.673
 4505SOL    HW114414   6.317   4.049   2.579
 4505SOL    HW214415   6.270   3.947   2.697
 4506SOL     OW14416   5.162   2.846   4.565
 4506SOL    HW114417   5.143   2.935   4.607
 4506SOL    HW214418   5.119   2.774   4.620
 4507SOL     OW14419   6.574   3.191   3.296
 4507SOL    HW114420   6.663   3.232   3.275
 4507SOL    HW214421   6.540   3.142   3.215
 4508SOL     OW14422   0.482   4.908   0.937
 4508SOL    HW114423   0.454   4.832   0.995
 4508SOL    HW214424   0.534   4.874   0.859
 4509SOL     OW14425   4.290   1.842   2.279
 4509SOL    HW114426   4.366   1.777   2.273
 4509SOL    HW214427   4.297   1.893   2.365
 4510SOL     OW14428   4.875   1.514   4.133
 4510SOL    HW114429   4.862   1.587   4.199
 4510SOL    HW214430   4.862   1.425   4.177
 4511SOL     OW14431   0.352   4.545   1.149
 4511SOL    HW114432   0.408   4.494   1.215
 4511SOL    HW214433   0.270   4.492   1.128
 4512SOL     OW14434   3.803   2.278   5.766
 4512SOL    HW114435   3.839   2.371   5.774
 4512SOL    HW214436   3.768   2.248   5.855
 4513SOL     OW14437   1.532   5.948   6.800
 4513SOL    HW114438   1.515   5.850   6.797
 4513SOL    HW214439   1.619   5.969   6.756
 4514SOL     OW14440   3.168   3.537   6.635
 4514SOL    HW114441   3.132   3.624   6.668
 4514SOL    HW214442   3.132   3.463   6.691
 4515SOL     OW14443   5.236   6.730   5.131
 4515SOL    HW114444   5.228   6.631   5.133
 4515SOL    HW214445   5.317   6.759   5.181
 4516SOL     OW14446   3.326   1.770   5.546
 4516SOL    HW114447   3.255   1.757   5.615
 4516SOL    HW214448   3.404   1.816   5.587
 4517SOL     OW14449   4.441   0.264   5.716
 4517SOL    HW114450   4.357   0.246   5.666
 4517SOL    HW214451   4.479   0.178   5.750
 4518SOL     OW14452   2.223   0.195   1.355
 4518SOL    HW114453   2.218   0.193   1.455
 4518SOL    HW214454   2.237   0.102   1.320
 4519SOL     OW14455   5.764   6.748   0.266
 4519SOL    HW114456   5.783   6.837   0.225
 4519SOL    HW214457   5.794   6.748   0.362
 4520SOL     OW14458   4.204   6.693   5.223
 4520SOL    HW114459   4.237   6.698   5.129
 4520SOL    HW214460   4.244   6.768   5.276
 4521SOL     OW14461   5.113   2.558   5.007
 4521SOL    HW114462   5.118   2.520   4.914
 4521SOL    HW214463   5.018   2.581   5.028
 4522SOL     OW14464   5.148   3.352   3.573
 4522SOL    HW114465   5.226   3.375   3.515
 4522SOL    HW214466   5.180   3.332   3.665
 4523SOL     OW14467   0.498   3.578   6.411
 4523SOL    HW114468   0.588   3.622   6.419
 4523SOL    HW214469   0.427   3.648   6.420
 4524SOL     OW14470   0.525   3.143   2.849
 4524SOL    HW114471   0.441   3.123   2.900
 4524SOL    HW214472   0.502   3.164   2.755
 4525SOL     OW14473   1.938   2.735   5.770
 4525SOL    HW114474   1.889   2.762   5.852
 4525SOL    HW214475   2.037   2.740   5.786
 4526SOL     OW14476   0.767   0.006   6.054
 4526SOL    HW114477   0.742   0.095   6.094
 4526SOL    HW214478   0.724   6.954   6.107
 4527SOL     OW14479   6.692   0.113   2.966
 4527SOL    HW114480   6.700   0.099   3.065
 4527SOL    HW214481   6.715   0.208   2.944
 4528SOL     OW14482   4.214   1.160   5.251
 4528SOL    HW114483   4.296   1.167   5.308
 4528SOL    HW214484   4.230   1.095   5.177
 4529SOL     OW14485   2.817   0.825   5.423
 4529SOL    HW114486   2.754   0.902   5.419
 4529SOL    HW214487   2.799   0.763   5.347
 4530SOL     OW14488   2.262   6.324   4.975
 4530SOL    HW114489   2.237   6.376   4.893
 4530SOL    HW214490   2.193   6.254   4.993
 4531SOL     OW14491   0.975   5.105   6.186
 4531SOL    HW114492   1.065   5.131   6.151
 4531SOL    HW214493   0.985   5.063   6.276
 4532SOL     OW14494   5.523   0.539   2.829
 4532SOL    HW114495   5.517   0.606   2.903
 4532SOL    HW214496   5.619   0.525   2.804
 4533SOL     OW14497   2.492   0.756   2.136
 4533SOL    HW114498   2.493   0.788   2.231
 4533SOL    HW214499   2.418   0.801   2.087
 4534SOL     OW14500   4.644   1.723   4.332
 4534SOL    HW114501   4.738   1.741   4.305
 4534SOL    HW214502   4.641   1.641   4.390
 4535SOL     OW14503   2.886   1.666   1.238
 4535SOL    HW114504   2.904   1.693   1.144
 4535SOL    HW214505   2.965   1.614   1.273
 4536SOL     OW14506   2.854   1.694   5.928
 4536SOL    HW114507   2.810   1.674   6.016
 4536SOL    HW214508   2.857   1.793   5.914
 4537SOL     OW14509   3.483   4.205   4.380
 4537SOL    HW114510   3.568   4.154   4.367
 4537SOL    HW214511   3.470   4.223   4.478
 4538SOL     OW14512   6.728   2.658   1.104
 4538SOL    HW114513   6.653   2.593   1.092
 4538SOL    HW214514   6.789   2.626   1.177
 4539SOL     OW14515   1.353   5.538   5.525
 4539SOL    HW114516   1.432   5.581   5.569
 4539SOL    HW214517   1.385   5.472   5.457
 4540SOL     OW14518   6.915   1.322   0.987
 4540SOL    HW114519   6.846   1.363   0.927
 4540SOL    HW214520   6.899   1.224   0.993
 4541SOL     OW14521   4.324   2.043   6.158
 4541SOL    HW114522   4.399   2.051   6.224
 4541SOL    HW214523   4.264   1.967   6.184
 4542SOL     OW14524   7.005   2.973   1.236
 4542SOL    HW114525   0.056   3.026   1.193
 4542SOL    HW214526   6.923   3.029   1.244
 4543SOL     OW14527   3.431   2.052   6.761
 4543SOL    HW114528   3.469   2.135   6.802
 4543SOL    HW214529   3.501   2.009   6.703
 4544SOL     OW14530   5.739   5.087   0.421
 4544SOL    HW114531   5.676   5.086   0.343
 4544SOL    HW214532   5.763   4.993   0.445
 4545SOL     OW14533   1.751   3.619   5.026
 4545SOL    HW114534   1.730   3.676   4.947
 4545SOL    HW214535   1.759   3.677   5.107
 4546SOL     OW14536   2.583   1.293   5.960
 4546SOL    HW114537   2.592   1.197   5.984
 4546SOL    HW214538   2.535   1.341   6.034
 4547SOL     OW14539   6.117   0.623   0.355
 4547SOL    HW114540   6.123   0.581   0.445
 4547SOL    HW214541   6.034   0.679   0.350
 4548SOL     OW14542   2.171   2.985   2.642
 4548SOL    HW114543   2.184   3.006   2.739
 4548SOL    HW214544   2.172   3.070   2.589
 4549SOL     OW14545   5.802   4.086   2.295
 4549SOL    HW114546   5.772   4.036   2.376
 4549SOL    HW214547   5.760   4.176   2.294
 4550SOL     OW14548   0.642   4.581   2.863
 4550SOL    HW114549   0.557   4.529   2.871
 4550SOL    HW214550   0.702   4.559   2.939
 4551SOL     OW14551   1.469   3.571   5.036
 4551SOL    HW114552   1.473   3.669   5.054
 4551SOL    HW214553   1.561   3.533   5.043
 4552SOL     OW14554   6.012   1.096   1.469
 4552SOL    HW114555   6.005   1.054   1.559
 4552SOL    HW214556   6.065   1.180   1.476
 4553SOL     OW14557   5.338   4.392   6.221
 4553SOL    HW114558   5.380   4.380   6.311
 4553SOL    HW214559   5.248   4.436   6.232
 4554SOL     OW14560   0.569   6.505   1.640
 4554SOL    HW114561   0.664   6.536   1.645
 4554SOL    HW214562   0.566   6.407   1.661
 4555SOL     OW14563   0.959   1.054   6.855
 4555SOL    HW114564   0.898   1.035   6.932
 4555SOL    HW214565   0.918   1.020   6.770
 4556SOL     OW14566   6.196   3.165   5.906
 4556SOL    HW114567   6.211   3.118   5.993
 4556SOL    HW214568   6.097   3.170   5.889
 4557SOL     OW14569   5.508   4.902   3.112
 4557SOL    HW114570   5.411   4.912   3.135
 4557SOL    HW214571   5.536   4.807   3.127
 4558SOL     OW14572   6.652   3.024   5.173
 4558SOL    HW114573   6.664   2.975   5.259
 4558SOL    HW214574   6.618   3.116   5.191
 4559SOL     OW14575   1.004   2.977   2.873
 4559SOL    HW114576   1.057   3.053   2.836
 4559SOL    HW214577   0.910   3.007   2.890
 4560SOL     OW14578   6.215   4.808   2.116
 4560SOL    HW114579   6.227   4.738   2.045
 4560SOL    HW214580   6.292   4.872   2.114
 4561SOL     OW14581   3.489   2.101   4.418
 4561SOL    HW114582   3.407   2.050   4.444
 4561SOL    HW214583   3.489   2.114   4.318
 4562SOL     OW14584   1.956   0.194   1.011
 4562SOL    HW114585   1.861   0.219   1.029
 4562SOL    HW214586   1.962   0.145   0.924
 4563SOL     OW14587   0.562   3.156   1.957
 4563SOL    HW114588   0.503   3.179   1.880
 4563SOL    HW214589   0.616   3.236   1.983
 4564SOL     OW14590   0.152   4.515   1.847
 4564SOL    HW114591   0.200   4.427   1.836
 4564SOL    HW214592   0.068   4.501   1.898
 4565SOL     OW14593   2.372   7.006   4.771
 4565SOL    HW114594   2.402   6.924   4.819
 4565SOL    HW214595   2.272   7.011   4.772
 4566SOL     OW14596   6.840   4.319   1.629
 4566SOL    HW114597   6.753   4.349   1.667
 4566SOL    HW214598   6.903   4.396   1.626
 4567SOL     OW14599   0.259   6.936   6.183
 4567SOL    HW114600   0.196   7.009   6.157
 4567SOL    HW214601   0.269   6.872   6.107
 4568SOL     OW14602   0.649   5.122   3.806
 4568SOL    HW114603   0.612   5.184   3.737
 4568SOL    HW214604   0.735   5.159   3.842
 4569SOL     OW14605   2.975   1.436   3.062
 4569SOL    HW114606   3.011   1.527   3.046
 4569SOL    HW214607   2.917   1.437   3.144
 4570SOL     OW14608   6.573   5.754   1.212
 4570SOL    HW114609   6.568   5.692   1.291
 4570SOL    HW214610   6.574   5.848   1.244
 4571SOL     OW14611   3.574   2.928   6.528
 4571SOL    HW114612   3.484   2.969   6.541
 4571SOL    HW214613   3.593   2.863   6.602
 4572SOL     OW14614   2.503   3.030   0.798
 4572SOL    HW114615   2.510   3.115   0.851
 4572SOL    HW214616   2.532   2.953   0.854
 4573SOL     OW14617   1.059   6.659   1.241
 4573SOL    HW114618   1.076   6.697   1.150
 4573SOL    HW214619   0.962   6.639   1.252
 4574SOL     OW14620   6.601   3.128   0.449
 4574SOL    HW114621   6.540   3.074   0.391
 4574SOL    HW214622   6.562   3.220   0.461
 4575SOL     OW14623   6.131   0.756   4.099
 4575SOL    HW114624   6.158   0.845   4.135
 4575SOL    HW214625   6.196   0.727   4.029
 4576SOL     OW14626   2.658   5.389   4.963
 4576SOL    HW114627   2.589   5.380   5.034
 4576SOL    HW214628   2.735   5.329   4.983
 4577SOL     OW14629   2.231   1.554   3.166
 4577SOL    HW114630   2.220   1.649   3.137
 4577SOL    HW214631   2.244   1.550   3.265
 4578SOL     OW14632   1.461   0.676   2.573
 4578SOL    HW114633   1.534   0.744   2.568
 4578SOL    HW214634   1.479   0.614   2.650
 4579SOL     OW14635   4.125   0.194   2.041
 4579SOL    HW114636   4.202   0.188   1.977
 4579SOL    HW214637   4.156   0.168   2.132
 4580SOL     OW14638   6.502   3.646   6.825
 4580SOL    HW114639   6.480   3.610   6.734
 4580SOL    HW214640   6.574   3.590   6.866
 4581SOL     OW14641   3.560   6.773   1.943
 4581SOL    HW114642   3.616   6.793   2.023
 4581SOL    HW214643   3.490   6.706   1.968
 4582SOL     OW14644   5.928   0.834   2.863
 4582SOL    HW114645   6.001   0.865   2.924
 4582SOL    HW214646   5.840   0.839   2.911
 4583SOL     OW14647   2.252   0.035   6.885
 4583SOL    HW114648   2.164   0.011   6.845
 4583SOL    HW214649   2.260   7.014   6.975
 4584SOL     OW14650   1.854   0.161   5.968
 4584SOL    HW114651   1.884   0.178   5.874
 4584SOL    HW214652   1.864   0.246   6.021
 4585SOL     OW14653   1.544   4.549   3.397
 4585SOL    HW114654   1.566   4.453   3.382
 4585SOL    HW214655   1.449   4.558   3.426
 4586SOL     OW14656   5.186   4.343   6.937
 4586SOL    HW114657   5.126   4.349   7.016
 4586SOL    HW214658   5.131   4.331   6.854
 4587SOL     OW14659   3.252   3.764   4.574
 4587SOL    HW114660   3.232   3.825   4.497
 4587SOL    HW214661   3.231   3.670   4.547
 4588SOL     OW14662   2.806   4.015   5.965
 4588SOL    HW114663   2.814   4.019   6.065
 4588SOL    HW214664   2.794   3.919   5.937
 4589SOL     OW14665   5.321   6.198   2.196
 4589SOL    HW114666   5.403   6.158   2.155
 4589SOL    HW214667   5.255   6.125   2.216
 4590SOL     OW14668   3.536   5.212   2.063
 4590SOL    HW114669   3.576   5.268   2.135
 4590SOL    HW214670   3.454   5.166   2.097
 4591SOL     OW14671   2.512   6.852   5.211
 4591SOL    HW114672   2.444   6.925   5.209
 4591SOL    HW214673   2.571   6.864   5.292
 4592SOL     OW14674   2.438   1.310   4.785
 4592SOL    HW114675   2.497   1.390   4.797
 4592SOL    HW214676   2.349   1.339   4.748
 4593SOL     OW14677   6.845   5.752   3.236
 4593SOL    HW114678   6.926   5.797   3.273
 4593SOL    HW214679   6.872   5.673   3.181
 4594SOL     OW14680   2.061   0.249   2.924
 4594SOL    HW114681   2.125   0.315   2.962
 4594SOL    HW214682   1.970   0.290   2.917
 4595SOL     OW14683   4.867   1.374   6.312
 4595SOL    HW114684   4.876   1.275   6.301
 4595SOL    HW214685   4.951   1.411   6.351
 4596SOL     OW14686   0.871   0.957   2.143
 4596SOL    HW114687   0.839   0.866   2.114
 4596SOL    HW214688   0.820   1.027   2.093
 4597SOL     OW14689   2.564   5.605   0.246
 4597SOL    HW114690   2.497   5.638   0.180
 4597SOL    HW214691   2.591   5.512   0.222
 4598SOL     OW14692   1.733   5.581   0.200
 4598SOL    HW114693   1.781   5.493   0.199
 4598SOL    HW214694   1.732   5.617   0.293
 4599SOL     OW14695   1.470   4.449   2.682
 4599SOL    HW114696   1.537   4.513   2.646
 4599SOL    HW214697   1.379   4.473   2.648
 4600SOL     OW14698   6.977   6.321   5.521
 4600SOL    HW114699   6.934   6.404   5.486
 4600SOL    HW214700   7.017   6.271   5.444
 4601SOL     OW14701   0.736   1.090   4.183
 4601SOL    HW114702   0.667   1.038   4.133
 4601SOL    HW214703   0.717   1.188   4.174
 4602SOL     OW14704   3.365   0.610   6.608
 4602SOL    HW114705   3.287   0.629   6.667
 4602SOL    HW214706   3.449   0.609   6.662
 4603SOL     OW14707   4.464   5.803   1.374
 4603SOL    HW114708   4.506   5.855   1.300
 4603SOL    HW214709   4.418   5.723   1.336
 4604SOL     OW14710   5.216   6.840   5.881
 4604SOL    HW114711   5.229   6.796   5.970
 4604SOL    HW214712   5.194   6.936   5.894
 4605SOL     OW14713   2.764   6.941   1.893
 4605SOL    HW114714   2.689   6.913   1.833
 4605SOL    HW214715   2.847   6.890   1.868
 4606SOL     OW14716   0.250   6.555   2.955
 4606SOL    HW114717   0.334   6.523   2.999
 4606SOL    HW214718   0.197   6.476   2.922
 4607SOL     OW14719   1.862   3.688   2.733
 4607SOL    HW114720   1.954   3.716   2.760
 4607SOL    HW214721   1.805   3.680   2.814
 4608SOL     OW14722   6.858   3.236   4.770
 4608SOL    HW114723   6.858   3.190   4.859
 4608SOL    HW214724   6.934   3.201   4.714
 4609SOL     OW14725   4.285   6.665   6.697
 4609SOL    HW114726   4.284   6.709   6.607
 4609SOL    HW214727   4.196   6.624   6.716
 4610SOL     OW14728   5.399   2.231   0.468
 4610SOL    HW114729   5.477   2.279   0.509
 4610SOL    HW214730   5.315   2.283   0.482
 4611SOL     OW14731   1.005   0.647   5.721
 4611SOL    HW114732   1.086   0.639   5.779
 4611SOL    HW214733   0.923   0.624   5.773
 4612SOL     OW14734   1.884   6.420   2.393
 4612SOL    HW114735   1.809   6.360   2.365
 4612SOL    HW214736   1.937   6.446   2.312
 4613SOL     OW14737   2.081   4.775   1.682
 4613SOL    HW114738   2.121   4.700   1.735
 4613SOL    HW214739   2.154   4.833   1.647
 4614SOL     OW14740   5.832   3.420   4.570
 4614SOL    HW114741   5.849   3.334   4.521
 4614SOL    HW214742   5.822   3.400   4.668
 4615SOL     OW14743   1.405   1.458   1.190
 4615SOL    HW114744   1.334   1.477   1.123
 4615SOL    HW214745   1.364   1.435   1.278
 4616SOL     OW14746   6.300   2.880   4.337
 4616SOL    HW114747   6.284   2.961   4.280
 4616SOL    HW214748   6.359   2.904   4.414
 4617SOL     OW14749   0.429   2.607   2.079
 4617SOL    HW114750   0.513   2.633   2.032
 4617SOL    HW214751   0.448   2.587   2.175
 4618SOL     OW14752   2.628   4.243   5.907
 4618SOL    HW114753   2.676   4.158   5.931
 4618SOL    HW214754   2.659   4.274   5.817
 4619SOL     OW14755   2.995   5.972   4.500
 4619SOL    HW114756   2.935   5.919   4.560
 4619SOL    HW214757   2.965   5.962   4.405
 4620SOL     OW14758   0.762   5.339   1.916
 4620SOL    HW114759   0.793   5.363   2.008
 4620SOL    HW214760   0.799   5.249   1.891
 4621SOL     OW14761   5.047   0.696   2.562
 4621SOL    HW114762   5.025   0.650   2.648
 4621SOL    HW214763   4.963   0.729   2.518
 4622SOL     OW14764   3.859   5.593   1.289
 4622SOL    HW114765   3.850   5.677   1.234
 4622SOL    HW214766   3.854   5.514   1.228
 4623SOL     OW14767   3.246   5.101   1.173
 4623SOL    HW114768   3.235   5.174   1.105
 4623SOL    HW214769   3.189   5.023   1.148
 4624SOL     OW14770   3.772   1.146   3.359
 4624SOL    HW114771   3.736   1.167   3.449
 4624SOL    HW214772   3.800   1.050   3.355
 4625SOL     OW14773   1.911   4.995   1.864
 4625SOL    HW114774   1.962   4.910   1.851
 4625SOL    HW214775   1.973   5.067   1.897
 4626SOL     OW14776   3.980   4.182   1.617
 4626SOL    HW114777   3.969   4.280   1.634
 4626SOL    HW214778   4.065   4.150   1.658
 4627SOL     OW14779   6.884   6.291   4.838
 4627SOL    HW114780   6.946   6.259   4.766
 4627SOL    HW214781   6.937   6.336   4.909
 4628SOL     OW14782   4.358   5.156   3.282
 4628SOL    HW114783   4.446   5.203   3.290
 4628SOL    HW214784   4.335   5.145   3.185
 4629SOL     OW14785   1.780   5.575   6.947
 4629SOL    HW114786   1.736   5.494   6.909
 4629SOL    HW214787   1.778   5.571   0.026
 4630SOL     OW14788   1.660   4.571   2.189
 4630SOL    HW114789   1.685   4.485   2.233
 4630SOL    HW214790   1.739   4.633   2.191
 4631SOL     OW14791   0.075   0.926   4.038
 4631SOL    HW114792   7.005   0.966   4.042
 4631SOL    HW214793   0.100   0.909   3.943
 4632SOL     OW14794   3.222   5.224   2.324
 4632SOL    HW114795   3.301   5.187   2.372
 4632SOL    HW214796   3.229   5.324   2.319
 4633SOL     OW14797   5.024   1.483   3.916
 4633SOL    HW114798   5.097   1.420   3.942
 4633SOL    HW214799   4.980   1.518   3.998
 4634SOL     OW14800   2.976   3.362   4.949
 4634SOL    HW114801   2.965   3.294   4.877
 4634SOL    HW214802   2.955   3.321   5.038
 4635SOL     OW14803   5.408   5.544   0.543
 4635SOL    HW114804   5.406   5.462   0.600
 4635SOL    HW214805   5.356   5.617   0.586
 4636SOL     OW14806   1.906   5.359   0.179
 4636SOL    HW114807   1.866   5.268   0.174
 4636SOL    HW214808   2.002   5.352   0.208
 4637SOL     OW14809   1.962   0.084   2.205
 4637SOL    HW114810   2.044   0.123   2.163
 4637SOL    HW214811   1.975   0.076   2.303
 4638SOL     OW14812   3.877   4.968   1.017
 4638SOL    HW114813   3.943   4.914   0.964
 4638SOL    HW214814   3.784   4.937   0.995
 4639SOL     OW14815   1.887   2.322   0.364
 4639SOL    HW114816   1.936   2.393   0.414
 4639SOL    HW214817   1.936   2.236   0.372
 4640SOL     OW14818   6.403   3.105   5.402
 4640SOL    HW114819   6.340   3.030   5.382
 4640SOL    HW214820   6.466   3.076   5.474
 4641SOL     OW14821   0.882   5.733   3.991
 4641SOL    HW114822   0.962   5.707   4.046
 4641SOL    HW214823   0.870   5.667   3.917
 4642SOL     OW14824   1.875   1.763   3.348
 4642SOL    HW114825   1.877   1.674   3.394
 4642SOL    HW214826   1.955   1.771   3.288
 4643SOL     OW14827   6.670   2.223   0.062
 4643SOL    HW114828   6.677   2.270   6.996
 4643SOL    HW214829   6.717   2.276   0.133
 4644SOL     OW14830   1.908   1.041   0.334
 4644SOL    HW114831   1.966   1.119   0.356
 4644SOL    HW214832   1.918   1.018   0.237
 4645SOL     OW14833   1.393   1.002   3.544
 4645SOL    HW114834   1.349   1.084   3.508
 4645SOL    HW214835   1.326   0.947   3.594
 4646SOL     OW14836   2.080   5.488   3.707
 4646SOL    HW114837   2.021   5.408   3.696
 4646SOL    HW214838   2.025   5.571   3.697
 4647SOL     OW14839   1.922   6.623   2.895
 4647SOL    HW114840   1.864   6.639   2.815
 4647SOL    HW214841   1.874   6.652   2.977
 4648SOL     OW14842   3.068   1.265   4.066
 4648SOL    HW114843   3.016   1.181   4.049
 4648SOL    HW214844   3.010   1.344   4.048
 4649SOL     OW14845   5.916   0.466   0.635
 4649SOL    HW114846   5.876   0.446   0.546
 4649SOL    HW214847   5.864   0.419   0.707
 4650SOL     OW14848   5.045   6.335   1.432
 4650SOL    HW114849   5.082   6.427   1.419
 4650SOL    HW214850   4.986   6.334   1.513
 4651SOL     OW14851   6.585   3.223   6.160
 4651SOL    HW114852   6.529   3.142   6.178
 4651SOL    HW214853   6.662   3.199   6.100
 4652SOL     OW14854   6.942   6.489   4.505
 4652SOL    HW114855   6.975   6.516   4.595
 4652SOL    HW214856   6.842   6.481   4.507
 4653SOL     OW14857   5.123   5.817   0.882
 4653SOL    HW114858   5.200   5.771   0.924
 4653SOL    HW214859   5.145   5.914   0.868
 4654SOL     OW14860   6.793   6.714   4.759
 4654SOL    HW114861   6.731   6.654   4.809
 4654SOL    HW214862   6.885   6.674   4.759
 4655SOL     OW14863   4.924   2.621   0.872
 4655SOL    HW114864   4.830   2.622   0.905
 4655SOL    HW214865   4.987   2.617   0.949
 4656SOL     OW14866   0.754   1.349   1.568
 4656SOL    HW114867   0.697   1.282   1.520
 4656SOL    HW214868   0.846   1.312   1.580
 4657SOL     OW14869   5.182   6.710   2.238
 4657SOL    HW114870   5.186   6.727   2.139
 4657SOL    HW214871   5.169   6.612   2.254
 4658SOL     OW14872   2.757   2.236   5.263
 4658SOL    HW114873   2.835   2.204   5.208
 4658SOL    HW214874   2.693   2.285   5.204
 4659SOL     OW14875   3.354   4.668   0.883
 4659SOL    HW114876   3.383   4.669   0.787
 4659SOL    HW214877   3.354   4.574   0.917
 4660SOL     OW14878   1.249   6.467   4.110
 4660SOL    HW114879   1.280   6.400   4.177
 4660SOL    HW214880   1.272   6.435   4.018
 4661SOL     OW14881   1.948   3.721   5.650
 4661SOL    HW114882   1.859   3.762   5.628
 4661SOL    HW214883   2.000   3.783   5.709
 4662SOL     OW14884   3.104   6.416   4.578
 4662SOL    HW114885   3.053   6.363   4.646
 4662SOL    HW214886   3.148   6.354   4.514
 4663SOL     OW14887   1.045   0.418   6.923
 4663SOL    HW114888   1.061   0.335   6.977
 4663SOL    HW214889   1.019   0.393   6.830
 4664SOL     OW14890   6.669   6.926   0.484
 4664SOL    HW114891   6.709   7.017   0.489
 4664SOL    HW214892   6.726   6.869   0.424
 4665SOL     OW14893   1.957   0.699   5.396
 4665SOL    HW114894   1.905   0.770   5.348
 4665SOL    HW214895   2.042   0.681   5.348
 4666SOL     OW14896   2.126   2.644   6.320
 4666SOL    HW114897   2.218   2.631   6.283
 4666SOL    HW214898   2.125   2.620   6.417
 4667SOL     OW14899   6.409   3.410   1.819
 4667SOL    HW114900   6.484   3.465   1.782
 4667SOL    HW214901   6.390   3.334   1.756
 4668SOL     OW14902   4.136   2.272   4.648
 4668SOL    HW114903   4.169   2.299   4.557
 4668SOL    HW214904   4.074   2.194   4.638
 4669SOL     OW14905   5.496   6.860   0.257
 4669SOL    HW114906   5.504   6.942   0.315
 4669SOL    HW214907   5.575   6.800   0.273
 4670SOL     OW14908   1.102   3.343   0.157
 4670SOL    HW114909   1.045   3.283   0.213
 4670SOL    HW214910   1.111   3.305   0.065
 4671SOL     OW14911   0.809   3.747   0.304
 4671SOL    HW114912   0.826   3.659   0.347
 4671SOL    HW214913   0.879   3.812   0.331
 4672SOL     OW14914   3.498   4.204   5.952
 4672SOL    HW114915   3.530   4.124   5.900
 4672SOL    HW214916   3.422   4.247   5.903
 4673SOL     OW14917   5.483   0.519   6.551
 4673SOL    HW114918   5.391   0.554   6.571
 4673SOL    HW214919   5.489   0.495   6.454
 4674SOL     OW14920   0.396   1.862   0.197
 4674SOL    HW114921   0.301   1.889   0.210
 4674SOL    HW214922   0.454   1.907   0.265
 4675SOL     OW14923   3.175   5.882   0.275
 4675SOL    HW114924   3.234   5.802   0.282
 4675SOL    HW214925   3.151   5.898   0.179
 4676SOL     OW14926   0.638   6.460   4.453
 4676SOL    HW114927   0.538   6.457   4.449
 4676SOL    HW214928   0.675   6.376   4.414
 4677SOL     OW14929   4.346   0.241   6.766
 4677SOL    HW114930   4.425   0.241   6.827
 4677SOL    HW214931   4.278   0.307   6.800
 4678SOL     OW14932   2.129   4.606   0.819
 4678SOL    HW114933   2.186   4.658   0.756
 4678SOL    HW214934   2.092   4.667   0.889
 4679SOL     OW14935   2.671   0.640   6.337
 4679SOL    HW114936   2.661   0.542   6.319
 4679SOL    HW214937   2.658   0.657   6.435
 4680SOL     OW14938   1.513   4.819   0.886
 4680SOL    HW114939   1.517   4.762   0.967
 4680SOL    HW214940   1.441   4.887   0.896
 4681SOL     OW14941   0.423   4.912   5.586
 4681SOL    HW114942   0.415   4.992   5.645
 4681SOL    HW214943   0.501   4.856   5.616
 4682SOL     OW14944   3.897   6.536   0.104
 4682SOL    HW114945   3.821   6.538   0.039
 4682SOL    HW214946   3.879   6.468   0.175
 4683SOL     OW14947   5.993   3.720   2.344
 4683SOL    HW114948   6.021   3.628   2.319
 4683SOL    HW214949   6.028   3.742   2.436
 4684SOL     OW14950   1.368   2.397   4.507
 4684SOL    HW114951   1.387   2.486   4.467
 4684SOL    HW214952   1.278   2.398   4.550
 4685SOL     OW14953   5.453   5.191   3.933
 4685SOL    HW114954   5.534   5.247   3.949
 4685SOL    HW214955   5.380   5.247   3.895
 4686SOL     OW14956   5.027   5.484   6.590
 4686SOL    HW114957   4.993   5.402   6.637
 4686SOL    HW214958   5.095   5.457   6.522
 4687SOL     OW14959   6.060   4.421   4.733
 4687SOL    HW114960   6.156   4.424   4.761
 4687SOL    HW214961   6.002   4.446   4.810
 4688SOL     OW14962   0.392   3.604   6.846
 4688SOL    HW114963   0.436   3.693   6.846
 4688SOL    HW214964   0.460   3.533   6.829
 4689SOL     OW14965   6.845   6.291   5.246
 4689SOL    HW114966   6.878   6.209   5.293
 4689SOL    HW214967   6.829   6.363   5.314
 4690SOL     OW14968   1.731   1.317   0.001
 4690SOL    HW114969   1.668   1.381   6.978
 4690SOL    HW214970   1.824   1.352   7.015
 4691SOL     OW14971   2.505   4.352   0.655
 4691SOL    HW114972   2.539   4.258   0.651
 4691SOL    HW214973   2.508   4.384   0.750
 4692SOL     OW14974   6.949   5.049   2.942
 4692SOL    HW114975   6.994   5.052   3.031
 4692SOL    HW214976   6.945   5.142   2.904
 4693SOL     OW14977   0.438   1.153   4.374
 4693SOL    HW114978   0.423   1.144   4.276
 4693SOL    HW214979   0.421   1.248   4.401
 4694SOL     OW14980   1.995   1.507   0.357
 4694SOL    HW114981   1.976   1.560   0.273
 4694SOL    HW214982   1.909   1.480   0.399
 4695SOL     OW14983   3.852   3.099   1.882
 4695SOL    HW114984   3.845   3.000   1.874
 4695SOL    HW214985   3.945   3.124   1.908
 4696SOL     OW14986   0.077   3.458   5.971
 4696SOL    HW114987   0.128   3.533   6.012
 4696SOL    HW214988   0.020   3.492   5.897
 4697SOL     OW14989   1.189   4.118   0.091
 4697SOL    HW114990   1.248   4.086   0.164
 4697SOL    HW214991   1.216   4.211   0.064
 4698SOL     OW14992   5.510   3.940   1.384
 4698SOL    HW114993   5.415   3.966   1.405
 4698SOL    HW214994   5.568   3.967   1.461
 4699SOL     OW14995   0.240   0.542   2.428
 4699SOL    HW114996   0.247   0.635   2.464
 4699SOL    HW214997   0.188   0.486   2.492
 4700SOL     OW14998   5.254   1.422   0.830
 4700SOL    HW114999   5.298   1.369   0.758
 4700SOL    HW215000   5.262   1.374   0.917
 4701SOL     OW15001   0.856   1.599   0.218
 4701SOL    HW115002   0.919   1.571   0.146
 4701SOL    HW215003   0.824   1.692   0.200
 4702SOL     OW15004   3.689   4.080   6.615
 4702SOL    HW115005   3.646   4.117   6.697
 4702SOL    HW215006   3.714   3.985   6.631
 4703SOL     OW15007   1.917   1.182   2.957
 4703SOL    HW115008   1.938   1.084   2.957
 4703SOL    HW215009   1.902   1.212   3.051
 4704SOL     OW15010   0.482   0.049   0.781
 4704SOL    HW115011   0.400   0.086   0.825
 4704SOL    HW215012   0.556   0.116   0.787
 4705SOL     OW15013   3.637   3.173   4.471
 4705SOL    HW115014   3.569   3.154   4.542
 4705SOL    HW215015   3.683   3.088   4.446
 4706SOL     OW15016   3.862   6.308   6.927
 4706SOL    HW115017   3.879   6.227   6.871
 4706SOL    HW215018   3.851   6.282   0.001
 4707SOL     OW15019   2.007   5.515   1.196
 4707SOL    HW115020   1.916   5.501   1.235
 4707SOL    HW215021   2.071   5.450   1.237
 4708SOL     OW15022   3.278   2.944   1.307
 4708SOL    HW115023   3.357   2.893   1.342
 4708SOL    HW215024   3.274   2.932   1.208
 4709SOL     OW15025   3.922   4.881   5.521
 4709SOL    HW115026   3.887   4.797   5.564
 4709SOL    HW215027   3.846   4.944   5.506
 4710SOL     OW15028   5.189   0.830   0.013
 4710SOL    HW115029   5.213   0.889   0.090
 4710SOL    HW215030   5.091   0.836   7.017
 4711SOL     OW15031   2.956   0.026   2.532
 4711SOL    HW115032   2.988   6.967   2.584
 4711SOL    HW215033   3.010   0.106   2.558
 4712SOL     OW15034   2.233   4.357   0.888
 4712SOL    HW115035   2.222   4.454   0.870
 4712SOL    HW215036   2.148   4.309   0.869
 4713SOL     OW15037   2.310   5.432   1.476
 4713SOL    HW115038   2.295   5.499   1.548
 4713SOL    HW215039   2.226   5.380   1.462
 4714SOL     OW15040   3.159   1.692   1.731
 4714SOL    HW115041   3.104   1.619   1.773
 4714SOL    HW215042   3.233   1.717   1.793
 4715SOL     OW15043   0.141   2.410   2.984
 4715SOL    HW115044   0.148   2.469   2.903
 4715SOL    HW215045   0.046   2.409   3.016
 4716SOL     OW15046   3.599   5.560   0.412
 4716SOL    HW115047   3.584   5.464   0.436
 4716SOL    HW215048   3.589   5.617   0.493
 4717SOL     OW15049   0.937   5.834   2.998
 4717SOL    HW115050   1.018   5.862   3.049
 4717SOL    HW215051   0.948   5.857   2.902
 4718SOL     OW15052   5.673   1.509   6.403
 4718SOL    HW115053   5.636   1.519   6.495
 4718SOL    HW215054   5.715   1.418   6.394
 4719SOL     OW15055   5.478   3.480   1.938
 4719SOL    HW115056   5.452   3.496   1.843
 4719SOL    HW215057   5.548   3.410   1.943
 4720SOL     OW15058   2.467   6.758   5.809
 4720SOL    HW115059   2.472   6.782   5.906
 4720SOL    HW215060   2.476   6.658   5.799
 4721SOL     OW15061   1.653   2.063   1.094
 4721SOL    HW115062   1.613   2.002   1.024
 4721SOL    HW215063   1.610   2.153   1.088
 4722SOL     OW15064   1.554   6.787   0.377
 4722SOL    HW115065   1.649   6.758   0.390
 4722SOL    HW215066   1.536   6.799   0.280
 4723SOL     OW15067   2.746   6.578   6.438
 4723SOL    HW115068   2.707   6.511   6.500
 4723SOL    HW215069   2.696   6.665   6.446
 4724SOL     OW15070   4.112   6.719   1.961
 4724SOL    HW115071   4.150   6.680   1.877
 4724SOL    HW215072   4.020   6.681   1.976
 4725SOL     OW15073   5.433   6.466   2.998
 4725SOL    HW115074   5.360   6.533   2.983
 4725SOL    HW215075   5.441   6.447   3.096
 4726SOL     OW15076   0.927   3.713   6.844
 4726SOL    HW115077   0.965   3.773   6.773
 4726SOL    HW215078   0.983   3.719   6.926
 4727SOL     OW15079   6.964   5.692   0.031
 4727SOL    HW115080   6.958   5.788   0.002
 4727SOL    HW215081   6.976   5.688   0.130
 4728SOL     OW15082   6.753   0.732   6.453
 4728SOL    HW115083   6.825   0.802   6.459
 4728SOL    HW215084   6.774   0.658   6.517
 4729SOL     OW15085   3.087   6.986   2.288
 4729SOL    HW115086   3.054   0.005   2.374
 4729SOL    HW215087   3.140   0.033   2.238
 4730SOL     OW15088   2.333   6.109   5.784
 4730SOL    HW115089   2.277   6.192   5.775
 4730SOL    HW215090   2.418   6.122   5.733
 4731SOL     OW15091   5.846   1.037   4.882
 4731SOL    HW115092   5.937   1.035   4.924
 4731SOL    HW215093   5.786   0.975   4.932
 4732SOL     OW15094   7.016   3.138   6.794
 4732SOL    HW115095   0.013   3.229   6.830
 4732SOL    HW215096   6.918   3.127   6.780
 4733SOL     OW15097   0.103   3.622   3.602
 4733SOL    HW115098   0.042   3.642   3.525
 4733SOL    HW215099   0.198   3.620   3.569
 4734SOL     OW15100   4.314   3.595   7.017
 4734SOL    HW115101   4.378   3.615   0.071
 4734SOL    HW215102   4.362   3.601   6.930
 4735SOL     OW15103   0.592   4.905   3.979
 4735SOL    HW115104   0.605   5.004   3.989
 4735SOL    HW215105   0.554   4.886   3.888
 4736SOL     OW15106   1.255   0.815   6.937
 4736SOL    HW115107   1.200   0.870   6.874
 4736SOL    HW215108   1.266   0.865   0.002
 4737SOL     OW15109   2.606   5.002   1.865
 4737SOL    HW115110   2.586   5.069   1.794
 4737SOL    HW215111   2.705   4.999   1.881
 4738SOL     OW15112   7.010   6.678   1.808
 4738SOL    HW115113   6.958   6.759   1.837
 4738SOL    HW215114   6.947   6.610   1.770
 4739SOL     OW15115   4.292   0.711   2.632
 4739SOL    HW115116   4.318   0.622   2.669
 4739SOL    HW215117   4.255   0.699   2.540
 4740SOL     OW15118   0.954   1.872   2.670
 4740SOL    HW115119   1.016   1.796   2.691
 4740SOL    HW215120   0.912   1.856   2.580
 4741SOL     OW15121   4.338   3.373   1.722
 4741SOL    HW115122   4.260   3.415   1.675
 4741SOL    HW215123   4.420   3.427   1.706
 4742SOL     OW15124   3.238   6.798   0.672
 4742SOL    HW115125   3.239   6.777   0.575
 4742SOL    HW215126   3.171   6.739   0.718
 4743SOL     OW15127   2.040   4.620   1.155
 4743SOL    HW115128   2.023   4.658   1.245
 4743SOL    HW215129   2.049   4.694   1.088
 4744SOL     OW15130   1.941   6.639   1.027
 4744SOL    HW115131   1.982   6.726   1.053
 4744SOL    HW215132   1.895   6.598   1.106
 4745SOL     OW15133   1.799   4.229   0.316
 4745SOL    HW115134   1.785   4.267   0.408
 4745SOL    HW215135   1.878   4.167   0.318
 4746SOL     OW15136   4.547   5.320   4.287
 4746SOL    HW115137   4.642   5.289   4.284
 4746SOL    HW215138   4.543   5.415   4.318
 4747SOL     OW15139   1.814   2.379   0.848
 4747SOL    HW115140   1.830   2.285   0.878
 4747SOL    HW215141   1.806   2.380   0.748
 4748SOL     OW15142   2.195   6.577   3.155
 4748SOL    HW115143   2.294   6.591   3.145
 4748SOL    HW215144   2.150   6.599   3.068
 4749SOL     OW15145   1.593   0.077   0.674
 4749SOL    HW115146   1.666   0.079   0.606
 4749SOL    HW215147   1.558   7.005   0.682
 4750SOL     OW15148   5.506   3.717   5.464
 4750SOL    HW115149   5.442   3.692   5.536
 4750SOL    HW215150   5.583   3.654   5.464
 4751SOL     OW15151   4.751   1.144   2.949
 4751SOL    HW115152   4.802   1.174   3.030
 4751SOL    HW215153   4.678   1.210   2.930
 4752SOL     OW15154   4.322   2.041   0.046
 4752SOL    HW115155   4.321   2.130   0.091
 4752SOL    HW215156   4.389   2.043   6.992
 4753SOL     OW15157   2.823   6.273   5.054
 4753SOL    HW115158   2.783   6.219   4.980
 4753SOL    HW215159   2.750   6.313   5.109
 4754SOL     OW15160   4.441   4.975   6.489
 4754SOL    HW115161   4.464   5.067   6.521
 4754SOL    HW215162   4.355   4.946   6.531
 4755SOL     OW15163   1.294   0.868   1.457
 4755SOL    HW115164   1.334   0.861   1.366
 4755SOL    HW215165   1.365   0.893   1.523
 4756SOL     OW15166   6.377   4.307   6.577
 4756SOL    HW115167   6.345   4.291   6.670
 4756SOL    HW215168   6.444   4.237   6.552
 4757SOL     OW15169   2.044   3.105   1.589
 4757SOL    HW115170   2.058   3.120   1.491
 4757SOL    HW215171   2.123   3.138   1.639
 4758SOL     OW15172   1.786   0.298   2.820
 4758SOL    HW115173   1.811   0.328   2.728
 4758SOL    HW215174   1.785   0.198   2.824
 4759SOL     OW15175   1.227   4.702   1.543
 4759SOL    HW115176   1.289   4.759   1.597
 4759SOL    HW215177   1.136   4.743   1.543
 4760SOL     OW15178   1.932   6.163   0.684
 4760SOL    HW115179   1.967   6.069   0.683
 4760SOL    HW215180   1.898   6.185   0.775
 4761SOL     OW15181   0.517   6.913   1.176
 4761SOL    HW115182   0.552   6.819   1.169
 4761SOL    HW215183   0.436   6.922   1.119
 4762SOL     OW15184   2.004   5.763   2.673
 4762SOL    HW115185   2.004   5.681   2.731
 4762SOL    HW215186   2.094   5.773   2.630
 4763SOL     OW15187   4.832   6.100   1.959
 4763SOL    HW115188   4.811   6.053   2.045
 4763SOL    HW215189   4.930   6.095   1.941
 4764SOL     OW15190   4.122   3.811   5.894
 4764SOL    HW115191   4.167   3.796   5.982
 4764SOL    HW215192   4.071   3.896   5.897
 4765SOL     OW15193   3.862   1.435   5.008
 4765SOL    HW115194   3.898   1.397   5.094
 4765SOL    HW215195   3.844   1.533   5.020
 4766SOL     OW15196   6.773   6.980   4.281
 4766SOL    HW115197   6.797   6.945   4.190
 4766SOL    HW215198   6.702   6.923   4.322
 4767SOL     OW15199   2.092   5.183   4.981
 4767SOL    HW115200   2.174   5.171   5.037
 4767SOL    HW215201   2.014   5.202   5.041
 4768SOL     OW15202   4.507   2.499   0.324
 4768SOL    HW115203   4.604   2.497   0.298
 4768SOL    HW215204   4.463   2.413   0.297
 4769SOL     OW15205   3.399   5.904   1.442
 4769SOL    HW115206   3.408   5.945   1.532
 4769SOL    HW215207   3.352   5.816   1.450
 4770SOL     OW15208   0.483   1.359   5.647
 4770SOL    HW115209   0.567   1.408   5.623
 4770SOL    HW215210   0.453   1.304   5.569
 4771SOL     OW15211   2.291   6.722   5.136
 4771SOL    HW115212   2.371   6.738   5.194
 4771SOL    HW215213   2.264   6.809   5.093
 4772SOL     OW15214   2.114   6.268   1.239
 4772SOL    HW115215   2.154   6.347   1.285
 4772SOL    HW215216   2.165   6.185   1.264
 4773SOL     OW15217   2.495   5.449   5.179
 4773SOL    HW115218   2.486   5.546   5.157
 4773SOL    HW215219   2.537   5.439   5.270
 4774SOL     OW15220   1.666   3.972   0.366
 4774SOL    HW115221   1.657   4.072   0.366
 4774SOL    HW215222   1.735   3.945   0.299
 4775SOL     OW15223   6.014   6.341   5.294
 4775SOL    HW115224   5.971   6.260   5.333
 4775SOL    HW215225   5.997   6.419   5.353
 4776SOL     OW15226   1.053   0.679   6.227
 4776SOL    HW115227   1.140   0.635   6.204
 4776SOL    HW215228   1.070   0.771   6.262
 4777SOL     OW15229   0.782   6.346   1.128
 4777SOL    HW115230   0.727   6.266   1.149
 4777SOL    HW215231   0.771   6.415   1.200
 4778SOL     OW15232   1.167   2.784   5.498
 4778SOL    HW115233   1.209   2.873   5.516
 4778SOL    HW215234   1.237   2.713   5.500
 4779SOL     OW15235   5.214   0.738   3.722
 4779SOL    HW115236   5.300   0.689   3.735
 4779SOL    HW215237   5.230   0.819   3.665
 4780SOL     OW15238   6.410   2.349   5.058
 4780SOL    HW115239   6.503   2.354   5.093
 4780SOL    HW215240   6.404   2.403   4.973
 4781SOL     OW15241   2.287   6.066   2.734
 4781SOL    HW115242   2.342   5.984   2.716
 4781SOL    HW215243   2.333   6.146   2.695
 4782SOL     OW15244   5.943   5.322   4.582
 4782SOL    HW115245   5.859   5.313   4.635
 4782SOL    HW215246   5.936   5.402   4.522
 4783SOL     OW15247   6.642   2.915   1.079
 4783SOL    HW115248   6.667   2.821   1.055
 4783SOL    HW215249   6.713   2.978   1.048
 4784SOL     OW15250   5.743   1.936   6.117
 4784SOL    HW115251   5.653   1.893   6.117
 4784SOL    HW215252   5.814   1.865   6.119
 4785SOL     OW15253   0.808   5.825   3.678
 4785SOL    HW115254   0.819   5.827   3.778
 4785SOL    HW215255   0.766   5.739   3.651
 4786SOL     OW15256   2.521   6.459   0.794
 4786SOL    HW115257   2.506   6.512   0.877
 4786SOL    HW215258   2.468   6.498   0.719
 4787SOL     OW15259   3.474   1.367   4.538
 4787SOL    HW115260   3.556   1.424   4.536
 4787SOL    HW215261   3.476   1.308   4.618
 4788SOL     OW15262   6.262   6.212   6.543
 4788SOL    HW115263   6.272   6.311   6.530
 4788SOL    HW215264   6.169   6.191   6.573
 4789SOL     OW15265   5.150   0.699   2.296
 4789SOL    HW115266   5.130   0.678   2.392
 4789SOL    HW215267   5.084   0.767   2.263
 4790SOL     OW15268   5.967   2.433   4.951
 4790SOL    HW115269   5.958   2.337   4.926
 4790SOL    HW215270   6.038   2.443   5.021
 4791SOL     OW15271   6.776   2.347   0.798
 4791SOL    HW115272   6.709   2.389   0.860
 4791SOL    HW215273   6.764   2.248   0.798
 4792SOL     OW15274   2.197   3.852   3.744
 4792SOL    HW115275   2.284   3.807   3.723
 4792SOL    HW215276   2.122   3.800   3.705
 4793SOL     OW15277   0.942   3.500   5.857
 4793SOL    HW115278   1.026   3.507   5.803
 4793SOL    HW215279   0.933   3.580   5.916
 4794SOL     OW15280   4.636   0.921   4.060
 4794SOL    HW115281   4.647   0.879   3.970
 4794SOL    HW215282   4.577   1.001   4.052
 4795SOL     OW15283   1.042   0.787   5.308
 4795SOL    HW115284   0.949   0.808   5.279
 4795SOL    HW215285   1.097   0.764   5.228
 4796SOL     OW15286   3.913   1.655   5.522
 4796SOL    HW115287   3.971   1.720   5.571
 4796SOL    HW215288   3.836   1.704   5.480
 4797SOL     OW15289   1.025   5.748   4.643
 4797SOL    HW115290   1.083   5.829   4.657
 4797SOL    HW215291   0.953   5.769   4.578
 4798SOL     OW15292   5.086   4.486   6.313
 4798SOL    HW115293   5.037   4.546   6.377
 4798SOL    HW215294   5.063   4.391   6.334
 4799SOL     OW15295   3.580   3.038   6.787
 4799SOL    HW115296   3.556   3.076   6.876
 4799SOL    HW215297   3.533   3.089   6.715
 4800SOL     OW15298   0.996   4.680   0.155
 4800SOL    HW115299   1.007   4.775   0.124
 4800SOL    HW215300   0.943   4.629   0.087
 4801SOL     OW15301   4.603   2.295   1.583
 4801SOL    HW115302   4.662   2.351   1.641
 4801SOL    HW215303   4.557   2.227   1.640
 4802SOL     OW15304   0.010   6.864   2.119
 4802SOL    HW115305   6.945   6.813   2.118
 4802SOL    HW215306   7.020   6.949   2.068
 4803SOL     OW15307   5.644   4.051   6.015
 4803SOL    HW115308   5.709   4.006   5.954
 4803SOL    HW215309   5.676   4.043   6.110
 4804SOL     OW15310   5.516   1.248   0.769
 4804SOL    HW115311   5.606   1.278   0.737
 4804SOL    HW215312   5.467   1.204   0.694
 4805SOL     OW15313   6.094   1.937   1.099
 4805SOL    HW115314   6.171   1.896   1.049
 4805SOL    HW215315   6.084   1.893   1.188
 4806SOL     OW15316   1.040   2.276   3.471
 4806SOL    HW115317   0.971   2.252   3.403
 4806SOL    HW215318   1.102   2.198   3.484
 4807SOL     OW15319   1.148   2.844   6.312
 4807SOL    HW115320   1.116   2.910   6.245
 4807SOL    HW215321   1.210   2.779   6.268
 4808SOL     OW15322   4.218   5.973   0.660
 4808SOL    HW115323   4.221   5.940   0.754
 4808SOL    HW215324   4.137   6.031   0.648
 4809SOL     OW15325   3.594   4.911   1.726
 4809SOL    HW115326   3.575   4.875   1.635
 4809SOL    HW215327   3.559   4.848   1.795
 4810SOL     OW15328   1.023   4.436   3.774
 4810SOL    HW115329   1.053   4.523   3.814
 4810SOL    HW215330   0.925   4.441   3.754
 4811SOL     OW15331   2.907   3.640   4.836
 4811SOL    HW115332   2.940   3.560   4.886
 4811SOL    HW215333   2.908   3.620   4.738
 4812SOL     OW15334   0.457   0.175   2.198
 4812SOL    HW115335   0.555   0.155   2.204
 4812SOL    HW215336   0.404   0.091   2.209
 4813SOL     OW15337   6.197   1.566   6.908
 4813SOL    HW115338   6.209   1.468   6.893
 4813SOL    HW215339   6.284   1.606   6.935
 4814SOL     OW15340   0.173   3.652   1.461
 4814SOL    HW115341   0.236   3.577   1.483
 4814SOL    HW215342   0.212   3.738   1.494
 4815SOL     OW15343   5.562   4.500   2.527
 4815SOL    HW115344   5.661   4.483   2.527
 4815SOL    HW215345   5.515   4.419   2.563
 4816SOL     OW15346   1.690   0.533   2.315
 4816SOL    HW115347   1.638   0.466   2.369
 4816SOL    HW215348   1.647   0.544   2.226
 4817SOL     OW15349   3.916   1.184   1.228
 4817SOL    HW115350   3.892   1.207   1.134
 4817SOL    HW215351   3.994   1.122   1.228
 4818SOL     OW15352   3.498   0.571   4.925
 4818SOL    HW115353   3.431   0.586   4.997
 4818SOL    HW215354   3.493   0.477   4.894
 4819SOL     OW15355   3.256   0.884   1.268
 4819SOL    HW115356   3.216   0.949   1.333
 4819SOL    HW215357   3.184   0.844   1.212
 4820SOL     OW15358   6.978   3.940   2.403
 4820SOL    HW115359   6.971   3.849   2.445
 4820SOL    HW215360   0.049   3.976   2.420
 4821SOL     OW15361   6.496   5.186   1.643
 4821SOL    HW115362   6.400   5.169   1.618
 4821SOL    HW215363   6.548   5.206   1.560
 4822SOL     OW15364   1.928   4.209   2.912
 4822SOL    HW115365   1.933   4.307   2.933
 4822SOL    HW215366   1.988   4.159   2.974
 4823SOL     OW15367   1.011   0.525   4.803
 4823SOL    HW115368   0.919   0.507   4.771
 4823SOL    HW215369   1.021   0.622   4.825
 4824SOL     OW15370   5.349   2.378   2.334
 4824SOL    HW115371   5.388   2.415   2.418
 4824SOL    HW215372   5.291   2.300   2.355
 4825SOL     OW15373   1.296   3.539   3.197
 4825SOL    HW115374   1.247   3.606   3.253
 4825SOL    HW215375   1.281   3.560   3.100
 4826SOL     OW15376   0.190   6.331   0.481
 4826SOL    HW115377   0.285   6.352   0.504
 4826SOL    HW215378   0.163   6.383   0.400
 4827SOL     OW15379   4.755   0.947   1.210
 4827SOL    HW115380   4.791   0.857   1.188
 4827SOL    HW215381   4.656   0.948   1.193
 4828SOL     OW15382   4.846   3.491   1.793
 4828SOL    HW115383   4.924   3.511   1.733
 4828SOL    HW215384   4.847   3.555   1.870
 4829SOL     OW15385   3.137   1.229   5.724
 4829SOL    HW115386   3.108   1.160   5.658
 4829SOL    HW215387   3.209   1.191   5.782
 4830SOL     OW15388   4.720   6.681   3.686
 4830SOL    HW115389   4.794   6.618   3.662
 4830SOL    HW215390   4.745   6.733   3.767
 4831SOL     OW15391   6.789   4.535   5.173
 4831SOL    HW115392   6.858   4.522   5.244
 4831SOL    HW215393   6.814   4.613   5.116
 4832SOL     OW15394   2.946   3.132   5.881
 4832SOL    HW115395   3.004   3.051   5.877
 4832SOL    HW215396   2.852   3.107   5.855
 4833SOL     OW15397   4.043   1.508   3.469
 4833SOL    HW115398   4.081   1.600   3.465
 4833SOL    HW215399   3.951   1.509   3.428
 4834SOL     OW15400   4.681   1.586   1.999
 4834SOL    HW115401   4.673   1.487   2.010
 4834SOL    HW215402   4.721   1.625   2.081
 4835SOL     OW15403   2.483   6.952   6.644
 4835SOL    HW115404   2.419   6.973   6.718
 4835SOL    HW215405   2.543   0.010   6.629
 4836SOL     OW15406   5.089   2.056   3.900
 4836SOL    HW115407   5.112   2.138   3.951
 4836SOL    HW215408   5.056   1.985   3.962
 4837SOL     OW15409   2.526   2.353   0.889
 4837SOL    HW115410   2.511   2.321   0.982
 4837SOL    HW215411   2.501   2.450   0.882
 4838SOL     OW15412   3.756   4.862   2.379
 4838SOL    HW115413   3.855   4.847   2.385
 4838SOL    HW215414   3.719   4.814   2.300
 4839SOL     OW15415   0.322   5.307   5.529
 4839SOL    HW115416   0.360   5.232   5.582
 4839SOL    HW215417   0.324   5.284   5.432
 4840SOL     OW15418   6.342   6.422   0.106
 4840SOL    HW115419   6.363   6.324   0.096
 4840SOL    HW215420   6.336   6.464   0.016
 4841SOL     OW15421   2.757   5.478   1.999
 4841SOL    HW115422   2.768   5.521   1.910
 4841SOL    HW215423   2.842   5.432   2.025
 4842SOL     OW15424   4.182   5.942   1.600
 4842SOL    HW115425   4.269   5.992   1.598
 4842SOL    HW215426   4.143   5.947   1.692
 4843SOL     OW15427   6.785   3.954   0.004
 4843SOL    HW115428   6.757   3.915   6.938
 4843SOL    HW215429   6.766   3.888   0.078
 4844SOL     OW15430   6.390   2.643   6.355
 4844SOL    HW115431   6.377   2.544   6.343
 4844SOL    HW215432   6.302   2.689   6.347
 4845SOL     OW15433   5.262   5.352   3.818
 4845SOL    HW115434   5.278   5.379   3.722
 4845SOL    HW215435   5.164   5.349   3.836
 4846SOL     OW15436   1.712   2.803   1.274
 4846SOL    HW115437   1.704   2.706   1.254
 4846SOL    HW215438   1.676   2.821   1.366
 4847SOL     OW15439   3.469   2.025   5.223
 4847SOL    HW115440   3.518   2.014   5.137
 4847SOL    HW215441   3.370   2.022   5.207
 4848SOL     OW15442   2.545   1.299   2.906
 4848SOL    HW115443   2.522   1.336   2.816
 4848SOL    HW215444   2.461   1.285   2.959
 4849SOL     OW15445   1.685   0.383   0.420
 4849SOL    HW115446   1.673   0.389   0.321
 4849SOL    HW215447   1.605   0.340   0.460
 4850SOL     OW15448   4.241   0.420   1.497
 4850SOL    HW115449   4.280   0.353   1.560
 4850SOL    HW215450   4.237   0.510   1.542
 4851SOL     OW15451   4.273   5.902   5.471
 4851SOL    HW115452   4.345   5.850   5.517
 4851SOL    HW215453   4.199   5.840   5.445
 4852SOL     OW15454   2.493   0.812   7.012
 4852SOL    HW115455   2.492   0.912   7.014
 4852SOL    HW215456   2.573   0.781   6.960
 4853SOL     OW15457   3.748   1.562   2.629
 4853SOL    HW115458   3.656   1.582   2.596
 4853SOL    HW215459   3.805   1.644   2.622
 4854SOL     OW15460   4.814   6.057   2.235
 4854SOL    HW115461   4.901   6.066   2.283
 4854SOL    HW215462   4.756   6.136   2.255
 4855SOL     OW15463   5.850   1.285   2.024
 4855SOL    HW115464   5.842   1.276   1.924
 4855SOL    HW215465   5.868   1.195   2.064
 4856SOL     OW15466   2.600   4.998   4.182
 4856SOL    HW115467   2.689   4.977   4.223
 4856SOL    HW215468   2.597   4.963   4.089
 4857SOL     OW15469   0.726   1.816   6.041
 4857SOL    HW115470   0.788   1.895   6.036
 4857SOL    HW215471   0.721   1.773   5.951
 4858SOL     OW15472   1.802   2.338   4.568
 4858SOL    HW115473   1.773   2.431   4.545
 4858SOL    HW215474   1.738   2.273   4.529
 4859SOL     OW15475   1.756   5.821   5.238
 4859SOL    HW115476   1.804   5.770   5.309
 4859SOL    HW215477   1.658   5.807   5.246
 4860SOL     OW15478   4.466   5.428   1.699
 4860SOL    HW115479   4.450   5.416   1.797
 4860SOL    HW215480   4.470   5.338   1.655
 4861SOL     OW15481   4.924   4.205   5.885
 4861SOL    HW115482   4.923   4.105   5.888
 4861SOL    HW215483   4.966   4.241   5.968
 4862SOL     OW15484   1.188   5.323   2.760
 4862SOL    HW115485   1.226   5.396   2.703
 4862SOL    HW215486   1.096   5.299   2.729
 4863SOL     OW15487   5.650   4.226   7.007
 4863SOL    HW115488   5.670   4.322   6.989
 4863SOL    HW215489   5.553   4.216   0.005
 4864SOL     OW15490   2.816   1.208   3.345
 4864SOL    HW115491   2.880   1.284   3.357
 4864SOL    HW215492   2.823   1.146   3.424
 4865SOL     OW15493   2.792   5.888   4.704
 4865SOL    HW115494   2.692   5.883   4.693
 4865SOL    HW215495   2.818   5.850   4.793
 4866SOL     OW15496   0.366   3.752   0.968
 4866SOL    HW115497   0.291   3.782   0.910
 4866SOL    HW215498   0.346   3.776   1.063
 4867SOL     OW15499   4.662   5.861   2.569
 4867SOL    HW115500   4.759   5.845   2.550
 4867SOL    HW215501   4.648   5.869   2.668
 4868SOL     OW15502   6.472   4.176   1.704
 4868SOL    HW115503   6.403   4.183   1.632
 4868SOL    HW215504   6.468   4.085   1.746
 4869SOL     OW15505   0.848   1.598   6.351
 4869SOL    HW115506   0.884   1.669   6.291
 4869SOL    HW215507   0.764   1.630   6.394
 4870SOL     OW15508   0.478   5.893   1.916
 4870SOL    HW115509   0.553   5.829   1.931
 4870SOL    HW215510   0.476   5.960   1.990
 4871SOL     OW15511   1.230   0.601   4.609
 4871SOL    HW115512   1.136   0.634   4.618
 4871SOL    HW215513   1.234   0.505   4.637
 4872SOL     OW15514   7.012   6.489   3.476
 4872SOL    HW115515   6.981   6.493   3.571
 4872SOL    HW215516   0.049   6.568   3.456
 4873SOL     OW15517   6.709   6.079   4.785
 4873SOL    HW115518   6.753   6.163   4.818
 4873SOL    HW215519   6.753   6.000   4.826
 4874SOL     OW15520   4.827   2.575   3.264
 4874SOL    HW115521   4.822   2.620   3.353
 4874SOL    HW215522   4.893   2.500   3.268
 4875SOL     OW15523   5.110   6.578   6.849
 4875SOL    HW115524   5.072   6.488   6.828
 4875SOL    HW215525   5.112   6.591   6.948
 4876SOL     OW15526   1.763   1.462   3.137
 4876SOL    HW115527   1.851   1.474   3.183
 4876SOL    HW215528   1.689   1.490   3.198
 4877SOL     OW15529   0.537   1.687   4.559
 4877SOL    HW115530   0.532   1.600   4.511
 4877SOL    HW215531   0.632   1.712   4.575
 4878SOL     OW15532   6.316   1.694   1.919
 4878SOL    HW115533   6.298   1.713   2.015
 4878SOL    HW215534   6.409   1.721   1.896
 4879SOL     OW15535   4.738   1.710   2.621
 4879SOL    HW115536   4.737   1.776   2.697
 4879SOL    HW215537   4.804   1.638   2.640
 4880SOL     OW15538   6.220   3.031   6.676
 4880SOL    HW115539   6.215   3.130   6.688
 4880SOL    HW215540   6.217   3.009   6.578
 4881SOL     OW15541   1.780   2.489   1.643
 4881SOL    HW115542   1.741   2.581   1.641
 4881SOL    HW215543   1.767   2.448   1.733
 4882SOL     OW15544   4.262   2.106   4.947
 4882SOL    HW115545   4.186   2.064   4.897
 4882SOL    HW215546   4.263   2.071   5.040
 4883SOL     OW15547   5.440   3.530   1.127
 4883SOL    HW115548   5.498   3.459   1.088
 4883SOL    HW215549   5.383   3.570   1.055
 4884SOL     OW15550   1.187   6.175   1.544
 4884SOL    HW115551   1.102   6.176   1.492
 4884SOL    HW215552   1.175   6.225   1.630
 4885SOL     OW15553   2.406   4.958   1.435
 4885SOL    HW115554   2.456   5.022   1.376
 4885SOL    HW215555   2.471   4.896   1.479
 4886SOL     OW15556   3.737   0.423   2.514
 4886SOL    HW115557   3.675   0.370   2.455
 4886SOL    HW215558   3.803   0.361   2.557
 4887SOL     OW15559   1.354   6.949   1.916
 4887SOL    HW115560   1.292   0.005   1.928
 4887SOL    HW215561   1.307   6.864   1.942
 4888SOL     OW15562   2.611   6.787   3.135
 4888SOL    HW115563   2.534   6.830   3.182
 4888SOL    HW215564   2.697   6.826   3.166
 4889SOL     OW15565   6.429   2.429   3.757
 4889SOL    HW115566   6.349   2.466   3.710
 4889SOL    HW215567   6.421   2.446   3.855
 4890SOL     OW15568   1.333   0.847   5.370
 4890SOL    HW115569   1.373   0.769   5.419
 4890SOL    HW215570   1.234   0.837   5.368
 4891SOL     OW15571   2.273   5.133   6.274
 4891SOL    HW115572   2.307   5.132   6.368
 4891SOL    HW215573   2.324   5.200   6.221
 4892SOL     OW15574   5.721   6.897   2.300
 4892SOL    HW115575   5.679   6.806   2.295
 4892SOL    HW215576   5.817   6.890   2.273
 4893SOL     OW15577   0.416   3.752   2.040
 4893SOL    HW115578   0.350   3.683   2.070
 4893SOL    HW215579   0.409   3.832   2.100
 4894SOL     OW15580   3.728   6.779   2.166
 4894SOL    HW115581   3.663   6.750   2.236
 4894SOL    HW215582   3.806   6.824   2.208
 4895SOL     OW15583   0.005   4.657   2.998
 4895SOL    HW115584   6.986   4.572   3.032
 4895SOL    HW215585   7.009   4.730   3.065
 4896SOL     OW15586   1.560   5.100   3.834
 4896SOL    HW115587   1.587   5.175   3.894
 4896SOL    HW215588   1.520   5.026   3.889
 4897SOL     OW15589   1.755   5.625   6.013
 4897SOL    HW115590   1.767   5.724   6.016
 4897SOL    HW215591   1.688   5.601   5.943
 4898SOL     OW15592   3.862   1.390   4.745
 4898SOL    HW115593   3.934   1.438   4.695
 4898SOL    HW215594   3.874   1.403   4.843
 4899SOL     OW15595   5.923   5.435   2.157
 4899SOL    HW115596   5.896   5.372   2.084
 4899SOL    HW215597   6.016   5.468   2.141
 4900SOL     OW15598   4.077   6.312   5.323
 4900SOL    HW115599   4.171   6.345   5.330
 4900SOL    HW215600   4.051   6.268   5.408
 4901SOL     OW15601   0.904   1.984   5.882
 4901SOL    HW115602   0.981   2.031   5.926
 4901SOL    HW215603   0.935   1.896   5.846
 4902SOL     OW15604   2.281   0.263   6.702
 4902SOL    HW115605   2.274   0.203   6.781
 4902SOL    HW215606   2.375   0.261   6.667
 4903SOL     OW15607   5.015   5.173   1.239
 4903SOL    HW115608   5.100   5.207   1.199
 4903SOL    HW215609   5.036   5.098   1.302
 4904SOL     OW15610   2.078   0.816   6.814
 4904SOL    HW115611   2.158   0.775   6.858
 4904SOL    HW215612   2.022   0.745   6.773
 4905SOL     OW15613   3.268   0.160   3.056
 4905SOL    HW115614   3.246   0.062   3.052
 4905SOL    HW215615   3.320   0.186   2.975
 4906SOL     OW15616   4.771   3.364   5.293
 4906SOL    HW115617   4.817   3.327   5.212
 4906SOL    HW215618   4.715   3.442   5.266
 4907SOL     OW15619   4.554   1.579   0.403
 4907SOL    HW115620   4.635   1.631   0.378
 4907SOL    HW215621   4.563   1.485   0.369
 4908SOL     OW15622   4.892   0.140   0.249
 4908SOL    HW115623   4.973   0.112   0.198
 4908SOL    HW215624   4.875   0.076   0.324
 4909SOL     OW15625   6.180   4.066   3.206
 4909SOL    HW115626   6.143   4.044   3.296
 4909SOL    HW215627   6.268   4.114   3.217
 4910SOL     OW15628   5.290   0.504   5.014
 4910SOL    HW115629   5.211   0.563   5.002
 4910SOL    HW215630   5.260   0.413   5.044
 4911SOL     OW15631   1.559   2.158   2.540
 4911SOL    HW115632   1.462   2.180   2.548
 4911SOL    HW215633   1.614   2.234   2.575
 4912SOL     OW15634   5.691   2.103   5.551
 4912SOL    HW115635   5.731   2.052   5.474
 4912SOL    HW215636   5.624   2.169   5.516
 4913SOL     OW15637   5.339   2.402   5.200
 4913SOL    HW115638   5.248   2.416   5.160
 4913SOL    HW215639   5.401   2.367   5.130
 4914SOL     OW15640   4.792   0.347   4.543
 4914SOL    HW115641   4.874   0.291   4.553
 4914SOL    HW215642   4.711   0.289   4.543
 4915SOL     OW15643   3.058   5.813   5.200
 4915SOL    HW115644   2.975   5.764   5.227
 4915SOL    HW215645   3.100   5.768   5.121
 4916SOL     OW15646   6.175   0.720   4.407
 4916SOL    HW115647   6.085   0.723   4.450
 4916SOL    HW215648   6.166   0.743   4.310
 4917SOL     OW15649   3.539   5.973   0.733
 4917SOL    HW115650   3.449   6.001   0.766
 4917SOL    HW215651   3.564   6.028   0.653
 4918SOL     OW15652   6.158   5.562   2.194
 4918SOL    HW115653   6.220   5.560   2.272
 4918SOL    HW215654   6.176   5.644   2.140
 4919SOL     OW15655   4.127   3.218   1.867
 4919SOL    HW115656   4.134   3.253   1.960
 4919SOL    HW215657   4.191   3.268   1.808
 4920SOL     OW15658   5.887   0.581   5.247
 4920SOL    HW115659   5.822   0.632   5.191
 4920SOL    HW215660   5.955   0.644   5.284
 4921SOL     OW15661   0.317   6.660   0.983
 4921SOL    HW115662   0.269   6.600   0.919
 4921SOL    HW215663   0.398   6.697   0.939
 4922SOL     OW15664   3.085   1.808   5.100
 4922SOL    HW115665   3.168   1.832   5.049
 4922SOL    HW215666   3.092   1.843   5.194
 4923SOL     OW15667   3.340   1.850   3.114
 4923SOL    HW115668   3.347   1.933   3.059
 4923SOL    HW215669   3.370   1.772   3.060
 4924SOL     OW15670   2.692   1.660   5.698
 4924SOL    HW115671   2.760   1.653   5.770
 4924SOL    HW215672   2.601   1.646   5.737
 4925SOL     OW15673   4.619   6.556   2.757
 4925SOL    HW115674   4.535   6.566   2.810
 4925SOL    HW215675   4.597   6.527   2.664
 4926SOL     OW15676   5.469   1.821   1.662
 4926SOL    HW115677   5.435   1.787   1.749
 4926SOL    HW215678   5.501   1.745   1.606
 4927SOL     OW15679   2.888   1.746   6.475
 4927SOL    HW115680   2.801   1.795   6.470
 4927SOL    HW215681   2.962   1.810   6.495
 4928SOL     OW15682   1.417   1.863   1.401
 4928SOL    HW115683   1.396   1.952   1.359
 4928SOL    HW215684   1.480   1.813   1.342
 4929SOL     OW15685   0.113   0.403   3.657
 4929SOL    HW115686   0.086   0.426   3.564
 4929SOL    HW215687   0.089   0.479   3.718
 4930SOL     OW15688   5.804   6.991   2.018
 4930SOL    HW115689   5.820   6.912   1.959
 4930SOL    HW215690   5.728   0.024   1.982
 4931SOL     OW15691   6.403   6.503   1.973
 4931SOL    HW115692   6.319   6.487   1.921
 4931SOL    HW215693   6.445   6.416   1.997
 4932SOL     OW15694   3.055   3.645   3.076
 4932SOL    HW115695   3.031   3.688   2.989
 4932SOL    HW215696   3.100   3.557   3.058
 4933SOL     OW15697   2.563   6.280   4.888
 4933SOL    HW115698   2.465   6.299   4.899
 4933SOL    HW215699   2.575   6.188   4.853
 4934SOL     OW15700   3.459   6.052   2.948
 4934SOL    HW115701   3.398   6.010   2.881
 4934SOL    HW215702   3.404   6.102   3.015
 4935SOL     OW15703   1.277   1.765   6.736
 4935SOL    HW115704   1.233   1.785   6.649
 4935SOL    HW215705   1.211   1.776   6.810
 4936SOL     OW15706   2.281   3.817   1.408
 4936SOL    HW115707   2.226   3.889   1.365
 4936SOL    HW215708   2.330   3.854   1.487
 4937SOL     OW15709   4.900   3.334   5.050
 4937SOL    HW115710   4.867   3.427   5.067
 4937SOL    HW215711   5.000   3.336   5.038
 4938SOL     OW15712   3.921   5.467   5.848
 4938SOL    HW115713   3.827   5.436   5.835
 4938SOL    HW215714   3.976   5.441   5.769
 4939SOL     OW15715   4.553   3.054   5.594
 4939SOL    HW115716   4.454   3.040   5.594
 4939SOL    HW215717   4.594   3.000   5.520
 4940SOL     OW15718   1.960   6.609   4.864
 4940SOL    HW115719   1.920   6.518   4.872
 4940SOL    HW215720   1.892   6.678   4.890
 4941SOL     OW15721   4.762   1.288   6.835
 4941SOL    HW115722   4.727   1.256   6.924
 4941SOL    HW215723   4.799   1.210   6.784
 4942SOL     OW15724   5.064   3.730   5.354
 4942SOL    HW115725   5.018   3.688   5.432
 4942SOL    HW215726   5.029   3.691   5.269
 4943SOL     OW15727   3.899   2.564   0.685
 4943SOL    HW115728   3.839   2.632   0.727
 4943SOL    HW215729   3.859   2.473   0.694
 4944SOL     OW15730   2.354   4.403   3.474
 4944SOL    HW115731   2.305   4.447   3.398
 4944SOL    HW215732   2.348   4.304   3.464
 4945SOL     OW15733   0.043   0.117   4.366
 4945SOL    HW115734   0.077   0.041   4.421
 4945SOL    HW215735   6.986   0.086   4.311
 4946SOL     OW15736   1.867   3.070   2.187
 4946SOL    HW115737   1.893   2.975   2.206
 4946SOL    HW215738   1.896   3.128   2.264
 4947SOL     OW15739   1.071   0.298   0.512
 4947SOL    HW115740   0.999   0.316   0.579
 4947SOL    HW215741   1.094   0.382   0.464
 4948SOL     OW15742   2.593   1.014   2.525
 4948SOL    HW115743   2.629   1.084   2.464
 4948SOL    HW215744   2.668   0.970   2.574
 4949SOL     OW15745   5.579   0.121   5.002
 4949SOL    HW115746   5.660   0.179   4.989
 4949SOL    HW215747   5.516   0.166   5.065
 4950SOL     OW15748   2.801   5.679   5.208
 4950SOL    HW115749   2.715   5.729   5.214
 4950SOL    HW215750   2.808   5.615   5.285
 4951SOL     OW15751   4.439   1.799   4.499
 4951SOL    HW115752   4.401   1.732   4.562
 4951SOL    HW215753   4.499   1.753   4.433
 4952SOL     OW15754   0.065   6.528   5.304
 4952SOL    HW115755   0.148   6.487   5.342
 4952SOL    HW215756   0.057   6.502   5.207
 4953SOL     OW15757   1.950   5.639   1.803
 4953SOL    HW115758   2.007   5.672   1.878
 4953SOL    HW215759   1.961   5.698   1.723
 4954SOL     OW15760   5.581   5.646   0.131
 4954SOL    HW115761   5.496   5.696   0.147
 4954SOL    HW215762   5.563   5.548   0.134
 4955SOL     OW15763   1.146   6.722   1.498
 4955SOL    HW115764   1.100   6.737   1.411
 4955SOL    HW215765   1.229   6.778   1.502
 4956SOL     OW15766   4.090   6.875   4.779
 4956SOL    HW115767   4.031   6.924   4.843
 4956SOL    HW215768   4.033   6.824   4.714
 4957SOL     OW15769   1.130   0.743   3.887
 4957SOL    HW115770   1.185   0.698   3.957
 4957SOL    HW215771   1.070   0.811   3.931
 4958SOL     OW15772   0.783   6.136   6.408
 4958SOL    HW115773   0.854   6.162   6.473
 4958SOL    HW215774   0.734   6.056   6.443
 4959SOL     OW15775   0.928   0.466   0.697
 4959SOL    HW115776   0.860   0.504   0.635
 4959SOL    HW215777   0.903   0.486   0.791
 4960SOL     OW15778   3.782   6.042   4.496
 4960SOL    HW115779   3.880   6.048   4.513
 4960SOL    HW215780   3.763   5.958   4.444
 4961SOL     OW15781   5.058   0.250   4.566
 4961SOL    HW115782   5.136   0.293   4.521
 4961SOL    HW215783   5.085   0.216   4.656
 4962SOL     OW15784   6.102   2.737   1.561
 4962SOL    HW115785   6.151   2.658   1.598
 4962SOL    HW215786   6.048   2.780   1.633
 4963SOL     OW15787   0.698   5.103   1.716
 4963SOL    HW115788   0.712   5.012   1.756
 4963SOL    HW215789   0.787   5.145   1.697
 4964SOL     OW15790   3.248   6.557   3.609
 4964SOL    HW115791   3.304   6.571   3.527
 4964SOL    HW215792   3.238   6.459   3.625
 4965SOL     OW15793   6.895   0.463   4.363
 4965SOL    HW115794   6.948   0.463   4.448
 4965SOL    HW215795   6.799   0.441   4.383
 4966SOL     OW15796   3.183   5.599   5.371
 4966SOL    HW115797   3.210   5.620   5.466
 4966SOL    HW215798   3.170   5.684   5.321
 4967SOL     OW15799   3.739   2.232   6.595
 4967SOL    HW115800   3.817   2.172   6.577
 4967SOL    HW215801   3.684   2.193   6.669
 4968SOL     OW15802   5.441   3.075   4.366
 4968SOL    HW115803   5.440   3.026   4.453
 4968SOL    HW215804   5.349   3.078   4.328
 4969SOL     OW15805   1.429   1.174   1.463
 4969SOL    HW115806   1.511   1.145   1.413
 4969SOL    HW215807   1.416   1.115   1.543
 4970SOL     OW15808   1.115   1.899   4.969
 4970SOL    HW115809   1.104   1.950   4.883
 4970SOL    HW215810   1.136   1.803   4.948
 4971SOL     OW15811   6.302   6.509   3.291
 4971SOL    HW115812   6.400   6.503   3.309
 4971SOL    HW215813   6.280   6.454   3.211
 4972SOL     OW15814   1.728   3.495   0.516
 4972SOL    HW115815   1.723   3.466   0.421
 4972SOL    HW215816   1.792   3.436   0.566
 4973SOL     OW15817   5.973   5.907   2.582
 4973SOL    HW115818   6.047   5.974   2.575
 4973SOL    HW215819   5.925   5.903   2.494
 4974SOL     OW15820   5.547   6.118   2.413
 4974SOL    HW115821   5.494   6.083   2.335
 4974SOL    HW215822   5.580   6.041   2.467
 4975SOL     OW15823   6.322   6.119   0.442
 4975SOL    HW115824   6.347   6.148   0.535
 4975SOL    HW215825   6.269   6.191   0.398
 4976SOL     OW15826   3.808   0.675   5.314
 4976SOL    HW115827   3.845   0.701   5.224
 4976SOL    HW215828   3.734   0.738   5.338
 4977SOL     OW15829   3.928   3.440   0.881
 4977SOL    HW115830   4.002   3.476   0.937
 4977SOL    HW215831   3.853   3.410   0.940
 4978SOL     OW15832   5.745   3.341   5.690
 4978SOL    HW115833   5.659   3.293   5.675
 4978SOL    HW215834   5.809   3.321   5.615
 4979SOL     OW15835   0.624   0.309   5.873
 4979SOL    HW115836   0.672   0.227   5.841
 4979SOL    HW215837   0.689   0.385   5.878
 4980SOL     OW15838   3.805   5.593   2.239
 4980SOL    HW115839   3.859   5.544   2.308
 4980SOL    HW215840   3.780   5.683   2.274
 4981SOL     OW15841   4.334   6.436   5.303
 4981SOL    HW115842   4.299   6.518   5.259
 4981SOL    HW215843   4.392   6.461   5.380
 4982SOL     OW15844   2.198   2.483   6.961
 4982SOL    HW115845   2.292   2.478   6.928
 4982SOL    HW215846   2.186   2.566   7.015
 4983SOL     OW15847   5.288   2.474   4.204
 4983SOL    HW115848   5.376   2.433   4.228
 4983SOL    HW215849   5.304   2.556   4.149
 4984SOL     OW15850   4.850   3.871   4.188
 4984SOL    HW115851   4.860   3.772   4.178
 4984SOL    HW215852   4.835   3.894   4.284
 4985SOL     OW15853   5.296   5.009   2.227
 4985SOL    HW115854   5.241   4.929   2.250
 4985SOL    HW215855   5.292   5.075   2.302
 4986SOL     OW15856   5.413   4.526   3.053
 4986SOL    HW115857   5.472   4.580   3.113
 4986SOL    HW215858   5.445   4.534   2.959
 4987SOL     OW15859   0.162   3.208   1.875
 4987SOL    HW115860   0.120   3.268   1.943
 4987SOL    HW215861   0.090   3.157   1.827
 4988SOL     OW15862   0.279   1.416   4.316
 4988SOL    HW115863   0.231   1.336   4.278
 4988SOL    HW215864   0.216   1.469   4.372
 4989SOL     OW15865   6.811   1.357   0.634
 4989SOL    HW115866   6.801   1.402   0.545
 4989SOL    HW215867   6.798   1.259   0.623
 4990SOL     OW15868   0.619   2.672   5.466
 4990SOL    HW115869   0.717   2.690   5.469
 4990SOL    HW215870   0.586   2.685   5.372
 4991SOL     OW15871   0.852   3.166   4.190
 4991SOL    HW115872   0.837   3.076   4.149
 4991SOL    HW215873   0.872   3.232   4.118
 4992SOL     OW15874   3.545   0.973   5.466
 4992SOL    HW115875   3.561   0.941   5.373
 4992SOL    HW215876   3.579   0.905   5.531
 4993SOL     OW15877   2.525   6.236   3.997
 4993SOL    HW115878   2.470   6.259   4.078
 4993SOL    HW215879   2.506   6.142   3.970
 4994SOL     OW15880   0.722   0.214   2.862
 4994SOL    HW115881   0.625   0.241   2.861
 4994SOL    HW215882   0.746   0.177   2.951
 4995SOL     OW15883   6.545   2.649   5.945
 4995SOL    HW115884   6.448   2.670   5.933
 4995SOL    HW215885   6.580   2.700   6.023
 4996SOL     OW15886   0.512   1.912   2.535
 4996SOL    HW115887   0.506   1.905   2.634
 4996SOL    HW215888   0.433   1.962   2.500
 4997SOL     OW15889   6.798   2.758   3.338
 4997SOL    HW115890   6.820   2.748   3.435
 4997SOL    HW215891   6.880   2.743   3.283
 4998SOL     OW15892   1.454   5.860   4.674
 4998SOL    HW115893   1.494   5.819   4.593
 4998SOL    HW215894   1.482   5.808   4.755
 4999SOL     OW15895   5.636   5.595   0.938
 4999SOL    HW115896   5.731   5.566   0.926
 4999SOL    HW215897   5.579   5.515   0.956
 5000SOL     OW15898   0.534   0.917   4.456
 5000SOL    HW115899   0.499   1.005   4.425
 5000SOL    HW215900   0.623   0.899   4.414
 5001SOL     OW15901   3.269   4.408   5.437
 5001SOL    HW115902   3.205   4.414   5.360
 5001SOL    HW215903   3.234   4.463   5.513
 5002SOL     OW15904   2.444   1.228   2.148
 5002SOL    HW115905   2.509   1.244   2.222
 5002SOL    HW215906   2.459   1.296   2.076
 5003SOL     OW15907   6.582   6.237   2.476
 5003SOL    HW115908   6.614   6.328   2.449
 5003SOL    HW215909   6.660   6.177   2.491
 5004SOL     OW15910   2.671   6.135   6.626
 5004SOL    HW115911   2.697   6.225   6.660
 5004SOL    HW215912   2.699   6.125   6.531
 5005SOL     OW15913   4.525   3.013   0.093
 5005SOL    HW115914   4.529   3.058   0.182
 5005SOL    HW215915   4.536   2.914   0.106
 5006SOL     OW15916   5.224   6.412   4.814
 5006SOL    HW115917   5.214   6.326   4.763
 5006SOL    HW215918   5.135   6.456   4.823
 5007SOL     OW15919   4.618   1.140   5.537
 5007SOL    HW115920   4.539   1.195   5.510
 5007SOL    HW215921   4.652   1.171   5.626
 5008SOL     OW15922   5.864   0.892   3.930
 5008SOL    HW115923   5.916   0.885   3.845
 5008SOL    HW215924   5.860   0.802   3.974
 5009SOL     OW15925   0.847   6.564   2.557
 5009SOL    HW115926   0.805   6.608   2.635
 5009SOL    HW215927   0.934   6.522   2.585
 5010SOL     OW15928   3.878   3.772   3.815
 5010SOL    HW115929   3.915   3.680   3.796
 5010SOL    HW215930   3.784   3.777   3.783
 5011SOL     OW15931   1.058   2.670   2.207
 5011SOL    HW115932   0.985   2.661   2.275
 5011SOL    HW215933   1.031   2.625   2.122
 5012SOL     OW15934   6.724   2.430   6.011
 5012SOL    HW115935   6.692   2.524   6.015
 5012SOL    HW215936   6.742   2.405   5.915
 5013SOL     OW15937   4.623   1.448   5.915
 5013SOL    HW115938   4.629   1.533   5.863
 5013SOL    HW215939   4.538   1.401   5.894
 5014SOL     OW15940   5.770   6.055   0.797
 5014SOL    HW115941   5.752   5.962   0.764
 5014SOL    HW215942   5.867   6.067   0.814
 5015SOL     OW15943   4.456   2.513   3.371
 5015SOL    HW115944   4.539   2.529   3.425
 5015SOL    HW215945   4.472   2.539   3.276
 5016SOL     OW15946   2.276   0.490   2.798
 5016SOL    HW115947   2.326   0.571   2.766
 5016SOL    HW215948   2.332   0.440   2.864
 5017SOL     OW15949   2.809   2.271   0.619
 5017SOL    HW115950   2.818   2.175   0.646
 5017SOL    HW215951   2.852   2.330   0.687
 5018SOL     OW15952   5.980   4.945   3.630
 5018SOL    HW115953   5.945   4.873   3.569
 5018SOL    HW215954   5.916   5.021   3.633
 5019SOL     OW15955   1.714   4.269   0.057
 5019SOL    HW115956   1.634   4.212   0.038
 5019SOL    HW215957   1.716   4.291   0.155
 5020SOL     OW15958   4.742   4.886   6.792
 5020SOL    HW115959   4.729   4.867   6.695
 5020SOL    HW215960   4.712   4.979   6.812
 5021SOL     OW15961   1.877   4.927   5.687
 5021SOL    HW115962   1.891   4.828   5.684
 5021SOL    HW215963   1.962   4.973   5.711
 5022SOL     OW15964   1.479   6.087   0.727
 5022SOL    HW115965   1.396   6.134   0.699
 5022SOL    HW215966   1.522   6.138   0.802
 5023SOL     OW15967   6.140   3.245   0.947
 5023SOL    HW115968   6.046   3.263   0.977
 5023SOL    HW215969   6.176   3.326   0.901
 5024SOL     OW15970   6.106   3.416   4.093
 5024SOL    HW115971   6.129   3.439   4.188
 5024SOL    HW215972   6.112   3.499   4.037
 5025SOL     OW15973   5.181   1.930   3.268
 5025SOL    HW115974   5.270   1.902   3.233
 5025SOL    HW215975   5.188   2.019   3.313
 5026SOL     OW15976   6.632   5.946   4.335
 5026SOL    HW115977   6.681   5.949   4.248
 5026SOL    HW215978   6.651   5.860   4.381
 5027SOL     OW15979   0.601   6.918   3.639
 5027SOL    HW115980   0.608   6.965   3.551
 5027SOL    HW215981   0.556   6.830   3.627
 5028SOL     OW15982   0.506   0.118   3.207
 5028SOL    HW115983   0.601   0.101   3.181
 5028SOL    HW215984   0.448   0.111   3.126
 5029SOL     OW15985   6.918   2.104   1.453
 5029SOL    HW115986   6.985   2.080   1.523
 5029SOL    HW215987   6.953   2.078   1.363
 5030SOL     OW15988   6.937   0.334   6.710
 5030SOL    HW115989   6.929   0.328   6.810
 5030SOL    HW215990   6.921   0.244   6.670
 5031SOL     OW15991   5.675   0.263   4.324
 5031SOL    HW115992   5.758   0.214   4.354
 5031SOL    HW215993   5.665   0.253   4.225
 5032SOL     OW15994   1.306   5.015   0.887
 5032SOL    HW115995   1.253   5.067   0.821
 5032SOL    HW215996   1.307   5.064   0.975
 5033SOL     OW15997   2.747   4.327   5.678
 5033SOL    HW115998   2.770   4.418   5.713
 5033SOL    HW215999   2.783   4.316   5.586
 5034SOL     OW16000   6.604   2.685   1.986
 5034SOL    HW116001   6.601   2.709   1.889
 5034SOL    HW216002   6.519   2.714   2.030
 5035SOL     OW16003   5.712   5.474   0.447
 5035SOL    HW116004   5.732   5.411   0.522
 5035SOL    HW216005   5.615   5.496   0.448
 5036SOL     OW16006   1.405   0.115   1.577
 5036SOL    HW116007   1.318   0.109   1.626
 5036SOL    HW216008   1.469   0.171   1.630
 5037SOL     OW16009   4.608   1.915   3.649
 5037SOL    HW116010   4.695   1.961   3.634
 5037SOL    HW216011   4.625   1.822   3.682
 5038SOL     OW16012   1.285   5.902   5.663
 5038SOL    HW116013   1.336   5.984   5.638
 5038SOL    HW216014   1.346   5.823   5.659
 5039SOL     OW16015   2.401   2.760   5.193
 5039SOL    HW116016   2.404   2.734   5.289
 5039SOL    HW216017   2.409   2.859   5.185
 5040SOL     OW16018   3.250   3.908   5.464
 5040SOL    HW116019   3.215   3.848   5.392
 5040SOL    HW216020   3.278   3.995   5.425
 5041SOL     OW16021   1.033   3.243   1.601
 5041SOL    HW116022   1.055   3.331   1.645
 5041SOL    HW216023   0.947   3.252   1.552
 5042SOL     OW16024   5.209   2.755   6.447
 5042SOL    HW116025   5.245   2.758   6.540
 5042SOL    HW216026   5.112   2.780   6.448
 5043SOL     OW16027   3.800   0.333   3.721
 5043SOL    HW116028   3.793   0.381   3.809
 5043SOL    HW216029   3.886   0.358   3.676
 5044SOL     OW16030   5.913   5.197   3.162
 5044SOL    HW116031   5.961   5.195   3.249
 5044SOL    HW216032   5.819   5.165   3.175
 5045SOL     OW16033   6.098   2.476   6.751
 5045SOL    HW116034   6.172   2.539   6.773
 5045SOL    HW216035   6.028   2.525   6.698
 5046SOL     OW16036   3.465   3.046   5.234
 5046SOL    HW116037   3.473   3.135   5.188
 5046SOL    HW216038   3.453   2.974   5.165
 5047SOL     OW16039   0.062   1.059   2.676
 5047SOL    HW116040   0.123   1.133   2.649
 5047SOL    HW216041   0.109   0.998   2.740
 5048SOL     OW16042   6.782   2.690   1.513
 5048SOL    HW116043   6.817   2.655   1.426
 5048SOL    HW216044   6.689   2.657   1.527
 5049SOL     OW16045   1.188   2.285   2.163
 5049SOL    HW116046   1.114   2.321   2.219
 5049SOL    HW216047   1.250   2.231   2.220
 5050SOL     OW16048   0.702   3.044   1.744
 5050SOL    HW116049   0.654   3.056   1.831
 5050SOL    HW216050   0.646   3.081   1.670
 5051SOL     OW16051   2.816   4.516   0.718
 5051SOL    HW116052   2.737   4.466   0.753
 5051SOL    HW216053   2.792   4.559   0.631
 5052SOL     OW16054   5.345   4.805   1.220
 5052SOL    HW116055   5.345   4.732   1.287
 5052SOL    HW216056   5.432   4.854   1.223
 5053SOL     OW16057   2.780   3.921   1.106
 5053SOL    HW116058   2.821   3.997   1.156
 5053SOL    HW216059   2.787   3.838   1.161
 5054SOL     OW16060   3.566   5.615   5.133
 5054SOL    HW116061   3.584   5.562   5.051
 5054SOL    HW216062   3.533   5.554   5.206
 5055SOL     OW16063   0.719   1.473   5.348
 5055SOL    HW116064   0.693   1.378   5.333
 5055SOL    HW216065   0.760   1.482   5.439
 5056SOL     OW16066   0.270   3.148   5.652
 5056SOL    HW116067   0.281   3.201   5.736
 5056SOL    HW216068   0.308   3.057   5.664
 5057SOL     OW16069   0.015   5.952   3.461
 5057SOL    HW116070   6.985   5.900   3.529
 5057SOL    HW216071   0.107   5.914   3.452
 5058SOL     OW16072   4.683   4.626   5.982
 5058SOL    HW116073   4.623   4.706   5.974
 5058SOL    HW216074   4.750   4.628   5.908
 5059SOL     OW16075   3.303   1.940   4.514
 5059SOL    HW116076   3.222   1.915   4.462
 5059SOL    HW216077   3.374   1.871   4.502
 5060SOL     OW16078   0.426   3.082   5.341
 5060SOL    HW116079   0.406   3.094   5.439
 5060SOL    HW216080   0.524   3.068   5.329
 5061SOL     OW16081   3.472   2.817   4.763
 5061SOL    HW116082   3.566   2.782   4.756
 5061SOL    HW216083   3.444   2.817   4.859
 5062SOL     OW16084   4.702   0.890   2.896
 5062SOL    HW116085   4.719   0.986   2.917
 5062SOL    HW216086   4.605   0.869   2.908
 5063SOL     OW16087   1.178   6.826   2.510
 5063SOL    HW116088   1.134   6.883   2.441
 5063SOL    HW216089   1.155   6.860   2.601
 5064SOL     OW16090   4.665   5.355   0.510
 5064SOL    HW116091   4.743   5.301   0.541
 5064SOL    HW216092   4.611   5.301   0.445
 5065SOL     OW16093   2.588   0.183   3.235
 5065SOL    HW116094   2.526   0.137   3.171
 5065SOL    HW216095   2.546   0.269   3.265
 5066SOL     OW16096   2.386   4.189   1.575
 5066SOL    HW116097   2.292   4.168   1.547
 5066SOL    HW216098   2.438   4.222   1.496
 5067SOL     OW16099   4.145   3.054   1.548
 5067SOL    HW116100   4.072   2.996   1.582
 5067SOL    HW216101   4.223   3.049   1.610
 5068SOL     OW16102   3.324   6.146   0.610
 5068SOL    HW116103   3.296   6.059   0.652
 5068SOL    HW216104   3.327   6.135   0.510
 5069SOL     OW16105   3.239   4.598   6.101
 5069SOL    HW116106   3.283   4.615   6.013
 5069SOL    HW216107   3.304   4.556   6.164
 5070SOL     OW16108   6.238   3.260   3.914
 5070SOL    HW116109   6.297   3.198   3.966
 5070SOL    HW216110   6.182   3.313   3.977
 5071SOL     OW16111   3.587   1.187   3.611
 5071SOL    HW116112   3.552   1.197   3.704
 5071SOL    HW216113   3.586   1.275   3.565
 5072SOL     OW16114   1.662   1.069   0.885
 5072SOL    HW116115   1.583   1.019   0.849
 5072SOL    HW216116   1.631   1.136   0.953
 5073SOL     OW16117   2.443   6.677   2.254
 5073SOL    HW116118   2.409   6.592   2.214
 5073SOL    HW216119   2.481   6.735   2.182
 5074SOL     OW16120   3.755   2.193   1.649
 5074SOL    HW116121   3.750   2.100   1.685
 5074SOL    HW216122   3.712   2.256   1.714
 5075SOL     OW16123   1.454   3.198   6.774
 5075SOL    HW116124   1.530   3.260   6.753
 5075SOL    HW216125   1.368   3.249   6.771
 5076SOL     OW16126   5.695   0.718   0.614
 5076SOL    HW116127   5.692   0.724   0.514
 5076SOL    HW216128   5.780   0.758   0.647
 5077SOL     OW16129   0.750   4.980   3.246
 5077SOL    HW116130   0.820   4.924   3.202
 5077SOL    HW216131   0.752   4.966   3.344
 5078SOL     OW16132   6.932   1.131   3.731
 5078SOL    HW116133   6.972   1.054   3.681
 5078SOL    HW216134   6.837   1.143   3.704
 5079SOL     OW16135   1.822   2.352   6.318
 5079SOL    HW116136   1.785   2.276   6.264
 5079SOL    HW216137   1.787   2.347   6.411
 5080SOL     OW16138   6.203   5.072   5.933
 5080SOL    HW116139   6.173   5.167   5.924
 5080SOL    HW216140   6.130   5.011   5.904
 5081SOL     OW16141   3.494   5.942   5.740
 5081SOL    HW116142   3.507   6.041   5.748
 5081SOL    HW216143   3.417   5.914   5.798
 5082SOL     OW16144   5.157   6.610   1.410
 5082SOL    HW116145   5.196   6.700   1.428
 5082SOL    HW216146   5.096   6.615   1.332
 5083SOL     OW16147   2.457   0.393   3.015
 5083SOL    HW116148   2.388   0.462   3.037
 5083SOL    HW216149   2.547   0.437   3.008
 5084SOL     OW16150   0.896   4.978   5.176
 5084SOL    HW116151   0.815   4.957   5.231
 5084SOL    HW216152   0.960   5.033   5.230
 5085SOL     OW16153   0.814   3.690   6.229
 5085SOL    HW116154   0.730   3.708   6.178
 5085SOL    HW216155   0.893   3.705   6.169
 5086SOL     OW16156   1.847   4.752   2.196
 5086SOL    HW116157   1.794   4.810   2.134
 5086SOL    HW216158   1.930   4.721   2.149
 5087SOL     OW16159   6.384   5.261   2.975
 5087SOL    HW116160   6.334   5.328   3.030
 5087SOL    HW216161   6.467   5.303   2.937
 5088SOL     OW16162   4.217   6.114   2.205
 5088SOL    HW116163   4.315   6.133   2.208
 5088SOL    HW216164   4.195   6.063   2.122
 5089SOL     OW16165   5.736   4.408   4.443
 5089SOL    HW116166   5.762   4.504   4.455
 5089SOL    HW216167   5.652   4.402   4.390
 5090SOL     OW16168   2.403   0.403   4.422
 5090SOL    HW116169   2.336   0.440   4.359
 5090SOL    HW216170   2.376   0.423   4.516
 5091SOL     OW16171   6.429   7.001   0.288
 5091SOL    HW116172   6.485   0.013   0.212
 5091SOL    HW216173   6.485   6.947   0.350
 5092SOL     OW16174   3.627   3.510   4.894
 5092SOL    HW116175   3.715   3.556   4.879
 5092SOL    HW216176   3.639   3.411   4.883
 5093SOL     OW16177   2.043   1.590   2.745
 5093SOL    HW116178   2.098   1.529   2.802
 5093SOL    HW216179   1.957   1.610   2.792
 5094SOL     OW16180   2.110   5.521   6.643
 5094SOL    HW116181   2.136   5.495   6.550
 5094SOL    HW216182   2.189   5.557   6.692
 5095SOL     OW16183   0.459   1.475   2.744
 5095SOL    HW116184   0.537   1.510   2.694
 5095SOL    HW216185   0.443   1.379   2.719
 5096SOL     OW16186   5.403   2.748   6.002
 5096SOL    HW116187   5.311   2.785   5.989
 5096SOL    HW216188   5.423   2.683   5.929
 5097SOL     OW16189   0.276   6.155   6.358
 5097SOL    HW116190   0.211   6.214   6.311
 5097SOL    HW216191   0.313   6.089   6.293
 5098SOL     OW16192   3.683   1.971   1.816
 5098SOL    HW116193   3.599   1.918   1.828
 5098SOL    HW216194   3.678   2.054   1.870
 5099SOL     OW16195   0.886   6.004   1.804
 5099SOL    HW116196   0.893   5.908   1.828
 5099SOL    HW216197   0.959   6.055   1.849
 5100SOL     OW16198   5.088   4.251   2.639
 5100SOL    HW116199   5.121   4.163   2.672
 5100SOL    HW216200   5.158   4.295   2.583
 5101SOL     OW16201   4.336   6.902   5.329
 5101SOL    HW116202   4.339   7.000   5.308
 5101SOL    HW216203   4.422   6.874   5.370
 5102SOL     OW16204   5.270   5.155   4.119
 5102SOL    HW116205   5.324   5.162   4.036
 5102SOL    HW216206   5.328   5.121   4.194
 5103SOL     OW16207   1.046   0.456   5.516
 5103SOL    HW116208   1.085   0.391   5.581
 5103SOL    HW216209   1.041   0.547   5.558
 5104SOL     OW16210   3.603   4.876   1.024
 5104SOL    HW116211   3.526   4.821   0.989
 5104SOL    HW216212   3.602   4.873   1.124
 5105SOL     OW16213   3.332   2.910   0.043
 5105SOL    HW116214   3.420   2.863   0.042
 5105SOL    HW216215   3.344   3.002   0.079
 5106SOL     OW16216   4.057   2.957   0.885
 5106SOL    HW116217   3.973   2.908   0.858
 5106SOL    HW216218   4.132   2.892   0.893
 5107SOL     OW16219   4.891   2.756   1.200
 5107SOL    HW116220   4.939   2.817   1.262
 5107SOL    HW216221   4.821   2.705   1.251
 5108SOL     OW16222   4.369   3.428   6.511
 5108SOL    HW116223   4.310   3.377   6.574
 5108SOL    HW216224   4.374   3.524   6.539
 5109SOL     OW16225   1.819   2.651   0.536
 5109SOL    HW116226   1.812   2.658   0.437
 5109SOL    HW216227   1.894   2.589   0.560
 5110SOL     OW16228   6.131   0.307   6.231
 5110SOL    HW116229   6.113   0.283   6.136
 5110SOL    HW216230   6.081   0.390   6.255
 5111SOL     OW16231   1.683   6.084   5.318
 5111SOL    HW116232   1.709   5.988   5.326
 5111SOL    HW216233   1.704   6.117   5.226
 5112SOL     OW16234   6.968   0.686   3.441
 5112SOL    HW116235   6.876   0.664   3.408
 5112SOL    HW216236   6.972   0.783   3.465
 5113SOL     OW16237   1.923   5.191   0.655
 5113SOL    HW116238   1.833   5.236   0.659
 5113SOL    HW216239   1.989   5.247   0.705
 5114SOL     OW16240   4.046   6.629   0.768
 5114SOL    HW116241   3.981   6.669   0.833
 5114SOL    HW216242   4.007   6.632   0.676
 5115SOL     OW16243   1.617   3.991   1.238
 5115SOL    HW116244   1.558   4.035   1.169
 5115SOL    HW216245   1.614   4.044   1.322
 5116SOL     OW16246   2.543   6.778   6.457
 5116SOL    HW116247   2.510   6.684   6.468
 5116SOL    HW216248   2.499   6.837   6.526
 5117SOL     OW16249   1.692   2.829   4.309
 5117SOL    HW116250   1.595   2.817   4.329
 5117SOL    HW216251   1.743   2.840   4.394
 5118SOL     OW16252   6.267   6.741   0.311
 5118SOL    HW116253   6.264   6.841   0.316
 5118SOL    HW216254   6.361   6.710   0.321
 5119SOL     OW16255   5.308   2.026   0.296
 5119SOL    HW116256   5.278   1.960   0.366
 5119SOL    HW216257   5.327   2.114   0.339
 5120SOL     OW16258   5.589   6.984   4.780
 5120SOL    HW116259   5.568   0.029   4.852
 5120SOL    HW216260   5.548   6.896   4.804
 5121SOL     OW16261   2.750   3.952   0.000
 5121SOL    HW116262   2.683   3.929   6.952
 5121SOL    HW216263   2.813   3.875   0.012
 5122SOL     OW16264   4.507   5.312   3.556
 5122SOL    HW116265   4.517   5.214   3.573
 5122SOL    HW216266   4.479   5.358   3.641
 5123SOL     OW16267   4.203   2.205   2.246
 5123SOL    HW116268   4.176   2.244   2.158
 5123SOL    HW216269   4.279   2.257   2.285
 5124SOL     OW16270   2.015   6.564   3.751
 5124SOL    HW116271   2.101   6.588   3.797
 5124SOL    HW216272   1.983   6.476   3.785
 5125SOL     OW16273   0.884   2.041   3.811
 5125SOL    HW116274   0.796   1.996   3.793
 5125SOL    HW216275   0.934   1.989   3.880
 5126SOL     OW16276   1.826   6.774   1.465
 5126SOL    HW116277   1.821   6.867   1.428
 5126SOL    HW216278   1.887   6.719   1.408
 5127SOL     OW16279   1.789   5.533   0.745
 5127SOL    HW116280   1.845   5.560   0.823
 5127SOL    HW216281   1.848   5.504   0.670
 5128SOL     OW16282   6.357   6.022   1.934
 5128SOL    HW116283   6.275   6.009   1.989
 5128SOL    HW216284   6.429   5.961   1.967
 5129SOL     OW16285   4.611   6.690   1.188
 5129SOL    HW116286   4.611   6.594   1.160
 5129SOL    HW216287   4.609   6.696   1.288
 5130SOL     OW16288   5.919   4.744   3.459
 5130SOL    HW116289   6.002   4.753   3.405
 5130SOL    HW216290   5.863   4.670   3.422
 5131SOL     OW16291   1.629   2.464   3.598
 5131SOL    HW116292   1.555   2.464   3.666
 5131SOL    HW216293   1.688   2.544   3.613
 5132SOL     OW16294   3.351   4.970   6.534
 5132SOL    HW116295   3.443   4.932   6.525
 5132SOL    HW216296   3.301   4.958   6.448
 5133SOL     OW16297   3.918   6.144   6.617
 5133SOL    HW116298   3.929   6.077   6.691
 5133SOL    HW216299   3.938   6.101   6.530
 5134SOL     OW16300   0.631   3.795   1.240
 5134SOL    HW116301   0.535   3.811   1.218
 5134SOL    HW216302   0.648   3.697   1.246
 5135SOL     OW16303   0.105   1.846   4.699
 5135SOL    HW116304   0.205   1.848   4.692
 5135SOL    HW216305   0.077   1.901   4.778
 5136SOL     OW16306   5.064   0.552   4.304
 5136SOL    HW116307   5.056   0.480   4.235
 5136SOL    HW216308   5.158   0.585   4.306
 5137SOL     OW16309   4.780   3.911   6.257
 5137SOL    HW116310   4.752   3.975   6.185
 5137SOL    HW216311   4.742   3.941   6.345
 5138SOL     OW16312   2.584   3.676   6.277
 5138SOL    HW116313   2.667   3.637   6.238
 5138SOL    HW216314   2.513   3.681   6.207
 5139SOL     OW16315   1.158   7.009   4.260
 5139SOL    HW116316   1.213   7.006   4.343
 5139SOL    HW216317   1.068   6.970   4.277
 5140SOL     OW16318   3.260   2.770   0.526
 5140SOL    HW116319   3.174   2.817   0.506
 5140SOL    HW216320   3.337   2.831   0.508
 5141SOL     OW16321   5.567   3.452   0.495
 5141SOL    HW116322   5.506   3.513   0.445
 5141SOL    HW216323   5.609   3.387   0.431
 5142SOL     OW16324   5.530   3.395   4.777
 5142SOL    HW116325   5.481   3.413   4.692
 5142SOL    HW216326   5.479   3.328   4.831
 5143SOL     OW16327   0.004   4.946   3.776
 5143SOL    HW116328   0.014   4.857   3.820
 5143SOL    HW216329   0.052   5.016   3.830
 5144SOL     OW16330   1.519   0.393   6.134
 5144SOL    HW116331   1.539   0.488   6.159
 5144SOL    HW216332   1.553   0.375   6.042
 5145SOL     OW16333   2.372   5.032   5.782
 5145SOL    HW116334   2.372   5.121   5.829
 5145SOL    HW216335   2.446   4.975   5.817
 5146SOL     OW16336   3.652   3.759   6.691
 5146SOL    HW116337   3.560   3.734   6.660
 5146SOL    HW216338   3.719   3.733   6.622
 5147SOL     OW16339   6.818   4.034   0.631
 5147SOL    HW116340   6.815   4.003   0.535
 5147SOL    HW216341   6.805   4.133   0.635
 5148SOL     OW16342   0.242   5.867   1.479
 5148SOL    HW116343   0.176   5.916   1.423
 5148SOL    HW216344   0.333   5.906   1.465
 5149SOL     OW16345   5.820   1.431   3.378
 5149SOL    HW116346   5.755   1.376   3.430
 5149SOL    HW216347   5.876   1.485   3.441
 5150SOL     OW16348   1.544   6.043   3.762
 5150SOL    HW116349   1.591   6.112   3.707
 5150SOL    HW216350   1.467   6.007   3.710
 5151SOL     OW16351   4.872   1.086   6.285
 5151SOL    HW116352   4.961   1.041   6.296
 5151SOL    HW216353   4.822   1.042   6.210
 5152SOL     OW16354   0.897   4.485   7.009
 5152SOL    HW116355   0.845   4.401   0.005
 5152SOL    HW216356   0.993   4.462   6.993
 5153SOL     OW16357   1.566   2.145   0.820
 5153SOL    HW116358   1.603   2.197   0.743
 5153SOL    HW216359   1.578   2.047   0.804
 5154SOL     OW16360   1.672   3.290   5.920
 5154SOL    HW116361   1.716   3.380   5.924
 5154SOL    HW216362   1.598   3.292   5.853
 5155SOL     OW16363   3.971   6.331   1.977
 5155SOL    HW116364   4.006   6.302   1.888
 5155SOL    HW216365   3.935   6.424   1.970
 5156SOL     OW16366   6.981   2.476   5.433
 5156SOL    HW116367   6.977   2.517   5.341
 5156SOL    HW216368   6.947   2.382   5.429
 5157SOL     OW16369   5.313   3.016   3.622
 5157SOL    HW116370   5.386   3.084   3.624
 5157SOL    HW216371   5.249   3.039   3.548
 5158SOL     OW16372   3.734   1.000   1.051
 5158SOL    HW116373   3.768   1.089   1.020
 5158SOL    HW216374   3.791   0.968   1.127
 5159SOL     OW16375   0.592   3.388   4.008
 5159SOL    HW116376   0.557   3.309   4.059
 5159SOL    HW216377   0.686   3.371   3.980
 5160SOL     OW16378   1.723   3.823   4.831
 5160SOL    HW116379   1.635   3.830   4.783
 5160SOL    HW216380   1.792   3.789   4.768
 5161SOL     OW16381   1.185   3.623   5.701
 5161SOL    HW116382   1.243   3.695   5.739
 5161SOL    HW216383   1.218   3.597   5.611
 5162SOL     OW16384   6.869   6.177   4.149
 5162SOL    HW116385   6.771   6.173   4.170
 5162SOL    HW216386   6.882   6.169   4.050
 5163SOL     OW16387   5.796   4.858   0.796
 5163SOL    HW116388   5.831   4.952   0.794
 5163SOL    HW216389   5.737   4.843   0.717
 5164SOL     OW16390   6.151   3.245   5.086
 5164SOL    HW116391   6.052   3.231   5.083
 5164SOL    HW216392   6.195   3.166   5.130
 5165SOL     OW16393   6.117   4.507   4.486
 5165SOL    HW116394   6.081   4.461   4.567
 5165SOL    HW216395   6.105   4.449   4.406
 5166SOL     OW16396   1.454   4.664   2.037
 5166SOL    HW116397   1.533   4.642   2.094
 5166SOL    HW216398   1.416   4.580   1.999
 5167SOL     OW16399   0.324   6.719   6.023
 5167SOL    HW116400   0.303   6.659   6.100
 5167SOL    HW216401   0.413   6.694   5.984
 5168SOL     OW16402   4.054   2.218   3.034
 5168SOL    HW116403   4.153   2.237   3.037
 5168SOL    HW216404   4.031   2.177   2.946
 5169SOL     OW16405   3.150   3.872   6.232
 5169SOL    HW116406   3.227   3.808   6.234
 5169SOL    HW216407   3.108   3.871   6.142
 5170SOL     OW16408   6.271   4.691   4.620
 5170SOL    HW116409   6.243   4.601   4.590
 5170SOL    HW216410   6.272   4.694   4.720
 5171SOL     OW16411   2.415   4.794   4.475
 5171SOL    HW116412   2.429   4.709   4.525
 5171SOL    HW216413   2.466   4.868   4.520
 5172SOL     OW16414   0.479   4.532   2.272
 5172SOL    HW116415   0.551   4.545   2.340
 5172SOL    HW216416   0.435   4.619   2.253
 5173SOL     OW16417   5.194   3.115   6.121
 5173SOL    HW116418   5.279   3.064   6.131
 5173SOL    HW216419   5.164   3.147   6.211
 5174SOL     OW16420   1.346   4.847   5.665
 5174SOL    HW116421   1.432   4.893   5.642
 5174SOL    HW216422   1.324   4.781   5.593
 5175SOL     OW16423   1.483   4.556   0.379
 5175SOL    HW116424   1.399   4.563   0.326
 5175SOL    HW216425   1.460   4.549   0.476
 5176SOL     OW16426   3.971   3.803   1.046
 5176SOL    HW116427   3.987   3.707   1.069
 5176SOL    HW216428   4.049   3.858   1.076
 5177SOL     OW16429   4.567   6.150   5.937
 5177SOL    HW116430   4.520   6.196   5.862
 5177SOL    HW216431   4.527   6.177   6.025
 5178SOL     OW16432   2.988   2.908   1.708
 5178SOL    HW116433   3.019   2.918   1.613
 5178SOL    HW216434   2.899   2.864   1.709
 5179SOL     OW16435   3.584   6.515   5.812
 5179SOL    HW116436   3.499   6.539   5.859
 5179SOL    HW216437   3.662   6.539   5.870
 5180SOL     OW16438   3.272   1.850   0.583
 5180SOL    HW116439   3.315   1.931   0.623
 5180SOL    HW216440   3.310   1.768   0.625
 5181SOL     OW16441   4.415   0.011   2.776
 5181SOL    HW116442   4.413   0.092   2.835
 5181SOL    HW216443   4.350   6.965   2.810
 5182SOL     OW16444   5.929   4.133   2.023
 5182SOL    HW116445   5.860   4.108   2.092
 5182SOL    HW216446   5.985   4.053   2.003
 5183SOL     OW16447   4.469   6.809   2.252
 5183SOL    HW116448   4.554   6.860   2.262
 5183SOL    HW216449   4.488   6.711   2.263
 5184SOL     OW16450   1.334   1.205   3.311
 5184SOL    HW116451   1.311   1.110   3.290
 5184SOL    HW216452   1.317   1.262   3.231
 5185SOL     OW16453   3.494   6.959   2.416
 5185SOL    HW116454   3.511   6.992   2.509
 5185SOL    HW216455   3.560   6.999   2.353
 5186SOL     OW16456   6.799   4.057   1.199
 5186SOL    HW116457   6.766   3.968   1.230
 5186SOL    HW216458   6.885   4.046   1.149
 5187SOL     OW16459   6.155   1.913   3.117
 5187SOL    HW116460   6.148   1.829   3.170
 5187SOL    HW216461   6.163   1.891   3.019
 5188SOL     OW16462   0.465   4.726   6.117
 5188SOL    HW116463   0.425   4.768   6.036
 5188SOL    HW216464   0.562   4.708   6.101
 5189SOL     OW16465   4.706   5.170   6.542
 5189SOL    HW116466   4.744   5.108   6.611
 5189SOL    HW216467   4.627   5.217   6.579
 5190SOL     OW16468   1.210   2.303   3.870
 5190SOL    HW116469   1.267   2.318   3.789
 5190SOL    HW216470   1.124   2.259   3.843
 5191SOL     OW16471   3.779   1.348   2.012
 5191SOL    HW116472   3.751   1.277   1.947
 5191SOL    HW216473   3.849   1.405   1.970
 5192SOL     OW16474   5.393   5.886   2.419
 5192SOL    HW116475   5.413   5.843   2.331
 5192SOL    HW216476   5.422   5.825   2.494
 5193SOL     OW16477   4.822   4.026   3.963
 5193SOL    HW116478   4.814   3.968   3.882
 5193SOL    HW216479   4.825   3.968   4.045
 5194SOL     OW16480   5.527   0.677   6.056
 5194SOL    HW116481   5.508   0.684   6.154
 5194SOL    HW216482   5.520   0.582   6.027
 5195SOL     OW16483   6.393   6.664   5.202
 5195SOL    HW116484   6.330   6.682   5.128
 5195SOL    HW216485   6.378   6.571   5.237
 5196SOL     OW16486   0.763   4.345   1.932
 5196SOL    HW116487   0.749   4.287   1.852
 5196SOL    HW216488   0.846   4.316   1.979
 5197SOL     OW16489   2.243   6.027   4.745
 5197SOL    HW116490   2.289   5.967   4.680
 5197SOL    HW216491   2.243   6.121   4.711
 5198SOL     OW16492   3.775   6.044   5.181
 5198SOL    HW116493   3.785   5.971   5.113
 5198SOL    HW216494   3.724   6.120   5.140
 5199SOL     OW16495   2.012   5.779   1.540
 5199SOL    HW116496   2.033   5.809   1.447
 5199SOL    HW216497   1.924   5.818   1.568
 5200SOL     OW16498   0.570   1.307   4.768
 5200SOL    HW116499   0.606   1.288   4.859
 5200SOL    HW216500   0.478   1.268   4.759
 5201SOL     OW16501   5.431   4.783   3.687
 5201SOL    HW116502   5.372   4.761   3.610
 5201SOL    HW216503   5.387   4.854   3.743
 5202SOL     OW16504   3.882   3.034   6.203
 5202SOL    HW116505   3.930   2.963   6.154
 5202SOL    HW216506   3.882   3.118   6.148
 5203SOL     OW16507   2.072   0.596   0.704
 5203SOL    HW116508   2.054   0.688   0.671
 5203SOL    HW216509   2.057   0.530   0.630
 5204SOL     OW16510   3.502   1.104   6.517
 5204SOL    HW116511   3.547   1.189   6.543
 5204SOL    HW216512   3.433   1.080   6.587
 5205SOL     OW16513   6.943   6.085   1.123
 5205SOL    HW116514   7.019   6.134   1.080
 5205SOL    HW216515   6.929   5.997   1.078
 5206SOL     OW16516   0.677   4.713   5.056
 5206SOL    HW116517   0.775   4.730   5.046
 5206SOL    HW216518   0.654   4.700   5.152
 5207SOL     OW16519   0.288   0.926   4.847
 5207SOL    HW116520   0.323   0.917   4.940
 5207SOL    HW216521   0.195   0.964   4.849
 5208SOL     OW16522   4.635   2.357   0.757
 5208SOL    HW116523   4.546   2.312   0.753
 5208SOL    HW216524   4.685   2.339   0.672
 5209SOL     OW16525   4.647   5.873   2.863
 5209SOL    HW116526   4.699   5.929   2.928
 5209SOL    HW216527   4.624   5.786   2.905
 5210SOL     OW16528   5.028   4.361   0.527
 5210SOL    HW116529   5.005   4.270   0.494
 5210SOL    HW216530   4.960   4.390   0.595
 5211SOL     OW16531   4.558   2.568   4.068
 5211SOL    HW116532   4.636   2.584   4.128
 5211SOL    HW216533   4.572   2.616   3.981
 5212SOL     OW16534   0.979   3.384   1.164
 5212SOL    HW116535   1.027   3.415   1.247
 5212SOL    HW216536   0.921   3.459   1.130
 5213SOL     OW16537   4.160   3.353   2.486
 5213SOL    HW116538   4.259   3.357   2.500
 5213SOL    HW216539   4.125   3.265   2.519
 5214SOL     OW16540   5.733   3.679   6.286
 5214SOL    HW116541   5.731   3.604   6.219
 5214SOL    HW216542   5.758   3.763   6.239
 5215SOL     OW16543   6.995   3.910   4.841
 5215SOL    HW116544   7.007   3.919   4.939
 5215SOL    HW216545   6.898   3.897   4.819
 5216SOL     OW16546   5.624   4.797   0.600
 5216SOL    HW116547   5.610   4.736   0.678
 5216SOL    HW216548   5.535   4.825   0.563
 5217SOL     OW16549   3.863   5.945   3.889
 5217SOL    HW116550   3.924   5.879   3.844
 5217SOL    HW216551   3.917   6.003   3.951
 5218SOL     OW16552   0.733   0.528   0.482
 5218SOL    HW116553   0.810   0.593   0.477
 5218SOL    HW216554   0.659   0.561   0.424
 5219SOL     OW16555   2.202   2.279   5.012
 5219SOL    HW116556   2.263   2.247   4.940
 5219SOL    HW216557   2.246   2.352   5.063
 5220SOL     OW16558   1.639   4.257   3.484
 5220SOL    HW116559   1.675   4.211   3.403
 5220SOL    HW216560   1.710   4.317   3.522
 5221SOL     OW16561   6.615   0.572   1.525
 5221SOL    HW116562   6.566   0.486   1.537
 5221SOL    HW216563   6.561   0.634   1.468
 5222SOL     OW16564   4.729   4.913   1.754
 5222SOL    HW116565   4.659   4.983   1.741
 5222SOL    HW216566   4.722   4.845   1.681
 5223SOL     OW16567   0.529   3.116   1.282
 5223SOL    HW116568   0.533   3.191   1.216
 5223SOL    HW216569   0.525   3.028   1.234
 5224SOL     OW16570   0.330   1.899   4.405
 5224SOL    HW116571   0.299   1.994   4.404
 5224SOL    HW216572   0.342   1.869   4.500
 5225SOL     OW16573   0.403   1.625   5.118
 5225SOL    HW116574   0.487   1.621   5.172
 5225SOL    HW216575   0.424   1.614   5.021
 5226SOL     OW16576   6.893   6.547   3.997
 5226SOL    HW116577   6.970   6.547   3.932
 5226SOL    HW216578   6.923   6.507   4.084
 5227SOL     OW16579   0.164   2.618   4.881
 5227SOL    HW116580   0.180   2.611   4.980
 5227SOL    HW216581   0.134   2.710   4.858
 5228SOL     OW16582   1.704   3.021   5.744
 5228SOL    HW116583   1.631   2.983   5.688
 5228SOL    HW216584   1.692   2.992   5.839
 5229SOL     OW16585   4.553   0.725   6.314
 5229SOL    HW116586   4.459   0.757   6.308
 5229SOL    HW216587   4.613   0.787   6.262
 5230SOL     OW16588   6.997   0.458   2.047
 5230SOL    HW116589   6.899   0.446   2.035
 5230SOL    HW216590   0.014   0.376   2.090
 5231SOL     OW16591   6.125   1.791   2.211
 5231SOL    HW116592   6.207   1.848   2.218
 5231SOL    HW216593   6.068   1.824   2.136
 5232SOL     OW16594   2.100   3.497   5.714
 5232SOL    HW116595   2.050   3.448   5.785
 5232SOL    HW216596   2.048   3.578   5.687
 5233SOL     OW16597   2.924   0.454   2.577
 5233SOL    HW116598   2.983   0.377   2.600
 5233SOL    HW216599   2.976   0.539   2.582
 5234SOL     OW16600   1.956   2.304   1.372
 5234SOL    HW116601   1.859   2.327   1.378
 5234SOL    HW216602   1.980   2.240   1.444
 5235SOL     OW16603   2.436   1.672   1.209
 5235SOL    HW116604   2.377   1.750   1.190
 5235SOL    HW216605   2.488   1.690   1.293
 5236SOL     OW16606   3.194   5.522   2.155
 5236SOL    HW116607   3.164   5.602   2.206
 5236SOL    HW216608   3.283   5.540   2.112
 5237SOL     OW16609   2.000   2.362   4.145
 5237SOL    HW116610   1.980   2.425   4.070
 5237SOL    HW216611   1.978   2.405   4.232
 5238SOL     OW16612   1.022   6.231   2.666
 5238SOL    HW116613   0.951   6.209   2.599
 5238SOL    HW216614   1.091   6.288   2.623
 5239SOL     OW16615   3.030   3.778   1.300
 5239SOL    HW116616   2.973   3.719   1.359
 5239SOL    HW216617   3.022   3.873   1.331
 5240SOL     OW16618   2.669   3.362   5.769
 5240SOL    HW116619   2.714   3.433   5.715
 5240SOL    HW216620   2.571   3.363   5.751
 5241SOL     OW16621   0.735   5.682   2.271
 5241SOL    HW116622   0.817   5.715   2.317
 5241SOL    HW216623   0.658   5.742   2.292
 5242SOL     OW16624   4.965   0.757   0.251
 5242SOL    HW116625   4.888   0.698   0.228
 5242SOL    HW216626   4.969   0.834   0.188
 5243SOL     OW16627   1.906   6.499   2.040
 5243SOL    HW116628   1.974   6.571   2.033
 5243SOL    HW216629   1.821   6.529   1.996
 5244SOL     OW16630   4.484   3.527   6.777
 5244SOL    HW116631   4.530   3.613   6.798
 5244SOL    HW216632   4.539   3.451   6.812
 5245SOL     OW16633   3.795   4.146   1.067
 5245SOL    HW116634   3.823   4.242   1.056
 5245SOL    HW216635   3.816   4.116   1.160
 5246SOL     OW16636   5.408   3.059   1.042
 5246SOL    HW116637   5.337   3.128   1.026
 5246SOL    HW216638   5.433   3.059   1.138
 5247SOL     OW16639   4.287   1.744   6.244
 5247SOL    HW116640   4.256   1.689   6.167
 5247SOL    HW216641   4.372   1.704   6.281
 5248SOL     OW16642   6.163   1.639   3.237
 5248SOL    HW116643   6.205   1.593   3.159
 5248SOL    HW216644   6.063   1.634   3.229
 5249SOL     OW16645   0.493   5.046   6.125
 5249SOL    HW116646   0.423   4.981   6.157
 5249SOL    HW216647   0.479   5.134   6.172
 5250SOL     OW16648   2.187   5.811   0.934
 5250SOL    HW116649   2.195   5.839   0.838
 5250SOL    HW216650   2.199   5.890   0.994
 5251SOL     OW16651   0.789   4.350   1.128
 5251SOL    HW116652   0.729   4.372   1.205
 5251SOL    HW216653   0.739   4.297   1.060
 5252SOL     OW16654   4.206   0.233   2.642
 5252SOL    HW116655   4.287   0.190   2.603
 5252SOL    HW216656   4.234   0.293   2.718
 5253SOL     OW16657   5.882   4.635   4.535
 5253SOL    HW116658   5.973   4.604   4.508
 5253SOL    HW216659   5.851   4.584   4.615
 5254SOL     OW16660   5.948   0.265   2.674
 5254SOL    HW116661   5.972   0.210   2.754
 5254SOL    HW216662   5.913   0.206   2.601
 5255SOL     OW16663   6.301   1.309   4.858
 5255SOL    HW116664   6.373   1.281   4.793
 5255SOL    HW216665   6.214   1.318   4.809
 5256SOL     OW16666   5.741   0.844   3.082
 5256SOL    HW116667   5.741   0.943   3.094
 5256SOL    HW216668   5.760   0.799   3.170
 5257SOL     OW16669   4.476   0.506   6.079
 5257SOL    HW116670   4.401   0.480   6.019
 5257SOL    HW216671   4.439   0.536   6.167
 5258SOL     OW16672   4.538   2.231   2.186
 5258SOL    HW116673   4.637   2.239   2.174
 5258SOL    HW216674   4.518   2.179   2.269
 5259SOL     OW16675   5.026   5.243   3.032
 5259SOL    HW116676   5.094   5.289   2.976
 5259SOL    HW216677   4.964   5.191   2.973
 5260SOL     OW16678   2.340   0.172   0.509
 5260SOL    HW116679   2.348   0.160   0.410
 5260SOL    HW216680   2.424   0.144   0.554
 5261SOL     OW16681   6.484   4.535   0.344
 5261SOL    HW116682   6.419   4.511   0.271
 5261SOL    HW216683   6.574   4.497   0.322
 5262SOL     OW16684   2.537   0.760   2.443
 5262SOL    HW116685   2.559   0.857   2.455
 5262SOL    HW216686   2.619   0.706   2.462
 5263SOL     OW16687   1.823   0.788   3.464
 5263SOL    HW116688   1.814   0.692   3.492
 5263SOL    HW216689   1.735   0.822   3.431
 5264SOL     OW16690   0.171   2.569   1.774
 5264SOL    HW116691   0.192   2.514   1.694
 5264SOL    HW216692   0.155   2.509   1.853
 5265SOL     OW16693   5.665   3.878   4.680
 5265SOL    HW116694   5.725   3.957   4.675
 5265SOL    HW216695   5.700   3.806   4.619
 5266SOL     OW16696   2.589   0.088   0.649
 5266SOL    HW116697   2.623   0.101   0.742
 5266SOL    HW216698   2.580   7.012   0.629
 5267SOL     OW16699   4.252   2.256   4.404
 5267SOL    HW116700   4.282   2.329   4.342
 5267SOL    HW216701   4.320   2.183   4.403
 5268SOL     OW16702   5.672   0.848   6.468
 5268SOL    HW116703   5.609   0.786   6.516
 5268SOL    HW216704   5.664   0.939   6.508
 5269SOL     OW16705   0.453   6.364   2.666
 5269SOL    HW116706   0.505   6.449   2.659
 5269SOL    HW216707   0.355   6.385   2.673
 5270SOL     OW16708   6.881   2.273   6.672
 5270SOL    HW116709   6.917   2.181   6.684
 5270SOL    HW216710   6.926   2.317   6.594
 5271SOL     OW16711   6.237   5.711   3.890
 5271SOL    HW116712   6.205   5.681   3.980
 5271SOL    HW216713   6.226   5.637   3.824
 5272SOL     OW16714   4.572   0.321   6.964
 5272SOL    HW116715   4.658   0.271   6.963
 5272SOL    HW216716   4.569   0.383   6.886
 5273SOL     OW16717   1.084   2.973   2.478
 5273SOL    HW116718   1.117   3.066   2.463
 5273SOL    HW216719   1.055   2.934   2.390
 5274SOL     OW16720   4.550   6.096   2.502
 5274SOL    HW116721   4.510   6.117   2.591
 5274SOL    HW216722   4.610   6.016   2.511
 5275SOL     OW16723   3.859   0.700   6.603
 5275SOL    HW116724   3.800   0.767   6.557
 5275SOL    HW216725   3.930   0.747   6.654
 5276SOL     OW16726   3.140   6.598   2.456
 5276SOL    HW116727   3.070   6.535   2.422
 5276SOL    HW216728   3.223   6.589   2.401
 5277SOL     OW16729   2.071   1.543   2.118
 5277SOL    HW116730   2.106   1.452   2.098
 5277SOL    HW216731   2.125   1.611   2.068
 5278SOL     OW16732   4.377   5.163   1.616
 5278SOL    HW116733   4.371   5.090   1.685
 5278SOL    HW216734   4.337   5.130   1.530
 5279SOL     OW16735   2.897   5.057   1.607
 5279SOL    HW116736   2.917   5.128   1.674
 5279SOL    HW216737   2.957   4.978   1.623
 5280SOL     OW16738   3.780   5.837   5.014
 5280SOL    HW116739   3.699   5.823   4.956
 5280SOL    HW216740   3.814   5.749   5.047
 5281SOL     OW16741   0.786   1.941   1.553
 5281SOL    HW116742   0.745   1.865   1.503
 5281SOL    HW216743   0.716   1.984   1.611
 5282SOL     OW16744   3.265   1.780   3.634
 5282SOL    HW116745   3.290   1.791   3.538
 5282SOL    HW216746   3.315   1.703   3.673
 5283SOL     OW16747   5.268   5.589   6.797
 5283SOL    HW116748   5.365   5.602   6.818
 5283SOL    HW216749   5.250   5.618   6.703
 5284SOL     OW16750   5.757   3.043   2.634
 5284SOL    HW116751   5.805   3.130   2.631
 5284SOL    HW216752   5.823   2.968   2.627
 5285SOL     OW16753   3.173   4.940   3.299
 5285SOL    HW116754   3.163   4.885   3.382
 5285SOL    HW216755   3.258   4.992   3.304
 5286SOL     OW16756   1.885   4.374   1.379
 5286SOL    HW116757   1.932   4.459   1.353
 5286SOL    HW216758   1.875   4.316   1.298
 5287SOL     OW16759   2.045   2.114   0.446
 5287SOL    HW116760   2.019   2.036   0.503
 5287SOL    HW216761   2.143   2.131   0.457
 5288SOL     OW16762   3.721   6.900   0.994
 5288SOL    HW116763   3.727   7.000   0.989
 5288SOL    HW216764   3.686   6.873   1.084
 5289SOL     OW16765   1.656   5.566   1.674
 5289SOL    HW116766   1.726   5.566   1.745
 5289SOL    HW216767   1.609   5.478   1.675
 5290SOL     OW16768   4.511   6.063   0.776
 5290SOL    HW116769   4.549   5.972   0.758
 5290SOL    HW216770   4.411   6.056   0.778
 5291SOL     OW16771   1.556   5.209   6.249
 5291SOL    HW116772   1.557   5.145   6.326
 5291SOL    HW216773   1.650   5.229   6.221
 5292SOL     OW16774   4.477   2.681   5.791
 5292SOL    HW116775   4.567   2.719   5.813
 5292SOL    HW216776   4.408   2.723   5.850
 5293SOL     OW16777   0.830   0.485   4.385
 5293SOL    HW116778   0.862   0.566   4.335
 5293SOL    HW216779   0.731   0.477   4.375
 5294SOL     OW16780   6.271   2.695   5.901
 5294SOL    HW116781   6.201   2.719   5.968
 5294SOL    HW216782   6.242   2.615   5.849
 5295SOL     OW16783   6.715   1.200   2.315
 5295SOL    HW116784   6.699   1.108   2.279
 5295SOL    HW216785   6.744   1.194   2.411
 5296SOL     OW16786   0.693   4.771   1.624
 5296SOL    HW116787   0.704   4.673   1.639
 5296SOL    HW216788   0.612   4.788   1.568
 5297SOL     OW16789   2.064   1.833   1.267
 5297SOL    HW116790   2.135   1.896   1.297
 5297SOL    HW216791   1.974   1.870   1.291
 5298SOL     OW16792   0.885   5.689   1.584
 5298SOL    HW116793   0.970   5.680   1.636
 5298SOL    HW216794   0.812   5.639   1.631
 5299SOL     OW16795   2.924   0.567   2.248
 5299SOL    HW116796   2.966   0.494   2.302
 5299SOL    HW216797   2.968   0.571   2.158
 5300SOL     OW16798   6.447   5.869   3.233
 5300SOL    HW116799   6.529   5.924   3.248
 5300SOL    HW216800   6.433   5.807   3.310
 5301SOL     OW16801   3.958   1.478   6.975
 5301SOL    HW116802   3.867   1.471   7.016
 5301SOL    HW216803   4.028   1.482   0.025
 5302SOL     OW16804   5.956   4.078   2.734
 5302SOL    HW116805   5.922   4.101   2.825
 5302SOL    HW216806   6.054   4.098   2.729
 5303SOL     OW16807   6.772   4.241   3.421
 5303SOL    HW116808   6.698   4.191   3.378
 5303SOL    HW216809   6.815   4.302   3.353
 5304SOL     OW16810   5.327   1.618   5.656
 5304SOL    HW116811   5.333   1.530   5.609
 5304SOL    HW216812   5.367   1.611   5.747
 5305SOL     OW16813   2.365   1.163   3.368
 5305SOL    HW116814   2.427   1.242   3.370
 5305SOL    HW216815   2.419   1.079   3.369
 5306SOL     OW16816   2.617   0.062   5.547
 5306SOL    HW116817   2.662   0.125   5.610
 5306SOL    HW216818   2.521   0.053   5.573
 5307SOL     OW16819   4.707   6.585   0.175
 5307SOL    HW116820   4.771   6.662   0.177
 5307SOL    HW216821   4.627   6.608   0.231
 5308SOL     OW16822   0.385   1.419   2.399
 5308SOL    HW116823   0.362   1.422   2.302
 5308SOL    HW216824   0.478   1.454   2.413
 5309SOL     OW16825   3.471   4.113   3.610
 5309SOL    HW116826   3.398   4.056   3.646
 5309SOL    HW216827   3.448   4.143   3.518
 5310SOL     OW16828   4.802   2.263   0.577
 5310SOL    HW116829   4.822   2.232   0.484
 5310SOL    HW216830   4.800   2.184   0.638
 5311SOL     OW16831   1.060   5.654   6.917
 5311SOL    HW116832   1.086   5.622   6.826
 5311SOL    HW216833   1.140   5.654   6.976
 5312SOL     OW16834   0.452   3.919   3.105
 5312SOL    HW116835   0.405   3.974   3.036
 5312SOL    HW216836   0.434   3.958   3.196
 5313SOL     OW16837   1.239   5.813   0.536
 5313SOL    HW116838   1.170   5.864   0.588
 5313SOL    HW216839   1.269   5.735   0.589
 5314SOL     OW16840   4.002   5.206   1.073
 5314SOL    HW116841   4.078   5.174   1.129
 5314SOL    HW216842   3.937   5.131   1.060
 5315SOL     OW16843   5.465   2.751   2.123
 5315SOL    HW116844   5.414   2.668   2.107
 5315SOL    HW216845   5.423   2.827   2.073
 5316SOL     OW16846   6.093   4.615   3.657
 5316SOL    HW116847   6.161   4.680   3.691
 5316SOL    HW216848   6.020   4.665   3.609
 5317SOL     OW16849   5.761   6.506   2.480
 5317SOL    HW116850   5.853   6.544   2.470
 5317SOL    HW216851   5.752   6.426   2.420
 5318SOL     OW16852   0.589   2.530   4.655
 5318SOL    HW116853   0.509   2.470   4.647
 5318SOL    HW216854   0.669   2.485   4.615
 5319SOL     OW16855   4.936   0.606   0.625
 5319SOL    HW116856   4.873   0.535   0.594
 5319SOL    HW216857   5.014   0.564   0.671
 5320SOL     OW16858   5.712   2.891   5.846
 5320SOL    HW116859   5.724   2.881   5.748
 5320SOL    HW216860   5.617   2.871   5.870
 5321SOL     OW16861   2.079   5.579   6.112
 5321SOL    HW116862   2.120   5.567   6.022
 5321SOL    HW216863   1.986   5.544   6.112
 5322SOL     OW16864   3.335   6.089   0.343
 5322SOL    HW116865   3.310   6.183   0.318
 5322SOL    HW216866   3.269   6.025   0.303
 5323SOL     OW16867   5.177   2.989   0.715
 5323SOL    HW116868   5.258   3.040   0.744
 5323SOL    HW216869   5.132   3.037   0.640
 5324SOL     OW16870   3.908   3.441   1.751
 5324SOL    HW116871   3.851   3.518   1.722
 5324SOL    HW216872   3.864   3.356   1.723
 5325SOL     OW16873   5.128   5.566   3.053
 5325SOL    HW116874   5.176   5.652   3.072
 5325SOL    HW216875   5.079   5.574   2.966
 5326SOL     OW16876   6.885   6.468   1.647
 5326SOL    HW116877   6.940   6.411   1.586
 5326SOL    HW216878   6.810   6.414   1.685
 5327SOL     OW16879   6.692   0.931   3.714
 5327SOL    HW116880   6.624   0.895   3.778
 5327SOL    HW216881   6.782   0.933   3.758
 5328SOL     OW16882   3.969   4.465   0.679
 5328SOL    HW116883   3.911   4.435   0.755
 5328SOL    HW216884   3.923   4.447   0.592
 5329SOL     OW16885   0.076   4.735   0.038
 5329SOL    HW116886   7.016   4.681   0.061
 5329SOL    HW216887   0.100   4.794   0.115
 5330SOL     OW16888   4.879   4.519   1.102
 5330SOL    HW116889   4.943   4.448   1.130
 5330SOL    HW216890   4.861   4.580   1.180
 5331SOL     OW16891   4.600   3.778   6.813
 5331SOL    HW116892   4.613   3.764   6.715
 5331SOL    HW216893   4.545   3.860   6.827
 5332SOL     OW16894   5.812   3.459   0.191
 5332SOL    HW116895   5.832   3.387   0.258
 5332SOL    HW216896   5.837   3.428   0.100
 5333SOL     OW16897   1.820   1.362   4.017
 5333SOL    HW116898   1.797   1.459   4.009
 5333SOL    HW216899   1.756   1.318   4.081
 5334SOL     OW16900   4.299   5.220   2.145
 5334SOL    HW116901   4.229   5.156   2.113
 5334SOL    HW216902   4.376   5.169   2.184
 5335SOL     OW16903   0.009   4.376   1.368
 5335SOL    HW116904   0.048   4.398   1.278
 5335SOL    HW216905   6.957   4.308   1.357
 5336SOL     OW16906   1.511   3.444   4.261
 5336SOL    HW116907   1.559   3.362   4.229
 5336SOL    HW216908   1.433   3.417   4.318
 5337SOL     OW16909   6.679   4.204   0.995
 5337SOL    HW116910   6.723   4.150   1.067
 5337SOL    HW216911   6.748   4.260   0.949
 5338SOL     OW16912   6.820   3.138   1.004
 5338SOL    HW116913   6.909   3.113   0.966
 5338SOL    HW216914   6.749   3.120   0.936
 5339SOL     OW16915   5.826   3.284   3.119
 5339SOL    HW116916   5.860   3.192   3.098
 5339SOL    HW216917   5.743   3.278   3.174
 5340SOL     OW16918   5.335   2.512   2.053
 5340SOL    HW116919   5.274   2.495   1.975
 5340SOL    HW216920   5.319   2.442   2.123
 5341SOL     OW16921   4.257   5.702   3.980
 5341SOL    HW116922   4.257   5.606   4.007
 5341SOL    HW216923   4.182   5.718   3.915
 5342SOL     OW16924   5.985   6.719   4.117
 5342SOL    HW116925   5.953   6.642   4.173
 5342SOL    HW216926   5.990   6.691   4.022
 5343SOL     OW16927   3.630   3.406   6.881
 5343SOL    HW116928   3.587   3.343   6.946
 5343SOL    HW216929   3.644   3.494   6.924
 5344SOL     OW16930   1.584   1.680   5.990
 5344SOL    HW116931   1.675   1.664   5.952
 5344SOL    HW216932   1.592   1.699   6.088
 5345SOL     OW16933   4.821   2.512   0.021
 5345SOL    HW116934   4.904   2.566   0.032
 5345SOL    HW216935   4.774   2.540   6.959
 5346SOL     OW16936   3.046   5.704   3.878
 5346SOL    HW116937   3.120   5.683   3.814
 5346SOL    HW216938   2.968   5.742   3.828
 5347SOL     OW16939   5.810   1.585   4.156
 5347SOL    HW116940   5.737   1.559   4.093
 5347SOL    HW216941   5.895   1.540   4.129
 5348SOL     OW16942   5.363   1.933   2.777
 5348SOL    HW116943   5.413   1.978   2.703
 5348SOL    HW216944   5.285   1.883   2.739
 5349SOL     OW16945   0.485   3.749   2.492
 5349SOL    HW116946   0.584   3.747   2.488
 5349SOL    HW216947   0.456   3.756   2.588
 5350SOL     OW16948   1.453   6.203   6.832
 5350SOL    HW116949   1.473   6.111   6.798
 5350SOL    HW216950   1.468   6.207   6.931
 5351SOL     OW16951   6.771   6.115   2.107
 5351SOL    HW116952   6.806   6.065   2.186
 5351SOL    HW216953   6.714   6.055   2.051
 5352SOL     OW16954   1.111   3.347   5.047
 5352SOL    HW116955   1.091   3.375   4.953
 5352SOL    HW216956   1.141   3.252   5.048
 5353SOL     OW16957   3.882   5.299   3.441
 5353SOL    HW116958   3.848   5.228   3.503
 5353SOL    HW216959   3.982   5.297   3.441
 5354SOL     OW16960   4.263   6.089   1.183
 5354SOL    HW116961   4.192   6.046   1.238
 5354SOL    HW216962   4.349   6.089   1.234
 5355SOL     OW16963   5.186   4.374   5.056
 5355SOL    HW116964   5.272   4.398   5.011
 5355SOL    HW216965   5.112   4.431   5.020
 5356SOL     OW16966   0.513   4.870   1.445
 5356SOL    HW116967   0.586   4.915   1.394
 5356SOL    HW216968   0.443   4.838   1.381
 5357SOL     OW16969   5.545   3.745   2.038
 5357SOL    HW116970   5.472   3.812   2.026
 5357SOL    HW216971   5.509   3.653   2.022
 5358SOL     OW16972   4.519   1.890   0.329
 5358SOL    HW116973   4.606   1.856   0.364
 5358SOL    HW216974   4.533   1.930   0.238
 5359SOL     OW16975   3.071   1.898   6.590
 5359SOL    HW116976   3.154   1.893   6.645
 5359SOL    HW216977   2.994   1.927   6.647
 5360SOL     OW16978   5.102   4.126   3.321
 5360SOL    HW116979   5.146   4.216   3.324
 5360SOL    HW216980   5.133   4.071   3.398
 5361SOL     OW16981   2.407   5.596   2.402
 5361SOL    HW116982   2.500   5.612   2.436
 5361SOL    HW216983   2.403   5.505   2.359
 5362SOL     OW16984   5.919   0.651   1.869
 5362SOL    HW116985   5.965   0.565   1.892
 5362SOL    HW216986   5.833   0.658   1.921
 5363SOL     OW16987   5.533   5.413   3.610
 5363SOL    HW116988   5.552   5.377   3.519
 5363SOL    HW216989   5.495   5.506   3.603
 5364SOL     OW16990   4.758   1.264   2.526
 5364SOL    HW116991   4.685   1.331   2.541
 5364SOL    HW216992   4.803   1.244   2.614
 5365SOL     OW16993   3.763   2.902   3.687
 5365SOL    HW116994   3.699   2.874   3.615
 5365SOL    HW216995   3.745   2.849   3.770
 5366SOL     OW16996   6.537   6.363   2.760
 5366SOL    HW116997   6.449   6.388   2.800
 5366SOL    HW216998   6.525   6.339   2.663
 5367SOL     OW16999   6.457   5.516   1.484
 5367SOL    HW117000   6.491   5.559   1.567
 5367SOL    HW217001   6.521   5.443   1.456
 5368SOL     OW17002   6.692   5.891   3.998
 5368SOL    HW117003   6.598   5.884   4.033
 5368SOL    HW217004   6.703   5.978   3.951
 5369SOL     OW17005   2.724   5.921   2.465
 5369SOL    HW117006   2.772   5.888   2.384
 5369SOL    HW217007   2.776   5.995   2.506
 5370SOL     OW17008   1.746   3.794   1.405
 5370SOL    HW117009   1.668   3.754   1.453
 5370SOL    HW217010   1.715   3.836   1.319
 5371SOL     OW17011   5.538   5.645   4.562
 5371SOL    HW117012   5.617   5.703   4.581
 5371SOL    HW217013   5.461   5.674   4.620
 5372SOL     OW17014   1.000   6.888   3.215
 5372SOL    HW117015   1.040   6.952   3.281
 5372SOL    HW217016   0.993   6.797   3.257
 5373SOL     OW17017   3.655   1.318   6.633
 5373SOL    HW117018   3.636   1.416   6.623
 5373SOL    HW217019   3.742   1.296   6.588
 5374SOL     OW17020   2.101   4.799   2.889
 5374SOL    HW117021   2.152   4.745   2.821
 5374SOL    HW217022   2.068   4.883   2.848
 5375SOL     OW17023   1.496   4.753   4.172
 5375SOL    HW117024   1.429   4.770   4.243
 5375SOL    HW217025   1.502   4.655   4.154
 5376SOL     OW17026   0.609   0.412   6.356
 5376SOL    HW117027   0.509   0.406   6.349
 5376SOL    HW217028   0.652   0.362   6.281
 5377SOL     OW17029   2.464   0.734   3.445
 5377SOL    HW117030   2.398   0.698   3.380
 5377SOL    HW217031   2.494   0.825   3.415
 5378SOL     OW17032   4.994   1.168   2.226
 5378SOL    HW117033   4.914   1.108   2.235
 5378SOL    HW217034   5.070   1.131   2.279
 5379SOL     OW17035   1.523   1.990   6.385
 5379SOL    HW117036   1.470   1.990   6.470
 5379SOL    HW217037   1.558   1.898   6.368
 5380SOL     OW17038   4.217   6.613   1.244
 5380SOL    HW117039   4.127   6.634   1.207
 5380SOL    HW217040   4.287   6.663   1.192
 5381SOL     OW17041   4.544   6.927   3.691
 5381SOL    HW117042   4.612   6.913   3.764
 5381SOL    HW217043   4.494   6.842   3.675
 5382SOL     OW17044   3.961   1.523   1.896
 5382SOL    HW117045   3.996   1.569   1.977
 5382SOL    HW217046   3.959   1.587   1.819
 5383SOL     OW17047   1.938   2.550   4.762
 5383SOL    HW117048   1.938   2.456   4.726
 5383SOL    HW217049   1.854   2.565   4.814
 5384SOL     OW17050   5.823   5.523   4.198
 5384SOL    HW117051   5.818   5.446   4.135
 5384SOL    HW217052   5.732   5.560   4.214
 5385SOL     OW17053   4.055   2.539   5.743
 5385SOL    HW117054   3.972   2.522   5.796
 5385SOL    HW217055   4.048   2.627   5.698
 5386SOL     OW17056   5.913   4.432   3.638
 5386SOL    HW117057   5.998   4.476   3.668
 5386SOL    HW217058   5.845   4.502   3.617
 5387SOL     OW17059   1.545   0.945   3.293
 5387SOL    HW117060   1.568   1.035   3.256
 5387SOL    HW217061   1.513   0.955   3.387
 5388SOL     OW17062   0.809   6.169   2.136
 5388SOL    HW117063   0.725   6.138   2.092
 5388SOL    HW217064   0.802   6.267   2.154
 5389SOL     OW17065   4.751   1.946   3.999
 5389SOL    HW117066   4.838   1.983   4.031
 5389SOL    HW217067   4.767   1.864   3.946
 5390SOL     OW17068   0.312   2.643   2.936
 5390SOL    HW117069   0.335   2.546   2.929
 5390SOL    HW217070   0.363   2.695   2.867
 5391SOL     OW17071   2.736   3.615   0.379
 5391SOL    HW117072   2.644   3.653   0.378
 5391SOL    HW217073   2.746   3.548   0.305
 5392SOL     OW17074   5.442   1.846   3.454
 5392SOL    HW117075   5.455   1.848   3.355
 5392SOL    HW217076   5.530   1.829   3.498
 5393SOL     OW17077   3.776   1.699   5.023
 5393SOL    HW117078   3.681   1.728   5.006
 5393SOL    HW217079   3.819   1.764   5.085
 5394SOL     OW17080   1.809   1.553   1.037
 5394SOL    HW117081   1.750   1.560   0.956
 5394SOL    HW217082   1.871   1.475   1.026
 5395SOL     OW17083   6.594   1.742   1.060
 5395SOL    HW117084   6.678   1.789   1.088
 5395SOL    HW217085   6.576   1.665   1.121
 5396SOL     OW17086   5.449   4.454   1.869
 5396SOL    HW117087   5.536   4.408   1.850
 5396SOL    HW217088   5.405   4.411   1.947
 5397SOL     OW17089   0.683   1.540   2.572
 5397SOL    HW117090   0.699   1.443   2.592
 5397SOL    HW217091   0.717   1.561   2.480
 5398SOL     OW17092   5.527   1.730   2.426
 5398SOL    HW117093   5.467   1.657   2.459
 5398SOL    HW217094   5.611   1.690   2.388
 5399SOL     OW17095   1.822   0.908   6.683
 5399SOL    HW117096   1.772   0.823   6.666
 5399SOL    HW217097   1.918   0.887   6.702
 5400SOL     OW17098   4.575   3.477   1.657
 5400SOL    HW117099   4.667   3.487   1.695
 5400SOL    HW217100   4.542   3.566   1.624
 5401SOL     OW17101   5.585   3.327   1.038
 5401SOL    HW117102   5.579   3.375   0.950
 5401SOL    HW217103   5.602   3.230   1.022
 5402SOL     OW17104   1.050   6.321   1.792
 5402SOL    HW117105   0.954   6.314   1.765
 5402SOL    HW217106   1.066   6.267   1.874
 5403SOL     OW17107   4.768   3.450   6.806
 5403SOL    HW117108   4.775   3.385   6.731
 5403SOL    HW217109   4.797   3.541   6.775
 5404SOL     OW17110   6.519   1.222   0.463
 5404SOL    HW117111   6.483   1.315   0.463
 5404SOL    HW217112   6.535   1.193   0.369
 5405SOL     OW17113   6.342   5.354   6.906
 5405SOL    HW117114   6.435   5.329   6.880
 5405SOL    HW217115   6.277   5.312   6.842
 5406SOL     OW17116   2.582   0.444   5.422
 5406SOL    HW117117   2.655   0.378   5.439
 5406SOL    HW217118   2.623   0.528   5.384
 5407SOL     OW17119   2.169   0.282   3.212
 5407SOL    HW117120   2.106   0.222   3.260
 5407SOL    HW217121   2.202   0.237   3.128
 5408SOL     OW17122   3.641   2.109   4.202
 5408SOL    HW117123   3.725   2.159   4.226
 5408SOL    HW217124   3.666   2.019   4.164
 5409SOL     OW17125   0.761   2.588   1.310
 5409SOL    HW117126   0.731   2.679   1.337
 5409SOL    HW217127   0.763   2.529   1.391
 5410SOL     OW17128   1.056   2.362   0.469
 5410SOL    HW117129   1.050   2.282   0.529
 5410SOL    HW217130   1.149   2.399   0.473
 5411SOL     OW17131   3.154   5.347   0.027
 5411SOL    HW117132   3.148   5.248   0.040
 5411SOL    HW217133   3.244   5.371   7.012
 5412SOL     OW17134   6.970   1.797   6.199
 5412SOL    HW117135   0.031   1.742   6.213
 5412SOL    HW217136   6.947   1.798   6.102
 5413SOL     OW17137   6.613   6.135   5.232
 5413SOL    HW117138   6.691   6.197   5.243
 5413SOL    HW217139   6.646   6.044   5.205
 5414SOL     OW17140   5.707   3.966   5.596
 5414SOL    HW117141   5.767   3.890   5.569
 5414SOL    HW217142   5.628   3.930   5.644
 5415SOL     OW17143   4.621   0.712   0.403
 5415SOL    HW117144   4.680   0.774   0.455
 5415SOL    HW217145   4.662   0.695   0.313
 5416SOL     OW17146   3.322   6.123   6.602
 5416SOL    HW117147   3.356   6.132   6.509
 5416SOL    HW217148   3.291   6.029   6.617
 5417SOL     OW17149   4.231   6.822   4.272
 5417SOL    HW117150   4.147   6.862   4.235
 5417SOL    HW217151   4.229   6.723   4.262
 5418SOL     OW17152   6.342   3.189   4.266
 5418SOL    HW117153   6.327   3.129   4.188
 5418SOL    HW217154   6.432   3.172   4.305
 5419SOL     OW17155   4.888   6.429   6.557
 5419SOL    HW117156   4.971   6.390   6.516
 5419SOL    HW217157   4.858   6.508   6.503
 5420SOL     OW17158   0.954   1.125   1.906
 5420SOL    HW117159   1.016   1.161   1.975
 5420SOL    HW217160   0.990   1.039   1.869
 5421SOL     OW17161   4.126   4.804   2.146
 5421SOL    HW117162   4.062   4.814   2.221
 5421SOL    HW217163   4.202   4.744   2.174
 5422SOL     OW17164   3.099   5.264   3.804
 5422SOL    HW117165   3.172   5.205   3.839
 5422SOL    HW217166   3.055   5.313   3.880
 5423SOL     OW17167   5.334   6.170   1.832
 5423SOL    HW117168   5.384   6.250   1.800
 5423SOL    HW217169   5.376   6.087   1.795
 5424SOL     OW17170   4.174   3.925   5.486
 5424SOL    HW117171   4.149   3.999   5.423
 5424SOL    HW217172   4.273   3.923   5.497
 5425SOL     OW17173   1.435   4.256   5.594
 5425SOL    HW117174   1.495   4.183   5.561
 5425SOL    HW217175   1.395   4.304   5.516
 5426SOL     OW17176   5.917   4.997   1.515
 5426SOL    HW117177   5.996   4.942   1.492
 5426SOL    HW217178   5.935   5.048   1.599
 5427SOL     OW17179   4.816   2.157   6.324
 5427SOL    HW117180   4.735   2.111   6.287
 5427SOL    HW217181   4.894   2.095   6.321
 5428SOL     OW17182   6.155   5.811   2.751
 5428SOL    HW117183   6.182   5.715   2.747
 5428SOL    HW217184   6.085   5.829   2.682
 5429SOL     OW17185   3.760   0.537   4.841
 5429SOL    HW117186   3.677   0.538   4.895
 5429SOL    HW217187   3.797   0.444   4.837
 5430SOL     OW17188   2.630   3.771   5.634
 5430SOL    HW117189   2.678   3.706   5.576
 5430SOL    HW217190   2.536   3.781   5.602
 5431SOL     OW17191   3.278   4.465   0.031
 5431SOL    HW117192   3.345   4.531   0.065
 5431SOL    HW217193   3.326   4.383   7.019
 5432SOL     OW17194   6.781   5.290   0.048
 5432SOL    HW117195   6.712   5.341   0.099
 5432SOL    HW217196   6.810   5.210   0.100
 5433SOL     OW17197   2.016   0.421   1.765
 5433SOL    HW117198   2.022   0.502   1.824
 5433SOL    HW217199   1.993   0.449   1.672
 5434SOL     OW17200   6.076   0.092   5.310
 5434SOL    HW117201   6.009   0.154   5.268
 5434SOL    HW217202   6.118   0.036   5.239
 5435SOL     OW17203   7.005   4.298   0.804
 5435SOL    HW117204   0.071   4.249   0.793
 5435SOL    HW217205   6.990   4.357   0.725
 5436SOL     OW17206   1.499   5.061   2.420
 5436SOL    HW117207   1.563   5.026   2.489
 5436SOL    HW217208   1.537   5.145   2.380
 5437SOL     OW17209   3.295   5.561   1.383
 5437SOL    HW117210   3.195   5.570   1.380
 5437SOL    HW217211   3.329   5.532   1.294
 5438SOL     OW17212   4.186   6.101   2.672
 5438SOL    HW117213   4.231   6.018   2.641
 5438SOL    HW217214   4.235   6.139   2.750
 5439SOL     OW17215   1.097   4.788   1.872
 5439SOL    HW117216   1.004   4.825   1.873
 5439SOL    HW217217   1.095   4.693   1.838
 5440SOL     OW17218   6.491   6.706   3.553
 5440SOL    HW117219   6.520   6.764   3.629
 5440SOL    HW217220   6.456   6.619   3.588
 5441SOL     OW17221   5.894   3.222   4.043
 5441SOL    HW117222   5.955   3.300   4.057
 5441SOL    HW217223   5.946   3.144   4.006
 5442SOL     OW17224   4.192   0.246   5.562
 5442SOL    HW117225   4.131   0.309   5.611
 5442SOL    HW217226   4.207   0.279   5.469
 5443SOL     OW17227   4.635   0.780   3.839
 5443SOL    HW117228   4.588   0.709   3.787
 5443SOL    HW217229   4.725   0.797   3.799
 5444SOL     OW17230   6.228   0.983   4.719
 5444SOL    HW117231   6.135   0.959   4.695
 5444SOL    HW217232   6.242   0.970   4.818
 5445SOL     OW17233   5.958   5.865   4.225
 5445SOL    HW117234   6.005   5.951   4.211
 5445SOL    HW217235   5.884   5.856   4.158
 5446SOL     OW17236   6.952   4.471   5.879
 5446SOL    HW117237   7.008   4.519   5.812
 5446SOL    HW217238   7.003   4.394   5.917
 5447SOL     OW17239   1.352   2.463   0.771
 5447SOL    HW117240   1.309   2.501   0.689
 5447SOL    HW217241   1.306   2.377   0.796
 5448SOL     OW17242   4.203   5.171   2.965
 5448SOL    HW117243   4.250   5.120   2.893
 5448SOL    HW217244   4.144   5.109   3.018
 5449SOL     OW17245   3.336   1.509   2.030
 5449SOL    HW117246   3.292   1.565   2.101
 5449SOL    HW217247   3.431   1.494   2.054
 5450SOL     OW17248   3.828   5.812   1.576
 5450SOL    HW117249   3.896   5.743   1.598
 5450SOL    HW217250   3.865   5.903   1.595
 5451SOL     OW17251   6.892   0.268   2.557
 5451SOL    HW117252   6.810   0.304   2.512
 5451SOL    HW217253   6.865   0.212   2.635
 5452SOL     OW17254   2.303   4.300   2.093
 5452SOL    HW117255   2.388   4.323   2.141
 5452SOL    HW217256   2.225   4.320   2.153
 5453SOL     OW17257   5.821   3.777   2.724
 5453SOL    HW117258   5.808   3.850   2.657
 5453SOL    HW217259   5.732   3.734   2.743
 5454SOL     OW17260   5.594   4.640   2.301
 5454SOL    HW117261   5.603   4.579   2.380
 5454SOL    HW217262   5.644   4.602   2.224
 5455SOL     OW17263   1.899   1.758   3.881
 5455SOL    HW117264   1.877   1.800   3.969
 5455SOL    HW217265   1.991   1.720   3.884
 5456SOL     OW17266   6.026   1.391   0.875
 5456SOL    HW117267   6.035   1.485   0.908
 5456SOL    HW217268   5.983   1.390   0.785
 5457SOL     OW17269   5.567   1.535   6.660
 5457SOL    HW117270   5.622   1.472   6.715
 5457SOL    HW217271   5.471   1.526   6.685
 5458SOL     OW17272   6.122   3.972   0.085
 5458SOL    HW117273   6.041   3.948   0.031
 5458SOL    HW217274   6.123   4.070   0.102
 5459SOL     OW17275   1.809   3.169   5.396
 5459SOL    HW117276   1.875   3.180   5.471
 5459SOL    HW217277   1.852   3.118   5.322
 5460SOL     OW17278   1.428   0.940   1.233
 5460SOL    HW117279   1.478   1.026   1.236
 5460SOL    HW217280   1.461   0.885   1.156
 5461SOL     OW17281   6.537   1.418   5.194
 5461SOL    HW117282   6.560   1.332   5.149
 5461SOL    HW217283   6.469   1.467   5.140
 5462SOL     OW17284   4.802   4.423   5.769
 5462SOL    HW117285   4.832   4.333   5.799
 5462SOL    HW217286   4.862   4.457   5.697
 5463SOL     OW17287   1.470   3.035   0.096
 5463SOL    HW117288   1.430   3.006   0.183
 5463SOL    HW217289   1.409   3.010   0.021
 5464SOL     OW17290   0.673   5.910   5.919
 5464SOL    HW117291   0.601   5.913   5.849
 5464SOL    HW217292   0.746   5.849   5.889
 5465SOL     OW17293   6.388   6.447   3.628
 5465SOL    HW117294   6.306   6.417   3.580
 5465SOL    HW217295   6.457   6.375   3.625
 5466SOL     OW17296   5.979   2.440   5.307
 5466SOL    HW117297   6.072   2.439   5.270
 5466SOL    HW217298   5.917   2.393   5.245
 5467SOL     OW17299   4.853   2.857   4.230
 5467SOL    HW117300   4.821   2.926   4.295
 5467SOL    HW217301   4.835   2.888   4.137
 5468SOL     OW17302   0.116   2.096   1.766
 5468SOL    HW117303   0.078   2.015   1.722
 5468SOL    HW217304   0.206   2.076   1.802
 5469SOL     OW17305   3.004   0.628   5.257
 5469SOL    HW117306   3.060   0.692   5.203
 5469SOL    HW217307   3.050   0.608   5.343
 5470SOL     OW17308   3.588   5.646   3.444
 5470SOL    HW117309   3.502   5.641   3.392
 5470SOL    HW217310   3.581   5.588   3.526
 5471SOL     OW17311   4.734   1.139   3.367
 5471SOL    HW117312   4.692   1.175   3.284
 5471SOL    HW217313   4.681   1.061   3.401
 5472SOL     OW17314   2.391   1.946   6.580
 5472SOL    HW117315   2.366   1.956   6.484
 5472SOL    HW217316   2.381   2.034   6.626
 5473SOL     OW17317   2.655   4.442   1.711
 5473SOL    HW117318   2.594   4.404   1.781
 5473SOL    HW217319   2.733   4.487   1.756
 5474SOL     OW17320   1.112   5.438   3.691
 5474SOL    HW117321   1.057   5.362   3.657
 5474SOL    HW217322   1.076   5.467   3.780
 5475SOL     OW17323   6.797   1.979   5.259
 5475SOL    HW117324   6.817   1.884   5.234
 5475SOL    HW217325   6.711   2.007   5.217
 5476SOL     OW17326   2.784   6.867   5.913
 5476SOL    HW117327   2.761   6.846   5.818
 5476SOL    HW217328   2.702   6.899   5.960
 5477SOL     OW17329   1.759   4.336   3.906
 5477SOL    HW117330   1.764   4.258   3.843
 5477SOL    HW217331   1.678   4.390   3.885
 5478SOL     OW17332   5.853   4.194   5.388
 5478SOL    HW117333   5.848   4.097   5.408
 5478SOL    HW217334   5.771   4.240   5.420
 5479SOL     OW17335   3.437   1.236   4.815
 5479SOL    HW117336   3.478   1.317   4.858
 5479SOL    HW217337   3.353   1.212   4.863
 5480SOL     OW17338   0.291   3.895   4.253
 5480SOL    HW117339   0.245   3.814   4.218
 5480SOL    HW217340   0.225   3.970   4.261
 5481SOL     OW17341   4.539   0.743   6.987
 5481SOL    HW117342   4.502   0.736   6.895
 5481SOL    HW217343   4.497   0.673   0.024
 5482SOL     OW17344   4.577   3.136   0.820
 5482SOL    HW117345   4.532   3.117   0.907
 5482SOL    HW217346   4.594   3.050   0.772
 5483SOL     OW17347   0.285   3.307   5.259
 5483SOL    HW117348   0.187   3.300   5.280
 5483SOL    HW217349   0.328   3.218   5.273
 5484SOL     OW17350   6.204   6.280   3.803
 5484SOL    HW117351   6.250   6.192   3.790
 5484SOL    HW217352   6.266   6.343   3.849
 5485SOL     OW17353   3.647   6.969   5.534
 5485SOL    HW117354   3.561   7.017   5.551
 5485SOL    HW217355   3.720   0.014   5.522
 5486SOL     OW17356   0.696   0.831   3.766
 5486SOL    HW117357   0.629   0.886   3.717
 5486SOL    HW217358   0.714   0.747   3.716
 5487SOL     OW17359   5.897   4.787   0.141
 5487SOL    HW117360   5.959   4.810   0.066
 5487SOL    HW217361   5.887   4.688   0.147
 5488SOL     OW17362   5.025   1.816   6.581
 5488SOL    HW117363   5.035   1.894   6.642
 5488SOL    HW217364   4.985   1.846   6.494
 5489SOL     OW17365   1.427   4.808   2.720
 5489SOL    HW117366   1.383   4.839   2.636
 5489SOL    HW217367   1.374   4.734   2.761
 5490SOL     OW17368   2.287   1.655   0.671
 5490SOL    HW117369   2.292   1.736   0.613
 5490SOL    HW217370   2.354   1.587   0.640
 5491SOL     OW17371   1.000   4.595   0.843
 5491SOL    HW117372   1.044   4.544   0.769
 5491SOL    HW217373   1.043   4.684   0.853
 5492SOL     OW17374   0.817   1.176   6.464
 5492SOL    HW117375   0.907   1.198   6.501
 5492SOL    HW217376   0.793   1.243   6.393
 5493SOL     OW17377   3.630   3.827   6.956
 5493SOL    HW117378   3.631   3.754   0.003
 5493SOL    HW217379   3.675   3.795   6.872
 5494SOL     OW17380   5.539   3.367   1.390
 5494SOL    HW117381   5.485   3.381   1.307
 5494SOL    HW217382   5.565   3.455   1.429
 5495SOL     OW17383   3.846   3.587   2.612
 5495SOL    HW117384   3.933   3.558   2.652
 5495SOL    HW217385   3.779   3.603   2.684
 5496SOL     OW17386   3.638   6.124   1.429
 5496SOL    HW117387   3.642   6.029   1.399
 5496SOL    HW217388   3.576   6.132   1.507
 5497SOL     OW17389   0.027   0.997   2.090
 5497SOL    HW117390   0.057   1.091   2.076
 5497SOL    HW217391   0.045   0.943   2.008
 5498SOL     OW17392   4.791   1.245   5.828
 5498SOL    HW117393   4.852   1.302   5.774
 5498SOL    HW217394   4.732   1.303   5.884
 5499SOL     OW17395   6.870   1.541   2.970
 5499SOL    HW117396   6.921   1.625   2.989
 5499SOL    HW217397   6.916   1.490   2.897
 5500SOL     OW17398   1.745   5.834   1.287
 5500SOL    HW117399   1.722   5.797   1.197
 5500SOL    HW217400   1.838   5.807   1.313
 5501SOL     OW17401   3.138   0.817   2.028
 5501SOL    HW117402   3.091   0.795   2.113
 5501SOL    HW217403   3.110   0.907   1.996
 5502SOL     OW17404   5.827   3.811   5.958
 5502SOL    HW117405   5.824   3.800   6.058
 5502SOL    HW217406   5.799   3.726   5.914
 5503SOL     OW17407   1.260   5.109   3.329
 5503SOL    HW117408   1.324   5.136   3.401
 5503SOL    HW217409   1.253   5.182   3.261
 5504SOL     OW17410   3.038   1.673   4.502
 5504SOL    HW117411   3.044   1.706   4.596
 5504SOL    HW217412   3.043   1.573   4.501
 5505SOL     OW17413   3.615   5.595   6.076
 5505SOL    HW117414   3.672   5.513   6.069
 5505SOL    HW217415   3.604   5.636   5.985
 5506SOL     OW17416   5.955   0.681   5.698
 5506SOL    HW117417   5.894   0.719   5.628
 5506SOL    HW217418   5.904   0.670   5.784
 5507SOL     OW17419   2.330   6.462   3.838
 5507SOL    HW117420   2.415   6.509   3.815
 5507SOL    HW217421   2.315   6.467   3.937
 5508SOL     OW17422   3.203   0.862   6.318
 5508SOL    HW117423   3.119   0.811   6.305
 5508SOL    HW217424   3.198   0.949   6.269
 5509SOL     OW17425   6.050   6.535   6.695
 5509SOL    HW117426   6.012   6.449   6.728
 5509SOL    HW217427   6.120   6.516   6.627
 5510SOL     OW17428   5.626   6.867   6.149
 5510SOL    HW117429   5.712   6.891   6.195
 5510SOL    HW217430   5.582   6.950   6.114
 5511SOL     OW17431   0.788   0.901   2.454
 5511SOL    HW117432   0.829   0.927   2.367
 5511SOL    HW217433   0.790   0.801   2.464
 5512SOL     OW17434   0.982   0.652   6.565
 5512SOL    HW117435   0.929   0.567   6.569
 5512SOL    HW217436   1.078   0.633   6.585
 5513SOL     OW17437   4.749   4.234   4.593
 5513SOL    HW117438   4.701   4.156   4.554
 5513SOL    HW217439   4.847   4.215   4.599
 5514SOL     OW17440   5.217   4.766   1.843
 5514SOL    HW117441   5.145   4.833   1.826
 5514SOL    HW217442   5.185   4.697   1.907
 5515SOL     OW17443   6.769   2.490   2.104
 5515SOL    HW117444   6.712   2.553   2.051
 5515SOL    HW217445   6.853   2.537   2.132
 5516SOL     OW17446   1.233   3.373   6.738
 5516SOL    HW117447   1.151   3.335   6.783
 5516SOL    HW217448   1.210   3.460   6.696
 5517SOL     OW17449   2.824   1.493   1.589
 5517SOL    HW117450   2.864   1.551   1.517
 5517SOL    HW217451   2.897   1.461   1.649
 5518SOL     OW17452   6.038   4.796   5.204
 5518SOL    HW117453   5.964   4.731   5.219
 5518SOL    HW217454   6.098   4.763   5.131
 5519SOL     OW17455   5.349   3.818   3.824
 5519SOL    HW117456   5.314   3.755   3.755
 5519SOL    HW217457   5.386   3.766   3.901
 5520SOL     OW17458   0.972   4.255   2.083
 5520SOL    HW117459   0.980   4.164   2.124
 5520SOL    HW217460   1.043   4.315   2.121
 5521SOL     OW17461   5.839   5.442   1.681
 5521SOL    HW117462   5.819   5.446   1.583
 5521SOL    HW217463   5.839   5.535   1.718
 5522SOL     OW17464   2.581   3.493   1.731
 5522SOL    HW117465   2.573   3.581   1.684
 5522SOL    HW217466   2.498   3.475   1.784
 5523SOL     OW17467   3.144   0.243   2.607
 5523SOL    HW117468   3.214   0.293   2.556
 5523SOL    HW217469   3.163   0.251   2.705
 5524SOL     OW17470   6.879   4.670   6.302
 5524SOL    HW117471   6.933   4.672   6.386
 5524SOL    HW217472   6.940   4.682   6.223
 5525SOL     OW17473   6.509   5.473   5.823
 5525SOL    HW117474   6.536   5.528   5.902
 5525SOL    HW217475   6.561   5.501   5.743
 5526SOL     OW17476   6.536   3.485   4.294
 5526SOL    HW117477   6.447   3.443   4.310
 5526SOL    HW217478   6.568   3.529   4.378
 5527SOL     OW17479   1.867   2.873   1.622
 5527SOL    HW117480   1.926   2.821   1.559
 5527SOL    HW217481   1.772   2.868   1.590
 5528SOL     OW17482   0.275   3.091   4.515
 5528SOL    HW117483   0.368   3.090   4.551
 5528SOL    HW217484   0.267   3.162   4.445
 5529SOL     OW17485   2.252   1.023   4.911
 5529SOL    HW117486   2.311   1.041   4.832
 5529SOL    HW217487   2.168   0.980   4.880
 5530SOL     OW17488   0.386   2.229   0.154
 5530SOL    HW117489   0.484   2.234   0.134
 5530SOL    HW217490   0.361   2.305   0.214
 5531SOL     OW17491   4.019   2.769   5.586
 5531SOL    HW117492   3.953   2.844   5.598
 5531SOL    HW217493   4.026   2.747   5.489
 5532SOL     OW17494   2.507   1.505   0.662
 5532SOL    HW117495   2.565   1.529   0.583
 5532SOL    HW217496   2.564   1.497   0.744
 5533SOL     OW17497   3.904   1.026   1.863
 5533SOL    HW117498   3.921   1.077   1.948
 5533SOL    HW217499   3.852   0.943   1.884
 5534SOL     OW17500   0.528   3.912   6.540
 5534SOL    HW117501   0.443   3.883   6.496
 5534SOL    HW217502   0.510   3.937   6.635
 5535SOL     OW17503   6.631   2.807   2.846
 5535SOL    HW117504   6.631   2.788   2.944
 5535SOL    HW217505   6.694   2.745   2.800
 5536SOL     OW17506   2.414   1.170   4.380
 5536SOL    HW117507   2.488   1.134   4.437
 5536SOL    HW217508   2.363   1.095   4.339
 5537SOL     OW17509   4.432   0.135   5.252
 5537SOL    HW117510   4.530   0.125   5.238
 5537SOL    HW217511   4.407   0.231   5.243
 5538SOL     OW17512   3.847   1.625   6.488
 5538SOL    HW117513   3.763   1.643   6.538
 5538SOL    HW217514   3.852   1.527   6.466
 5539SOL     OW17515   2.490   0.175   1.950
 5539SOL    HW117516   2.539   0.117   1.884
 5539SOL    HW217517   2.417   0.224   1.903
 5540SOL     OW17518   5.055   1.957   6.838
 5540SOL    HW117519   5.077   1.918   6.927
 5540SOL    HW217520   4.969   2.008   6.844
 5541SOL     OW17521   4.509   3.733   6.328
 5541SOL    HW117522   4.424   3.726   6.381
 5541SOL    HW217523   4.517   3.824   6.288
 5542SOL     OW17524   5.724   4.210   6.253
 5542SOL    HW117525   5.743   4.304   6.226
 5542SOL    HW217526   5.767   4.191   6.342
 5543SOL     OW17527   1.919   0.172   1.317
 5543SOL    HW117528   2.001   0.225   1.293
 5543SOL    HW217529   1.838   0.229   1.307
 5544SOL     OW17530   4.649   5.437   6.284
 5544SOL    HW117531   4.715   5.406   6.215
 5544SOL    HW217532   4.560   5.394   6.267
 5545SOL     OW17533   4.484   0.902   2.661
 5545SOL    HW117534   4.471   0.997   2.686
 5545SOL    HW217535   4.396   0.855   2.657
 5546SOL     OW17536   0.214   6.405   4.695
 5546SOL    HW117537   0.258   6.460   4.766
 5546SOL    HW217538   0.201   6.311   4.729
 5547SOL     OW17539   5.153   1.596   5.947
 5547SOL    HW117540   5.248   1.567   5.937
 5547SOL    HW217541   5.146   1.695   5.932
 5548SOL     OW17542   0.168   3.733   5.525
 5548SOL    HW117543   0.208   3.643   5.542
 5548SOL    HW217544   0.082   3.723   5.476
 5549SOL     OW17545   4.217   3.764   1.642
 5549SOL    HW117546   4.303   3.735   1.600
 5549SOL    HW217547   4.198   3.707   1.721
 5550SOL     OW17548   1.855   4.422   3.034
 5550SOL    HW117549   1.810   4.338   3.004
 5550SOL    HW217550   1.851   4.490   2.961
 5551SOL     OW17551   2.146   5.274   3.253
 5551SOL    HW117552   2.186   5.212   3.185
 5551SOL    HW217553   2.188   5.258   3.342
 5552SOL     OW17554   6.997   6.719   6.170
 5552SOL    HW117555   6.996   6.741   6.267
 5552SOL    HW217556   0.066   6.739   6.132
 5553SOL     OW17557   4.997   0.479   6.810
 5553SOL    HW117558   4.981   0.476   6.711
 5553SOL    HW217559   5.052   0.401   6.837
 5554SOL     OW17560   5.158   3.077   0.361
 5554SOL    HW117561   5.232   3.126   0.406
 5554SOL    HW217562   5.072   3.095   0.408
 5555SOL     OW17563   1.249   4.134   3.045
 5555SOL    HW117564   1.298   4.216   3.075
 5555SOL    HW217565   1.151   4.146   3.063
 5556SOL     OW17566   6.231   0.980   4.206
 5556SOL    HW117567   6.305   0.997   4.141
 5556SOL    HW217568   6.254   1.020   4.295
 5557SOL     OW17569   3.333   5.899   1.926
 5557SOL    HW117570   3.408   5.899   1.993
 5557SOL    HW217571   3.354   5.834   1.853
 5558SOL     OW17572   3.383   4.303   0.374
 5558SOL    HW117573   3.422   4.351   0.452
 5558SOL    HW217574   3.285   4.287   0.390
 5559SOL     OW17575   0.897   0.304   3.134
 5559SOL    HW117576   0.968   0.316   3.064
 5559SOL    HW217577   0.819   0.363   3.113
 5560SOL     OW17578   0.139   5.843   3.127
 5560SOL    HW117579   0.047   5.876   3.106
 5560SOL    HW217580   0.159   5.859   3.224
 5561SOL     OW17581   2.716   0.958   5.013
 5561SOL    HW117582   2.659   1.039   5.023
 5561SOL    HW217583   2.671   0.880   5.056
 5562SOL     OW17584   4.333   4.324   0.058
 5562SOL    HW117585   4.427   4.356   0.065
 5562SOL    HW217586   4.310   4.271   0.140
 5563SOL     OW17587   3.250   4.968   2.643
 5563SOL    HW117588   3.191   5.021   2.704
 5563SOL    HW217589   3.334   4.943   2.692
 5564SOL     OW17590   5.063   6.750   5.646
 5564SOL    HW117591   5.121   6.777   5.723
 5564SOL    HW217592   5.008   6.671   5.672
 5565SOL     OW17593   3.891   3.602   0.588
 5565SOL    HW117594   3.950   3.554   0.523
 5565SOL    HW217595   3.880   3.546   0.670
 5566SOL     OW17596   1.104   4.193   0.406
 5566SOL    HW117597   1.180   4.180   0.342
 5566SOL    HW217598   1.058   4.280   0.387
 5567SOL     OW17599   6.506   3.383   2.093
 5567SOL    HW117600   6.519   3.478   2.122
 5567SOL    HW217601   6.451   3.382   2.009
 5568SOL     OW17602   4.127   6.511   2.891
 5568SOL    HW117603   4.046   6.566   2.907
 5568SOL    HW217604   4.209   6.567   2.904
 5569SOL     OW17605   2.586   1.782   3.592
 5569SOL    HW117606   2.553   1.836   3.515
 5569SOL    HW217607   2.617   1.844   3.665
 5570SOL     OW17608   6.225   3.596   3.200
 5570SOL    HW117609   6.237   3.646   3.286
 5570SOL    HW217610   6.128   3.578   3.184
 5571SOL     OW17611   6.359   5.213   2.181
 5571SOL    HW117612   6.289   5.197   2.250
 5571SOL    HW217613   6.323   5.275   2.110
 5572SOL     OW17614   1.780   4.461   4.962
 5572SOL    HW117615   1.703   4.524   4.953
 5572SOL    HW217616   1.851   4.484   4.896
 5573SOL     OW17617   1.455   5.346   5.373
 5573SOL    HW117618   1.551   5.342   5.349
 5573SOL    HW217619   1.438   5.289   5.454
 5574SOL     OW17620   0.763   2.871   6.710
 5574SOL    HW117621   0.852   2.865   6.664
 5574SOL    HW217622   0.769   2.827   6.799
 5575SOL     OW17623   0.605   0.223   1.688
 5575SOL    HW117624   0.572   0.318   1.691
 5575SOL    HW217625   0.607   0.185   1.780
 5576SOL     OW17626   1.778   4.139   3.274
 5576SOL    HW117627   1.845   4.208   3.244
 5576SOL    HW217628   1.765   4.071   3.202
 5577SOL     OW17629   1.627   3.266   0.152
 5577SOL    HW117630   1.569   3.343   0.126
 5577SOL    HW217631   1.580   3.181   0.131
 5578SOL     OW17632   3.563   3.868   2.794
 5578SOL    HW117633   3.480   3.856   2.848
 5578SOL    HW217634   3.606   3.955   2.816
 5579SOL     OW17635   0.239   3.324   1.232
 5579SOL    HW117636   0.226   3.328   1.331
 5579SOL    HW217637   0.241   3.229   1.203
 5580SOL     OW17638   5.138   1.866   5.945
 5580SOL    HW117639   5.211   1.932   5.964
 5580SOL    HW217640   5.065   1.877   6.013
 5581SOL     OW17641   1.237   1.774   1.561
 5581SOL    HW117642   1.273   1.683   1.581
 5581SOL    HW217643   1.307   1.828   1.513
 5582SOL     OW17644   2.558   3.910   6.830
 5582SOL    HW117645   2.489   3.983   6.828
 5582SOL    HW217646   2.513   3.822   6.815
 5583SOL     OW17647   4.468   0.636   2.367
 5583SOL    HW117648   4.422   0.636   2.278
 5583SOL    HW217649   4.471   0.543   2.403
 5584SOL     OW17650   6.141   4.058   4.366
 5584SOL    HW117651   6.220   4.108   4.400
 5584SOL    HW217652   6.057   4.109   4.387
 5585SOL     OW17653   4.934   4.606   2.976
 5585SOL    HW117654   4.874   4.533   3.008
 5585SOL    HW217655   4.938   4.679   3.045
 5586SOL     OW17656   6.652   3.613   5.716
 5586SOL    HW117657   6.563   3.618   5.672
 5586SOL    HW217658   6.710   3.688   5.685
 5587SOL     OW17659   4.925   0.434   0.058
 5587SOL    HW117660   4.886   0.345   0.038
 5587SOL    HW217661   4.978   0.466   7.001
 5588SOL     OW17662   2.326   6.772   2.866
 5588SOL    HW117663   2.292   6.801   2.776
 5588SOL    HW217664   2.286   6.830   2.937
 5589SOL     OW17665   5.929   4.431   6.758
 5589SOL    HW117666   6.022   4.466   6.744
 5589SOL    HW217667   5.932   4.356   6.824
 5590SOL     OW17668   5.698   6.334   3.665
 5590SOL    HW117669   5.629   6.298   3.728
 5590SOL    HW217670   5.787   6.334   3.710
 5591SOL     OW17671   0.342   1.850   1.455
 5591SOL    HW117672   0.409   1.802   1.398
 5591SOL    HW217673   0.300   1.786   1.519
 5592SOL     OW17674   1.607   5.112   3.323
 5592SOL    HW117675   1.545   5.116   3.245
 5592SOL    HW217676   1.671   5.189   3.318
 5593SOL     OW17677   0.267   2.858   6.709
 5593SOL    HW117678   0.197   2.895   6.648
 5593SOL    HW217679   0.350   2.839   6.657
 5594SOL     OW17680   4.985   0.373   4.949
 5594SOL    HW117681   4.888   0.384   4.970
 5594SOL    HW217682   5.016   0.451   4.893
 5595SOL     OW17683   1.251   2.042   5.188
 5595SOL    HW117684   1.223   2.005   5.100
 5595SOL    HW217685   1.337   1.998   5.216
 5596SOL     OW17686   3.929   6.679   2.913
 5596SOL    HW117687   3.840   6.660   2.870
 5596SOL    HW217688   3.914   6.714   3.005
 5597SOL     OW17689   5.125   2.518   4.417
 5597SOL    HW117690   5.093   2.609   4.442
 5597SOL    HW217691   5.177   2.523   4.331
 5598SOL     OW17692   4.880   3.220   4.078
 5598SOL    HW117693   4.851   3.127   4.055
 5598SOL    HW217694   4.977   3.231   4.057
 5599SOL     OW17695   1.201   0.774   4.186
 5599SOL    HW117696   1.218   0.675   4.177
 5599SOL    HW217697   1.161   0.792   4.276
 5600SOL     OW17698   0.900   2.132   2.685
 5600SOL    HW117699   0.935   2.039   2.669
 5600SOL    HW217700   0.828   2.128   2.755
 5601SOL     OW17701   2.927   0.169   5.719
 5601SOL    HW117702   2.976   0.138   5.801
 5601SOL    HW217703   2.830   0.178   5.739
 5602SOL     OW17704   0.543   1.723   0.908
 5602SOL    HW117705   0.552   1.788   0.983
 5602SOL    HW217706   0.494   1.642   0.940
 5603SOL     OW17707   5.091   2.250   7.003
 5603SOL    HW117708   5.183   2.238   6.965
 5603SOL    HW217709   5.095   2.304   0.066
 5604SOL     OW17710   6.953   2.136   5.867
 5604SOL    HW117711   6.927   2.051   5.912
 5604SOL    HW217712   6.871   2.189   5.844
 5605SOL     OW17713   0.727   1.076   4.632
 5605SOL    HW117714   0.697   1.170   4.617
 5605SOL    HW217715   0.728   1.057   4.730
 5606SOL     OW17716   5.810   6.480   1.076
 5606SOL    HW117717   5.889   6.532   1.109
 5606SOL    HW217718   5.805   6.488   0.976
 5607SOL     OW17719   5.401   0.602   2.218
 5607SOL    HW117720   5.462   0.622   2.294
 5607SOL    HW217721   5.308   0.590   2.252
 5608SOL     OW17722   4.348   0.309   4.555
 5608SOL    HW117723   4.343   0.277   4.650
 5608SOL    HW217724   4.319   0.404   4.550
 5609SOL     OW17725   2.237   5.212   0.523
 5609SOL    HW117726   2.320   5.267   0.536
 5609SOL    HW217727   2.173   5.231   0.597
 5610SOL     OW17728   5.031   6.932   0.712
 5610SOL    HW117729   4.951   6.972   0.757
 5610SOL    HW217730   5.114   6.970   0.751
 5611SOL     OW17731   2.096   4.682   2.481
 5611SOL    HW117732   2.038   4.761   2.460
 5611SOL    HW217733   2.150   4.702   2.564
 5612SOL     OW17734   3.851   1.995   6.463
 5612SOL    HW117735   3.950   1.984   6.447
 5612SOL    HW217736   3.806   2.019   6.378
 5613SOL     OW17737   4.786   3.999   2.971
 5613SOL    HW117738   4.824   3.947   2.895
 5613SOL    HW217739   4.859   4.032   3.030
 5614SOL     OW17740   4.304   2.362   3.567
 5614SOL    HW117741   4.367   2.285   3.577
 5614SOL    HW217742   4.344   2.431   3.507
 5615SOL     OW17743   0.637   0.561   6.108
 5615SOL    HW117744   0.659   0.550   6.205
 5615SOL    HW217745   0.538   0.571   6.098
 5616SOL     OW17746   2.266   0.709   5.386
 5616SOL    HW117747   2.355   0.723   5.430
 5616SOL    HW217748   2.266   0.753   5.297
 5617SOL     OW17749   2.905   6.927   6.255
 5617SOL    HW117750   2.980   6.883   6.305
 5617SOL    HW217751   2.909   0.004   6.269
 5618SOL     OW17752   6.568   3.615   4.529
 5618SOL    HW117753   6.595   3.555   4.604
 5618SOL    HW217754   6.647   3.670   4.500
 5619SOL     OW17755   2.754   3.963   6.370
 5619SOL    HW117756   2.810   4.029   6.319
 5619SOL    HW217757   2.805   3.878   6.381
 5620SOL     OW17758   3.545   3.203   0.861
 5620SOL    HW117759   3.551   3.168   0.768
 5620SOL    HW217760   3.637   3.231   0.892
 5621SOL     OW17761   1.445   2.116   5.976
 5621SOL    HW117762   1.384   2.044   6.007
 5621SOL    HW217763   1.437   2.126   5.877
 5622SOL     OW17764   4.107   6.821   5.753
 5622SOL    HW117765   4.148   6.746   5.805
 5622SOL    HW217766   4.174   6.860   5.691
 5623SOL     OW17767   1.810   6.409   6.279
 5623SOL    HW117768   1.798   6.317   6.241
 5623SOL    HW217769   1.905   6.437   6.266
 5624SOL     OW17770   1.141   4.460   3.016
 5624SOL    HW117771   1.161   4.517   2.936
 5624SOL    HW217772   1.226   4.440   3.064
 5625SOL     OW17773   5.911   2.313   4.106
 5625SOL    HW117774   5.820   2.341   4.075
 5625SOL    HW217775   5.910   2.298   4.204
 5626SOL     OW17776   2.733   6.488   4.773
 5626SOL    HW117777   2.677   6.420   4.820
 5626SOL    HW217778   2.799   6.527   4.836
 5627SOL     OW17779   1.047   5.844   0.851
 5627SOL    HW117780   1.143   5.866   0.870
 5627SOL    HW217781   1.023   5.760   0.899
 5628SOL     OW17782   1.605   2.183   6.206
 5628SOL    HW117783   1.600   2.111   6.275
 5628SOL    HW217784   1.520   2.184   6.152
 5629SOL     OW17785   3.615   3.930   1.772
 5629SOL    HW117786   3.540   3.864   1.765
 5629SOL    HW217787   3.693   3.897   1.720
 5630SOL     OW17788   1.082   5.161   0.746
 5630SOL    HW117789   1.087   5.194   0.651
 5630SOL    HW217790   0.991   5.124   0.763
 5631SOL     OW17791   4.451   1.619   6.945
 5631SOL    HW117792   4.538   1.607   6.897
 5631SOL    HW217793   4.376   1.592   6.885
 5632SOL     OW17794   3.906   3.266   6.064
 5632SOL    HW117795   3.886   3.302   5.973
 5632SOL    HW217796   3.862   3.324   6.133
 5633SOL     OW17797   6.193   2.077   3.542
 5633SOL    HW117798   6.098   2.064   3.513
 5633SOL    HW217799   6.245   2.123   3.470
 5634SOL     OW17800   2.900   5.933   5.563
 5634SOL    HW117801   2.820   5.896   5.516
 5634SOL    HW217802   2.953   5.990   5.499
 5635SOL     OW17803   2.121   3.307   5.004
 5635SOL    HW117804   2.024   3.329   5.014
 5635SOL    HW217805   2.131   3.212   4.972
 5636SOL     OW17806   3.547   6.125   2.508
 5636SOL    HW117807   3.646   6.142   2.517
 5636SOL    HW217808   3.503   6.206   2.471
 5637SOL     OW17809   5.373   0.001   3.829
 5637SOL    HW117810   5.341   0.079   3.775
 5637SOL    HW217811   5.311   6.945   3.816
 5638SOL     OW17812   5.232   3.464   0.861
 5638SOL    HW117813   5.161   3.425   0.803
 5638SOL    HW217814   5.238   3.562   0.845
 5639SOL     OW17815   0.151   1.413   0.375
 5639SOL    HW117816   0.083   1.340   0.366
 5639SOL    HW217817   0.104   1.501   0.379
 5640SOL     OW17818   2.828   0.573   4.242
 5640SOL    HW117819   2.851   0.523   4.159
 5640SOL    HW217820   2.911   0.586   4.297
 5641SOL     OW17821   0.066   4.664   6.071
 5641SOL    HW117822   0.009   4.601   6.018
 5641SOL    HW217823   0.152   4.619   6.095
 5642SOL     OW17824   1.798   6.767   0.493
 5642SOL    HW117825   1.847   6.785   0.579
 5642SOL    HW217826   1.853   6.706   0.436
 5643SOL     OW17827   5.363   1.675   4.839
 5643SOL    HW117828   5.288   1.623   4.799
 5643SOL    HW217829   5.448   1.624   4.828
 5644SOL     OW17830   3.105   6.664   5.229
 5644SOL    HW117831   3.083   6.762   5.222
 5644SOL    HW217832   3.202   6.651   5.213
 5645SOL     OW17833   6.204   3.713   3.505
 5645SOL    HW117834   6.122   3.737   3.453
 5645SOL    HW217835   6.285   3.750   3.459
 5646SOL     OW17836   2.143   4.920   3.150
 5646SOL    HW117837   2.139   4.850   3.079
 5646SOL    HW217838   2.188   4.883   3.231
 5647SOL     OW17839   5.132   6.348   1.784
 5647SOL    HW117840   5.044   6.330   1.740
 5647SOL    HW217841   5.186   6.264   1.787
 5648SOL     OW17842   2.484   5.889   2.795
 5648SOL    HW117843   2.518   5.796   2.781
 5648SOL    HW217844   2.560   5.954   2.787
 5649SOL     OW17845   0.977   6.658   4.106
 5649SOL    HW117846   1.070   6.621   4.098
 5649SOL    HW217847   0.933   6.620   4.187
 5650SOL     OW17848   0.334   4.866   0.440
 5650SOL    HW117849   0.342   4.775   0.482
 5650SOL    HW217850   0.412   4.922   0.467
 5651SOL     OW17851   1.637   0.235   0.965
 5651SOL    HW117852   1.613   0.242   0.868
 5651SOL    HW217853   1.566   0.278   1.020
 5652SOL     OW17854   0.089   5.579   2.140
 5652SOL    HW117855   0.001   5.541   2.167
 5652SOL    HW217856   0.153   5.505   2.118
 5653SOL     OW17857   0.468   6.202   0.680
 5653SOL    HW117858   0.563   6.195   0.648
 5653SOL    HW217859   0.460   6.277   0.745
 5654SOL     OW17860   1.166   6.022   4.974
 5654SOL    HW117861   1.187   5.992   5.067
 5654SOL    HW217862   1.070   6.001   4.953
 5655SOL     OW17863   6.349   3.030   4.052
 5655SOL    HW117864   6.434   3.070   4.018
 5655SOL    HW217865   6.347   2.933   4.028
 5656SOL     OW17866   6.763   3.293   6.682
 5656SOL    HW117867   6.746   3.243   6.597
 5656SOL    HW217868   6.843   3.352   6.671
 5657SOL     OW17869   4.654   4.469   4.563
 5657SOL    HW117870   4.694   4.378   4.570
 5657SOL    HW217871   4.604   4.491   4.647
 5658SOL     OW17872   1.791   2.822   6.040
 5658SOL    HW117873   1.804   2.919   6.059
 5658SOL    HW217874   1.814   2.769   6.121
 5659SOL     OW17875   3.278   3.539   6.370
 5659SOL    HW117876   3.213   3.561   6.442
 5659SOL    HW217877   3.369   3.526   6.410
 5660SOL     OW17878   4.658   6.747   6.836
 5660SOL    HW117879   4.669   6.658   6.879
 5660SOL    HW217880   4.684   6.742   6.740
 5661SOL     OW17881   0.584   5.607   6.002
 5661SOL    HW117882   0.581   5.702   6.031
 5661SOL    HW217883   0.657   5.559   6.051
 5662SOL     OW17884   2.441   6.546   2.757
 5662SOL    HW117885   2.520   6.574   2.703
 5662SOL    HW217886   2.399   6.626   2.799
 5663SOL     OW17887   1.400   2.395   1.129
 5663SOL    HW117888   1.400   2.449   1.213
 5663SOL    HW217889   1.462   2.436   1.062
 5664SOL     OW17890   5.177   4.151   4.306
 5664SOL    HW117891   5.224   4.237   4.290
 5664SOL    HW217892   5.078   4.164   4.297
 5665SOL     OW17893   1.447   6.806   0.628
 5665SOL    HW117894   1.352   6.812   0.600
 5665SOL    HW217895   1.505   6.797   0.547
 5666SOL     OW17896   5.801   1.056   4.134
 5666SOL    HW117897   5.817   1.012   4.045
 5666SOL    HW217898   5.881   1.111   4.159
 5667SOL     OW17899   1.764   4.929   4.507
 5667SOL    HW117900   1.728   4.933   4.414
 5667SOL    HW217901   1.814   4.843   4.519
 5668SOL     OW17902   6.238   2.616   2.574
 5668SOL    HW117903   6.225   2.702   2.525
 5668SOL    HW217904   6.183   2.616   2.657
 5669SOL     OW17905   5.925   4.180   6.954
 5669SOL    HW117906   5.985   4.200   0.010
 5669SOL    HW217907   5.830   4.175   6.986
 5670SOL     OW17908   1.423   3.295   2.659
 5670SOL    HW117909   1.360   3.287   2.582
 5670SOL    HW217910   1.411   3.385   2.702
 5671SOL     OW17911   6.450   5.834   4.106
 5671SOL    HW117912   6.369   5.785   4.073
 5671SOL    HW217913   6.425   5.891   4.185
 5672SOL     OW17914   4.688   3.949   5.220
 5672SOL    HW117915   4.624   4.022   5.243
 5672SOL    HW217916   4.700   3.889   5.299
 5673SOL     OW17917   0.694   6.984   1.556
 5673SOL    HW117918   0.612   6.935   1.527
 5673SOL    HW217919   0.669   0.056   1.582
 5674SOL     OW17920   1.958   4.759   4.551
 5674SOL    HW117921   2.023   4.718   4.487
 5674SOL    HW217922   1.958   4.707   4.637
 5675SOL     OW17923   3.312   1.095   0.103
 5675SOL    HW117924   3.279   1.058   0.016
 5675SOL    HW217925   3.264   1.181   0.122
 5676SOL     OW17926   3.160   2.519   1.691
 5676SOL    HW117927   3.142   2.437   1.635
 5676SOL    HW217928   3.116   2.509   1.780
 5677SOL     OW17929   7.018   0.703   0.878
 5677SOL    HW117930   0.029   0.781   0.931
 5677SOL    HW217931   6.919   0.710   0.864
 5678SOL     OW17932   3.516   1.779   2.113
 5678SOL    HW117933   3.446   1.836   2.157
 5678SOL    HW217934   3.583   1.751   2.182
 5679SOL     OW17935   6.025   2.330   4.658
 5679SOL    HW117936   5.986   2.396   4.722
 5679SOL    HW217937   5.979   2.242   4.669
 5680SOL     OW17938   1.433   5.211   5.637
 5680SOL    HW117939   1.487   5.127   5.633
 5680SOL    HW217940   1.379   5.212   5.721
 5681SOL     OW17941   0.709   3.648   2.809
 5681SOL    HW117942   0.765   3.699   2.875
 5681SOL    HW217943   0.755   3.562   2.786
 5682SOL     OW17944   2.752   5.362   2.449
 5682SOL    HW117945   2.758   5.458   2.422
 5682SOL    HW217946   2.806   5.349   2.533
 5683SOL     OW17947   3.987   2.514   6.395
 5683SOL    HW117948   4.084   2.508   6.373
 5683SOL    HW217949   3.976   2.539   6.491
 5684SOL     OW17950   2.232   3.554   5.969
 5684SOL    HW117951   2.167   3.587   6.037
 5684SOL    HW217952   2.184   3.529   5.885
 5685SOL     OW17953   1.998   2.577   3.935
 5685SOL    HW117954   1.906   2.606   3.910
 5685SOL    HW217955   2.046   2.653   3.979
 5686SOL     OW17956   3.228   0.935   5.910
 5686SOL    HW117957   3.300   0.986   5.957
 5686SOL    HW217958   3.252   0.927   5.813
 5687SOL     OW17959   0.832   6.062   5.222
 5687SOL    HW117960   0.914   6.016   5.187
 5687SOL    HW217961   0.756   5.998   5.224
 5688SOL     OW17962   2.161   3.830   3.330
 5688SOL    HW117963   2.098   3.756   3.354
 5688SOL    HW217964   2.197   3.815   3.238
 5689SOL     OW17965   1.448   0.923   0.820
 5689SOL    HW117966   1.410   0.837   0.785
 5689SOL    HW217967   1.377   0.972   0.871
 5690SOL     OW17968   0.671   5.390   0.017
 5690SOL    HW117969   0.585   5.368   0.064
 5690SOL    HW217970   0.662   5.480   6.994
 5691SOL     OW17971   3.692   1.170   2.307
 5691SOL    HW117972   3.646   1.093   2.261
 5691SOL    HW217973   3.623   1.234   2.339
 5692SOL     OW17974   5.217   5.296   1.049
 5692SOL    HW117975   5.259   5.214   1.008
 5692SOL    HW217976   5.287   5.347   1.100
 5693SOL     OW17977   4.114   0.735   0.574
 5693SOL    HW117978   4.087   0.776   0.487
 5693SOL    HW217979   4.157   0.646   0.556
 5694SOL     OW17980   0.404   0.588   2.831
 5694SOL    HW117981   0.408   0.658   2.903
 5694SOL    HW217982   0.488   0.591   2.776
 5695SOL     OW17983   1.249   1.009   1.883
 5695SOL    HW117984   1.205   1.083   1.933
 5695SOL    HW217985   1.180   0.940   1.860
 5696SOL     OW17986   1.552   0.513   4.006
 5696SOL    HW117987   1.532   0.456   3.927
 5696SOL    HW217988   1.649   0.507   4.029
 5697SOL     OW17989   6.254   2.948   1.640
 5697SOL    HW117990   6.214   2.864   1.603
 5697SOL    HW217991   6.347   2.929   1.672
 5698SOL     OW17992   1.508   3.431   3.329
 5698SOL    HW117993   1.432   3.458   3.270
 5698SOL    HW217994   1.480   3.354   3.386
 5699SOL     OW17995   1.992   2.778   3.363
 5699SOL    HW117996   1.893   2.791   3.371
 5699SOL    HW217997   2.027   2.735   3.446
 5700SOL     OW17998   0.414   0.565   2.003
 5700SOL    HW117999   0.423   0.529   2.095
 5700SOL    HW218000   0.420   0.665   2.005
 5701SOL     OW18001   6.441   1.034   0.993
 5701SOL    HW118002   6.425   1.133   0.991
 5701SOL    HW218003   6.496   1.008   0.914
 5702SOL     OW18004   1.588   6.801   4.275
 5702SOL    HW118005   1.507   6.750   4.304
 5702SOL    HW218006   1.563   6.868   4.206
 5703SOL     OW18007   0.227   3.651   6.162
 5703SOL    HW118008   0.172   3.617   6.239
 5703SOL    HW218009   0.264   3.741   6.186
 5704SOL     OW18010   5.558   3.956   3.676
 5704SOL    HW118011   5.537   4.049   3.648
 5704SOL    HW218012   5.474   3.910   3.704
 5705SOL     OW18013   6.043   6.320   5.985
 5705SOL    HW118014   6.134   6.283   5.967
 5705SOL    HW218015   5.998   6.342   5.899
 5706SOL     OW18016   5.877   2.834   0.248
 5706SOL    HW118017   5.931   2.855   0.330
 5706SOL    HW218018   5.793   2.786   0.275
 5707SOL     OW18019   5.011   6.937   1.402
 5707SOL    HW118020   4.954   6.899   1.329
 5707SOL    HW218021   4.990   0.013   1.413
 5708SOL     OW18022   4.706   5.605   3.535
 5708SOL    HW118023   4.751   5.516   3.548
 5708SOL    HW218024   4.713   5.658   3.619
 5709SOL     OW18025   1.656   1.001   1.977
 5709SOL    HW118026   1.611   1.090   1.966
 5709SOL    HW218027   1.621   0.957   2.060
 5710SOL     OW18028   2.713   2.785   0.473
 5710SOL    HW118029   2.645   2.714   0.456
 5710SOL    HW218030   2.696   2.828   0.561
 5711SOL     OW18031   5.065   0.583   1.454
 5711SOL    HW118032   5.114   0.657   1.409
 5711SOL    HW218033   4.994   0.549   1.392
 5712SOL     OW18034   0.044   6.332   1.473
 5712SOL    HW118035   0.124   6.336   1.533
 5712SOL    HW218036   0.053   6.255   1.410
 5713SOL     OW18037   2.530   5.845   0.668
 5713SOL    HW118038   2.585   5.902   0.607
 5713SOL    HW218039   2.578   5.831   0.754
 5714SOL     OW18040   6.340   5.778   1.460
 5714SOL    HW118041   6.379   5.686   1.466
 5714SOL    HW218042   6.381   5.837   1.530
 5715SOL     OW18043   0.798   6.606   1.280
 5715SOL    HW118044   0.750   6.621   1.366
 5715SOL    HW218045   0.736   6.624   1.204
 5716SOL     OW18046   0.748   4.924   6.132
 5716SOL    HW118047   0.660   4.965   6.106
 5716SOL    HW218048   0.798   4.986   6.192
 5717SOL     OW18049   1.972   5.025   2.810
 5717SOL    HW118050   1.935   5.105   2.858
 5717SOL    HW218051   2.007   5.053   2.721
 5718SOL     OW18052   0.804   2.832   0.686
 5718SOL    HW118053   0.803   2.732   0.681
 5718SOL    HW218054   0.894   2.863   0.715
 5719SOL     OW18055   3.135   3.393   1.469
 5719SOL    HW118056   3.197   3.328   1.426
 5719SOL    HW218057   3.071   3.344   1.528
 5720SOL     OW18058   2.384   5.634   5.971
 5720SOL    HW118059   2.344   5.722   5.943
 5720SOL    HW218060   2.463   5.614   5.913
 5721SOL     OW18061   5.253   4.061   6.780
 5721SOL    HW118062   5.200   4.132   6.826
 5721SOL    HW218063   5.295   4.100   6.697
 5722SOL     OW18064   0.635   0.968   5.259
 5722SOL    HW118065   0.688   0.993   5.341
 5722SOL    HW218066   0.552   0.920   5.286
 5723SOL     OW18067   4.058   3.446   0.041
 5723SOL    HW118068   4.011   3.437   6.974
 5723SOL    HW218069   4.154   3.468   0.026
 5724SOL     OW18070   5.619   2.467   3.021
 5724SOL    HW118071   5.690   2.404   3.054
 5724SOL    HW218072   5.554   2.486   3.095
 5725SOL     OW18073   5.242   4.924   3.135
 5725SOL    HW118074   5.185   4.948   3.214
 5725SOL    HW218075   5.191   4.940   3.051
 5726SOL     OW18076   4.868   3.830   3.208
 5726SOL    HW118077   4.810   3.905   3.175
 5726SOL    HW218078   4.899   3.851   3.301
 5727SOL     OW18079   1.201   2.592   4.345
 5727SOL    HW118080   1.163   2.682   4.322
 5727SOL    HW218081   1.261   2.561   4.272
 5728SOL     OW18082   4.583   5.736   5.329
 5728SOL    HW118083   4.533   5.822   5.339
 5728SOL    HW218084   4.615   5.705   5.418
 5729SOL     OW18085   2.053   2.386   6.164
 5729SOL    HW118086   1.990   2.424   6.232
 5729SOL    HW218087   2.045   2.436   6.078
 5730SOL     OW18088   6.849   4.067   5.648
 5730SOL    HW118089   6.916   4.112   5.589
 5730SOL    HW218090   6.881   4.071   5.743
 5731SOL     OW18091   0.122   6.611   1.563
 5731SOL    HW118092   0.076   6.632   1.649
 5731SOL    HW218093   0.057   6.615   1.488
 5732SOL     OW18094   1.311   6.637   4.487
 5732SOL    HW118095   1.379   6.679   4.547
 5732SOL    HW218096   1.326   6.666   4.393
 5733SOL     OW18097   3.659   6.828   5.149
 5733SOL    HW118098   3.583   6.886   5.120
 5733SOL    HW218099   3.701   6.786   5.068
 5734SOL     OW18100   1.518   6.468   3.507
 5734SOL    HW118101   1.473   6.453   3.419
 5734SOL    HW218102   1.527   6.567   3.524
 5735SOL     OW18103   3.172   1.067   1.444
 5735SOL    HW118104   3.087   1.109   1.412
 5735SOL    HW218105   3.235   1.139   1.474
 5736SOL     OW18106   0.924   5.616   6.556
 5736SOL    HW118107   0.937   5.518   6.538
 5736SOL    HW218108   0.834   5.631   6.595
 5737SOL     OW18109   4.954   4.663   6.463
 5737SOL    HW118110   5.018   4.700   6.531
 5737SOL    HW218111   4.912   4.739   6.412
 5738SOL     OW18112   1.661   3.708   6.680
 5738SOL    HW118113   1.729   3.742   6.615
 5738SOL    HW218114   1.574   3.694   6.632
 5739SOL     OW18115   1.747   1.198   0.656
 5739SOL    HW118116   1.710   1.148   0.579
 5739SOL    HW218117   1.729   1.148   0.741
 5740SOL     OW18118   4.157   5.661   6.753
 5740SOL    HW118119   4.083   5.673   6.820
 5740SOL    HW218120   4.129   5.701   6.666
 5741SOL     OW18121   6.789   5.714   4.664
 5741SOL    HW118122   6.864   5.648   4.665
 5741SOL    HW218123   6.821   5.803   4.695
 5742SOL     OW18124   6.451   6.806   2.662
 5742SOL    HW118125   6.406   6.720   2.687
 5742SOL    HW218126   6.407   6.844   2.581
 5743SOL     OW18127   2.212   6.846   4.514
 5743SOL    HW118128   2.277   6.785   4.560
 5743SOL    HW218129   2.119   6.814   4.531
 5744SOL     OW18130   5.693   0.456   0.043
 5744SOL    HW118131   5.736   0.389   7.002
 5744SOL    HW218132   5.661   0.409   0.125
 5745SOL     OW18133   1.980   2.231   4.708
 5745SOL    HW118134   1.908   2.264   4.648
 5745SOL    HW218135   1.940   2.199   4.794
 5746SOL     OW18136   4.619   2.129   0.103
 5746SOL    HW118137   4.580   2.041   0.076
 5746SOL    HW218138   4.547   2.196   0.117
 5747SOL     OW18139   0.329   5.575   3.224
 5747SOL    HW118140   0.405   5.633   3.193
 5747SOL    HW218141   0.321   5.579   3.323
 5748SOL     OW18142   1.899   6.106   2.246
 5748SOL    HW118143   1.831   6.171   2.279
 5748SOL    HW218144   1.856   6.041   2.184
 5749SOL     OW18145   2.445   2.591   3.364
 5749SOL    HW118146   2.360   2.545   3.392
 5749SOL    HW218147   2.428   2.646   3.283
 5750SOL     OW18148   5.825   5.482   3.309
 5750SOL    HW118149   5.857   5.394   3.273
 5750SOL    HW218150   5.726   5.478   3.322
 5751SOL     OW18151   2.482   3.482   5.504
 5751SOL    HW118152   2.455   3.444   5.592
 5751SOL    HW218153   2.483   3.410   5.435
 5752SOL     OW18154   0.039   6.838   6.448
 5752SOL    HW118155   0.108   6.882   6.390
 5752SOL    HW218156   6.971   6.879   6.431
 5753SOL     OW18157   3.449   2.560   0.117
 5753SOL    HW118158   3.393   2.551   0.200
 5753SOL    HW218159   3.491   2.650   0.114
 5754SOL     OW18160   6.227   5.167   1.585
 5754SOL    HW118161   6.239   5.142   1.489
 5754SOL    HW218162   6.134   5.200   1.599
 5755SOL     OW18163   2.737   4.248   6.967
 5755SOL    HW118164   2.753   4.156   7.005
 5755SOL    HW218165   2.677   4.299   0.007
 5756SOL     OW18166   6.871   5.135   3.642
 5756SOL    HW118167   6.921   5.057   3.680
 5756SOL    HW218168   6.776   5.131   3.673
 5757SOL     OW18169   6.660   5.167   0.754
 5757SOL    HW118170   6.566   5.179   0.786
 5757SOL    HW218171   6.686   5.244   0.695
 5758SOL     OW18172   1.668   2.834   5.280
 5758SOL    HW118173   1.759   2.855   5.246
 5758SOL    HW218174   1.624   2.768   5.219
 5759SOL     OW18175   5.300   1.765   6.619
 5759SOL    HW118176   5.209   1.793   6.588
 5759SOL    HW218177   5.369   1.829   6.585
 5760SOL     OW18178   1.484   5.478   2.396
 5760SOL    HW118179   1.573   5.524   2.386
 5760SOL    HW218180   1.482   5.397   2.337
 5761SOL     OW18181   4.488   6.960   4.590
 5761SOL    HW118182   4.567   6.901   4.571
 5761SOL    HW218183   4.405   6.905   4.596
 5762SOL     OW18184   5.501   6.382   1.719
 5762SOL    HW118185   5.538   6.438   1.794
 5762SOL    HW218186   5.440   6.437   1.662
 5763SOL     OW18187   1.546   0.783   1.046
 5763SOL    HW118188   1.469   0.719   1.048
 5763SOL    HW218189   1.535   0.844   0.967
 5764SOL     OW18190   5.052   3.994   5.686
 5764SOL    HW118191   5.009   3.914   5.727
 5764SOL    HW218192   5.000   4.023   5.606
 5765SOL     OW18193   5.539   4.183   6.732
 5765SOL    HW118194   5.536   4.097   6.680
 5765SOL    HW218195   5.583   4.166   6.820
 5766SOL     OW18196   2.923   2.181   2.609
 5766SOL    HW118197   2.862   2.200   2.532
 5766SOL    HW218198   2.875   2.126   2.677
 5767SOL     OW18199   0.079   0.019   1.242
 5767SOL    HW118200   0.065   6.944   1.215
 5767SOL    HW218201   0.064   0.028   1.340
 5768SOL     OW18202   6.773   1.942   2.653
 5768SOL    HW118203   6.715   1.937   2.735
 5768SOL    HW218204   6.721   1.913   2.573
 5769SOL     OW18205   2.466   5.891   4.168
 5769SOL    HW118206   2.378   5.934   4.187
 5769SOL    HW218207   2.524   5.895   4.249
 5770SOL     OW18208   6.458   0.343   1.505
 5770SOL    HW118209   6.496   0.266   1.452
 5770SOL    HW218210   6.418   0.308   1.589
 5771SOL     OW18211   1.613   1.285   1.077
 5771SOL    HW118212   1.540   1.348   1.104
 5771SOL    HW218213   1.672   1.267   1.156
 5772SOL     OW18214   5.177   3.571   0.274
 5772SOL    HW118215   5.129   3.551   0.189
 5772SOL    HW218216   5.147   3.506   0.344
 5773SOL     OW18217   5.395   5.723   4.798
 5773SOL    HW118218   5.452   5.679   4.868
 5773SOL    HW218219   5.314   5.667   4.781
 5774SOL     OW18220   1.920   5.717   3.914
 5774SOL    HW118221   1.863   5.739   3.835
 5774SOL    HW218222   2.015   5.740   3.895
 5775SOL     OW18223   0.564   6.651   5.792
 5775SOL    HW118224   0.648   6.629   5.840
 5775SOL    HW218225   0.573   6.740   5.747
 5776SOL     OW18226   4.736   6.816   5.984
 5776SOL    HW118227   4.781   6.890   5.935
 5776SOL    HW218228   4.805   6.758   6.028
 5777SOL     OW18229   0.015   0.923   4.746
 5777SOL    HW118230   6.977   0.942   4.667
 5777SOL    HW218231   0.095   0.872   4.715
 5778SOL     OW18232   1.242   6.890   3.527
 5778SOL    HW118233   1.319   6.827   3.527
 5778SOL    HW218234   1.232   6.931   3.618
 5779SOL     OW18235   3.954   1.114   2.155
 5779SOL    HW118236   4.008   1.175   2.212
 5779SOL    HW218237   3.863   1.104   2.195
 5780SOL     OW18238   6.467   3.871   2.026
 5780SOL    HW118239   6.478   3.880   1.927
 5780SOL    HW218240   6.374   3.897   2.052
 5781SOL     OW18241   1.841   5.107   4.796
 5781SOL    HW118242   1.758   5.058   4.772
 5781SOL    HW218243   1.829   5.151   4.885
 5782SOL     OW18244   2.827   1.346   2.611
 5782SOL    HW118245   2.849   1.253   2.643
 5782SOL    HW218246   2.903   1.407   2.632
 5783SOL     OW18247   1.173   0.559   1.272
 5783SOL    HW118248   1.225   0.551   1.357
 5783SOL    HW218249   1.234   0.591   1.199
 5784SOL     OW18250   1.095   6.544   0.559
 5784SOL    HW118251   1.130   6.520   0.650
 5784SOL    HW218252   1.117   6.639   0.539
 5785SOL     OW18253   1.574   2.102   0.018
 5785SOL    HW118254   1.665   2.078   7.006
 5785SOL    HW218255   1.537   2.178   6.985
 5786SOL     OW18256   1.374   3.191   1.718
 5786SOL    HW118257   1.362   3.237   1.806
 5786SOL    HW218258   1.376   3.259   1.644
 5787SOL     OW18259   6.336   2.788   4.969
 5787SOL    HW118260   6.260   2.786   4.903
 5787SOL    HW218261   6.376   2.697   4.976
 5788SOL     OW18262   2.824   1.575   2.361
 5788SOL    HW118263   2.810   1.671   2.385
 5788SOL    HW218264   2.804   1.518   2.441
 5789SOL     OW18265   4.232   4.071   6.412
 5789SOL    HW118266   4.135   4.060   6.391
 5789SOL    HW218267   4.286   4.024   6.343
 5790SOL     OW18268   5.532   5.386   4.482
 5790SOL    HW118269   5.543   5.478   4.519
 5790SOL    HW218270   5.619   5.356   4.442
 5791SOL     OW18271   4.013   1.441   2.964
 5791SOL    HW118272   4.048   1.494   2.887
 5791SOL    HW218273   4.088   1.413   3.023
 5792SOL     OW18274   4.860   3.148   2.715
 5792SOL    HW118275   4.837   3.065   2.765
 5792SOL    HW218276   4.843   3.134   2.617
 5793SOL     OW18277   5.116   2.033   5.711
 5793SOL    HW118278   5.127   1.964   5.782
 5793SOL    HW218279   5.076   1.992   5.629
 5794SOL     OW18280   4.488   0.517   0.104
 5794SOL    HW118281   4.517   0.439   0.048
 5794SOL    HW218282   4.389   0.514   0.116
 5795SOL     OW18283   1.750   5.853   1.655
 5795SOL    HW118284   1.687   5.931   1.662
 5795SOL    HW218285   1.697   5.768   1.652
 5796SOL     OW18286   4.456   2.520   6.449
 5796SOL    HW118287   4.520   2.444   6.463
 5796SOL    HW218288   4.507   2.604   6.436
 5797SOL     OW18289   4.898   2.577   0.615
 5797SOL    HW118290   4.863   2.483   0.613
 5797SOL    HW218291   4.909   2.607   0.710
 5798SOL     OW18292   1.434   3.830   5.460
 5798SOL    HW118293   1.450   3.929   5.461
 5798SOL    HW218294   1.337   3.813   5.443
 5799SOL     OW18295   2.285   6.903   3.525
 5799SOL    HW118296   2.253   6.809   3.520
 5799SOL    HW218297   2.228   6.954   3.590
 5800SOL     OW18298   0.903   6.835   0.613
 5800SOL    HW118299   1.002   6.841   0.604
 5800SOL    HW218300   0.880   6.769   0.685
 5801SOL     OW18301   1.764   1.616   2.831
 5801SOL    HW118302   1.745   1.629   2.928
 5801SOL    HW218303   1.678   1.622   2.779
 5802SOL     OW18304   0.310   1.548   2.094
 5802SOL    HW118305   0.213   1.552   2.116
 5802SOL    HW218306   0.334   1.627   2.036
 5803SOL     OW18307   0.288   5.328   4.067
 5803SOL    HW118308   0.331   5.414   4.039
 5803SOL    HW218309   0.287   5.322   4.167
 5804SOL     OW18310   6.192   1.544   3.780
 5804SOL    HW118311   6.194   1.508   3.873
 5804SOL    HW218312   6.264   1.612   3.769
 5805SOL     OW18313   2.523   2.582   1.779
 5805SOL    HW118314   2.512   2.681   1.779
 5805SOL    HW218315   2.489   2.544   1.865
 5806SOL     OW18316   0.413   4.154   2.263
 5806SOL    HW118317   0.456   4.223   2.205
 5806SOL    HW218318   0.328   4.191   2.301
 5807SOL     OW18319   0.800   0.091   0.705
 5807SOL    HW118320   0.778   0.011   0.649
 5807SOL    HW218321   0.870   0.065   0.772
 5808SOL     OW18322   6.661   0.051   5.198
 5808SOL    HW118323   6.712   0.049   5.283
 5808SOL    HW218324   6.675   0.139   5.153
 5809SOL     OW18325   0.523   2.427   5.574
 5809SOL    HW118326   0.592   2.358   5.551
 5809SOL    HW218327   0.537   2.508   5.517
 5810SOL     OW18328   3.890   6.785   5.569
 5810SOL    HW118329   3.982   6.794   5.607
 5810SOL    HW218330   3.895   6.792   5.469
 5811SOL     OW18331   3.013   3.705   6.036
 5811SOL    HW118332   2.939   3.690   5.970
 5811SOL    HW218333   3.082   3.632   6.025
 5812SOL     OW18334   5.593   2.643   0.520
 5812SOL    HW118335   5.562   2.625   0.426
 5812SOL    HW218336   5.533   2.710   0.563
 5813SOL     OW18337   5.112   6.496   0.816
 5813SOL    HW118338   5.136   6.401   0.799
 5813SOL    HW218339   5.099   6.511   0.914
 5814SOL     OW18340   4.666   1.900   1.606
 5814SOL    HW118341   4.728   1.851   1.667
 5814SOL    HW218342   4.599   1.951   1.659
 5815SOL     OW18343   6.175   1.544   4.400
 5815SOL    HW118344   6.091   1.595   4.417
 5815SOL    HW218345   6.153   1.460   4.350
 5816SOL     OW18346   0.757   3.725   2.535
 5816SOL    HW118347   0.757   3.697   2.631
 5816SOL    HW218348   0.802   3.656   2.480
 5817SOL     OW18349   5.943   3.767   3.351
 5817SOL    HW118350   5.860   3.817   3.327
 5817SOL    HW218351   5.947   3.682   3.299
 5818SOL     OW18352   2.229   6.739   5.520
 5818SOL    HW118353   2.300   6.785   5.575
 5818SOL    HW218354   2.207   6.796   5.441
 5819SOL     OW18355   4.476   5.202   0.059
 5819SOL    HW118356   4.492   5.249   0.146
 5819SOL    HW218357   4.553   5.143   0.038
 5820SOL     OW18358   6.031   5.460   2.445
 5820SOL    HW118359   6.007   5.449   2.348
 5820SOL    HW218360   5.966   5.411   2.502
 5821SOL     OW18361   6.990   0.505   1.092
 5821SOL    HW118362   7.011   0.580   1.031
 5821SOL    HW218363   6.905   0.524   1.142
 5822SOL     OW18364   1.750   3.081   2.500
 5822SOL    HW118365   1.665   3.031   2.481
 5822SOL    HW218366   1.809   3.025   2.559
 5823SOL     OW18367   2.126   5.637   4.197
 5823SOL    HW118368   2.037   5.637   4.242
 5823SOL    HW218369   2.173   5.551   4.216
 5824SOL     OW18370   0.879   0.263   1.842
 5824SOL    HW118371   0.960   0.206   1.852
 5824SOL    HW218372   0.797   0.208   1.859
 5825SOL     OW18373   5.892   0.082   4.394
 5825SOL    HW118374   5.834   0.013   4.351
 5825SOL    HW218375   5.946   0.129   4.324
 5826SOL     OW18376   0.541   0.180   4.493
 5826SOL    HW118377   0.525   0.251   4.562
 5826SOL    HW218378   0.562   0.223   4.406
 5827SOL     OW18379   2.460   4.614   4.849
 5827SOL    HW118380   2.405   4.539   4.813
 5827SOL    HW218381   2.413   4.656   4.926
 5828SOL     OW18382   3.983   6.766   4.549
 5828SOL    HW118383   3.913   6.695   4.555
 5828SOL    HW218384   3.950   6.840   4.490
 5829SOL     OW18385   2.258   1.234   3.977
 5829SOL    HW118386   2.311   1.171   3.921
 5829SOL    HW218387   2.319   1.285   4.037
 5830SOL     OW18388   3.394   5.480   4.684
 5830SOL    HW118389   3.314   5.539   4.695
 5830SOL    HW218390   3.413   5.466   4.587
 5831SOL     OW18391   1.583   2.316   5.579
 5831SOL    HW118392   1.681   2.299   5.576
 5831SOL    HW218393   1.547   2.319   5.486
 5832SOL     OW18394   2.931   4.774   1.093
 5832SOL    HW118395   2.943   4.853   1.153
 5832SOL    HW218396   2.834   4.754   1.083
 5833SOL     OW18397   3.768   4.204   6.385
 5833SOL    HW118398   3.741   4.142   6.458
 5833SOL    HW218399   3.691   4.263   6.360
 5834SOL     OW18400   5.442   3.021   6.138
 5834SOL    HW118401   5.491   2.941   6.103
 5834SOL    HW218402   5.487   3.055   6.220
 5835SOL     OW18403   5.340   0.888   2.181
 5835SOL    HW118404   5.357   0.801   2.134
 5835SOL    HW218405   5.407   0.956   2.152
 5836SOL     OW18406   4.857   0.094   3.016
 5836SOL    HW118407   4.951   0.118   2.994
 5836SOL    HW218408   4.851   0.068   3.112
 5837SOL     OW18409   3.213   4.815   0.181
 5837SOL    HW118410   3.232   4.739   0.118
 5837SOL    HW218411   3.141   4.789   0.245
 5838SOL     OW18412   2.996   2.049   0.716
 5838SOL    HW118413   2.929   2.009   0.779
 5838SOL    HW218414   3.033   1.977   0.657
 5839SOL     OW18415   2.273   1.787   0.912
 5839SOL    HW118416   2.183   1.764   0.949
 5839SOL    HW218417   2.287   1.741   0.825
 5840SOL     OW18418   1.148   3.298   3.148
 5840SOL    HW118419   1.068   3.304   3.209
 5840SOL    HW218420   1.203   3.380   3.157
 5841SOL     OW18421   5.131   2.637   0.468
 5841SOL    HW118422   5.193   2.665   0.541
 5841SOL    HW218423   5.049   2.594   0.507
 5842SOL     OW18424   2.500   1.936   0.956
 5842SOL    HW118425   2.466   2.014   0.903
 5842SOL    HW218426   2.445   1.855   0.935
 5843SOL     OW18427   2.001   3.475   1.620
 5843SOL    HW118428   2.000   3.547   1.552
 5843SOL    HW218429   1.941   3.400   1.591
 5844SOL     OW18430   0.584   6.997   5.309
 5844SOL    HW118431   0.493   6.965   5.336
 5844SOL    HW218432   0.654   6.941   5.354
 5845SOL     OW18433   1.117   6.735   1.847
 5845SOL    HW118434   1.148   6.718   1.754
 5845SOL    HW218435   1.103   6.647   1.893
 5846SOL     OW18436   6.788   3.814   5.592
 5846SOL    HW118437   6.847   3.774   5.521
 5846SOL    HW218438   6.809   3.912   5.600
 5847SOL     OW18439   2.463   3.556   0.814
 5847SOL    HW118440   2.475   3.644   0.767
 5847SOL    HW218441   2.367   3.529   0.809
 5848SOL     OW18442   2.126   5.069   2.567
 5848SOL    HW118443   2.065   5.016   2.509
 5848SOL    HW218444   2.213   5.019   2.579
 5849SOL     OW18445   3.296   5.661   5.622
 5849SOL    HW118446   3.317   5.732   5.689
 5849SOL    HW218447   3.301   5.571   5.665
 5850SOL     OW18448   1.283   1.438   2.176
 5850SOL    HW118449   1.347   1.473   2.108
 5850SOL    HW218450   1.240   1.516   2.223
 5851SOL     OW18451   5.839   4.069   4.636
 5851SOL    HW118452   5.784   4.147   4.666
 5851SOL    HW218453   5.890   4.094   4.554
 5852SOL     OW18454   4.603   4.317   2.567
 5852SOL    HW118455   4.541   4.275   2.501
 5852SOL    HW218456   4.615   4.414   2.544
 5853SOL     OW18457   3.592   4.746   5.281
 5853SOL    HW118458   3.529   4.696   5.341
 5853SOL    HW218459   3.672   4.689   5.262
 5854SOL     OW18460   2.771   4.784   5.526
 5854SOL    HW118461   2.686   4.829   5.556
 5854SOL    HW218462   2.809   4.732   5.602
 5855SOL     OW18463   1.968   3.622   3.393
 5855SOL    HW118464   2.004   3.591   3.304
 5855SOL    HW218465   1.888   3.567   3.417
 5856SOL     OW18466   1.500   6.765   3.492
 5856SOL    HW118467   1.544   6.756   3.582
 5856SOL    HW218468   1.515   6.858   3.457
 5857SOL     OW18469   6.975   4.320   6.268
 5857SOL    HW118470   6.877   4.319   6.250
 5857SOL    HW218471   6.992   4.303   6.365
 5858SOL     OW18472   1.955   0.551   3.759
 5858SOL    HW118473   1.885   0.559   3.688
 5858SOL    HW218474   1.912   0.557   3.849
 5859SOL     OW18475   6.011   0.393   1.965
 5859SOL    HW118476   6.079   0.437   2.025
 5859SOL    HW218477   5.976   0.311   2.009
 5860SOL     OW18478   0.109   4.109   3.474
 5860SOL    HW118479   0.087   4.137   3.567
 5860SOL    HW218480   0.078   4.014   3.460
 5861SOL     OW18481   5.420   0.775   5.687
 5861SOL    HW118482   5.345   0.834   5.660
 5861SOL    HW218483   5.479   0.757   5.608
 5862SOL     OW18484   6.836   5.457   2.642
 5862SOL    HW118485   6.804   5.386   2.580
 5862SOL    HW218486   6.896   5.520   2.592
 5863SOL     OW18487   4.041   0.530   5.452
 5863SOL    HW118488   3.995   0.512   5.539
 5863SOL    HW218489   3.990   0.599   5.401
 5864SOL     OW18490   3.123   4.072   2.195
 5864SOL    HW118491   3.220   4.054   2.183
 5864SOL    HW218492   3.097   4.151   2.140
 5865SOL     OW18493   6.022   0.965   5.694
 5865SOL    HW118494   5.986   0.872   5.702
 5865SOL    HW218495   5.979   1.023   5.763
 5866SOL     OW18496   3.630   2.903   3.227
 5866SOL    HW118497   3.638   2.887   3.325
 5866SOL    HW218498   3.569   2.980   3.210
 5867SOL     OW18499   3.439   2.056   2.232
 5867SOL    HW118500   3.372   2.054   2.158
 5867SOL    HW218501   3.528   2.083   2.196
 5868SOL     OW18502   1.581   1.314   6.039
 5868SOL    HW118503   1.598   1.356   6.129
 5868SOL    HW218504   1.590   1.215   6.046
 5869SOL     OW18505   0.768   6.018   3.940
 5869SOL    HW118506   0.864   6.012   3.965
 5869SOL    HW218507   0.758   6.005   3.842
 5870SOL     OW18508   4.179   4.819   4.450
 5870SOL    HW118509   4.248   4.783   4.388
 5870SOL    HW218510   4.091   4.824   4.403
 5871SOL     OW18511   3.215   3.504   4.044
 5871SOL    HW118512   3.116   3.516   4.052
 5871SOL    HW218513   3.262   3.577   4.094
 5872SOL     OW18514   4.223   5.987   1.942
 5872SOL    HW118515   4.309   5.981   1.890
 5872SOL    HW218516   4.187   5.894   1.955
 5873SOL     OW18517   3.747   5.095   1.944
 5873SOL    HW118518   3.770   5.157   1.870
 5873SOL    HW218519   3.665   5.129   1.991
 5874SOL     OW18520   3.140   4.578   5.586
 5874SOL    HW118521   3.070   4.587   5.516
 5874SOL    HW218522   3.120   4.640   5.662
 5875SOL     OW18523   2.779   1.244   0.598
 5875SOL    HW118524   2.709   1.204   0.657
 5875SOL    HW218525   2.857   1.183   0.592
 5876SOL     OW18526   3.508   3.454   1.890
 5876SOL    HW118527   3.569   3.381   1.919
 5876SOL    HW218528   3.503   3.457   1.790
 5877SOL     OW18529   5.560   4.721   6.944
 5877SOL    HW118530   5.540   4.728   0.021
 5877SOL    HW218531   5.604   4.633   6.924
 5878SOL     OW18532   2.449   4.412   2.324
 5878SOL    HW118533   2.383   4.486   2.309
 5878SOL    HW218534   2.404   4.336   2.370
 5879SOL     OW18535   6.951   4.053   5.897
 5879SOL    HW118536   6.995   4.132   5.940
 5879SOL    HW218537   6.888   4.011   5.962
 5880SOL     OW18538   1.880   6.171   0.951
 5880SOL    HW118539   1.901   6.252   1.006
 5880SOL    HW218540   1.880   6.090   1.008
 5881SOL     OW18541   0.133   5.563   3.924
 5881SOL    HW118542   0.125   5.650   3.973
 5881SOL    HW218543   0.162   5.492   3.988
 5882SOL     OW18544   5.045   0.884   1.317
 5882SOL    HW118545   5.013   0.978   1.327
 5882SOL    HW218546   5.013   0.847   1.230
 5883SOL     OW18547   0.077   3.471   5.618
 5883SOL    HW118548   0.024   3.518   5.689
 5883SOL    HW218549   0.015   3.435   5.549
 5884SOL     OW18550   0.827   1.229   3.098
 5884SOL    HW118551   0.902   1.279   3.055
 5884SOL    HW218552   0.862   1.177   3.175
 5885SOL     OW18553   6.158   6.305   1.318
 5885SOL    HW118554   6.179   6.337   1.226
 5885SOL    HW218555   6.243   6.277   1.363
 5886SOL     OW18556   1.255   1.899   5.924
 5886SOL    HW118557   1.262   1.821   5.986
 5886SOL    HW218558   1.255   1.867   5.829
 5887SOL     OW18559   3.858   0.262   4.894
 5887SOL    HW118560   3.952   0.249   4.865
 5887SOL    HW218561   3.855   0.276   4.993
 5888SOL     OW18562   2.337   0.261   3.599
 5888SOL    HW118563   2.413   0.216   3.552
 5888SOL    HW218564   2.373   0.323   3.669
 5889SOL     OW18565   2.602   0.924   0.868
 5889SOL    HW118566   2.612   0.910   0.966
 5889SOL    HW218567   2.516   0.885   0.836
 5890SOL     OW18568   2.773   5.189   5.966
 5890SOL    HW118569   2.806   5.155   5.878
 5890SOL    HW218570   2.708   5.123   6.004
 5891SOL     OW18571   3.407   3.427   0.105
 5891SOL    HW118572   3.392   3.490   0.030
 5891SOL    HW218573   3.403   3.476   0.192
 5892SOL     OW18574   0.452   6.854   1.447
 5892SOL    HW118575   0.476   6.880   1.354
 5892SOL    HW218576   0.385   6.779   1.445
 5893SOL     OW18577   0.830   1.695   3.943
 5893SOL    HW118578   0.885   1.612   3.933
 5893SOL    HW218579   0.887   1.769   3.977
 5894SOL     OW18580   0.887   3.353   3.293
 5894SOL    HW118581   0.823   3.290   3.250
 5894SOL    HW218582   0.872   3.446   3.260
 5895SOL     OW18583   5.800   3.831   3.649
 5895SOL    HW118584   5.786   3.737   3.617
 5895SOL    HW218585   5.711   3.875   3.663
 5896SOL     OW18586   3.533   2.290   6.889
 5896SOL    HW118587   3.490   2.348   6.959
 5896SOL    HW218588   3.620   2.330   6.862
 5897SOL     OW18589   3.793   0.044   1.253
 5897SOL    HW118590   3.794   0.055   1.154
 5897SOL    HW218591   3.782   0.133   1.296
 5898SOL     OW18592   2.035   0.354   2.464
 5898SOL    HW118593   2.110   0.397   2.413
 5898SOL    HW218594   2.048   0.255   2.464
 5899SOL     OW18595   5.809   6.960   4.605
 5899SOL    HW118596   5.728   6.974   4.662
 5899SOL    HW218597   5.829   0.023   4.554
 5900SOL     OW18598   5.047   4.686   2.665
 5900SOL    HW118599   4.992   4.632   2.727
 5900SOL    HW218600   4.994   4.706   2.582
 5901SOL     OW18601   2.839   6.629   6.058
 5901SOL    HW118602   2.875   6.609   6.149
 5901SOL    HW218603   2.866   6.722   6.032
 5902SOL     OW18604   6.491   2.137   6.786
 5902SOL    HW118605   6.511   2.127   6.689
 5902SOL    HW218606   6.499   2.233   6.813
 5903SOL     OW18607   6.226   3.313   6.734
 5903SOL    HW118608   6.323   3.289   6.745
 5903SOL    HW218609   6.203   3.385   6.799
 5904SOL     OW18610   0.010   3.347   2.282
 5904SOL    HW118611   0.003   3.283   2.358
 5904SOL    HW218612   6.944   3.397   2.272
 5905SOL     OW18613   6.868   5.975   2.301
 5905SOL    HW118614   6.967   5.969   2.307
 5905SOL    HW218615   6.830   5.983   2.393
 5906SOL     OW18616   5.587   1.009   3.828
 5906SOL    HW118617   5.678   0.981   3.797
 5906SOL    HW218618   5.530   1.030   3.748
 5907SOL     OW18619   1.173   5.962   2.164
 5907SOL    HW118620   1.123   5.876   2.178
 5907SOL    HW218621   1.224   5.984   2.247
 5908SOL     OW18622   7.020   2.837   5.143
 5908SOL    HW118623   0.047   2.760   5.184
 5908SOL    HW218624   6.936   2.855   5.194
 5909SOL     OW18625   0.234   6.024   0.704
 5909SOL    HW118626   0.286   6.110   0.712
 5909SOL    HW218627   0.267   5.973   0.625
 5910SOL     OW18628   1.991   2.652   3.114
 5910SOL    HW118629   2.041   2.690   3.192
 5910SOL    HW218630   2.052   2.645   3.036
 5911SOL     OW18631   6.834   6.158   6.218
 5911SOL    HW118632   6.880   6.081   6.263
 5911SOL    HW218633   6.903   6.223   6.185
 5912SOL     OW18634   6.755   1.319   4.181
 5912SOL    HW118635   6.711   1.395   4.229
 5912SOL    HW218636   6.839   1.352   4.137
 5913SOL     OW18637   5.370   2.476   7.004
 5913SOL    HW118638   5.370   2.376   6.999
 5913SOL    HW218639   5.286   2.507   0.028
 5914SOL     OW18640   0.625   6.426   6.869
 5914SOL    HW118641   0.544   6.372   6.891
 5914SOL    HW218642   0.684   6.433   6.949
 5915SOL     OW18643   4.290   0.810   6.188
 5915SOL    HW118644   4.229   0.735   6.212
 5915SOL    HW218645   4.267   0.843   6.096
 5916SOL     OW18646   1.341   6.579   2.718
 5916SOL    HW118647   1.364   6.673   2.741
 5916SOL    HW218648   1.416   6.518   2.744
 5917SOL     OW18649   3.151   4.607   6.809
 5917SOL    HW118650   3.051   4.599   6.816
 5917SOL    HW218651   3.194   4.570   6.891
 5918SOL     OW18652   2.957   6.625   6.294
 5918SOL    HW118653   3.045   6.659   6.327
 5918SOL    HW218654   2.892   6.621   6.370
 5919SOL     OW18655   3.568   2.901   3.491
 5919SOL    HW118656   3.603   2.990   3.521
 5919SOL    HW218657   3.478   2.885   3.531
 5920SOL     OW18658   6.852   0.242   5.857
 5920SOL    HW118659   6.905   0.323   5.883
 5920SOL    HW218660   6.777   0.269   5.797
 5921SOL     OW18661   3.219   4.743   6.576
 5921SOL    HW118662   3.174   4.706   6.658
 5921SOL    HW218663   3.250   4.836   6.595
 5922SOL     OW18664   5.308   3.566   3.080
 5922SOL    HW118665   5.230   3.566   3.017
 5922SOL    HW218666   5.328   3.472   3.108
 5923SOL     OW18667   0.007   1.112   1.696
 5923SOL    HW118668   0.051   1.119   1.606
 5923SOL    HW218669   0.059   1.048   1.753
 5924SOL     OW18670   6.424   0.401   3.058
 5924SOL    HW118671   6.348   0.391   2.994
 5924SOL    HW218672   6.424   0.324   3.122
 5925SOL     OW18673   4.556   6.038   1.233
 5925SOL    HW118674   4.636   6.029   1.293
 5925SOL    HW218675   4.579   6.100   1.158
 5926SOL     OW18676   3.786   4.893   3.007
 5926SOL    HW118677   3.852   4.964   3.033
 5926SOL    HW218678   3.697   4.915   3.047
 5927SOL     OW18679   0.877   4.605   2.045
 5927SOL    HW118680   0.793   4.559   2.016
 5927SOL    HW218681   0.951   4.581   1.983
 5928SOL     OW18682   3.635   0.142   0.460
 5928SOL    HW118683   3.599   0.064   0.511
 5928SOL    HW218684   3.569   0.217   0.464
 5929SOL     OW18685   0.600   1.033   5.993
 5929SOL    HW118686   0.505   1.012   6.015
 5929SOL    HW218687   0.660   0.995   6.063
 5930SOL     OW18688   1.519   3.665   2.100
 5930SOL    HW118689   1.543   3.731   2.171
 5930SOL    HW218690   1.537   3.572   2.133
 5931SOL     OW18691   5.555   5.746   3.268
 5931SOL    HW118692   5.575   5.843   3.258
 5931SOL    HW218693   5.585   5.697   3.187
 5932SOL     OW18694   2.728   1.083   6.861
 5932SOL    HW118695   2.691   1.106   6.771
 5932SOL    HW218696   2.800   1.148   6.885
 5933SOL     OW18697   6.277   6.012   3.800
 5933SOL    HW118698   6.372   6.037   3.780
 5933SOL    HW218699   6.266   5.913   3.790
 5934SOL     OW18700   2.812   3.559   5.640
 5934SOL    HW118701   2.893   3.550   5.698
 5934SOL    HW218702   2.840   3.581   5.547
 5935SOL     OW18703   6.767   6.636   5.122
 5935SOL    HW118704   6.734   6.639   5.027
 5935SOL    HW218705   6.812   6.549   5.140
 5936SOL     OW18706   3.062   3.487   2.127
 5936SOL    HW118707   3.002   3.423   2.079
 5936SOL    HW218708   3.106   3.548   2.061
 5937SOL     OW18709   0.025   2.999   1.764
 5937SOL    HW118710   0.024   2.953   1.675
 5937SOL    HW218711   0.036   2.931   1.836
 5938SOL     OW18712   6.774   5.067   4.835
 5938SOL    HW118713   6.682   5.030   4.833
 5938SOL    HW218714   6.771   5.163   4.806
 5939SOL     OW18715   3.397   0.599   4.438
 5939SOL    HW118716   3.477   0.645   4.476
 5939SOL    HW218717   3.328   0.666   4.414
 5940SOL     OW18718   4.917   5.807   2.540
 5940SOL    HW118719   5.012   5.837   2.528
 5940SOL    HW218720   4.907   5.715   2.500
 5941SOL     OW18721   6.917   2.254   1.745
 5941SOL    HW118722   6.852   2.197   1.796
 5941SOL    HW218723   6.999   2.201   1.725
 5942SOL     OW18724   5.817   3.548   5.828
 5942SOL    HW118725   5.777   3.468   5.783
 5942SOL    HW218726   5.883   3.591   5.766
 5943SOL     OW18727   3.718   3.977   0.852
 5943SOL    HW118728   3.792   3.911   0.839
 5943SOL    HW218729   3.727   4.020   0.942
 5944SOL     OW18730   0.751   3.285   6.519
 5944SOL    HW118731   0.732   3.381   6.542
 5944SOL    HW218732   0.666   3.233   6.526
 5945SOL     OW18733   0.087   5.618   5.183
 5945SOL    HW118734   0.128   5.611   5.092
 5945SOL    HW218735   0.059   5.527   5.213
 5946SOL     OW18736   3.740   4.440   0.509
 5946SOL    HW118737   3.748   4.342   0.529
 5946SOL    HW218738   3.760   4.455   0.412
 5947SOL     OW18739   3.046   3.098   4.848
 5947SOL    HW118740   2.966   3.097   4.908
 5947SOL    HW218741   3.129   3.087   4.902
 5948SOL     OW18742   4.906   3.922   2.126
 5948SOL    HW118743   4.977   3.970   2.178
 5948SOL    HW218744   4.832   3.985   2.104
 5949SOL     OW18745   6.753   5.285   1.968
 5949SOL    HW118746   6.778   5.217   1.899
 5949SOL    HW218747   6.675   5.339   1.935
 5950SOL     OW18748   4.889   1.813   6.078
 5950SOL    HW118749   4.838   1.899   6.071
 5950SOL    HW218750   4.826   1.738   6.096
 5951SOL     OW18751   1.162   4.615   6.032
 5951SOL    HW118752   1.217   4.609   6.115
 5951SOL    HW218753   1.110   4.701   6.032
 5952SOL     OW18754   3.892   5.180   1.442
 5952SOL    HW118755   3.880   5.087   1.406
 5952SOL    HW218756   3.979   5.216   1.409
 5953SOL     OW18757   6.342   2.346   5.524
 5953SOL    HW118758   6.265   2.379   5.578
 5953SOL    HW218759   6.309   2.318   5.433
 5954SOL     OW18760   0.470   6.183   4.463
 5954SOL    HW118761   0.568   6.198   4.447
 5954SOL    HW218762   0.422   6.271   4.460
 5955SOL     OW18763   6.019   4.131   0.575
 5955SOL    HW118764   6.088   4.145   0.646
 5955SOL    HW218765   6.039   4.047   0.525
 5956SOL     OW18766   4.371   2.444   4.236
 5956SOL    HW118767   4.430   2.518   4.266
 5956SOL    HW218768   4.405   2.407   4.150
 5957SOL     OW18769   1.246   0.821   2.643
 5957SOL    HW118770   1.320   0.761   2.613
 5957SOL    HW218771   1.284   0.901   2.690
 5958SOL     OW18772   3.421   6.823   2.727
 5958SOL    HW118773   3.443   6.887   2.801
 5958SOL    HW218774   3.375   6.743   2.766
 5959SOL     OW18775   4.527   2.009   4.968
 5959SOL    HW118776   4.576   1.990   4.883
 5959SOL    HW218777   4.443   2.060   4.947
 5960SOL     OW18778   3.854   6.732   6.294
 5960SOL    HW118779   3.885   6.824   6.268
 5960SOL    HW218780   3.794   6.696   6.222
 5961SOL     OW18781   2.984   1.705   3.005
 5961SOL    HW118782   2.974   1.802   3.027
 5961SOL    HW218783   2.979   1.693   2.906
 5962SOL     OW18784   5.745   6.177   0.120
 5962SOL    HW118785   5.661   6.180   0.173
 5962SOL    HW218786   5.823   6.199   0.178
 5963SOL     OW18787   3.619   4.809   0.382
 5963SOL    HW118788   3.542   4.866   0.354
 5963SOL    HW218789   3.672   4.856   0.452
 5964SOL     OW18790   2.052   6.796   2.322
 5964SOL    HW118791   2.091   6.733   2.389
 5964SOL    HW218792   1.958   6.818   2.349
 5965SOL     OW18793   1.951   6.428   0.079
 5965SOL    HW118794   2.033   6.483   0.097
 5965SOL    HW218795   1.975   6.331   0.077
 5966SOL     OW18796   2.535   0.752   5.490
 5966SOL    HW118797   2.615   0.733   5.433
 5966SOL    HW218798   2.565   0.788   5.578
 5967SOL     OW18799   2.166   1.863   4.819
 5967SOL    HW118800   2.081   1.874   4.872
 5967SOL    HW218801   2.243   1.854   4.881
 5968SOL     OW18802   5.593   2.354   0.673
 5968SOL    HW118803   5.640   2.438   0.645
 5968SOL    HW218804   5.645   2.310   0.747
 5969SOL     OW18805   5.618   0.660   6.901
 5969SOL    HW118806   5.624   0.590   6.972
 5969SOL    HW218807   5.702   0.660   6.846
 5970SOL     OW18808   0.195   3.065   1.102
 5970SOL    HW118809   0.154   3.106   1.020
 5970SOL    HW218810   0.242   2.981   1.077
 5971SOL     OW18811   6.478   0.228   3.594
 5971SOL    HW118812   6.525   0.313   3.570
 5971SOL    HW218813   6.420   0.199   3.518
 5972SOL     OW18814   5.128   5.372   0.787
 5972SOL    HW118815   5.089   5.282   0.804
 5972SOL    HW218816   5.129   5.425   0.872
 5973SOL     OW18817   1.872   2.968   2.946
 5973SOL    HW118818   1.849   2.886   3.000
 5973SOL    HW218819   1.902   3.040   3.008
 5974SOL     OW18820   4.689   0.953   6.102
 5974SOL    HW118821   4.735   0.957   6.014
 5974SOL    HW218822   4.594   0.982   6.091
 5975SOL     OW18823   5.723   4.499   6.952
 5975SOL    HW118824   5.778   4.528   0.010
 5975SOL    HW218825   5.784   4.462   6.882
 5976SOL     OW18826   3.304   3.904   5.773
 5976SOL    HW118827   3.236   3.973   5.799
 5976SOL    HW218828   3.303   3.892   5.673
 5977SOL     OW18829   6.878   5.081   0.196
 5977SOL    HW118830   6.945   5.124   0.256
 5977SOL    HW218831   6.909   4.989   0.171
 5978SOL     OW18832   3.259   5.382   0.296
 5978SOL    HW118833   3.219   5.334   0.374
 5978SOL    HW218834   3.224   5.343   0.211
 5979SOL     OW18835   6.396   0.728   1.473
 5979SOL    HW118836   6.395   0.822   1.509
 5979SOL    HW218837   6.322   0.675   1.514
 5980SOL     OW18838   3.768   3.228   1.648
 5980SOL    HW118839   3.813   3.167   1.713
 5980SOL    HW218840   3.706   3.174   1.591
 5981SOL     OW18841   3.640   1.733   0.171
 5981SOL    HW118842   3.664   1.826   0.195
 5981SOL    HW218843   3.547   1.731   0.133
 5982SOL     OW18844   5.848   2.325   1.574
 5982SOL    HW118845   5.824   2.231   1.550
 5982SOL    HW218846   5.820   2.343   1.668
 5983SOL     OW18847   0.100   0.819   4.338
 5983SOL    HW118848   0.004   0.810   4.362
 5983SOL    HW218849   0.111   0.891   4.269
 5984SOL     OW18850   6.250   6.476   2.858
 5984SOL    HW118851   6.200   6.447   2.940
 5984SOL    HW218852   6.184   6.501   2.787
 5985SOL     OW18853   6.140   2.207   2.757
 5985SOL    HW118854   6.069   2.234   2.823
 5985SOL    HW218855   6.112   2.123   2.711
 5986SOL     OW18856   4.141   3.627   5.482
 5986SOL    HW118857   4.160   3.596   5.389
 5986SOL    HW218858   4.171   3.722   5.492
 5987SOL     OW18859   6.428   0.891   5.414
 5987SOL    HW118860   6.355   0.914   5.350
 5987SOL    HW218861   6.395   0.901   5.507
 5988SOL     OW18862   2.287   2.130   6.942
 5988SOL    HW118863   2.240   2.218   6.950
 5988SOL    HW218864   2.315   2.099   0.012
 5989SOL     OW18865   0.358   5.846   6.822
 5989SOL    HW118866   0.345   5.847   6.723
 5989SOL    HW218867   0.335   5.936   6.859
 5990SOL     OW18868   3.925   4.801   1.539
 5990SOL    HW118869   3.850   4.755   1.586
 5990SOL    HW218870   3.889   4.854   1.462
 5991SOL     OW18871   5.645   6.288   1.157
 5991SOL    HW118872   5.718   6.323   1.098
 5991SOL    HW218873   5.574   6.357   1.165
 5992SOL     OW18874   3.589   0.116   2.166
 5992SOL    HW118875   3.596   0.024   2.128
 5992SOL    HW218876   3.597   0.183   2.093
 5993SOL     OW18877   6.200   2.200   0.105
 5993SOL    HW118878   6.154   2.261   0.041
 5993SOL    HW218879   6.170   2.106   0.088
 5994SOL     OW18880   6.784   2.922   0.485
 5994SOL    HW118881   6.728   2.992   0.440
 5994SOL    HW218882   6.727   2.868   0.547
 5995SOL     OW18883   5.048   3.568   1.632
 5995SOL    HW118884   5.085   3.650   1.590
 5995SOL    HW218885   5.067   3.489   1.574
 5996SOL     OW18886   2.771   5.599   1.394
 5996SOL    HW118887   2.766   5.698   1.376
 5996SOL    HW218888   2.779   5.584   1.493
 5997SOL     OW18889   0.029   6.888   3.318
 5997SOL    HW118890   0.032   6.868   3.220
 5997SOL    HW218891   6.955   6.884   3.349
 5998SOL     OW18892   6.798   0.749   1.618
 5998SOL    HW118893   6.876   0.687   1.627
 5998SOL    HW218894   6.720   0.697   1.582
 5999SOL     OW18895   3.962   3.488   1.402
 5999SOL    HW118896   4.017   3.433   1.464
 5999SOL    HW218897   3.867   3.456   1.405
 6000SOL     OW18898   6.829   5.012   6.891
 6000SOL    HW118899   6.745   5.020   6.945
 6000SOL    HW218900   6.809   4.965   6.805
 6001SOL     OW18901   5.158   5.995   5.115
 6001SOL    HW118902   5.253   6.023   5.103
 6001SOL    HW218903   5.121   5.966   5.027
 6002SOL     OW18904   6.447   6.621   4.613
 6002SOL    HW118905   6.373   6.613   4.680
 6002SOL    HW218906   6.525   6.668   4.655
 6003SOL     OW18907   6.723   2.889   4.143
 6003SOL    HW118908   6.710   2.794   4.114
 6003SOL    HW218909   6.686   2.950   4.073
 6004SOL     OW18910   5.389   2.863   3.897
 6004SOL    HW118911   5.457   2.791   3.909
 6004SOL    HW218912   5.384   2.890   3.801
 6005SOL     OW18913   4.249   4.669   6.059
 6005SOL    HW118914   4.212   4.731   6.128
 6005SOL    HW218915   4.264   4.719   5.974
 6006SOL     OW18916   3.581   6.254   5.727
 6006SOL    HW118917   3.607   6.239   5.632
 6006SOL    HW218918   3.574   6.352   5.745
 6007SOL     OW18919   1.130   4.872   5.412
 6007SOL    HW118920   1.117   4.852   5.509
 6007SOL    HW218921   1.069   4.945   5.384
 6008SOL     OW18922   2.299   5.184   5.493
 6008SOL    HW118923   2.237   5.184   5.572
 6008SOL    HW218924   2.288   5.099   5.442
 6009SOL     OW18925   4.166   5.233   3.511
 6009SOL    HW118926   4.255   5.265   3.479
 6009SOL    HW218927   4.147   5.143   3.472
 6010SOL     OW18928   0.091   4.767   4.773
 6010SOL    HW118929   0.084   4.856   4.727
 6010SOL    HW218930   0.156   4.709   4.725
 6011SOL     OW18931   6.075   1.223   2.542
 6011SOL    HW118932   6.063   1.189   2.448
 6011SOL    HW218933   6.150   1.289   2.544
 6012SOL     OW18934   6.874   0.500   6.089
 6012SOL    HW118935   6.914   0.498   6.181
 6012SOL    HW218936   6.774   0.505   6.097
 6013SOL     OW18937   5.687   1.190   2.970
 6013SOL    HW118938   5.773   1.153   3.006
 6013SOL    HW218939   5.639   1.238   3.042
 6014SOL     OW18940   3.803   3.077   3.970
 6014SOL    HW118941   3.863   3.063   3.891
 6014SOL    HW218942   3.723   3.129   3.942
 6015SOL     OW18943   6.343   1.821   4.636
 6015SOL    HW118944   6.319   1.917   4.619
 6015SOL    HW218945   6.438   1.806   4.609
 6016SOL     OW18946   5.124   1.589   4.680
 6016SOL    HW118947   5.051   1.553   4.738
 6016SOL    HW218948   5.102   1.682   4.651
 6017SOL     OW18949   0.132   3.121   4.948
 6017SOL    HW118950   0.197   3.059   4.992
 6017SOL    HW218951   0.165   3.215   4.957
 6018SOL     OW18952   3.793   1.576   5.789
 6018SOL    HW118953   3.839   1.604   5.705
 6018SOL    HW218954   3.862   1.552   5.858
 6019SOL     OW18955   0.301   3.897   6.393
 6019SOL    HW118956   0.253   3.942   6.468
 6019SOL    HW218957   0.246   3.903   6.310
 6020SOL     OW18958   0.673   4.633   0.592
 6020SOL    HW118959   0.680   4.535   0.572
 6020SOL    HW218960   0.723   4.685   0.523
 6021SOL     OW18961   4.023   0.763   3.141
 6021SOL    HW118962   4.105   0.740   3.088
 6021SOL    HW218963   4.031   0.724   3.233
 6022SOL     OW18964   6.699   1.570   2.412
 6022SOL    HW118965   6.710   1.641   2.481
 6022SOL    HW218966   6.660   1.488   2.455
 6023SOL     OW18967   4.964   0.769   1.092
 6023SOL    HW118968   4.920   0.682   1.071
 6023SOL    HW218969   5.028   0.792   1.019
 6024SOL     OW18970   0.175   5.260   0.550
 6024SOL    HW118971   0.128   5.347   0.557
 6024SOL    HW218972   0.274   5.276   0.542
 6025SOL     OW18973   2.420   1.359   4.171
 6025SOL    HW118974   2.399   1.312   4.256
 6025SOL    HW218975   2.514   1.394   4.175
 6026SOL     OW18976   5.903   4.188   4.414
 6026SOL    HW118977   5.834   4.169   4.344
 6026SOL    HW218978   5.896   4.283   4.442
 6027SOL     OW18979   5.991   3.279   5.604
 6027SOL    HW118980   6.048   3.212   5.555
 6027SOL    HW218981   5.987   3.255   5.701
 6028SOL     OW18982   5.151   4.716   6.626
 6028SOL    HW118983   5.128   4.769   6.707
 6028SOL    HW218984   5.201   4.634   6.652
 6029SOL     OW18985   2.580   0.995   3.386
 6029SOL    HW118986   2.630   0.962   3.306
 6029SOL    HW218987   2.644   1.028   3.455
 6030SOL     OW18988   4.942   3.862   4.761
 6030SOL    HW118989   5.039   3.884   4.752
 6030SOL    HW218990   4.889   3.946   4.776
 6031SOL     OW18991   0.613   5.822   4.864
 6031SOL    HW118992   0.655   5.738   4.897
 6031SOL    HW218993   0.625   5.895   4.932
 6032SOL     OW18994   2.812   6.611   3.831
 6032SOL    HW118995   2.908   6.588   3.816
 6032SOL    HW218996   2.802   6.710   3.838
 6033SOL     OW18997   2.199   2.023   2.706
 6033SOL    HW118998   2.239   2.068   2.786
 6033SOL    HW218999   2.226   1.927   2.705
 6034SOL     OW19000   1.636   0.374   6.824
 6034SOL    HW119001   1.566   0.410   6.886
 6034SOL    HW219002   1.726   0.390   6.863
 6035SOL     OW19003   1.125   0.946   2.924
 6035SOL    HW119004   1.126   0.869   2.860
 6035SOL    HW219005   1.195   0.932   2.994
 6036SOL     OW19006   5.823   3.443   0.606
 6036SOL    HW119007   5.884   3.518   0.580
 6036SOL    HW219008   5.729   3.466   0.581
 6037SOL     OW19009   4.089   1.559   0.688
 6037SOL    HW119010   4.008   1.612   0.711
 6037SOL    HW219011   4.171   1.611   0.714
 6038SOL     OW19012   0.452   2.304   6.334
 6038SOL    HW119013   0.476   2.399   6.349
 6038SOL    HW219014   0.370   2.299   6.277
 6039SOL     OW19015   3.298   4.065   3.854
 6039SOL    HW119016   3.293   4.134   3.927
 6039SOL    HW219017   3.380   4.010   3.866
 6040SOL     OW19018   1.342   1.493   6.780
 6040SOL    HW119019   1.305   1.587   6.782
 6040SOL    HW219020   1.269   1.429   6.802
 6041SOL     OW19021   3.003   2.506   5.961
 6041SOL    HW119022   3.030   2.420   5.918
 6041SOL    HW219023   3.084   2.554   5.994
 6042SOL     OW19024   2.978   6.276   4.029
 6042SOL    HW119025   3.076   6.267   4.010
 6042SOL    HW219026   2.930   6.201   3.985
 6043SOL     OW19027   1.736   0.858   4.147
 6043SOL    HW119028   1.805   0.803   4.099
 6043SOL    HW219029   1.770   0.882   4.237
 6044SOL     OW19030   1.751   1.995   1.579
 6044SOL    HW119031   1.812   2.068   1.608
 6044SOL    HW219032   1.772   1.969   1.485
 6045SOL     OW19033   5.189   2.855   3.000
 6045SOL    HW119034   5.219   2.914   2.925
 6045SOL    HW219035   5.090   2.839   2.992
 6046SOL     OW19036   3.558   3.018   2.112
 6046SOL    HW119037   3.489   3.090   2.111
 6046SOL    HW219038   3.536   2.948   2.043
 6047SOL     OW19039   6.088   1.651   0.959
 6047SOL    HW119040   6.180   1.689   0.967
 6047SOL    HW219041   6.022   1.715   0.996
 6048SOL     OW19042   5.884   5.649   5.102
 6048SOL    HW119043   5.902   5.637   5.200
 6048SOL    HW219044   5.829   5.731   5.088
 6049SOL     OW19045   5.147   4.525   5.338
 6049SOL    HW119046   5.142   4.463   5.259
 6049SOL    HW219047   5.156   4.619   5.307
 6050SOL     OW19048   2.997   5.520   1.267
 6050SOL    HW119049   2.997   5.496   1.170
 6050SOL    HW219050   2.902   5.526   1.300
 6051SOL     OW19051   0.761   1.559   3.060
 6051SOL    HW119052   0.739   1.650   3.024
 6051SOL    HW219053   0.785   1.498   2.984
 6052SOL     OW19054   5.792   6.343   0.501
 6052SOL    HW119055   5.747   6.314   0.586
 6052SOL    HW219056   5.862   6.411   0.522
 6053SOL     OW19057   4.575   2.011   6.248
 6053SOL    HW119058   4.632   1.996   6.168
 6053SOL    HW219059   4.542   1.924   6.284
 6054SOL     OW19060   4.190   4.666   1.215
 6054SOL    HW119061   4.246   4.678   1.133
 6054SOL    HW219062   4.093   4.670   1.190
 6055SOL     OW19063   3.388   4.936   0.327
 6055SOL    HW119064   3.333   4.885   0.261
 6055SOL    HW219065   3.337   4.946   0.413
 6056SOL     OW19066   6.288   4.178   5.315
 6056SOL    HW119067   6.307   4.275   5.305
 6056SOL    HW219068   6.319   4.129   5.234
 6057SOL     OW19069   5.271   0.402   2.826
 6057SOL    HW119070   5.369   0.421   2.826
 6057SOL    HW219071   5.222   0.484   2.856
 6058SOL     OW19072   5.545   2.480   6.651
 6058SOL    HW119073   5.467   2.421   6.671
 6058SOL    HW219074   5.549   2.554   6.718
 6059SOL     OW19075   5.204   4.684   5.962
 6059SOL    HW119076   5.170   4.662   5.871
 6059SOL    HW219077   5.131   4.728   6.015
 6060SOL     OW19078   2.978   3.356   6.788
 6060SOL    HW119079   2.920   3.298   6.845
 6060SOL    HW219080   2.938   3.447   6.780
 6061SOL     OW19081   4.648   4.941   0.602
 6061SOL    HW119082   4.676   4.860   0.550
 6061SOL    HW219083   4.548   4.943   0.608
 6062SOL     OW19084   2.544   2.317   0.628
 6062SOL    HW119085   2.542   2.323   0.728
 6062SOL    HW219086   2.628   2.272   0.599
 6063SOL     OW19087   3.630   4.893   6.005
 6063SOL    HW119088   3.701   4.850   5.950
 6063SOL    HW219089   3.561   4.935   5.945
 6064SOL     OW19090   0.055   0.201   1.020
 6064SOL    HW119091   0.066   0.167   1.113
 6064SOL    HW219092   0.012   0.291   1.023
 6065SOL     OW19093   0.923   5.027   2.283
 6065SOL    HW119094   0.889   5.112   2.324
 6065SOL    HW219095   1.022   5.029   2.278
 6066SOL     OW19096   4.870   0.520   3.685
 6066SOL    HW119097   4.780   0.556   3.661
 6066SOL    HW219098   4.860   0.430   3.728
 6067SOL     OW19099   6.148   0.266   5.931
 6067SOL    HW119100   6.185   0.282   5.839
 6067SOL    HW219101   6.212   0.210   5.983
 6068SOL     OW19102   5.012   1.373   5.391
 6068SOL    HW119103   5.019   1.387   5.490
 6068SOL    HW219104   4.974   1.282   5.373
 6069SOL     OW19105   0.007   2.658   5.805
 6069SOL    HW119106   0.044   2.686   5.894
 6069SOL    HW219107   6.945   2.710   5.785
 6070SOL     OW19108   3.615   1.922   1.329
 6070SOL    HW119109   3.632   1.979   1.248
 6070SOL    HW219110   3.603   1.981   1.409
 6071SOL     OW19111   6.036   6.228   5.034
 6071SOL    HW119112   6.069   6.134   5.026
 6071SOL    HW219113   6.064   6.266   5.122
 6072SOL     OW19114   0.332   2.556   1.014
 6072SOL    HW119115   0.361   2.519   0.926
 6072SOL    HW219116   0.384   2.513   1.087
 6073SOL     OW19117   4.716   2.686   0.393
 6073SOL    HW119118   4.785   2.640   0.450
 6073SOL    HW219119   4.761   2.729   0.315
 6074SOL     OW19120   1.300   6.208   2.387
 6074SOL    HW119121   1.318   6.220   2.485
 6074SOL    HW219122   1.209   6.168   2.375
 6075SOL     OW19123   4.515   6.453   6.381
 6075SOL    HW119124   4.505   6.464   6.480
 6075SOL    HW219125   4.597   6.502   6.350
 6076SOL     OW19126   2.709   4.667   3.986
 6076SOL    HW119127   2.637   4.706   3.927
 6076SOL    HW219128   2.666   4.612   4.058
 6077SOL     OW19129   6.074   6.565   1.514
 6077SOL    HW119130   6.057   6.482   1.568
 6077SOL    HW219131   6.163   6.557   1.468
 6078SOL     OW19132   4.785   4.167   0.258
 6078SOL    HW119133   4.725   4.213   0.324
 6078SOL    HW219134   4.733   4.144   0.176
 6079SOL     OW19135   4.157   4.144   6.116
 6079SOL    HW119136   4.194   4.231   6.084
 6079SOL    HW219137   4.105   4.100   6.043
 6080SOL     OW19138   1.471   4.680   0.650
 6080SOL    HW119139   1.489   4.742   0.574
 6080SOL    HW219140   1.492   4.726   0.736
 6081SOL     OW19141   0.387   3.753   4.881
 6081SOL    HW119142   0.460   3.719   4.941
 6081SOL    HW219143   0.408   3.847   4.854
 6082SOL     OW19144   4.504   0.898   1.085
 6082SOL    HW119145   4.542   0.936   1.000
 6082SOL    HW219146   4.407   0.880   1.072
 6083SOL     OW19147   5.011   6.026   6.678
 6083SOL    HW119148   5.099   6.045   6.720
 6083SOL    HW219149   5.007   5.929   6.650
 6084SOL     OW19150   0.516   6.826   2.385
 6084SOL    HW119151   0.614   6.810   2.400
 6084SOL    HW219152   0.492   6.916   2.420
 6085SOL     OW19153   6.876   6.332   0.407
 6085SOL    HW119154   6.889   6.426   0.440
 6085SOL    HW219155   6.941   6.271   0.451
 6086SOL     OW19156   3.800   3.359   6.657
 6086SOL    HW119157   3.720   3.353   6.717
 6086SOL    HW219158   3.781   3.311   6.571
 6087SOL     OW19159   5.053   6.976   0.420
 6087SOL    HW119160   5.101   6.910   0.478
 6087SOL    HW219161   4.954   6.964   0.430
 6088SOL     OW19162   5.160   6.396   4.240
 6088SOL    HW119163   5.115   6.318   4.196
 6088SOL    HW219164   5.104   6.478   4.227
 6089SOL     OW19165   6.204   2.352   2.506
 6089SOL    HW119166   6.213   2.439   2.555
 6089SOL    HW219167   6.168   2.282   2.569
 6090SOL     OW19168   3.914   5.437   4.080
 6090SOL    HW119169   3.997   5.477   4.119
 6090SOL    HW219170   3.853   5.409   4.154
 6091SOL     OW19171   2.670   1.177   1.244
 6091SOL    HW119172   2.681   1.173   1.344
 6091SOL    HW219173   2.686   1.271   1.213
 6092SOL     OW19174   4.206   6.620   1.732
 6092SOL    HW119175   4.218   6.528   1.695
 6092SOL    HW219176   4.283   6.643   1.791
 6093SOL     OW19177   2.447   1.625   2.394
 6093SOL    HW119178   2.462   1.634   2.492
 6093SOL    HW219179   2.371   1.562   2.378
 6094SOL     OW19180   0.681   6.733   4.333
 6094SOL    HW119181   0.620   6.783   4.395
 6094SOL    HW219182   0.687   6.637   4.363
 6095SOL     OW19183   4.413   6.038   0.247
 6095SOL    HW119184   4.317   6.049   0.224
 6095SOL    HW219185   4.424   6.034   0.347
 6096SOL     OW19186   6.096   6.778   2.010
 6096SOL    HW119187   6.048   6.831   2.079
 6096SOL    HW219188   6.070   6.681   2.017
 6097SOL     OW19189   1.850   5.708   2.455
 6097SOL    HW119190   1.845   5.608   2.457
 6097SOL    HW219191   1.900   5.741   2.535
 6098SOL     OW19192   6.917   0.942   5.092
 6098SOL    HW119193   6.883   0.979   5.178
 6098SOL    HW219194   6.965   1.013   5.041
 6099SOL     OW19195   5.330   5.739   5.993
 6099SOL    HW119196   5.391   5.817   6.007
 6099SOL    HW219197   5.301   5.735   5.897
 6100SOL     OW19198   6.539   5.601   4.000
 6100SOL    HW119199   6.631   5.603   3.962
 6100SOL    HW219200   6.520   5.688   4.047
 6101SOL     OW19201   6.111   2.421   1.138
 6101SOL    HW119202   6.081   2.489   1.206
 6101SOL    HW219203   6.032   2.375   1.100
 6102SOL     OW19204   4.149   6.360   2.185
 6102SOL    HW119205   4.195   6.273   2.202
 6102SOL    HW219206   4.093   6.352   2.102
 6103SOL     OW19207   6.310   1.289   2.049
 6103SOL    HW119208   6.321   1.357   1.976
 6103SOL    HW219209   6.213   1.277   2.068
 6104SOL     OW19210   5.896   1.001   4.619
 6104SOL    HW119211   5.889   0.907   4.586
 6104SOL    HW219212   5.858   1.007   4.711
 6105SOL     OW19213   3.099   6.272   6.110
 6105SOL    HW119214   3.174   6.316   6.061
 6105SOL    HW219215   3.134   6.231   6.194
 6106SOL     OW19216   0.652   3.746   6.904
 6106SOL    HW119217   0.751   3.738   6.893
 6106SOL    HW219218   0.628   3.732   7.000
 6107SOL     OW19219   4.848   4.652   4.716
 6107SOL    HW119220   4.838   4.648   4.617
 6107SOL    HW219221   4.760   4.631   4.759
 6108SOL     OW19222   1.448   0.970   1.660
 6108SOL    HW119223   1.421   0.994   1.754
 6108SOL    HW219224   1.548   0.964   1.655
 6109SOL     OW19225   5.152   6.868   2.993
 6109SOL    HW119226   5.124   6.846   3.087
 6109SOL    HW219227   5.151   6.967   2.981
 6110SOL     OW19228   0.639   2.007   5.552
 6110SOL    HW119229   0.684   2.090   5.520
 6110SOL    HW219230   0.540   2.019   5.550
 6111SOL     OW19231   1.372   3.811   1.509
 6111SOL    HW119232   1.394   3.867   1.589
 6111SOL    HW219233   1.438   3.737   1.500
 6112SOL     OW19234   4.054   0.379   2.388
 6112SOL    HW119235   4.029   0.309   2.456
 6112SOL    HW219236   4.122   0.342   2.326
 6113SOL     OW19237   2.259   5.329   0.027
 6113SOL    HW119238   2.177   5.325   6.990
 6113SOL    HW219239   2.236   5.299   0.119
 6114SOL     OW19240   4.781   1.671   1.152
 6114SOL    HW119241   4.795   1.768   1.172
 6114SOL    HW219242   4.829   1.616   1.221
 6115SOL     OW19243   1.080   1.598   5.009
 6115SOL    HW119244   1.123   1.562   5.091
 6115SOL    HW219245   1.003   1.540   4.983
 6116SOL     OW19246   3.990   2.190   4.928
 6116SOL    HW119247   3.958   2.112   4.875
 6116SOL    HW219248   3.959   2.182   5.023
 6117SOL     OW19249   1.443   1.905   3.100
 6117SOL    HW119250   1.541   1.887   3.106
 6117SOL    HW219251   1.422   1.945   3.010
 6118SOL     OW19252   5.938   1.075   0.671
 6118SOL    HW119253   5.921   0.980   0.648
 6118SOL    HW219254   6.012   1.111   0.615
 6119SOL     OW19255   0.444   2.127   0.789
 6119SOL    HW119256   0.503   2.201   0.757
 6119SOL    HW219257   0.348   2.154   0.779
 6120SOL     OW19258   2.563   6.456   5.768
 6120SOL    HW119259   2.540   6.359   5.759
 6120SOL    HW219260   2.548   6.485   5.862
 6121SOL     OW19261   0.835   3.752   5.068
 6121SOL    HW119262   0.844   3.833   5.127
 6121SOL    HW219263   0.914   3.692   5.082
 6122SOL     OW19264   5.281   6.049   5.383
 6122SOL    HW119265   5.281   6.054   5.283
 6122SOL    HW219266   5.233   6.129   5.421
 6123SOL     OW19267   5.928   1.267   5.223
 6123SOL    HW119268   5.880   1.180   5.232
 6123SOL    HW219269   5.918   1.302   5.130
 6124SOL     OW19270   2.445   0.261   4.800
 6124SOL    HW119271   2.371   0.327   4.818
 6124SOL    HW219272   2.406   0.174   4.773
 6125SOL     OW19273   2.033   3.638   0.225
 6125SOL    HW119274   1.953   3.677   0.180
 6125SOL    HW219275   2.106   3.706   0.230
 6126SOL     OW19276   0.173   2.583   4.625
 6126SOL    HW119277   0.151   2.621   4.714
 6126SOL    HW219278   0.183   2.657   4.558
 6127SOL     OW19279   4.502   1.302   1.986
 6127SOL    HW119280   4.477   1.291   2.082
 6127SOL    HW219281   4.555   1.223   1.956
 6128SOL     OW19282   5.865   5.844   1.008
 6128SOL    HW119283   5.870   5.745   0.996
 6128SOL    HW219284   5.880   5.866   1.105
 6129SOL     OW19285   1.943   4.609   3.277
 6129SOL    HW119286   1.940   4.540   3.205
 6129SOL    HW219287   1.891   4.577   3.356
 6130SOL     OW19288   4.980   2.786   1.566
 6130SOL    HW119289   5.027   2.818   1.484
 6130SOL    HW219290   4.890   2.828   1.571
 6131SOL     OW19291   0.301   2.053   2.481
 6131SOL    HW119292   0.222   2.046   2.420
 6131SOL    HW219293   0.284   2.124   2.549
 6132SOL     OW19294   3.374   1.409   6.760
 6132SOL    HW119295   3.463   1.370   6.737
 6132SOL    HW219296   3.322   1.427   6.676
 6133SOL     OW19297   1.791   2.717   3.728
 6133SOL    HW119298   1.824   2.809   3.747
 6133SOL    HW219299   1.727   2.688   3.800
 6134SOL     OW19300   5.329   5.935   6.524
 6134SOL    HW119301   5.254   5.943   6.459
 6134SOL    HW219302   5.407   5.890   6.479
 6135SOL     OW19303   5.513   0.371   0.227
 6135SOL    HW119304   5.528   0.362   0.326
 6135SOL    HW219305   5.420   0.343   0.206
 6136SOL     OW19306   1.289   2.804   1.696
 6136SOL    HW119307   1.384   2.776   1.709
 6136SOL    HW219308   1.266   2.803   1.599
 6137SOL     OW19309   0.495   4.844   3.336
 6137SOL    HW119310   0.567   4.785   3.372
 6137SOL    HW219311   0.526   4.889   3.252
 6138SOL     OW19312   3.641   0.513   2.198
 6138SOL    HW119313   3.655   0.428   2.249
 6138SOL    HW219314   3.692   0.509   2.112
 6139SOL     OW19315   0.939   6.916   5.378
 6139SOL    HW119316   0.950   6.960   5.289
 6139SOL    HW219317   0.957   6.981   5.451
 6140SOL     OW19318   1.581   0.275   3.349
 6140SOL    HW119319   1.633   0.264   3.434
 6140SOL    HW219320   1.636   0.242   3.272
 6141SOL     OW19321   0.312   0.523   5.652
 6141SOL    HW119322   0.355   0.496   5.565
 6141SOL    HW219323   0.214   0.540   5.636
 6142SOL     OW19324   0.690   1.054   0.686
 6142SOL    HW119325   0.615   0.991   0.666
 6142SOL    HW219326   0.662   1.147   0.666
 6143SOL     OW19327   6.348   3.790   6.325
 6143SOL    HW119328   6.431   3.832   6.288
 6143SOL    HW219329   6.328   3.828   6.415
 6144SOL     OW19330   4.491   4.548   3.010
 6144SOL    HW119331   4.525   4.609   2.939
 6144SOL    HW219332   4.393   4.561   3.022
 6145SOL     OW19333   5.004   3.600   3.956
 6145SOL    HW119334   5.101   3.586   3.978
 6145SOL    HW219335   4.969   3.520   3.907
 6146SOL     OW19336   3.640   0.402   4.394
 6146SOL    HW119337   3.547   0.439   4.392
 6146SOL    HW219338   3.704   0.472   4.363
 6147SOL     OW19339   2.163   2.995   4.432
 6147SOL    HW119340   2.127   2.902   4.440
 6147SOL    HW219341   2.088   3.060   4.427
 6148SOL     OW19342   4.082   4.859   0.093
 6148SOL    HW119343   4.070   4.911   0.009
 6148SOL    HW219344   4.125   4.771   0.072
 6149SOL     OW19345   2.830   0.815   2.363
 6149SOL    HW119346   2.828   0.874   2.282
 6149SOL    HW219347   2.852   0.722   2.335
 6150SOL     OW19348   6.232   3.912   6.534
 6150SOL    HW119349   6.221   3.876   6.627
 6150SOL    HW219350   6.154   3.970   6.512
 6151SOL     OW19351   5.134   4.468   4.141
 6151SOL    HW119352   5.159   4.563   4.158
 6151SOL    HW219353   5.120   4.454   4.043
 6152SOL     OW19354   1.126   5.475   4.227
 6152SOL    HW119355   1.134   5.574   4.215
 6152SOL    HW219356   1.082   5.455   4.315
 6153SOL     OW19357   4.573   5.177   0.904
 6153SOL    HW119358   4.648   5.240   0.886
 6153SOL    HW219359   4.491   5.228   0.926
 6154SOL     OW19360   5.274   3.209   1.945
 6154SOL    HW119361   5.311   3.217   1.853
 6154SOL    HW219362   5.246   3.300   1.978
 6155SOL     OW19363   2.583   1.320   3.408
 6155SOL    HW119364   2.664   1.278   3.367
 6155SOL    HW219365   2.611   1.396   3.466
 6156SOL     OW19366   5.583   4.334   1.043
 6156SOL    HW119367   5.655   4.265   1.047
 6156SOL    HW219368   5.604   4.408   1.107
 6157SOL     OW19369   0.686   2.400   2.983
 6157SOL    HW119370   0.761   2.445   2.934
 6157SOL    HW219371   0.704   2.302   2.988
 6158SOL     OW19372   2.884   2.616   5.757
 6158SOL    HW119373   2.832   2.541   5.716
 6158SOL    HW219374   2.910   2.592   5.850
 6159SOL     OW19375   5.615   2.546   0.010
 6159SOL    HW119376   5.518   2.521   0.006
 6159SOL    HW219377   5.624   2.644   7.018
 6160SOL     OW19378   0.334   6.974   6.819
 6160SOL    HW119379   0.382   6.890   6.795
 6160SOL    HW219380   0.388   0.032   6.791
 6161SOL     OW19381   4.937   2.676   6.603
 6161SOL    HW119382   4.857   2.660   6.660
 6161SOL    HW219383   4.918   2.649   6.509
 6162SOL     OW19384   6.173   6.063   2.521
 6162SOL    HW119385   6.264   6.026   2.538
 6162SOL    HW219386   6.180   6.149   2.472
 6163SOL     OW19387   5.442   5.983   2.731
 6163SOL    HW119388   5.453   5.985   2.830
 6163SOL    HW219389   5.473   6.070   2.693
 6164SOL     OW19390   3.715   4.034   4.349
 6164SOL    HW119391   3.700   4.038   4.250
 6164SOL    HW219392   3.803   3.990   4.368
 6165SOL     OW19393   3.921   2.532   0.093
 6165SOL    HW119394   3.835   2.484   0.111
 6165SOL    HW219395   3.939   2.597   0.167
 6166SOL     OW19396   0.133   2.245   0.077
 6166SOL    HW119397   0.228   2.217   0.092
 6166SOL    HW219398   0.124   2.344   0.090
 6167SOL     OW19399   1.790   4.637   3.527
 6167SOL    HW119400   1.824   4.555   3.575
 6167SOL    HW219401   1.702   4.617   3.486
 6168SOL     OW19402   0.227   2.864   4.083
 6168SOL    HW119403   0.315   2.816   4.078
 6168SOL    HW219404   0.168   2.818   4.150
 6169SOL     OW19405   1.330   0.379   6.684
 6169SOL    HW119406   1.385   0.372   6.767
 6169SOL    HW219407   1.386   0.355   6.605
 6170SOL     OW19408   3.918   4.378   0.195
 6170SOL    HW119409   3.825   4.340   0.190
 6170SOL    HW219410   3.914   4.477   0.185
 6171SOL     OW19411   0.725   4.540   2.410
 6171SOL    HW119412   0.759   4.526   2.503
 6171SOL    HW219413   0.739   4.635   2.384
 6172SOL     OW19414   0.676   0.458   3.081
 6172SOL    HW119415   0.578   0.458   3.102
 6172SOL    HW219416   0.715   0.546   3.105
 6173SOL     OW19417   1.061   4.962   2.911
 6173SOL    HW119418   1.144   5.006   2.946
 6173SOL    HW219419   1.019   4.908   2.985
 6174SOL     OW19420   5.860   4.760   2.613
 6174SOL    HW119421   5.959   4.761   2.601
 6174SOL    HW219422   5.834   4.687   2.677
 6175SOL     OW19423   5.738   6.198   1.984
 6175SOL    HW119424   5.755   6.296   1.972
 6175SOL    HW219425   5.793   6.164   2.060
 6176SOL     OW19426   6.031   3.263   6.522
 6176SOL    HW119427   5.965   3.327   6.482
 6176SOL    HW219428   6.109   3.315   6.559
 6177SOL     OW19429   5.058   1.114   1.584
 6177SOL    HW119430   5.055   1.214   1.577
 6177SOL    HW219431   5.151   1.082   1.565
 6178SOL     OW19432   4.927   4.974   1.069
 6178SOL    HW119433   4.945   5.058   1.120
 6178SOL    HW219434   4.982   4.900   1.105
 6179SOL     OW19435   0.059   3.379   4.471
 6179SOL    HW119436   6.989   3.338   4.472
 6179SOL    HW219437   0.107   3.355   4.555
 6180SOL     OW19438   3.485   6.539   1.125
 6180SOL    HW119439   3.452   6.491   1.044
 6180SOL    HW219440   3.540   6.477   1.180
 6181SOL     OW19441   5.189   6.288   6.962
 6181SOL    HW119442   5.250   6.268   6.886
 6181SOL    HW219443   5.108   6.228   6.957
 6182SOL     OW19444   5.233   5.138   5.135
 6182SOL    HW119445   5.317   5.084   5.142
 6182SOL    HW219446   5.183   5.132   5.222
 6183SOL     OW19447   2.020   0.552   2.672
 6183SOL    HW119448   2.032   0.482   2.601
 6183SOL    HW219449   2.094   0.546   2.739
 6184SOL     OW19450   1.600   6.730   0.030
 6184SOL    HW119451   1.524   6.737   6.987
 6184SOL    HW219452   1.681   6.696   7.003
 6185SOL     OW19453   0.556   3.745   0.203
 6185SOL    HW119454   0.504   3.822   0.242
 6185SOL    HW219455   0.650   3.750   0.234
 6186SOL     OW19456   5.814   7.003   3.849
 6186SOL    HW119457   5.823   0.080   3.866
 6186SOL    HW219458   5.903   6.963   3.830
 6187SOL     OW19459   4.986   4.787   3.603
 6187SOL    HW119460   5.021   4.805   3.511
 6187SOL    HW219461   4.938   4.700   3.604
 6188SOL     OW19462   2.402   6.272   1.378
 6188SOL    HW119463   2.335   6.277   1.452
 6188SOL    HW219464   2.488   6.235   1.413
 6189SOL     OW19465   5.096   4.770   2.264
 6189SOL    HW119466   5.186   4.737   2.292
 6189SOL    HW219467   5.025   4.709   2.299
 6190SOL     OW19468   5.139   2.838   6.030
 6190SOL    HW119469   5.071   2.824   5.958
 6190SOL    HW219470   5.143   2.936   6.052
 6191SOL     OW19471   5.311   2.412   0.783
 6191SOL    HW119472   5.293   2.506   0.810
 6191SOL    HW219473   5.389   2.409   0.720
 6192SOL     OW19474   2.905   3.942   0.393
 6192SOL    HW119475   2.964   4.023   0.393
 6192SOL    HW219476   2.834   3.954   0.462
 6193SOL     OW19477   5.094   6.732   1.994
 6193SOL    HW119478   5.035   6.809   1.970
 6193SOL    HW219479   5.099   6.669   1.916
 6194SOL     OW19480   2.457   0.462   1.070
 6194SOL    HW119481   2.408   0.441   0.985
 6194SOL    HW219482   2.438   0.556   1.097
 6195SOL     OW19483   3.938   5.567   6.410
 6195SOL    HW119484   3.879   5.503   6.460
 6195SOL    HW219485   4.014   5.516   6.368
 6196SOL     OW19486   0.584   2.593   6.189
 6196SOL    HW119487   0.521   2.664   6.222
 6196SOL    HW219488   0.568   2.577   6.091
 6197SOL     OW19489   2.593   4.215   1.032
 6197SOL    HW119490   2.525   4.166   1.086
 6197SOL    HW219491   2.681   4.213   1.080
 6198SOL     OW19492   3.380   5.589   3.294
 6198SOL    HW119493   3.387   5.637   3.206
 6198SOL    HW219494   3.304   5.523   3.289
 6199SOL     OW19495   0.984   0.101   0.934
 6199SOL    HW119496   1.038   0.163   0.991
 6199SOL    HW219497   0.899   0.078   0.981
 6200SOL     OW19498   2.508   0.971   6.323
 6200SOL    HW119499   2.458   1.042   6.273
 6200SOL    HW219500   2.466   0.957   6.413
 6201SOL     OW19501   1.804   4.348   6.195
 6201SOL    HW119502   1.836   4.438   6.167
 6201SOL    HW219503   1.776   4.296   6.114
 6202SOL     OW19504   3.965   1.673   1.648
 6202SOL    HW119505   3.995   1.577   1.653
 6202SOL    HW219506   3.919   1.689   1.561
 6203SOL     OW19507   4.880   0.838   3.701
 6203SOL    HW119508   4.897   0.904   3.628
 6203SOL    HW219509   4.949   0.766   3.697
 6204SOL     OW19510   0.931   5.266   5.113
 6204SOL    HW119511   0.868   5.214   5.171
 6204SOL    HW219512   1.024   5.258   5.150
 6205SOL     OW19513   5.550   5.592   6.820
 6205SOL    HW119514   5.609   5.640   6.885
 6205SOL    HW219515   5.513   5.509   6.864
 6206SOL     OW19516   0.039   0.617   2.270
 6206SOL    HW119517   0.019   0.575   2.182
 6206SOL    HW219518   0.114   0.567   2.314
 6207SOL     OW19519   1.290   4.003   5.279
 6207SOL    HW119520   1.219   3.984   5.211
 6207SOL    HW219521   1.306   4.101   5.284
 6208SOL     OW19522   6.304   0.274   5.687
 6208SOL    HW119523   6.392   0.256   5.730
 6208SOL    HW219524   6.312   0.263   5.588
 6209SOL     OW19525   4.451   5.965   0.507
 6209SOL    HW119526   4.515   5.899   0.545
 6209SOL    HW219527   4.365   5.961   0.558
 6210SOL     OW19528   5.596   3.627   2.745
 6210SOL    HW119529   5.503   3.619   2.709
 6210SOL    HW219530   5.627   3.538   2.779
 6211SOL     OW19531   2.611   6.943   6.260
 6211SOL    HW119532   2.710   6.960   6.260
 6211SOL    HW219533   2.586   6.900   6.346
 6212SOL     OW19534   6.943   6.204   3.827
 6212SOL    HW119535   6.884   6.280   3.803
 6212SOL    HW219536   6.996   6.176   3.746
 6213SOL     OW19537   6.004   0.626   6.646
 6213SOL    HW119538   5.990   0.724   6.632
 6213SOL    HW219539   5.915   0.582   6.661
 6214SOL     OW19540   6.100   5.093   2.910
 6214SOL    HW119541   6.016   5.067   2.862
 6214SOL    HW219542   6.078   5.115   3.005
 6215SOL     OW19543   3.056   1.699   6.915
 6215SOL    HW119544   3.025   1.745   6.998
 6215SOL    HW219545   3.142   1.740   6.884
 6216SOL     OW19546   6.311   2.281   1.515
 6216SOL    HW119547   6.287   2.246   1.425
 6216SOL    HW219548   6.275   2.219   1.585
 6217SOL     OW19549   4.740   2.915   1.538
 6217SOL    HW119550   4.736   3.014   1.542
 6217SOL    HW219551   4.654   2.879   1.502
 6218SOL     OW19552   2.954   5.158   4.651
 6218SOL    HW119553   2.921   5.242   4.694
 6218SOL    HW219554   2.922   5.079   4.704
 6219SOL     OW19555   1.664   2.298   5.036
 6219SOL    HW119556   1.586   2.327   4.980
 6219SOL    HW219557   1.678   2.200   5.025
 6220SOL     OW19558   1.605   4.956   5.595
 6220SOL    HW119559   1.693   4.920   5.626
 6220SOL    HW219560   1.601   4.954   5.495
 6221SOL     OW19561   4.640   5.153   4.860
 6221SOL    HW119562   4.569   5.183   4.797
 6221SOL    HW219563   4.726   5.139   4.810
 6222SOL     OW19564   0.681   0.361   1.367
 6222SOL    HW119565   0.622   0.319   1.298
 6222SOL    HW219566   0.708   0.452   1.338
 6223SOL     OW19567   5.723   3.705   4.079
 6223SOL    HW119568   5.779   3.760   4.018
 6223SOL    HW219569   5.725   3.745   4.171
 6224SOL     OW19570   1.926   1.255   6.115
 6224SOL    HW119571   1.958   1.182   6.174
 6224SOL    HW219572   1.953   1.343   6.152
 6225SOL     OW19573   3.621   3.483   1.423
 6225SOL    HW119574   3.603   3.399   1.373
 6225SOL    HW219575   3.616   3.561   1.361
 6226SOL     OW19576   5.881   1.353   3.779
 6226SOL    HW119577   5.927   1.399   3.703
 6226SOL    HW219578   5.940   1.355   3.860
 6227SOL     OW19579   3.052   4.463   5.912
 6227SOL    HW119580   3.113   4.431   5.840
 6227SOL    HW219581   3.105   4.506   5.985
 6228SOL     OW19582   6.685   1.766   3.091
 6228SOL    HW119583   6.591   1.793   3.111
 6228SOL    HW219584   6.686   1.676   3.047
 6229SOL     OW19585   2.573   1.526   3.192
 6229SOL    HW119586   2.626   1.449   3.227
 6229SOL    HW219587   2.479   1.520   3.226
 6230SOL     OW19588   2.262   1.339   4.553
 6230SOL    HW119589   2.306   1.429   4.552
 6230SOL    HW219590   2.302   1.281   4.482
 6231SOL     OW19591   6.827   4.469   0.937
 6231SOL    HW119592   6.899   4.408   0.904
 6231SOL    HW219593   6.775   4.505   0.859
 6232SOL     OW19594   6.932   1.293   0.371
 6232SOL    HW119595   6.849   1.316   0.320
 6232SOL    HW219596   6.915   1.213   0.428
 6233SOL     OW19597   5.554   2.022   6.847
 6233SOL    HW119598   5.608   1.941   6.870
 6233SOL    HW219599   5.585   2.059   6.760
 6234SOL     OW19600   1.393   1.377   4.712
 6234SOL    HW119601   1.333   1.311   4.667
 6234SOL    HW219602   1.341   1.459   4.736
 6235SOL     OW19603   2.039   6.834   3.260
 6235SOL    HW119604   2.079   6.870   3.176
 6235SOL    HW219605   2.106   6.776   3.307
 6236SOL     OW19606   0.045   4.746   1.392
 6236SOL    HW119607   7.015   4.813   1.338
 6236SOL    HW219608   0.022   4.654   1.361
 6237SOL     OW19609   4.639   5.836   0.696
 6237SOL    HW119610   4.642   5.746   0.655
 6237SOL    HW219611   4.732   5.866   0.719
 6238SOL     OW19612   4.564   5.662   2.046
 6238SOL    HW119613   4.663   5.651   2.037
 6238SOL    HW219614   4.545   5.732   2.115
 6239SOL     OW19615   2.731   6.303   2.307
 6239SOL    HW119616   2.655   6.245   2.276
 6239SOL    HW219617   2.725   6.316   2.406
 6240SOL     OW19618   2.753   2.490   1.251
 6240SOL    HW119619   2.748   2.413   1.187
 6240SOL    HW219620   2.712   2.463   1.338
 6241SOL     OW19621   3.097   0.862   2.312
 6241SOL    HW119622   3.108   0.929   2.385
 6241SOL    HW219623   3.000   0.841   2.299
 6242SOL     OW19624   5.469   1.043   3.578
 6242SOL    HW119625   5.415   1.128   3.580
 6242SOL    HW219626   5.555   1.060   3.530
 6243SOL     OW19627   5.834   6.654   3.405
 6243SOL    HW119628   5.906   6.653   3.336
 6243SOL    HW219629   5.811   6.749   3.428
 6244SOL     OW19630   2.397   2.454   1.981
 6244SOL    HW119631   2.335   2.378   1.962
 6244SOL    HW219632   2.440   2.440   2.070
 6245SOL     OW19633   2.832   4.207   1.472
 6245SOL    HW119634   2.874   4.254   1.550
 6245SOL    HW219635   2.784   4.274   1.415
 6246SOL     OW19636   2.899   2.882   6.876
 6246SOL    HW119637   2.850   2.831   6.806
 6246SOL    HW219638   2.997   2.884   6.853
 6247SOL     OW19639   0.212   0.173   3.799
 6247SOL    HW119640   0.186   0.218   3.713
 6247SOL    HW219641   0.303   0.131   3.788
 6248SOL     OW19642   0.805   4.023   1.164
 6248SOL    HW119643   0.853   4.073   1.236
 6248SOL    HW219644   0.752   3.949   1.205
 6249SOL     OW19645   0.052   4.643   0.428
 6249SOL    HW119646   0.135   4.653   0.483
 6249SOL    HW219647   0.027   4.732   0.390
 6250SOL     OW19648   7.013   6.608   0.811
 6250SOL    HW119649   6.997   6.696   0.766
 6250SOL    HW219650   6.944   6.592   0.881
 6251SOL     OW19651   4.059   0.367   1.304
 6251SOL    HW119652   4.116   0.367   1.386
 6251SOL    HW219653   3.968   0.331   1.326
 6252SOL     OW19654   2.598   6.099   5.292
 6252SOL    HW119655   2.501   6.078   5.277
 6252SOL    HW219656   2.615   6.195   5.269
 6253SOL     OW19657   2.164   4.046   1.927
 6253SOL    HW119658   2.093   3.978   1.911
 6253SOL    HW219659   2.132   4.136   1.896
 6254SOL     OW19660   5.792   0.218   6.697
 6254SOL    HW119661   5.756   0.139   6.648
 6254SOL    HW219662   5.767   0.211   6.794
 6255SOL     OW19663   1.482   1.285   1.907
 6255SOL    HW119664   1.448   1.379   1.912
 6255SOL    HW219665   1.444   1.232   1.983
 6256SOL     OW19666   4.110   5.328   2.475
 6256SOL    HW119667   4.031   5.386   2.454
 6256SOL    HW219668   4.194   5.379   2.457
 6257SOL     OW19669   5.125   2.346   0.972
 6257SOL    HW119670   5.182   2.369   0.893
 6257SOL    HW219671   5.108   2.429   1.026
 6258SOL     OW19672   4.436   1.132   3.223
 6258SOL    HW119673   4.356   1.099   3.173
 6258SOL    HW219674   4.418   1.129   3.321
 6259SOL     OW19675   3.220   1.949   1.318
 6259SOL    HW119676   3.159   1.989   1.250
 6259SOL    HW219677   3.223   2.007   1.399
 6260SOL     OW19678   3.498   4.061   0.360
 6260SOL    HW119679   3.464   4.022   0.274
 6260SOL    HW219680   3.461   4.153   0.371
 6261SOL     OW19681   4.202   0.049   6.644
 6261SOL    HW119682   4.281   0.095   6.685
 6261SOL    HW219683   4.177   0.096   6.559
 6262SOL     OW19684   1.791   4.347   0.563
 6262SOL    HW119685   1.712   4.304   0.607
 6262SOL    HW219686   1.821   4.425   0.617
 6263SOL     OW19687   0.291   6.114   6.644
 6263SOL    HW119688   0.281   6.210   6.671
 6263SOL    HW219689   0.294   6.107   6.544
 6264SOL     OW19690   2.274   1.085   0.929
 6264SOL    HW119691   2.306   0.993   0.906
 6264SOL    HW219692   2.336   1.128   0.994
 6265SOL     OW19693   3.321   4.501   1.275
 6265SOL    HW119694   3.361   4.409   1.277
 6265SOL    HW219695   3.247   4.507   1.341
 6266SOL     OW19696   3.857   0.955   4.233
 6266SOL    HW119697   3.942   0.938   4.183
 6266SOL    HW219698   3.785   0.896   4.196
 6267SOL     OW19699   3.185   0.341   0.331
 6267SOL    HW119700   3.094   0.303   0.310
 6267SOL    HW219701   3.204   0.417   0.269
 6268SOL     OW19702   2.778   5.537   3.152
 6268SOL    HW119703   2.700   5.494   3.106
 6268SOL    HW219704   2.752   5.561   3.246
 6269SOL     OW19705   5.805   5.848   2.356
 6269SOL    HW119706   5.758   5.784   2.416
 6269SOL    HW219707   5.827   5.803   2.269
 6270SOL     OW19708   1.883   0.427   6.039
 6270SOL    HW119709   1.972   0.454   6.002
 6270SOL    HW219710   1.835   0.509   6.072
 6271SOL     OW19711   0.103   2.663   5.549
 6271SOL    HW119712   0.072   2.582   5.500
 6271SOL    HW219713   0.077   2.656   5.645
 6272SOL     OW19714   0.812   3.545   4.168
 6272SOL    HW119715   0.799   3.638   4.135
 6272SOL    HW219716   0.724   3.506   4.194
 6273SOL     OW19717   1.291   0.770   2.011
 6273SOL    HW119718   1.195   0.747   1.994
 6273SOL    HW219719   1.309   0.864   1.983
 6274SOL     OW19720   2.799   5.728   6.719
 6274SOL    HW119721   2.896   5.747   6.730
 6274SOL    HW219722   2.785   5.674   6.636
 6275SOL     OW19723   3.019   6.730   5.759
 6275SOL    HW119724   3.056   6.653   5.707
 6275SOL    HW219725   2.920   6.734   5.745
 6276SOL     OW19726   1.095   4.939   3.497
 6276SOL    HW119727   1.132   4.994   3.572
 6276SOL    HW219728   1.133   4.971   3.410
 6277SOL     OW19729   4.805   2.735   2.577
 6277SOL    HW119730   4.883   2.742   2.515
 6277SOL    HW219731   4.792   2.640   2.605
 6278SOL     OW19732   4.824   0.245   3.799
 6278SOL    HW119733   4.794   0.161   3.755
 6278SOL    HW219734   4.766   0.264   3.878
 6279SOL     OW19735   3.813   1.514   1.042
 6279SOL    HW119736   3.729   1.534   0.992
 6279SOL    HW219737   3.854   1.430   1.007
 6280SOL     OW19738   6.836   3.021   5.785
 6280SOL    HW119739   6.834   3.106   5.732
 6280SOL    HW219740   6.928   3.007   5.822
 6281SOL     OW19741   2.811   0.013   5.339
 6281SOL    HW119742   2.740   0.051   5.398
 6281SOL    HW219743   2.793   6.937   5.323
 6282SOL     OW19744   1.136   6.752   5.259
 6282SOL    HW119745   1.090   6.804   5.331
 6282SOL    HW219746   1.136   6.804   5.174
 6283SOL     OW19747   6.385   2.535   4.854
 6283SOL    HW119748   6.464   2.516   4.796
 6283SOL    HW219749   6.303   2.540   4.797
 6284SOL     OW19750   1.678   5.373   5.199
 6284SOL    HW119751   1.743   5.428   5.146
 6284SOL    HW219752   1.657   5.289   5.149
 6285SOL     OW19753   1.211   3.065   4.345
 6285SOL    HW119754   1.304   3.078   4.309
 6285SOL    HW219755   1.163   3.153   4.345
 6286SOL     OW19756   5.706   1.250   3.592
 6286SOL    HW119757   5.706   1.152   3.612
 6286SOL    HW219758   5.781   1.294   3.640
 6287SOL     OW19759   4.634   4.517   1.857
 6287SOL    HW119760   4.556   4.572   1.828
 6287SOL    HW219761   4.611   4.420   1.848
 6288SOL     OW19762   5.387   4.171   1.136
 6288SOL    HW119763   5.401   4.080   1.096
 6288SOL    HW219764   5.441   4.238   1.085
 6289SOL     OW19765   2.027   2.633   3.612
 6289SOL    HW119766   1.929   2.634   3.631
 6289SOL    HW219767   2.077   2.666   3.693
 6290SOL     OW19768   5.136   3.872   4.222
 6290SOL    HW119769   5.051   3.896   4.176
 6290SOL    HW219770   5.209   3.933   4.192
 6291SOL     OW19771   3.818   3.237   3.434
 6291SOL    HW119772   3.900   3.286   3.463
 6291SOL    HW219773   3.749   3.303   3.402
 6292SOL     OW19774   0.777   2.426   3.255
 6292SOL    HW119775   0.729   2.448   3.170
 6292SOL    HW219776   0.868   2.390   3.233
 6293SOL     OW19777   4.981   6.687   0.248
 6293SOL    HW119778   5.030   6.770   0.273
 6293SOL    HW219779   5.046   6.620   0.212
 6294SOL     OW19780   3.520   5.568   2.874
 6294SOL    HW119781   3.562   5.629   2.807
 6294SOL    HW219782   3.562   5.477   2.867
 6295SOL     OW19783   5.308   5.397   5.250
 6295SOL    HW119784   5.292   5.305   5.215
 6295SOL    HW219785   5.223   5.450   5.245
 6296SOL     OW19786   6.145   0.700   3.684
 6296SOL    HW119787   6.154   0.710   3.585
 6296SOL    HW219788   6.058   0.740   3.713
 6297SOL     OW19789   5.299   6.324   5.952
 6297SOL    HW119790   5.395   6.305   5.931
 6297SOL    HW219791   5.247   6.239   5.954
 6298SOL     OW19792   0.995   3.704   6.009
 6298SOL    HW119793   0.925   3.774   5.993
 6298SOL    HW219794   1.086   3.743   5.992
 6299SOL     OW19795   6.085   2.314   6.371
 6299SOL    HW119796   6.013   2.254   6.406
 6299SOL    HW219797   6.168   2.302   6.425
 6300SOL     OW19798   5.289   0.327   4.380
 6300SOL    HW119799   5.306   0.425   4.365
 6300SOL    HW219800   5.332   0.299   4.466
 6301SOL     OW19801   2.926   6.898   0.913
 6301SOL    HW119802   3.024   6.893   0.895
 6301SOL    HW219803   2.900   6.829   0.980
 6302SOL     OW19804   1.583   1.020   3.736
 6302SOL    HW119805   1.567   0.945   3.800
 6302SOL    HW219806   1.504   1.030   3.676
 6303SOL     OW19807   2.478   0.098   5.103
 6303SOL    HW119808   2.572   0.077   5.075
 6303SOL    HW219809   2.476   0.184   5.154
 6304SOL     OW19810   3.498   0.133   0.880
 6304SOL    HW119811   3.532   0.219   0.918
 6304SOL    HW219812   3.440   0.087   0.947
 6305SOL     OW19813   6.378   6.894   1.228
 6305SOL    HW119814   6.336   6.977   1.265
 6305SOL    HW219815   6.477   6.897   1.242
 6306SOL     OW19816   0.090   3.235   3.753
 6306SOL    HW119817   0.126   3.170   3.820
 6306SOL    HW219818   0.027   3.298   3.798
 6307SOL     OW19819   3.202   4.995   5.429
 6307SOL    HW119820   3.214   4.937   5.348
 6307SOL    HW219821   3.204   4.938   5.511
 6308SOL     OW19822   1.721   1.556   5.149
 6308SOL    HW119823   1.809   1.599   5.169
 6308SOL    HW219824   1.655   1.581   5.220
 6309SOL     OW19825   4.963   2.616   3.948
 6309SOL    HW119826   5.059   2.630   3.970
 6309SOL    HW219827   4.952   2.609   3.849
 6310SOL     OW19828   2.175   4.710   4.355
 6310SOL    HW119829   2.107   4.776   4.323
 6310SOL    HW219830   2.251   4.758   4.398
 6311SOL     OW19831   6.892   0.368   4.895
 6311SOL    HW119832   6.986   0.358   4.865
 6311SOL    HW219833   6.855   0.455   4.862
 6312SOL     OW19834   4.449   5.262   6.652
 6312SOL    HW119835   4.367   5.288   6.600
 6312SOL    HW219836   4.428   5.266   6.750
 6313SOL     OW19837   1.922   5.989   3.425
 6313SOL    HW119838   1.850   5.919   3.430
 6313SOL    HW219839   1.992   5.960   3.361
 6314SOL     OW19840   3.310   6.224   2.157
 6314SOL    HW119841   3.275   6.317   2.170
 6314SOL    HW219842   3.273   6.186   2.073
 6315SOL     OW19843   4.390   2.949   6.745
 6315SOL    HW119844   4.386   3.029   6.804
 6315SOL    HW219845   4.467   2.891   6.771
 6316SOL     OW19846   5.190   2.238   6.163
 6316SOL    HW119847   5.096   2.248   6.131
 6316SOL    HW219848   5.202   2.292   6.247
 6317SOL     OW19849   5.230   6.875   2.661
 6317SOL    HW119850   5.139   6.917   2.654
 6317SOL    HW219851   5.287   6.930   2.723
 6318SOL     OW19852   2.513   2.071   6.052
 6318SOL    HW119853   2.447   2.089   5.979
 6318SOL    HW219854   2.466   2.028   6.129
 6319SOL     OW19855   0.645   3.143   3.521
 6319SOL    HW119856   0.581   3.159   3.446
 6319SOL    HW219857   0.649   3.046   3.541
 6320SOL     OW19858   5.864   4.142   3.001
 6320SOL    HW119859   5.787   4.205   3.008
 6320SOL    HW219860   5.855   4.071   3.071
 6321SOL     OW19861   2.805   5.358   0.694
 6321SOL    HW119862   2.876   5.400   0.637
 6321SOL    HW219863   2.722   5.343   0.639
 6322SOL     OW19864   1.494   1.523   6.508
 6322SOL    HW119865   1.532   1.436   6.541
 6322SOL    HW219866   1.463   1.577   6.586
 6323SOL     OW19867   3.388   2.327   1.673
 6323SOL    HW119868   3.472   2.365   1.712
 6323SOL    HW219869   3.333   2.401   1.634
 6324SOL     OW19870   4.781   0.336   5.745
 6324SOL    HW119871   4.692   0.290   5.745
 6324SOL    HW219872   4.845   0.286   5.686
 6325SOL     OW19873   1.031   2.968   2.198
 6325SOL    HW119874   1.103   3.022   2.155
 6325SOL    HW219875   1.039   2.872   2.171
 6326SOL     OW19876   5.509   6.133   0.981
 6326SOL    HW119877   5.513   6.033   0.991
 6326SOL    HW219878   5.573   6.175   1.045
 6327SOL     OW19879   6.392   6.212   5.406
 6327SOL    HW119880   6.450   6.171   5.335
 6327SOL    HW219881   6.322   6.147   5.434
 6328SOL     OW19882   1.378   4.596   7.017
 6328SOL    HW119883   1.470   4.564   0.015
 6328SOL    HW219884   1.370   4.620   6.920
 6329SOL     OW19885   1.248   1.268   3.584
 6329SOL    HW119886   1.163   1.257   3.635
 6329SOL    HW219887   1.227   1.285   3.488
 6330SOL     OW19888   4.725   0.897   0.579
 6330SOL    HW119889   4.754   0.858   0.666
 6330SOL    HW219890   4.802   0.943   0.536
 6331SOL     OW19891   6.395   2.136   0.971
 6331SOL    HW119892   6.338   2.193   0.913
 6331SOL    HW219893   6.369   2.040   0.960
 6332SOL     OW19894   6.120   5.662   1.608
 6332SOL    HW119895   6.027   5.697   1.619
 6332SOL    HW219896   6.172   5.722   1.548
 6333SOL     OW19897   3.319   5.401   3.679
 6333SOL    HW119898   3.289   5.494   3.698
 6333SOL    HW219899   3.247   5.337   3.708
 6334SOL     OW19900   2.483   0.002   2.762
 6334SOL    HW119901   2.394   0.007   2.717
 6334SOL    HW219902   2.527   6.937   2.739
 6335SOL     OW19903   5.964   1.271   0.190
 6335SOL    HW119904   5.928   1.350   0.240
 6335SOL    HW219905   6.016   1.213   0.253
 6336SOL     OW19906   6.712   2.407   4.426
 6336SOL    HW119907   6.782   2.436   4.361
 6336SOL    HW219908   6.621   2.422   4.387
 6337SOL     OW19909   5.539   2.835   5.609
 6337SOL    HW119910   5.471   2.832   5.681
 6337SOL    HW219911   5.494   2.834   5.520
 6338SOL     OW19912   2.587   1.704   2.131
 6338SOL    HW119913   2.501   1.748   2.106
 6338SOL    HW219914   2.570   1.637   2.203
 6339SOL     OW19915   0.673   2.413   3.752
 6339SOL    HW119916   0.772   2.396   3.752
 6339SOL    HW219917   0.638   2.402   3.659
 6340SOL     OW19918   2.653   5.526   3.751
 6340SOL    HW119919   2.599   5.587   3.693
 6340SOL    HW219920   2.656   5.435   3.710
 6341SOL     OW19921   0.056   4.959   3.243
 6341SOL    HW119922   0.015   4.873   3.274
 6341SOL    HW219923   0.128   4.986   3.307
 6342SOL     OW19924   2.418   2.285   2.237
 6342SOL    HW119925   2.363   2.224   2.294
 6342SOL    HW219926   2.460   2.233   2.163
 6343SOL     OW19927   4.216   3.044   6.516
 6343SOL    HW119928   4.226   3.086   6.607
 6343SOL    HW219929   4.250   2.950   6.519
 6344SOL     OW19930   6.720   3.359   5.079
 6344SOL    HW119931   6.789   3.297   5.044
 6344SOL    HW219932   6.717   3.441   5.022
 6345SOL     OW19933   4.082   1.548   2.709
 6345SOL    HW119934   4.016   1.609   2.665
 6345SOL    HW219935   4.114   1.481   2.644
 6346SOL     OW19936   6.629   2.762   3.117
 6346SOL    HW119937   6.542   2.720   3.144
 6346SOL    HW219938   6.677   2.794   3.199
 6347SOL     OW19939   3.190   0.300   1.599
 6347SOL    HW119940   3.229   0.384   1.637
 6347SOL    HW219941   3.103   0.280   1.644
 6348SOL     OW19942   0.778   3.972   4.906
 6348SOL    HW119943   0.781   3.878   4.941
 6348SOL    HW219944   0.855   3.987   4.844
 6349SOL     OW19945   3.288   0.562   1.667
 6349SOL    HW119946   3.327   0.593   1.754
 6349SOL    HW219947   3.310   0.627   1.595
 6350SOL     OW19948   1.309   5.511   3.307
 6350SOL    HW119949   1.324   5.457   3.390
 6350SOL    HW219950   1.388   5.502   3.247
 6351SOL     OW19951   6.653   2.440   2.548
 6351SOL    HW119952   6.606   2.420   2.462
 6351SOL    HW219953   6.590   2.485   2.611
 6352SOL     OW19954   1.342   5.364   3.559
 6352SOL    HW119955   1.267   5.391   3.619
 6352SOL    HW219956   1.379   5.276   3.590
 6353SOL     OW19957   0.243   0.306   6.671
 6353SOL    HW119958   0.166   0.302   6.734
 6353SOL    HW219959   0.248   0.398   6.631
 6354SOL     OW19960   0.921   0.022   2.341
 6354SOL    HW119961   0.958   0.064   2.424
 6354SOL    HW219962   0.894   6.949   2.360
 6355SOL     OW19963   1.467   4.009   4.497
 6355SOL    HW119964   1.565   4.000   4.478
 6355SOL    HW219965   1.435   4.099   4.466
 6356SOL     OW19966   5.070   4.791   1.231
 6356SOL    HW119967   5.169   4.796   1.215
 6356SOL    HW219968   5.052   4.801   1.329
 6357SOL     OW19969   4.287   2.896   0.357
 6357SOL    HW119970   4.230   2.855   0.287
 6357SOL    HW219971   4.325   2.824   0.416
 6358SOL     OW19972   6.856   2.433   4.150
 6358SOL    HW119973   6.839   2.334   4.146
 6358SOL    HW219974   6.949   2.450   4.182
 6359SOL     OW19975   6.853   0.677   5.692
 6359SOL    HW119976   6.860   0.773   5.666
 6359SOL    HW219977   6.928   0.625   5.650
 6360SOL     OW19978   2.604   4.582   4.208
 6360SOL    HW119979   2.641   4.660   4.258
 6360SOL    HW219980   2.536   4.536   4.265
 6361SOL     OW19981   4.759   5.511   6.517
 6361SOL    HW119982   4.721   5.475   6.431
 6361SOL    HW219983   4.851   5.473   6.531
 6362SOL     OW19984   6.168   4.232   6.771
 6362SOL    HW119985   6.081   4.224   6.818
 6362SOL    HW219986   6.241   4.194   6.828
 6363SOL     OW19987   2.277   6.066   4.273
 6363SOL    HW119988   2.197   6.091   4.328
 6363SOL    HW219989   2.307   6.145   4.221
 6364SOL     OW19990   2.918   2.168   5.676
 6364SOL    HW119991   3.004   2.219   5.677
 6364SOL    HW219992   2.933   2.076   5.639
 6365SOL     OW19993   4.977   0.186   3.493
 6365SOL    HW119994   4.913   0.262   3.493
 6365SOL    HW219995   4.928   0.101   3.475
 6366SOL     OW19996   0.784   5.068   4.919
 6366SOL    HW119997   0.748   5.162   4.919
 6366SOL    HW219998   0.837   5.052   5.002
 6367SOL     OW19999   4.867   0.664   3.303
 6367SOL    HW120000   4.883   0.589   3.367
 6367SOL    HW220001   4.813   0.631   3.226
 6368SOL     OW20002   3.024   0.161   4.185
 6368SOL    HW120003   3.107   0.210   4.211
 6368SOL    HW220004   2.970   0.140   4.267
 6369SOL     OW20005   2.946   5.301   4.417
 6369SOL    HW120006   2.849   5.301   4.392
 6369SOL    HW220007   2.957   5.261   4.508
 6370SOL     OW20008   0.042   2.417   1.960
 6370SOL    HW120009   6.994   2.380   1.897
 6370SOL    HW220010   0.012   2.403   2.054
 6371SOL     OW20011   4.939   2.761   3.040
 6371SOL    HW120012   4.911   2.735   3.132
 6371SOL    HW220013   4.867   2.816   2.997
 6372SOL     OW20014   3.192   6.123   1.932
 6372SOL    HW120015   3.254   6.045   1.923
 6372SOL    HW220016   3.146   6.139   1.844
 6373SOL     OW20017   5.438   4.405   5.348
 6373SOL    HW120018   5.357   4.451   5.386
 6373SOL    HW220019   5.507   4.395   5.419
 6374SOL     OW20020   3.278   3.287   3.634
 6374SOL    HW120021   3.200   3.228   3.612
 6374SOL    HW220022   3.347   3.279   3.562
 6375SOL     OW20023   0.973   0.992   3.202
 6375SOL    HW120024   1.071   0.981   3.212
 6375SOL    HW220025   0.927   0.973   3.289
 6376SOL     OW20026   0.489   1.413   4.514
 6376SOL    HW120027   0.402   1.449   4.481
 6376SOL    HW220028   0.479   1.386   4.610
 6377SOL     OW20029   6.876   0.939   5.590
 6377SOL    HW120030   6.869   1.036   5.616
 6377SOL    HW220031   6.844   0.928   5.496
 6378SOL     OW20032   4.782   3.981   3.523
 6378SOL    HW120033   4.715   3.986   3.597
 6378SOL    HW220034   4.763   4.051   3.455
 6379SOL     OW20035   2.208   4.966   4.001
 6379SOL    HW120036   2.260   4.888   4.035
 6379SOL    HW220037   2.235   5.048   4.051
 6380SOL     OW20038   0.765   1.033   5.489
 6380SOL    HW120039   0.696   1.014   5.558
 6380SOL    HW220040   0.840   0.968   5.497
 6381SOL     OW20041   3.076   3.355   2.529
 6381SOL    HW120042   3.175   3.347   2.538
 6381SOL    HW220043   3.040   3.275   2.481
 6382SOL     OW20044   1.309   2.681   6.166
 6382SOL    HW120045   1.264   2.595   6.189
 6382SOL    HW220046   1.308   2.693   6.067
 6383SOL     OW20047   2.326   2.395   4.036
 6383SOL    HW120048   2.272   2.380   3.953
 6383SOL    HW220049   2.264   2.402   4.115
 6384SOL     OW20050   6.099   4.502   2.222
 6384SOL    HW120051   6.049   4.586   2.247
 6384SOL    HW220052   6.195   4.511   2.248
 6385SOL     OW20053   6.201   4.933   3.768
 6385SOL    HW120054   6.115   4.929   3.718
 6385SOL    HW220055   6.252   4.848   3.752
 6386SOL     OW20056   2.643   4.693   1.047
 6386SOL    HW120057   2.647   4.737   1.137
 6386SOL    HW220058   2.558   4.718   1.001
 6387SOL     OW20059   0.266   2.058   6.095
 6387SOL    HW120060   0.263   2.143   6.148
 6387SOL    HW220061   0.359   2.022   6.095
 6388SOL     OW20062   3.864   4.942   1.314
 6388SOL    HW120063   3.909   4.939   1.225
 6388SOL    HW220064   3.767   4.920   1.303
 6389SOL     OW20065   0.676   5.697   2.752
 6389SOL    HW120066   0.649   5.792   2.742
 6389SOL    HW220067   0.669   5.671   2.848
 6390SOL     OW20068   0.160   2.169   3.191
 6390SOL    HW120069   0.132   2.186   3.285
 6390SOL    HW220070   0.176   2.256   3.144
 6391SOL     OW20071   3.381   1.496   0.186
 6391SOL    HW120072   3.292   1.451   0.189
 6391SOL    HW220073   3.378   1.579   0.242
 6392SOL     OW20074   2.080   6.758   4.005
 6392SOL    HW120075   2.016   6.823   3.963
 6392SOL    HW220076   2.069   6.761   4.104
 6393SOL     OW20077   5.407   6.508   1.435
 6393SOL    HW120078   5.475   6.558   1.382
 6393SOL    HW220079   5.318   6.554   1.427
 6394SOL     OW20080   2.348   4.742   0.655
 6394SOL    HW120081   2.308   4.824   0.615
 6394SOL    HW220082   2.355   4.671   0.585
 6395SOL     OW20083   6.537   1.517   1.221
 6395SOL    HW120084   6.560   1.473   1.308
 6395SOL    HW220085   6.438   1.516   1.209
 6396SOL     OW20086   5.135   2.544   6.064
 6396SOL    HW120087   5.136   2.643   6.050
 6396SOL    HW220088   5.204   2.502   6.006
 6397SOL     OW20089   0.005   2.356   6.466
 6397SOL    HW120090   0.016   2.267   6.422
 6397SOL    HW220091   0.075   2.419   6.434
 6398SOL     OW20092   3.377   0.764   1.527
 6398SOL    HW120093   3.463   0.810   1.549
 6398SOL    HW220094   3.334   0.808   1.448
 6399SOL     OW20095   1.566   5.679   6.761
 6399SOL    HW120096   1.648   5.650   6.811
 6399SOL    HW220097   1.500   5.605   6.758
 6400SOL     OW20098   2.243   5.285   3.500
 6400SOL    HW120099   2.277   5.378   3.517
 6400SOL    HW220100   2.145   5.282   3.519
 6401SOL     OW20101   0.278   4.671   3.382
 6401SOL    HW120102   0.324   4.743   3.330
 6401SOL    HW220103   0.208   4.713   3.441
 6402SOL     OW20104   2.824   0.792   3.145
 6402SOL    HW120105   2.822   0.892   3.147
 6402SOL    HW220106   2.904   0.761   3.093
 6403SOL     OW20107   0.734   4.780   0.363
 6403SOL    HW120108   0.812   4.745   0.312
 6403SOL    HW220109   0.649   4.750   0.320
 6404SOL     OW20110   4.333   1.856   3.412
 6404SOL    HW120111   4.370   1.948   3.400
 6404SOL    HW220112   4.274   1.833   3.334
 6405SOL     OW20113   1.810   1.995   2.768
 6405SOL    HW120114   1.808   1.950   2.679
 6405SOL    HW220115   1.888   1.961   2.821
 6406SOL     OW20116   1.872   0.954   3.686
 6406SOL    HW120117   1.867   0.884   3.615
 6406SOL    HW220118   1.787   1.007   3.686
 6407SOL     OW20119   3.191   0.003   4.471
 6407SOL    HW120120   3.271   0.048   4.430
 6407SOL    HW220121   3.130   6.992   4.398
 6408SOL     OW20122   5.660   1.820   6.997
 6408SOL    HW120123   5.671   1.846   0.071
 6408SOL    HW220124   5.618   1.729   6.991
 6409SOL     OW20125   6.315   3.421   2.789
 6409SOL    HW120126   6.238   3.441   2.850
 6409SOL    HW220127   6.304   3.329   2.751
 6410SOL     OW20128   1.966   1.796   0.420
 6410SOL    HW120129   1.955   1.712   0.474
 6410SOL    HW220130   1.890   1.804   0.356
 6411SOL     OW20131   1.024   1.567   3.174
 6411SOL    HW120132   1.027   1.573   3.273
 6411SOL    HW220133   0.931   1.545   3.144
 6412SOL     OW20134   6.732   2.871   5.410
 6412SOL    HW120135   6.829   2.871   5.432
 6412SOL    HW220136   6.700   2.777   5.400
 6413SOL     OW20137   5.794   4.837   2.011
 6413SOL    HW120138   5.887   4.854   1.978
 6413SOL    HW220139   5.729   4.872   1.944
 6414SOL     OW20140   5.767   0.776   1.656
 6414SOL    HW120141   5.716   0.694   1.633
 6414SOL    HW220142   5.846   0.752   1.713
 6415SOL     OW20143   2.455   2.091   2.025
 6415SOL    HW120144   2.432   1.995   2.006
 6415SOL    HW220145   2.551   2.096   2.054
 6416SOL     OW20146   0.793   6.946   6.804
 6416SOL    HW120147   0.791   6.908   6.896
 6416SOL    HW220148   0.701   6.945   6.765
 6417SOL     OW20149   0.411   6.837   3.186
 6417SOL    HW120150   0.373   6.909   3.128
 6417SOL    HW220151   0.473   6.780   3.132
 6418SOL     OW20152   6.151   5.178   2.329
 6418SOL    HW120153   6.145   5.208   2.425
 6418SOL    HW220154   6.130   5.080   2.324
 6419SOL     OW20155   3.101   5.402   1.901
 6419SOL    HW120156   3.033   5.338   1.935
 6419SOL    HW220157   3.118   5.472   1.971
 6420SOL     OW20158   2.847   3.341   6.475
 6420SOL    HW120159   2.826   3.261   6.531
 6420SOL    HW220160   2.834   3.424   6.530
 6421SOL     OW20161   5.828   0.971   1.299
 6421SOL    HW120162   5.890   1.022   1.359
 6421SOL    HW220163   5.785   1.033   1.234
 6422SOL     OW20164   6.560   0.821   3.167
 6422SOL    HW120165   6.573   0.907   3.118
 6422SOL    HW220166   6.511   0.757   3.107
 6423SOL     OW20167   4.646   3.781   1.146
 6423SOL    HW120168   4.666   3.690   1.182
 6423SOL    HW220169   4.647   3.779   1.046
 6424SOL     OW20170   6.651   4.311   6.140
 6424SOL    HW120171   6.589   4.238   6.172
 6424SOL    HW220172   6.646   4.317   6.040
 6425SOL     OW20173   6.897   4.735   2.735
 6425SOL    HW120174   6.962   4.807   2.711
 6425SOL    HW220175   6.936   4.677   2.806
 6426SOL     OW20176   1.342   3.206   4.046
 6426SOL    HW120177   1.296   3.241   4.128
 6426SOL    HW220178   1.279   3.150   3.993
 6427SOL     OW20179   1.170   3.604   6.630
 6427SOL    HW120180   1.131   3.686   6.672
 6427SOL    HW220181   1.142   3.599   6.534
 6428SOL     OW20182   6.795   3.472   2.218
 6428SOL    HW120183   6.763   3.550   2.164
 6428SOL    HW220184   6.729   3.397   2.212
 6429SOL     OW20185   1.838   1.142   4.511
 6429SOL    HW120186   1.856   1.105   4.602
 6429SOL    HW220187   1.751   1.192   4.512
 6430SOL     OW20188   4.823   0.907   1.806
 6430SOL    HW120189   4.824   0.924   1.707
 6430SOL    HW220190   4.746   0.848   1.828
 6431SOL     OW20191   5.193   0.130   2.960
 6431SOL    HW120192   5.185   0.149   3.058
 6431SOL    HW220193   5.178   0.214   2.909
 6432SOL     OW20194   4.344   4.113   0.411
 6432SOL    HW120195   4.310   4.162   0.491
 6432SOL    HW220196   4.304   4.151   0.328
 6433SOL     OW20197   3.141   4.513   1.047
 6433SOL    HW120198   3.057   4.545   1.091
 6433SOL    HW220199   3.217   4.521   1.112
 6434SOL     OW20200   1.050   3.755   1.209
 6434SOL    HW120201   1.000   3.785   1.127
 6434SOL    HW220202   1.110   3.679   1.185
 6435SOL     OW20203   3.720   5.290   0.208
 6435SOL    HW120204   3.783   5.212   0.210
 6435SOL    HW220205   3.626   5.257   0.213
 6436SOL     OW20206   1.750   3.482   3.472
 6436SOL    HW120207   1.755   3.475   3.571
 6436SOL    HW220208   1.656   3.469   3.442
 6437SOL     OW20209   1.657   0.338   0.157
 6437SOL    HW120210   1.733   0.353   0.093
 6437SOL    HW220211   1.580   0.397   0.132
 6438SOL     OW20212   0.945   4.279   5.152
 6438SOL    HW120213   0.944   4.290   5.052
 6438SOL    HW220214   0.854   4.251   5.183
 6439SOL     OW20215   1.226   0.076   0.527
 6439SOL    HW120216   1.266   0.064   0.618
 6439SOL    HW220217   1.177   0.163   0.524
 6440SOL     OW20218   1.980   1.788   1.770
 6440SOL    HW120219   1.948   1.725   1.700
 6440SOL    HW220220   1.943   1.879   1.752
 6441SOL     OW20221   1.668   0.857   2.581
 6441SOL    HW120222   1.591   0.916   2.607
 6441SOL    HW220223   1.752   0.911   2.579
 6442SOL     OW20224   2.534   1.590   4.740
 6442SOL    HW120225   2.564   1.612   4.833
 6442SOL    HW220226   2.612   1.592   4.678
 6443SOL     OW20227   3.152   3.084   0.314
 6443SOL    HW120228   3.217   3.116   0.383
 6443SOL    HW220229   3.076   3.037   0.359
 6444SOL     OW20230   0.472   2.078   2.783
 6444SOL    HW120231   0.410   2.055   2.859
 6444SOL    HW220232   0.430   2.150   2.728
 6445SOL     OW20233   4.324   2.660   5.358
 6445SOL    HW120234   4.250   2.637   5.294
 6445SOL    HW220235   4.297   2.633   5.451
 6446SOL     OW20236   0.479   1.462   6.648
 6446SOL    HW120237   0.544   1.390   6.668
 6446SOL    HW220238   0.405   1.426   6.591
 6447SOL     OW20239   1.547   6.016   2.469
 6447SOL    HW120240   1.591   5.962   2.541
 6447SOL    HW220241   1.475   6.072   2.509
 6448SOL     OW20242   6.360   3.036   2.475
 6448SOL    HW120243   6.367   3.100   2.551
 6448SOL    HW220244   6.388   3.080   2.390
 6449SOL     OW20245   3.717   4.132   1.907
 6449SOL    HW120246   3.725   4.214   1.850
 6449SOL    HW220247   3.674   4.059   1.854
 6450SOL     OW20248   6.317   3.236   1.629
 6450SOL    HW120249   6.280   3.276   1.545
 6450SOL    HW220250   6.332   3.138   1.616
 6451SOL     OW20251   3.356   6.221   5.487
 6451SOL    HW120252   3.398   6.311   5.476
 6451SOL    HW220253   3.423   6.150   5.467
 6452SOL     OW20254   3.449   6.893   4.942
 6452SOL    HW120255   3.396   6.905   4.858
 6452SOL    HW220256   3.511   6.971   4.953
 6453SOL     OW20257   1.283   6.279   0.255
 6453SOL    HW120258   1.267   6.211   0.184
 6453SOL    HW220259   1.377   6.272   0.287
 6454SOL     OW20260   2.609   1.716   4.312
 6454SOL    HW120261   2.620   1.770   4.229
 6454SOL    HW220262   2.517   1.677   4.314
 6455SOL     OW20263   0.456   2.753   4.753
 6455SOL    HW120264   0.505   2.668   4.734
 6455SOL    HW220265   0.456   2.810   4.671
 6456SOL     OW20266   1.067   0.047   3.407
 6456SOL    HW120267   1.122   6.995   3.449
 6456SOL    HW220268   1.108   0.135   3.429
 6457SOL     OW20269   5.839   2.032   1.524
 6457SOL    HW120270   5.879   1.983   1.446
 6457SOL    HW220271   5.819   1.966   1.597
 6458SOL     OW20272   1.717   5.852   3.096
 6458SOL    HW120273   1.749   5.784   3.031
 6458SOL    HW220274   1.789   5.920   3.112
 6459SOL     OW20275   5.878   5.277   0.293
 6459SOL    HW120276   5.854   5.224   0.374
 6459SOL    HW220277   5.864   5.374   0.311
 6460SOL     OW20278   4.524   4.548   0.101
 6460SOL    HW120279   4.438   4.596   0.118
 6460SOL    HW220280   4.562   4.579   0.014
 6461SOL     OW20281   2.829   5.666   5.650
 6461SOL    HW120282   2.902   5.727   5.620
 6461SOL    HW220283   2.794   5.615   5.572
 6462SOL     OW20284   2.200   3.094   5.267
 6462SOL    HW120285   2.273   3.055   5.211
 6462SOL    HW220286   2.221   3.189   5.288
 6463SOL     OW20287   2.357   4.877   6.439
 6463SOL    HW120288   2.272   4.897   6.488
 6463SOL    HW220289   2.342   4.801   6.376
 6464SOL     OW20290   0.358   5.046   3.468
 6464SOL    HW120291   0.321   5.110   3.400
 6464SOL    HW220292   0.396   4.966   3.421
 6465SOL     OW20293   5.967   1.700   3.912
 6465SOL    HW120294   6.040   1.684   3.845
 6465SOL    HW220295   5.980   1.790   3.953
 6466SOL     OW20296   6.890   2.654   4.712
 6466SOL    HW120297   6.962   2.720   4.733
 6466SOL    HW220298   6.806   2.680   4.761
 6467SOL     OW20299   2.405   0.946   6.567
 6467SOL    HW120300   2.355   0.991   6.641
 6467SOL    HW220301   2.431   0.854   6.594
 6468SOL     OW20302   4.467   6.142   1.817
 6468SOL    HW120303   4.514   6.117   1.733
 6468SOL    HW220304   4.468   6.066   1.881
 6469SOL     OW20305   6.299   1.089   5.068
 6469SOL    HW120306   6.339   1.140   4.992
 6469SOL    HW220307   6.317   1.138   5.154
 6470SOL     OW20308   0.059   6.242   6.026
 6470SOL    HW120309   7.005   6.195   5.980
 6470SOL    HW220310   0.101   6.308   5.963
 6471SOL     OW20311   6.660   5.302   6.165
 6471SOL    HW120312   6.684   5.369   6.235
 6471SOL    HW220313   6.595   5.236   6.203
 6472SOL     OW20314   0.983   6.228   1.378
 6472SOL    HW120315   1.024   6.288   1.309
 6472SOL    HW220316   0.993   6.133   1.349
 6473SOL     OW20317   2.260   1.144   5.934
 6473SOL    HW120318   2.160   1.141   5.928
 6473SOL    HW220319   2.299   1.099   5.854
 6474SOL     OW20320   1.254   3.742   6.258
 6474SOL    HW120321   1.227   3.772   6.166
 6474SOL    HW220322   1.192   3.669   6.289
 6475SOL     OW20323   5.251   6.314   3.892
 6475SOL    HW120324   5.178   6.380   3.906
 6475SOL    HW220325   5.230   6.230   3.942
 6476SOL     OW20326   4.236   4.693   3.019
 6476SOL    HW120327   4.212   4.685   2.923
 6476SOL    HW220328   4.271   4.785   3.037
 6477SOL     OW20329   6.331   5.392   6.133
 6477SOL    HW120330   6.249   5.402   6.077
 6477SOL    HW220331   6.347   5.476   6.185
 6478SOL     OW20332   3.879   5.854   2.030
 6478SOL    HW120333   3.969   5.811   2.027
 6478SOL    HW220334   3.811   5.793   1.990
 6479SOL     OW20335   4.144   5.063   1.994
 6479SOL    HW120336   4.137   4.965   2.012
 6479SOL    HW220337   4.074   5.112   2.047
 6480SOL     OW20338   3.604   2.935   5.965
 6480SOL    HW120339   3.602   3.032   5.942
 6480SOL    HW220340   3.584   2.923   6.062
 6481SOL     OW20341   3.298   2.264   1.192
 6481SOL    HW120342   3.253   2.331   1.134
 6481SOL    HW220343   3.246   2.179   1.193
 6482SOL     OW20344   6.316   0.517   0.183
 6482SOL    HW120345   6.261   0.584   0.235
 6482SOL    HW220346   6.304   0.533   0.085
 6483SOL     OW20347   2.236   6.444   2.630
 6483SOL    HW120348   2.322   6.474   2.672
 6483SOL    HW220349   2.171   6.420   2.702
 6484SOL     OW20350   4.482   0.312   2.574
 6484SOL    HW120351   4.512   0.257   2.495
 6484SOL    HW220352   4.559   0.325   2.637
 6485SOL     OW20353   1.436   3.199   3.425
 6485SOL    HW120354   1.343   3.211   3.462
 6485SOL    HW220355   1.430   3.164   3.331
 6486SOL     OW20356   0.953   4.412   4.267
 6486SOL    HW120357   0.968   4.447   4.360
 6486SOL    HW220358   0.913   4.321   4.272
 6487SOL     OW20359   0.060   6.089   4.329
 6487SOL    HW120360   0.122   6.166   4.318
 6487SOL    HW220361   7.005   6.097   4.265
 6488SOL     OW20362   3.176   6.286   5.683
 6488SOL    HW120363   3.102   6.220   5.689
 6488SOL    HW220364   3.251   6.249   5.627
 6489SOL     OW20365   1.781   2.626   6.722
 6489SOL    HW120366   1.703   2.653   6.665
 6489SOL    HW220367   1.749   2.583   6.806
 6490SOL     OW20368   4.070   2.662   0.275
 6490SOL    HW120369   4.008   2.658   0.353
 6490SOL    HW220370   4.148   2.602   0.290
 6491SOL     OW20371   4.780   0.904   6.510
 6491SOL    HW120372   4.817   0.976   6.451
 6491SOL    HW220373   4.792   0.815   6.465
 6492SOL     OW20374   5.911   6.914   0.117
 6492SOL    HW120375   6.002   6.874   0.106
 6492SOL    HW220376   5.919   7.012   0.135
 6493SOL     OW20377   1.977   6.411   5.907
 6493SOL    HW120378   2.060   6.398   5.851
 6493SOL    HW220379   1.985   6.494   5.960
 6494SOL     OW20380   0.812   0.269   3.790
 6494SOL    HW120381   0.820   0.262   3.691
 6494SOL    HW220382   0.780   0.182   3.827
 6495SOL     OW20383   4.862   5.748   3.029
 6495SOL    HW120384   4.852   5.847   3.030
 6495SOL    HW220385   4.828   5.709   3.115
 6496SOL     OW20386   0.010   6.234   1.850
 6496SOL    HW120387   0.018   6.149   1.902
 6496SOL    HW220388   0.090   6.245   1.791
 6497SOL     OW20389   2.275   3.604   1.199
 6497SOL    HW120390   2.286   3.671   1.273
 6497SOL    HW220391   2.365   3.582   1.162
 6498SOL     OW20392   2.321   4.710   4.087
 6498SOL    HW120393   2.370   4.631   4.050
 6498SOL    HW220394   2.328   4.711   4.186
 6499SOL     OW20395   5.177   0.306   5.189
 6499SOL    HW120396   5.188   0.357   5.274
 6499SOL    HW220397   5.081   0.304   5.162
 6500SOL     OW20398   6.544   4.125   3.623
 6500SOL    HW120399   6.547   4.225   3.625
 6500SOL    HW220400   6.512   4.095   3.534
 6501SOL     OW20401   6.429   3.814   1.317
 6501SOL    HW120402   6.405   3.843   1.410
 6501SOL    HW220403   6.397   3.721   1.301
 6502SOL     OW20404   0.283   4.363   3.793
 6502SOL    HW120405   0.297   4.433   3.863
 6502SOL    HW220406   0.352   4.372   3.722
 6503SOL     OW20407   5.337   6.061   3.077
 6503SOL    HW120408   5.289   6.086   3.161
 6503SOL    HW220409   5.315   6.127   3.006
 6504SOL     OW20410   4.804   0.182   6.978
 6504SOL    HW120411   4.817   0.109   0.024
 6504SOL    HW220412   4.796   0.143   6.887
 6505SOL     OW20413   6.232   4.442   0.723
 6505SOL    HW120414   6.240   4.349   0.758
 6505SOL    HW220415   6.260   4.507   0.794
 6506SOL     OW20416   1.074   2.764   1.229
 6506SOL    HW120417   1.026   2.852   1.222
 6506SOL    HW220418   1.008   2.690   1.225
 6507SOL     OW20419   1.277   5.870   1.395
 6507SOL    HW120420   1.296   5.958   1.352
 6507SOL    HW220421   1.362   5.818   1.405
 6508SOL     OW20422   1.680   2.252   3.862
 6508SOL    HW120423   1.633   2.164   3.853
 6508SOL    HW220424   1.764   2.238   3.916
 6509SOL     OW20425   1.510   2.348   4.804
 6509SOL    HW120426   1.551   2.373   4.716
 6509SOL    HW220427   1.442   2.417   4.830
 6510SOL     OW20428   6.716   5.374   6.626
 6510SOL    HW120429   6.794   5.334   6.578
 6510SOL    HW220430   6.742   5.462   6.666
 6511SOL     OW20431   6.680   0.494   5.384
 6511SOL    HW120432   6.600   0.552   5.369
 6511SOL    HW220433   6.708   0.454   5.297
 6512SOL     OW20434   4.352   6.670   2.917
 6512SOL    HW120435   4.308   6.760   2.915
 6512SOL    HW220436   4.364   6.640   3.011
 6513SOL     OW20437   3.720   6.943   4.245
 6513SOL    HW120438   3.640   6.894   4.211
 6513SOL    HW220439   3.692   7.005   4.318
 6514SOL     OW20440   4.956   0.009   3.963
 6514SOL    HW120441   4.956   0.109   3.951
 6514SOL    HW220442   5.034   7.003   4.019
 6515SOL     OW20443   6.599   5.413   4.394
 6515SOL    HW120444   6.620   5.328   4.440
 6515SOL    HW220445   6.567   5.394   4.301
 6516SOL     OW20446   0.632   1.608   6.904
 6516SOL    HW120447   0.631   1.511   6.927
 6516SOL    HW220448   0.541   1.637   6.875
 6517SOL     OW20449   0.129   1.955   0.375
 6517SOL    HW120450   0.163   2.012   0.450
 6517SOL    HW220451   0.123   1.860   0.406
 6518SOL     OW20452   1.008   6.017   0.640
 6518SOL    HW120453   0.988   5.935   0.694
 6518SOL    HW220454   0.955   6.093   0.676
 6519SOL     OW20455   2.279   1.612   4.612
 6519SOL    HW120456   2.374   1.610   4.642
 6519SOL    HW220457   2.224   1.659   4.680
 6520SOL     OW20458   6.206   5.651   2.472
 6520SOL    HW120459   6.117   5.604   2.465
 6520SOL    HW220460   6.268   5.596   2.528
 6521SOL     OW20461   1.031   1.507   4.321
 6521SOL    HW120462   0.955   1.539   4.264
 6521SOL    HW220463   1.117   1.527   4.276
 6522SOL     OW20464   2.323   5.859   6.965
 6522SOL    HW120465   2.362   5.777   7.009
 6522SOL    HW220466   2.386   5.893   6.896
 6523SOL     OW20467   2.642   1.136   6.605
 6523SOL    HW120468   2.564   1.077   6.581
 6523SOL    HW220469   2.617   1.232   6.593
 6524SOL     OW20470   3.615   3.844   3.647
 6524SOL    HW120471   3.627   3.920   3.584
 6524SOL    HW220472   3.548   3.869   3.718
 6525SOL     OW20473   1.045   2.546   2.997
 6525SOL    HW120474   0.978   2.545   2.922
 6525SOL    HW220475   1.033   2.464   3.053
 6526SOL     OW20476   1.030   6.288   4.699
 6526SOL    HW120477   1.062   6.376   4.664
 6526SOL    HW220478   1.105   6.241   4.745
 6527SOL     OW20479   1.466   0.417   5.319
 6527SOL    HW120480   1.498   0.476   5.245
 6527SOL    HW220481   1.544   0.372   5.362
 6528SOL     OW20482   0.104   1.216   4.244
 6528SOL    HW120483   0.172   1.154   4.205
 6528SOL    HW220484   0.042   1.248   4.172
 6529SOL     OW20485   5.722   1.560   2.376
 6529SOL    HW120486   5.756   1.484   2.431
 6529SOL    HW220487   5.702   1.527   2.283
 6530SOL     OW20488   6.435   2.924   0.289
 6530SOL    HW120489   6.355   2.893   0.238
 6530SOL    HW220490   6.497   2.847   0.303
 6531SOL     OW20491   5.643   2.395   3.803
 6531SOL    HW120492   5.743   2.398   3.796
 6531SOL    HW220493   5.617   2.326   3.871
 6532SOL     OW20494   6.501   1.526   6.401
 6532SOL    HW120495   6.559   1.468   6.457
 6532SOL    HW220496   6.527   1.516   6.304
 6533SOL     OW20497   5.176   6.184   1.235
 6533SOL    HW120498   5.116   6.237   1.295
 6533SOL    HW220499   5.157   6.087   1.246
 6534SOL     OW20500   2.513   3.615   1.448
 6534SOL    HW120501   2.579   3.678   1.488
 6534SOL    HW220502   2.426   3.663   1.434
 6535SOL     OW20503   0.012   3.378   5.152
 6535SOL    HW120504   0.072   3.329   5.089
 6535SOL    HW220505   7.019   3.471   5.119
 6536SOL     OW20506   6.016   1.985   0.094
 6536SOL    HW120507   5.966   1.900   0.078
 6536SOL    HW220508   5.953   2.057   0.123
 6537SOL     OW20509   6.559   6.858   6.799
 6537SOL    HW120510   6.651   6.899   6.801
 6537SOL    HW220511   6.523   6.853   6.892
 6538SOL     OW20512   3.261   3.769   0.247
 6538SOL    HW120513   3.275   3.802   0.340
 6538SOL    HW220514   3.172   3.723   0.240
 6539SOL     OW20515   2.233   1.504   6.428
 6539SOL    HW120516   2.173   1.484   6.506
 6539SOL    HW220517   2.238   1.603   6.415
 6540SOL     OW20518   3.846   1.724   4.289
 6540SOL    HW120519   3.805   1.633   4.285
 6540SOL    HW220520   3.802   1.783   4.222
 6541SOL     OW20521   3.075   2.512   5.363
 6541SOL    HW120522   2.999   2.452   5.390
 6541SOL    HW220523   3.119   2.474   5.282
 6542SOL     OW20524   6.137   4.744   3.031
 6542SOL    HW120525   6.194   4.756   2.950
 6542SOL    HW220526   6.047   4.785   3.015
 6543SOL     OW20527   6.346   5.620   0.537
 6543SOL    HW120528   6.280   5.551   0.510
 6543SOL    HW220529   6.300   5.708   0.550
 6544SOL     OW20530   6.495   6.456   4.345
 6544SOL    HW120531   6.496   6.531   4.280
 6544SOL    HW220532   6.517   6.491   4.436
 6545SOL     OW20533   5.387   1.018   6.067
 6545SOL    HW120534   5.412   1.088   6.135
 6545SOL    HW220535   5.468   0.991   6.016
 6546SOL     OW20536   4.002   4.678   6.350
 6546SOL    HW120537   4.093   4.654   6.386
 6546SOL    HW220538   4.004   4.772   6.316
 6547SOL     OW20539   4.759   2.396   6.208
 6547SOL    HW120540   4.787   2.302   6.227
 6547SOL    HW220541   4.717   2.400   6.117
 6548SOL     OW20542   6.567   4.422   5.902
 6548SOL    HW120543   6.592   4.356   5.831
 6548SOL    HW220544   6.598   4.513   5.874
 6549SOL     OW20545   4.013   2.379   0.984
 6549SOL    HW120546   3.922   2.416   0.962
 6549SOL    HW220547   4.004   2.284   1.012
 6550SOL     OW20548   0.442   5.673   3.470
 6550SOL    HW120549   0.513   5.724   3.518
 6550SOL    HW220550   0.423   5.588   3.519
 6551SOL     OW20551   2.414   4.566   1.584
 6551SOL    HW120552   2.497   4.518   1.613
 6551SOL    HW220553   2.368   4.512   1.513
 6552SOL     OW20554   2.593   5.340   5.760
 6552SOL    HW120555   2.500   5.335   5.797
 6552SOL    HW220556   2.644   5.258   5.785
 6553SOL     OW20557   0.737   3.396   2.061
 6553SOL    HW120558   0.802   3.346   2.003
 6553SOL    HW220559   0.766   3.492   2.068
 6554SOL     OW20560   6.485   1.863   5.770
 6554SOL    HW120561   6.409   1.799   5.758
 6554SOL    HW220562   6.471   1.916   5.854
 6555SOL     OW20563   1.911   0.882   2.019
 6555SOL    HW120564   1.818   0.901   1.989
 6555SOL    HW220565   1.908   0.841   2.111
 6556SOL     OW20566   4.671   4.742   5.050
 6556SOL    HW120567   4.646   4.673   4.982
 6556SOL    HW220568   4.741   4.803   5.012
 6557SOL     OW20569   6.096   5.492   0.524
 6557SOL    HW120570   6.036   5.511   0.446
 6557SOL    HW220571   6.068   5.548   0.602
 6558SOL     OW20572   6.669   6.339   0.796
 6558SOL    HW120573   6.757   6.294   0.781
 6558SOL    HW220574   6.673   6.433   0.759
 6559SOL     OW20575   4.895   3.934   0.845
 6559SOL    HW120576   4.893   3.834   0.834
 6559SOL    HW220577   4.803   3.966   0.866
 6560SOL     OW20578   4.314   3.085   1.340
 6560SOL    HW120579   4.268   3.133   1.266
 6560SOL    HW220580   4.252   3.075   1.418
 6561SOL     OW20581   3.825   4.021   2.492
 6561SOL    HW120582   3.859   4.026   2.399
 6561SOL    HW220583   3.725   4.011   2.491
 6562SOL     OW20584   6.531   4.917   5.767
 6562SOL    HW120585   6.547   4.894   5.863
 6562SOL    HW220586   6.451   4.868   5.734
 6563SOL     OW20587   0.385   5.907   0.167
 6563SOL    HW120588   0.313   5.918   0.098
 6563SOL    HW220589   0.345   5.915   0.258
 6564SOL     OW20590   1.284   3.845   2.059
 6564SOL    HW120591   1.249   3.782   2.129
 6564SOL    HW220592   1.369   3.886   2.091
 6565SOL     OW20593   5.562   2.456   4.907
 6565SOL    HW120594   5.566   2.373   4.962
 6565SOL    HW220595   5.472   2.466   4.866
 6566SOL     OW20596   3.435   0.166   1.745
 6566SOL    HW120597   3.362   0.222   1.704
 6566SOL    HW220598   3.512   0.161   1.681
 6567SOL     OW20599   4.886   3.011   0.441
 6567SOL    HW120600   4.865   2.957   0.523
 6567SOL    HW220601   4.839   2.972   0.363
 6568SOL     OW20602   4.341   4.683   1.926
 6568SOL    HW120603   4.323   4.771   1.882
 6568SOL    HW220604   4.319   4.609   1.863
 6569SOL     OW20605   2.116   5.361   0.738
 6569SOL    HW120606   2.130   5.420   0.659
 6569SOL    HW220607   2.191   5.375   0.803
 6570SOL     OW20608   5.009   0.811   2.009
 6570SOL    HW120609   5.086   0.777   1.955
 6570SOL    HW220610   4.955   0.874   1.953
 6571SOL     OW20611   2.154   5.822   3.814
 6571SOL    HW120612   2.242   5.775   3.826
 6571SOL    HW220613   2.164   5.893   3.744
 6572SOL     OW20614   6.606   3.731   5.214
 6572SOL    HW120615   6.561   3.680   5.140
 6572SOL    HW220616   6.628   3.668   5.289
 6573SOL     OW20617   3.677   1.150   2.722
 6573SOL    HW120618   3.683   1.235   2.774
 6573SOL    HW220619   3.752   1.089   2.749
 6574SOL     OW20620   2.304   5.737   2.179
 6574SOL    HW120621   2.333   5.830   2.202
 6574SOL    HW220622   2.330   5.675   2.253
 6575SOL     OW20623   0.989   1.214   1.595
 6575SOL    HW120624   0.990   1.129   1.542
 6575SOL    HW220625   1.009   1.193   1.691
 6576SOL     OW20626   1.382   5.513   6.937
 6576SOL    HW120627   1.464   5.474   6.977
 6576SOL    HW220628   1.341   5.579   7.001
 6577SOL     OW20629   0.649   1.666   3.543
 6577SOL    HW120630   0.613   1.675   3.450
 6577SOL    HW220631   0.577   1.633   3.603
 6578SOL     OW20632   5.846   5.203   3.606
 6578SOL    HW120633   5.894   5.254   3.535
 6578SOL    HW220634   5.823   5.264   3.682
 6579SOL     OW20635   0.158   3.903   3.734
 6579SOL    HW120636   0.111   3.821   3.701
 6579SOL    HW220637   0.106   3.944   3.808
 6580SOL     OW20638   5.642   0.517   0.786
 6580SOL    HW120639   5.563   0.548   0.839
 6580SOL    HW220640   5.670   0.588   0.722
 6581SOL     OW20641   4.118   1.410   6.256
 6581SOL    HW120642   4.185   1.405   6.330
 6581SOL    HW220643   4.057   1.331   6.260
 6582SOL     OW20644   0.750   7.008   2.699
 6582SOL    HW120645   0.676   6.995   2.633
 6582SOL    HW220646   0.729   0.066   2.757
 6583SOL     OW20647   5.416   1.229   6.262
 6583SOL    HW120648   5.411   1.327   6.248
 6583SOL    HW220649   5.461   1.210   6.350
 6584SOL     OW20650   5.767   1.655   6.199
 6584SOL    HW120651   5.789   1.606   6.283
 6584SOL    HW220652   5.676   1.695   6.207
 6585SOL     OW20653   0.298   1.885   6.932
 6585SOL    HW120654   0.330   1.881   0.006
 6585SOL    HW220655   0.333   1.806   6.882
 6586SOL     OW20656   6.399   1.680   6.038
 6586SOL    HW120657   6.398   1.780   6.035
 6586SOL    HW220658   6.491   1.649   6.064
 6587SOL     OW20659   2.359   5.665   4.053
 6587SOL    HW120660   2.268   5.667   4.094
 6587SOL    HW220661   2.411   5.745   4.082
 6588SOL     OW20662   1.541   3.394   0.704
 6588SOL    HW120663   1.612   3.436   0.761
 6588SOL    HW220664   1.564   3.407   0.607
 6589SOL     OW20665   4.921   0.461   6.219
 6589SOL    HW120666   4.846   0.459   6.153
 6589SOL    HW220667   4.978   0.380   6.207
 6590SOL     OW20668   0.248   1.588   4.532
 6590SOL    HW120669   0.298   1.650   4.592
 6590SOL    HW220670   0.150   1.596   4.550
 6591SOL     OW20671   5.516   6.621   2.442
 6591SOL    HW120672   5.593   6.563   2.470
 6591SOL    HW220673   5.476   6.665   2.522
 6592SOL     OW20674   4.146   0.429   5.025
 6592SOL    HW120675   4.119   0.368   4.950
 6592SOL    HW220676   4.164   0.375   5.107
 6593SOL     OW20677   2.953   2.221   3.995
 6593SOL    HW120678   2.886   2.289   4.026
 6593SOL    HW220679   3.037   2.229   4.050
 6594SOL     OW20680   5.162   0.256   6.834
 6594SOL    HW120681   5.258   0.284   6.825
 6594SOL    HW220682   5.158   0.164   6.873
 6595SOL     OW20683   1.701   3.560   0.877
 6595SOL    HW120684   1.789   3.583   0.917
 6595SOL    HW220685   1.634   3.631   0.900
 6596SOL     OW20686   4.847   0.015   5.865
 6596SOL    HW120687   4.903   7.017   5.785
 6596SOL    HW220688   4.905   0.045   5.940
 6597SOL     OW20689   0.181   6.898   4.421
 6597SOL    HW120690   0.099   6.844   4.442
 6597SOL    HW220691   0.254   6.873   4.484
 6598SOL     OW20692   1.503   5.703   4.900
 6598SOL    HW120693   1.453   5.641   4.960
 6598SOL    HW220694   1.596   5.716   4.935
 6599SOL     OW20695   4.160   5.094   5.878
 6599SOL    HW120696   4.063   5.118   5.881
 6599SOL    HW220697   4.170   4.994   5.881
 6600SOL     OW20698   4.870   5.131   4.730
 6600SOL    HW120699   4.964   5.151   4.758
 6600SOL    HW220700   4.871   5.079   4.644
 6601SOL     OW20701   0.335   1.402   0.670
 6601SOL    HW120702   0.342   1.485   0.613
 6601SOL    HW220703   0.240   1.370   0.670
 6602SOL     OW20704   0.244   2.399   1.543
 6602SOL    HW120705   0.335   2.377   1.507
 6602SOL    HW220706   0.195   2.314   1.565
 6603SOL     OW20707   1.777   3.815   3.260
 6603SOL    HW120708   1.708   3.850   3.323
 6603SOL    HW220709   1.817   3.731   3.296
 6604SOL     OW20710   2.312   5.769   1.895
 6604SOL    HW120711   2.289   5.861   1.862
 6604SOL    HW220712   2.369   5.776   1.976
 6605SOL     OW20713   5.339   5.529   0.272
 6605SOL    HW120714   5.366   5.519   0.368
 6605SOL    HW220715   5.335   5.626   0.249
 6606SOL     OW20716   4.825   0.784   2.417
 6606SOL    HW120717   4.787   0.861   2.468
 6606SOL    HW220718   4.784   0.780   2.326
 6607SOL     OW20719   1.940   1.103   2.324
 6607SOL    HW120720   1.898   1.143   2.242
 6607SOL    HW220721   2.037   1.126   2.327
 6608SOL     OW20722   5.397   3.292   3.058
 6608SOL    HW120723   5.313   3.237   3.053
 6608SOL    HW220724   5.428   3.312   2.966
 6609SOL     OW20725   5.552   0.888   0.015
 6609SOL    HW120726   5.499   0.827   0.074
 6609SOL    HW220727   5.593   0.834   6.962
 6610SOL     OW20728   2.080   0.205   0.590
 6610SOL    HW120729   2.177   0.227   0.590
 6610SOL    HW220730   2.059   0.142   0.664
 6611SOL     OW20731   6.370   2.319   2.833
 6611SOL    HW120732   6.289   2.262   2.817
 6611SOL    HW220733   6.451   2.261   2.841
 6612SOL     OW20734   1.116   5.822   6.631
 6612SOL    HW120735   1.050   5.761   6.587
 6612SOL    HW220736   1.204   5.777   6.639
 6613SOL     OW20737   5.119   4.941   2.875
 6613SOL    HW120738   5.174   5.002   2.817
 6613SOL    HW220739   5.125   4.848   2.839
 6614SOL     OW20740   5.072   5.302   6.177
 6614SOL    HW120741   5.071   5.264   6.269
 6614SOL    HW220742   5.158   5.280   6.132
 6615SOL     OW20743   0.533   3.188   5.062
 6615SOL    HW120744   0.483   3.168   5.146
 6615SOL    HW220745   0.612   3.127   5.055
 6616SOL     OW20746   4.794   1.492   5.266
 6616SOL    HW120747   4.882   1.470   5.308
 6616SOL    HW220748   4.734   1.534   5.334
 6617SOL     OW20749   3.256   6.422   3.943
 6617SOL    HW120750   3.243   6.368   3.860
 6617SOL    HW220751   3.202   6.506   3.936
 6618SOL     OW20752   0.762   4.212   2.330
 6618SOL    HW120753   0.821   4.292   2.340
 6618SOL    HW220754   0.671   4.241   2.301
 6619SOL     OW20755   4.350   6.733   3.639
 6619SOL    HW120756   4.294   6.651   3.651
 6619SOL    HW220757   4.318   6.784   3.559
 6620SOL     OW20758   1.479   3.123   6.169
 6620SOL    HW120759   1.436   3.074   6.094
 6620SOL    HW220760   1.577   3.133   6.150
 6621SOL     OW20761   2.509   4.020   0.410
 6621SOL    HW120762   2.499   3.939   0.353
 6621SOL    HW220763   2.557   3.997   0.494
 6622SOL     OW20764   6.605   6.550   0.627
 6622SOL    HW120765   6.588   6.510   0.537
 6622SOL    HW220766   6.566   6.642   0.631
 6623SOL     OW20767   3.324   2.946   2.352
 6623SOL    HW120768   3.301   2.928   2.256
 6623SOL    HW220769   3.315   3.043   2.371
 6624SOL     OW20770   3.183   5.714   4.973
 6624SOL    HW120771   3.160   5.622   4.943
 6624SOL    HW220772   3.283   5.725   4.973
 6625SOL     OW20773   6.143   1.010   6.419
 6625SOL    HW120774   6.127   1.027   6.517
 6625SOL    HW220775   6.165   1.096   6.374
 6626SOL     OW20776   3.118   5.465   3.313
 6626SOL    HW120777   3.066   5.443   3.395
 6626SOL    HW220778   3.057   5.500   3.242
 6627SOL     OW20779   1.953   0.871   6.379
 6627SOL    HW120780   1.854   0.858   6.366
 6627SOL    HW220781   1.990   0.792   6.428
 6628SOL     OW20782   4.463   4.902   2.646
 6628SOL    HW120783   4.481   4.814   2.689
 6628SOL    HW220784   4.530   4.969   2.678
 6629SOL     OW20785   2.887   5.853   1.806
 6629SOL    HW120786   2.872   5.944   1.846
 6629SOL    HW220787   2.931   5.863   1.717
 6630SOL     OW20788   3.791   0.926   0.322
 6630SOL    HW120789   3.774   0.934   0.420
 6630SOL    HW220790   3.831   1.011   0.288
 6631SOL     OW20791   4.802   0.108   2.123
 6631SOL    HW120792   4.743   0.148   2.053
 6631SOL    HW220793   4.852   0.181   2.171
 6632SOL     OW20794   6.715   1.584   0.455
 6632SOL    HW120795   6.658   1.635   0.520
 6632SOL    HW220796   6.785   1.645   0.418
 6633SOL     OW20797   1.169   6.079   6.790
 6633SOL    HW120798   1.163   5.997   6.733
 6633SOL    HW220799   1.259   6.122   6.779
 6634SOL     OW20800   6.377   3.361   5.866
 6634SOL    HW120801   6.373   3.408   5.954
 6634SOL    HW220802   6.314   3.283   5.867
 6635SOL     OW20803   4.374   4.919   3.422
 6635SOL    HW120804   4.356   5.011   3.389
 6635SOL    HW220805   4.469   4.912   3.452
 6636SOL     OW20806   1.188   3.084   5.039
 6636SOL    HW120807   1.152   3.019   4.971
 6636SOL    HW220808   1.224   3.033   5.117
 6637SOL     OW20809   1.706   0.613   0.725
 6637SOL    HW120810   1.767   0.555   0.671
 6637SOL    HW220811   1.754   0.695   0.755
 6638SOL     OW20812   1.868   5.495   5.071
 6638SOL    HW120813   1.965   5.481   5.086
 6638SOL    HW220814   1.855   5.560   4.996
 6639SOL     OW20815   5.460   4.922   6.462
 6639SOL    HW120816   5.442   5.017   6.487
 6639SOL    HW220817   5.469   4.867   6.545
 6640SOL     OW20818   6.808   2.343   3.808
 6640SOL    HW120819   6.798   2.279   3.884
 6640SOL    HW220820   6.899   2.334   3.768
 6641SOL     OW20821   3.366   3.809   6.674
 6641SOL    HW120822   3.326   3.794   6.764
 6641SOL    HW220823   3.362   3.907   6.652
 6642SOL     OW20824   1.468   4.943   0.207
 6642SOL    HW120825   1.423   4.864   0.249
 6642SOL    HW220826   1.398   5.004   0.170
 6643SOL     OW20827   6.373   4.123   6.142
 6643SOL    HW120828   6.353   4.192   6.212
 6643SOL    HW220829   6.288   4.083   6.109
 6644SOL     OW20830   2.739   4.769   1.780
 6644SOL    HW120831   2.761   4.694   1.842
 6644SOL    HW220832   2.670   4.827   1.823
 6645SOL     OW20833   6.981   5.360   6.510
 6645SOL    HW120834   0.015   5.371   6.427
 6645SOL    HW220835   7.018   5.419   6.582
 6646SOL     OW20836   4.078   5.240   4.341
 6646SOL    HW120837   4.105   5.330   4.305
 6646SOL    HW220838   4.036   5.187   4.268
 6647SOL     OW20839   3.539   0.287   2.367
 6647SOL    HW120840   3.546   0.219   2.294
 6647SOL    HW220841   3.454   0.338   2.356
 6648SOL     OW20842   3.917   5.496   2.965
 6648SOL    HW120843   3.950   5.435   2.893
 6648SOL    HW220844   3.918   5.590   2.932
 6649SOL     OW20845   5.114   1.440   6.416
 6649SOL    HW120846   5.146   1.516   6.358
 6649SOL    HW220847   5.179   1.427   6.492
 6650SOL     OW20848   4.378   1.075   3.489
 6650SOL    HW120849   4.296   1.030   3.523
 6650SOL    HW220850   4.423   1.123   3.565
 6651SOL     OW20851   1.107   2.043   0.368
 6651SOL    HW120852   1.046   2.074   0.295
 6651SOL    HW220853   1.193   2.094   0.363
 6652SOL     OW20854   6.844   5.133   1.241
 6652SOL    HW120855   6.831   5.034   1.250
 6652SOL    HW220856   6.839   5.159   1.145
 6653SOL     OW20857   3.293   3.823   3.171
 6653SOL    HW120858   3.216   3.765   3.145
 6653SOL    HW220859   3.361   3.769   3.221
 6654SOL     OW20860   1.929   2.627   0.960
 6654SOL    HW120861   1.858   2.697   0.946
 6654SOL    HW220862   1.898   2.541   0.921
 6655SOL     OW20863   2.892   6.419   1.995
 6655SOL    HW120864   2.944   6.441   2.077
 6655SOL    HW220865   2.795   6.435   2.011
 6656SOL     OW20866   0.070   1.271   2.146
 6656SOL    HW120867   0.169   1.265   2.155
 6656SOL    HW220868   0.046   1.324   2.065
 6657SOL     OW20869   4.146   6.982   6.225
 6657SOL    HW120870   4.048   7.001   6.211
 6657SOL    HW220871   4.198   0.045   6.210
 6658SOL     OW20872   5.574   0.539   5.100
 6658SOL    HW120873   5.633   0.560   5.023
 6658SOL    HW220874   5.479   0.528   5.068
 6659SOL     OW20875   3.035   3.108   0.089
 6659SOL    HW120876   3.056   3.027   0.034
 6659SOL    HW220877   3.075   3.097   0.180
 6660SOL     OW20878   6.780   6.386   2.143
 6660SOL    HW120879   6.727   6.440   2.077
 6660SOL    HW220880   6.764   6.289   2.126
 6661SOL     OW20881   6.282   5.123   3.559
 6661SOL    HW120882   6.334   5.205   3.586
 6661SOL    HW220883   6.261   5.069   3.641
 6662SOL     OW20884   2.515   0.714   0.245
 6662SOL    HW120885   2.420   0.685   0.256
 6662SOL    HW220886   2.540   0.714   0.148
 6663SOL     OW20887   6.788   5.800   2.727
 6663SOL    HW120888   6.860   5.732   2.740
 6663SOL    HW220889   6.785   5.860   2.807
 6664SOL     OW20890   1.118   0.177   2.201
 6664SOL    HW120891   1.204   0.142   2.237
 6664SOL    HW220892   1.042   0.144   2.257
 6665SOL     OW20893   1.316   6.484   3.280
 6665SOL    HW120894   1.299   6.444   3.189
 6665SOL    HW220895   1.259   6.565   3.292
 6666SOL     OW20896   6.325   1.527   5.026
 6666SOL    HW120897   6.315   1.433   4.993
 6666SOL    HW220898   6.270   1.588   4.970
 6667SOL     OW20899   6.165   5.249   4.437
 6667SOL    HW120900   6.167   5.151   4.414
 6667SOL    HW220901   6.089   5.267   4.499
 6668SOL     OW20902   0.241   5.092   2.209
 6668SOL    HW120903   0.267   5.104   2.305
 6668SOL    HW220904   0.310   5.036   2.163
 6669SOL     OW20905   2.608   4.973   3.638
 6669SOL    HW120906   2.660   4.901   3.592
 6669SOL    HW220907   2.555   5.024   3.571
 6670SOL     OW20908   3.438   5.100   6.940
 6670SOL    HW120909   3.528   5.058   6.954
 6670SOL    HW220910   3.388   5.101   0.005
 6671SOL     OW20911   6.453   4.525   6.700
 6671SOL    HW120912   6.430   4.459   6.628
 6671SOL    HW220913   6.481   4.611   6.658
 6672SOL     OW20914   1.498   0.531   5.760
 6672SOL    HW120915   1.589   0.573   5.760
 6672SOL    HW220916   1.505   0.435   5.788
 6673SOL     OW20917   4.656   4.908   2.231
 6673SOL    HW120918   4.611   4.901   2.142
 6673SOL    HW220919   4.605   4.971   2.289
 6674SOL     OW20920   0.847   5.359   5.456
 6674SOL    HW120921   0.775   5.296   5.426
 6674SOL    HW220922   0.822   5.399   5.543
 6675SOL     OW20923   5.304   4.203   0.272
 6675SOL    HW120924   5.315   4.301   0.253
 6675SOL    HW220925   5.386   4.170   0.320
 6676SOL     OW20926   0.644   3.391   5.393
 6676SOL    HW120927   0.577   3.442   5.340
 6676SOL    HW220928   0.718   3.361   5.333
 6677SOL     OW20929   0.469   3.223   0.412
 6677SOL    HW120930   0.421   3.247   0.328
 6677SOL    HW220931   0.442   3.286   0.485
 6678SOL     OW20932   1.328   2.498   6.431
 6678SOL    HW120933   1.330   2.596   6.449
 6678SOL    HW220934   1.325   2.482   6.333
 6679SOL     OW20935   1.233   2.268   5.374
 6679SOL    HW120936   1.230   2.186   5.317
 6679SOL    HW220937   1.160   2.263   5.442
 6680SOL     OW20938   3.926   6.036   6.347
 6680SOL    HW120939   4.013   6.010   6.305
 6680SOL    HW220940   3.882   5.955   6.386
 6681SOL     OW20941   5.426   5.396   0.019
 6681SOL    HW120942   5.360   5.396   0.094
 6681SOL    HW220943   5.429   5.305   6.998
 6682SOL     OW20944   0.214   5.297   2.771
 6682SOL    HW120945   0.282   5.368   2.787
 6682SOL    HW220946   0.260   5.209   2.758
 6683SOL     OW20947   5.030   1.770   5.052
 6683SOL    HW120948   4.967   1.693   5.047
 6683SOL    HW220949   5.051   1.790   5.147
 6684SOL     OW20950   1.760   6.899   2.490
 6684SOL    HW120951   1.717   6.878   2.402
 6684SOL    HW220952   1.696   6.952   2.546
 6685SOL     OW20953   5.468   2.214   6.446
 6685SOL    HW120954   5.463   2.262   6.359
 6685SOL    HW220955   5.423   2.269   6.517
 6686SOL     OW20956   5.675   4.143   4.209
 6686SOL    HW120957   5.636   4.064   4.257
 6686SOL    HW220958   5.723   4.111   4.127
 6687SOL     OW20959   1.382   1.718   0.802
 6687SOL    HW120960   1.287   1.697   0.821
 6687SOL    HW220961   1.415   1.786   0.866
 6688SOL     OW20962   0.047   4.981   2.694
 6688SOL    HW120963   0.146   4.965   2.696
 6688SOL    HW220964   0.018   5.020   2.781
 6689SOL     OW20965   4.874   3.735   0.545
 6689SOL    HW120966   4.810   3.661   0.527
 6689SOL    HW220967   4.927   3.755   0.463
 6690SOL     OW20968   2.500   2.633   1.158
 6690SOL    HW120969   2.432   2.637   1.232
 6690SOL    HW220970   2.591   2.619   1.198
 6691SOL     OW20971   2.229   6.007   1.147
 6691SOL    HW120972   2.225   6.069   1.069
 6691SOL    HW220973   2.320   6.011   1.188
 6692SOL     OW20974   3.112   4.265   5.211
 6692SOL    HW120975   3.060   4.187   5.245
 6692SOL    HW220976   3.053   4.346   5.208
 6693SOL     OW20977   4.484   3.929   5.489
 6693SOL    HW120978   4.490   4.019   5.445
 6693SOL    HW220979   4.552   3.868   5.448
 6694SOL     OW20980   4.774   6.587   0.824
 6694SOL    HW120981   4.844   6.616   0.758
 6694SOL    HW220982   4.707   6.660   0.835
 6695SOL     OW20983   0.778   1.365   6.887
 6695SOL    HW120984   0.795   1.292   6.953
 6695SOL    HW220985   0.837   1.443   6.908
 6696SOL     OW20986   2.161   2.782   1.743
 6696SOL    HW120987   2.138   2.781   1.646
 6696SOL    HW220988   2.101   2.846   1.791
 6697SOL     OW20989   4.554   1.411   2.609
 6697SOL    HW120990   4.520   1.490   2.559
 6697SOL    HW220991   4.552   1.430   2.707
 6698SOL     OW20992   4.121   2.857   6.748
 6698SOL    HW120993   4.206   2.910   6.756
 6698SOL    HW220994   4.044   2.920   6.739
 6699SOL     OW20995   3.645   4.918   7.011
 6699SOL    HW120996   3.697   4.840   6.977
 6699SOL    HW220997   3.673   4.939   0.083
 6700SOL     OW20998   0.521   5.578   1.232
 6700SOL    HW120999   0.571   5.523   1.299
 6700SOL    HW221000   0.547   5.550   1.140
 6701SOL     OW21001   0.117   1.717   0.491
 6701SOL    HW121002   0.210   1.680   0.503
 6701SOL    HW221003   0.074   1.728   0.580
 6702SOL     OW21004   2.742   1.962   0.789
 6702SOL    HW121005   2.759   1.910   0.706
 6702SOL    HW221006   2.655   1.934   0.829
 6703SOL     OW21007   6.749   1.255   6.220
 6703SOL    HW121008   6.695   1.177   6.253
 6703SOL    HW221009   6.743   1.330   6.285
 6704SOL     OW21010   4.627   2.553   2.238
 6704SOL    HW121011   4.594   2.517   2.151
 6704SOL    HW221012   4.681   2.636   2.222
 6705SOL     OW21013   6.210   2.512   1.652
 6705SOL    HW121014   6.265   2.533   1.733
 6705SOL    HW221015   6.253   2.438   1.600
 6706SOL     OW21016   1.191   3.619   0.185
 6706SOL    HW121017   1.152   3.529   0.203
 6706SOL    HW221018   1.120   3.679   0.149
 6707SOL     OW21019   6.179   5.385   4.208
 6707SOL    HW121020   6.169   5.337   4.295
 6707SOL    HW221021   6.176   5.484   4.224
 6708SOL     OW21022   1.546   5.276   2.221
 6708SOL    HW121023   1.495   5.263   2.136
 6708SOL    HW221024   1.622   5.339   2.205
 6709SOL     OW21025   3.616   6.859   1.690
 6709SOL    HW121026   3.584   6.822   1.777
 6709SOL    HW221027   3.668   6.790   1.641
 6710SOL     OW21028   2.613   2.631   6.234
 6710SOL    HW121029   2.623   2.619   6.135
 6710SOL    HW221030   2.525   2.594   6.263
 6711SOL     OW21031   5.125   3.586   6.265
 6711SOL    HW121032   5.225   3.593   6.269
 6711SOL    HW221033   5.086   3.674   6.240
 6712SOL     OW21034   4.246   5.243   0.570
 6712SOL    HW121035   4.239   5.311   0.497
 6712SOL    HW221036   4.165   5.248   0.628
 6713SOL     OW21037   2.280   2.436   1.562
 6713SOL    HW121038   2.342   2.472   1.632
 6713SOL    HW221039   2.272   2.503   1.488
 6714SOL     OW21040   5.153   6.998   4.170
 6714SOL    HW121041   5.126   6.977   4.264
 6714SOL    HW221042   5.157   6.914   4.117
 6715SOL     OW21043   0.450   2.141   1.049
 6715SOL    HW121044   0.490   2.230   1.072
 6715SOL    HW221045   0.449   2.130   0.949
 6716SOL     OW21046   1.612   6.221   0.936
 6716SOL    HW121047   1.712   6.228   0.940
 6716SOL    HW221048   1.581   6.152   1.001
 6717SOL     OW21049   3.604   3.003   0.666
 6717SOL    HW121050   3.642   2.954   0.744
 6717SOL    HW221051   3.671   3.006   0.592
 6718SOL     OW21052   3.575   6.992   6.963
 6718SOL    HW121053   3.591   7.007   6.866
 6718SOL    HW221054   3.656   6.950   7.004
 6719SOL     OW21055   0.294   6.376   5.425
 6719SOL    HW121056   0.315   6.374   5.523
 6719SOL    HW221057   0.377   6.400   5.375
 6720SOL     OW21058   1.884   6.016   1.814
 6720SOL    HW121059   1.863   5.949   1.742
 6720SOL    HW221060   1.870   5.973   1.903
 6721SOL     OW21061   4.986   6.215   3.889
 6721SOL    HW121062   5.036   6.131   3.869
 6721SOL    HW221063   4.896   6.193   3.926
 6722SOL     OW21064   4.222   3.451   6.741
 6722SOL    HW121065   4.320   3.462   6.757
 6722SOL    HW221066   4.198   3.354   6.748
 6723SOL     OW21067   2.548   6.897   3.686
 6723SOL    HW121068   2.471   6.884   3.748
 6723SOL    HW221069   2.543   6.830   3.612
 6724SOL     OW21070   2.982   4.676   5.366
 6724SOL    HW121071   2.958   4.594   5.313
 6724SOL    HW221072   2.901   4.710   5.412
 6725SOL     OW21073   0.766   4.829   2.403
 6725SOL    HW121074   0.821   4.894   2.455
 6725SOL    HW221075   0.781   4.842   2.305
 6726SOL     OW21076   2.331   2.881   4.235
 6726SOL    HW121077   2.319   2.936   4.318
 6726SOL    HW221078   2.407   2.818   4.247
 6727SOL     OW21079   4.442   3.454   5.998
 6727SOL    HW121080   4.408   3.439   6.091
 6727SOL    HW221081   4.366   3.444   5.933
 6728SOL     OW21082   3.750   1.886   4.094
 6728SOL    HW121083   3.843   1.922   4.103
 6728SOL    HW221084   3.707   1.925   4.013
 6729SOL     OW21085   6.298   0.811   2.877
 6729SOL    HW121086   6.302   0.800   2.778
 6729SOL    HW221087   6.365   0.749   2.919
 6730SOL     OW21088   2.813   0.743   0.279
 6730SOL    HW121089   2.864   0.690   0.211
 6730SOL    HW221090   2.716   0.719   0.275
 6731SOL     OW21091   2.696   4.450   1.406
 6731SOL    HW121092   2.600   4.434   1.381
 6731SOL    HW221093   2.704   4.453   1.506
 6732SOL     OW21094   2.387   6.841   0.904
 6732SOL    HW121095   2.373   6.939   0.915
 6732SOL    HW221096   2.303   6.792   0.931
 6733SOL     OW21097   4.478   5.990   5.336
 6733SOL    HW121098   4.482   6.083   5.299
 6733SOL    HW221099   4.383   5.968   5.358
 6734SOL     OW21100   1.256   3.081   5.436
 6734SOL    HW121101   1.203   3.160   5.406
 6734SOL    HW221102   1.338   3.073   5.380
 6735SOL     OW21103   6.796   4.910   5.647
 6735SOL    HW121104   6.845   4.989   5.612
 6735SOL    HW221105   6.711   4.939   5.690
 6736SOL     OW21106   2.725   2.810   1.716
 6736SOL    HW121107   2.633   2.825   1.750
 6736SOL    HW221108   2.734   2.717   1.681
 6737SOL     OW21109   2.444   1.624   2.664
 6737SOL    HW121110   2.526   1.659   2.710
 6737SOL    HW221111   2.428   1.529   2.691
 6738SOL     OW21112   2.921   1.124   2.740
 6738SOL    HW121113   2.863   1.155   2.816
 6738SOL    HW221114   2.931   1.025   2.745
 6739SOL     OW21115   3.829   6.367   5.056
 6739SOL    HW121116   3.851   6.386   5.152
 6739SOL    HW221117   3.850   6.447   5.000
 6740SOL     OW21118   1.755   1.477   4.358
 6740SOL    HW121119   1.850   1.507   4.352
 6740SOL    HW221120   1.728   1.473   4.455
 6741SOL     OW21121   6.631   0.694   6.185
 6741SOL    HW121122   6.685   0.719   6.265
 6741SOL    HW221123   6.663   0.746   6.105
 6742SOL     OW21124   6.338   5.837   5.399
 6742SOL    HW121125   6.272   5.912   5.404
 6742SOL    HW221126   6.431   5.873   5.412
 6743SOL     OW21127   4.094   3.325   1.581
 6743SOL    HW121128   4.103   3.226   1.575
 6743SOL    HW221129   4.019   3.348   1.643
 6744SOL     OW21130   4.284   4.828   5.810
 6744SOL    HW121131   4.372   4.862   5.842
 6744SOL    HW221132   4.282   4.827   5.710
 6745SOL     OW21133   1.211   4.687   3.431
 6745SOL    HW121134   1.173   4.768   3.386
 6745SOL    HW221135   1.192   4.692   3.529
 6746SOL     OW21136   0.031   2.128   1.191
 6746SOL    HW121137   0.118   2.083   1.215
 6746SOL    HW221138   0.050   2.220   1.158
 6747SOL     OW21139   4.988   5.704   4.982
 6747SOL    HW121140   4.936   5.761   5.046
 6747SOL    HW221141   4.926   5.660   4.918
 6748SOL     OW21142   0.894   0.652   2.718
 6748SOL    HW121143   0.975   0.621   2.768
 6748SOL    HW221144   0.913   0.653   2.620
 6749SOL     OW21145   4.626   0.202   0.313
 6749SOL    HW121146   4.579   0.120   0.280
 6749SOL    HW221147   4.717   0.207   0.271
 6750SOL     OW21148   2.609   2.400   5.119
 6750SOL    HW121149   2.630   2.405   5.021
 6750SOL    HW221150   2.524   2.449   5.137
 6751SOL     OW21151   2.499   2.576   4.734
 6751SOL    HW121152   2.447   2.607   4.654
 6751SOL    HW221153   2.474   2.633   4.813
 6752SOL     OW21154   5.361   3.217   0.467
 6752SOL    HW121155   5.392   3.167   0.548
 6752SOL    HW221156   5.428   3.205   0.393
 6753SOL     OW21157   4.616   2.300   6.503
 6753SOL    HW121158   4.685   2.317   6.432
 6753SOL    HW221159   4.656   2.244   6.576
 6754SOL     OW21160   6.053   1.416   6.517
 6754SOL    HW121161   6.122   1.424   6.445
 6754SOL    HW221162   6.046   1.503   6.566
 6755SOL     OW21163   4.831   2.101   3.641
 6755SOL    HW121164   4.896   2.027   3.626
 6755SOL    HW221165   4.861   2.158   3.718
 6756SOL     OW21166   4.827   5.443   4.119
 6756SOL    HW121167   4.783   5.532   4.134
 6756SOL    HW221168   4.816   5.386   4.199
 6757SOL     OW21169   6.153   6.469   1.840
 6757SOL    HW121170   6.177   6.407   1.766
 6757SOL    HW221171   6.055   6.488   1.836
 6758SOL     OW21172   5.440   2.846   1.733
 6758SOL    HW121173   5.409   2.818   1.642
 6758SOL    HW221174   5.521   2.794   1.759
 6759SOL     OW21175   0.816   5.056   2.832
 6759SOL    HW121176   0.914   5.042   2.847
 6759SOL    HW221177   0.777   5.102   2.912
 6760SOL     OW21178   6.746   3.875   4.121
 6760SOL    HW121179   6.725   3.782   4.090
 6760SOL    HW221180   6.825   3.873   4.182
 6761SOL     OW21181   4.824   2.671   5.429
 6761SOL    HW121182   4.750   2.605   5.443
 6761SOL    HW221183   4.912   2.624   5.441
 6762SOL     OW21184   6.420   4.547   3.051
 6762SOL    HW121185   6.464   4.637   3.057
 6762SOL    HW221186   6.491   4.476   3.050
 6763SOL     OW21187   6.585   6.655   5.698
 6763SOL    HW121188   6.601   6.721   5.625
 6763SOL    HW221189   6.518   6.586   5.667
 6764SOL     OW21190   2.923   4.118   6.712
 6764SOL    HW121191   2.921   4.169   6.626
 6764SOL    HW221192   2.852   4.154   6.773
 6765SOL     OW21193   6.248   4.232   2.022
 6765SOL    HW121194   6.276   4.145   1.980
 6765SOL    HW221195   6.225   4.216   2.118
 6766SOL     OW21196   2.160   0.301   5.711
 6766SOL    HW121197   2.081   0.344   5.754
 6766SOL    HW221198   2.175   0.343   5.621
 6767SOL     OW21199   6.856   2.785   6.622
 6767SOL    HW121200   6.816   2.703   6.583
 6767SOL    HW221201   6.783   2.846   6.654
 6768SOL     OW21202   6.551   0.190   4.044
 6768SOL    HW121203   6.628   0.224   4.099
 6768SOL    HW221204   6.585   0.162   3.954
 6769SOL     OW21205   1.976   3.077   5.670
 6769SOL    HW121206   1.886   3.044   5.700
 6769SOL    HW221207   2.043   3.003   5.677
 6770SOL     OW21208   0.219   1.727   3.402
 6770SOL    HW121209   0.172   1.692   3.321
 6770SOL    HW221210   0.277   1.655   3.440
 6771SOL     OW21211   3.922   2.086   3.510
 6771SOL    HW121212   3.994   2.026   3.545
 6771SOL    HW221213   3.936   2.104   3.413
 6772SOL     OW21214   0.037   1.595   2.208
 6772SOL    HW121215   6.960   1.582   2.196
 6772SOL    HW221216   0.056   1.624   2.302
 6773SOL     OW21217   0.847   6.536   1.645
 6773SOL    HW121218   0.837   6.438   1.658
 6773SOL    HW221219   0.934   6.556   1.601
 6774SOL     OW21220   1.841   2.530   5.601
 6774SOL    HW121221   1.875   2.601   5.663
 6774SOL    HW221222   1.902   2.522   5.523
 6775SOL     OW21223   0.467   2.243   5.130
 6775SOL    HW121224   0.411   2.175   5.083
 6775SOL    HW221225   0.547   2.198   5.170
 6776SOL     OW21226   3.221   4.022   2.811
 6776SOL    HW121227   3.273   3.942   2.841
 6776SOL    HW221228   3.246   4.046   2.717
 6777SOL     OW21229   5.847   5.074   6.803
 6777SOL    HW121230   5.757   5.034   6.782
 6777SOL    HW221231   5.841   5.127   6.887
 6778SOL     OW21232   6.649   4.845   2.766
 6778SOL    HW121233   6.616   4.810   2.853
 6778SOL    HW221234   6.734   4.798   2.741
 6779SOL     OW21235   5.311   3.716   5.680
 6779SOL    HW121236   5.219   3.753   5.666
 6779SOL    HW221237   5.306   3.641   5.747
 6780SOL     OW21238   3.152   2.171   3.151
 6780SOL    HW121239   3.110   2.082   3.167
 6780SOL    HW221240   3.175   2.213   3.238
 6781SOL     OW21241   6.820   1.892   3.821
 6781SOL    HW121242   6.891   1.879   3.889
 6781SOL    HW221243   6.835   1.978   3.773
 6782SOL     OW21244   6.924   1.271   2.846
 6782SOL    HW121245   7.018   1.304   2.839
 6782SOL    HW221246   6.906   1.206   2.771
 6783SOL     OW21247   1.651   5.133   5.054
 6783SOL    HW121248   1.711   5.053   5.046
 6783SOL    HW221249   1.556   5.105   5.049
 6784SOL     OW21250   2.259   3.660   1.667
 6784SOL    HW121251   2.274   3.615   1.579
 6784SOL    HW221252   2.301   3.605   1.740
 6785SOL     OW21253   5.075   5.914   4.874
 6785SOL    HW121254   5.105   5.922   4.779
 6785SOL    HW221255   5.067   5.817   4.898
 6786SOL     OW21256   6.307   1.929   6.558
 6786SOL    HW121257   6.335   1.834   6.569
 6786SOL    HW221258   6.255   1.958   6.639
 6787SOL     OW21259   4.111   2.122   5.998
 6787SOL    HW121260   4.126   2.173   5.914
 6787SOL    HW221261   4.199   2.109   6.045
 6788SOL     OW21262   6.769   3.895   3.008
 6788SOL    HW121263   6.821   3.811   2.992
 6788SOL    HW221264   6.695   3.901   2.941
 6789SOL     OW21265   6.005   3.993   3.599
 6789SOL    HW121266   5.926   3.936   3.578
 6789SOL    HW221267   6.070   3.941   3.653
 6790SOL     OW21268   0.252   5.120   5.959
 6790SOL    HW121269   0.330   5.083   6.009
 6790SOL    HW221270   0.168   5.076   5.992
 6791SOL     OW21271   3.555   0.545   3.411
 6791SOL    HW121272   3.641   0.506   3.378
 6791SOL    HW221273   3.553   0.543   3.511
 6792SOL     OW21274   3.955   6.971   5.026
 6792SOL    HW121275   3.917   0.033   5.066
 6792SOL    HW221276   3.881   6.907   5.007
 6793SOL     OW21277   1.529   4.022   0.110
 6793SOL    HW121278   1.618   4.001   0.152
 6793SOL    HW221279   1.525   3.980   0.019
 6794SOL     OW21280   4.910   1.630   5.790
 6794SOL    HW121281   4.822   1.671   5.814
 6794SOL    HW221282   4.972   1.635   5.868
 6795SOL     OW21283   1.144   1.324   0.761
 6795SOL    HW121284   1.140   1.361   0.854
 6795SOL    HW221285   1.238   1.333   0.726
 6796SOL     OW21286   6.026   0.930   2.610
 6796SOL    HW121287   6.006   0.888   2.699
 6796SOL    HW221288   6.022   1.029   2.618
 6797SOL     OW21289   1.136   2.411   1.527
 6797SOL    HW121290   1.063   2.352   1.493
 6797SOL    HW221291   1.096   2.486   1.581
 6798SOL     OW21292   5.976   0.091   1.447
 6798SOL    HW121293   5.919   0.112   1.527
 6798SOL    HW221294   5.917   0.071   1.368
 6799SOL     OW21295   6.245   0.913   3.510
 6799SOL    HW121296   6.343   0.927   3.519
 6799SOL    HW221297   6.226   0.821   3.477
 6800SOL     OW21298   6.587   2.183   1.599
 6800SOL    HW121299   6.655   2.250   1.568
 6800SOL    HW221300   6.506   2.230   1.632
 6801SOL     OW21301   1.110   5.864   5.871
 6801SOL    HW121302   1.136   5.925   5.946
 6801SOL    HW221303   1.170   5.881   5.793
 6802SOL     OW21304   3.278   4.785   1.908
 6802SOL    HW121305   3.189   4.753   1.874
 6802SOL    HW221306   3.350   4.727   1.871
 6803SOL     OW21307   5.600   4.796   5.813
 6803SOL    HW121308   5.509   4.769   5.782
 6803SOL    HW221309   5.606   4.895   5.815
 6804SOL     OW21310   3.517   5.193   2.722
 6804SOL    HW121311   3.522   5.094   2.710
 6804SOL    HW221312   3.486   5.236   2.637
 6805SOL     OW21313   0.226   4.493   4.886
 6805SOL    HW121314   0.126   4.493   4.887
 6805SOL    HW221315   0.260   4.435   4.959
 6806SOL     OW21316   0.020   1.815   2.399
 6806SOL    HW121317   0.110   1.775   2.418
 6806SOL    HW221318   0.009   1.898   2.454
 6807SOL     OW21319   3.119   4.048   1.861
 6807SOL    HW121320   3.144   4.013   1.952
 6807SOL    HW221321   3.198   4.096   1.822
 6808SOL     OW21322   3.367   1.195   4.072
 6808SOL    HW121323   3.384   1.124   4.140
 6808SOL    HW221324   3.270   1.218   4.071
 6809SOL     OW21325   5.515   3.460   0.806
 6809SOL    HW121326   5.418   3.451   0.829
 6809SOL    HW221327   5.527   3.447   0.708
 6810SOL     OW21328   2.671   0.474   4.435
 6810SOL    HW121329   2.714   0.504   4.350
 6810SOL    HW221330   2.576   0.447   4.417
 6811SOL     OW21331   6.416   1.333   0.974
 6811SOL    HW121332   6.348   1.371   1.037
 6811SOL    HW221333   6.507   1.364   1.001
 6812SOL     OW21334   3.610   4.196   5.337
 6812SOL    HW121335   3.603   4.159   5.245
 6812SOL    HW221336   3.700   4.175   5.375
 6813SOL     OW21337   6.047   4.073   1.647
 6813SOL    HW121338   5.988   3.994   1.659
 6813SOL    HW221339   5.992   4.152   1.619
 6814SOL     OW21340   5.214   1.011   6.822
 6814SOL    HW121341   5.230   0.978   6.729
 6814SOL    HW221342   5.237   0.939   6.887
 6815SOL     OW21343   1.692   5.059   5.874
 6815SOL    HW121344   1.754   4.993   5.833
 6815SOL    HW221345   1.600   5.019   5.880
 6816SOL     OW21346   0.806   0.902   2.997
 6816SOL    HW121347   0.836   0.922   2.904
 6816SOL    HW221348   0.850   0.966   3.060
 6817SOL     OW21349   3.941   2.062   2.017
 6817SOL    HW121350   3.971   1.994   1.950
 6817SOL    HW221351   3.895   2.137   1.969
 6818SOL     OW21352   1.884   6.902   5.346
 6818SOL    HW121353   1.977   6.915   5.380
 6818SOL    HW221354   1.870   6.962   5.267
 6819SOL     OW21355   4.887   4.582   1.802
 6819SOL    HW121356   4.794   4.558   1.831
 6819SOL    HW221357   4.919   4.516   1.734
 6820SOL     OW21358   3.136   5.810   2.177
 6820SOL    HW121359   3.194   5.810   2.095
 6820SOL    HW221360   3.192   5.823   2.258
 6821SOL     OW21361   3.984   2.767   5.304
 6821SOL    HW121362   4.033   2.686   5.271
 6821SOL    HW221363   3.887   2.759   5.283
 6822SOL     OW21364   6.585   2.776   6.167
 6822SOL    HW121365   6.651   2.831   6.219
 6822SOL    HW221366   6.516   2.739   6.228
 6823SOL     OW21367   5.990   2.643   6.029
 6823SOL    HW121368   6.040   2.728   6.045
 6823SOL    HW221369   5.977   2.596   6.116
 6824SOL     OW21370   0.979   0.284   5.936
 6824SOL    HW121371   1.076   0.269   5.956
 6824SOL    HW221372   0.934   0.323   6.016
 6825SOL     OW21373   5.692   4.510   0.652
 6825SOL    HW121374   5.667   4.546   0.742
 6825SOL    HW221375   5.791   4.499   0.647
 6826SOL     OW21376   6.497   4.787   4.098
 6826SOL    HW121377   6.439   4.715   4.135
 6826SOL    HW221378   6.440   4.860   4.060
 6827SOL     OW21379   4.002   5.889   4.743
 6827SOL    HW121380   3.915   5.933   4.766
 6827SOL    HW221381   3.992   5.790   4.750
 6828SOL     OW21382   2.760   2.371   2.807
 6828SOL    HW121383   2.817   2.341   2.731
 6828SOL    HW221384   2.807   2.352   2.893
 6829SOL     OW21385   3.807   6.779   3.937
 6829SOL    HW121386   3.773   6.829   3.858
 6829SOL    HW221387   3.735   6.773   4.006
 6830SOL     OW21388   4.876   6.670   2.709
 6830SOL    HW121389   4.802   6.639   2.768
 6830SOL    HW221390   4.841   6.738   2.644
 6831SOL     OW21391   1.653   1.401   6.309
 6831SOL    HW121392   1.723   1.359   6.367
 6831SOL    HW221393   1.590   1.454   6.366
 6832SOL     OW21394   3.322   2.311   0.237
 6832SOL    HW121395   3.245   2.324   0.174
 6832SOL    HW221396   3.308   2.368   0.318
 6833SOL     OW21397   3.315   5.158   6.191
 6833SOL    HW121398   3.285   5.078   6.243
 6833SOL    HW221399   3.404   5.188   6.224
 6834SOL     OW21400   5.461   6.502   1.092
 6834SOL    HW121401   5.472   6.591   1.049
 6834SOL    HW221402   5.444   6.433   1.022
 6835SOL     OW21403   2.441   2.066   5.144
 6835SOL    HW121404   2.523   2.042   5.195
 6835SOL    HW221405   2.374   2.109   5.205
 6836SOL     OW21406   2.137   4.357   6.014
 6836SOL    HW121407   2.163   4.324   6.105
 6836SOL    HW221408   2.219   4.371   5.959
 6837SOL     OW21409   0.635   0.812   1.553
 6837SOL    HW121410   0.545   0.794   1.511
 6837SOL    HW221411   0.707   0.778   1.493
 6838SOL     OW21412   2.888   3.849   5.021
 6838SOL    HW121413   2.935   3.933   4.994
 6838SOL    HW221414   2.878   3.789   4.942
 6839SOL     OW21415   6.010   3.146   4.455
 6839SOL    HW121416   5.968   3.056   4.446
 6839SOL    HW221417   5.983   3.204   4.378
 6840SOL     OW21418   2.736   6.758   4.950
 6840SOL    HW121419   2.833   6.771   4.930
 6840SOL    HW221420   2.726   6.718   5.041
 6841SOL     OW21421   4.200   6.363   0.995
 6841SOL    HW121422   4.266   6.434   0.969
 6841SOL    HW221423   4.234   6.315   1.076
 6842SOL     OW21424   0.284   3.741   5.875
 6842SOL    HW121425   0.203   3.786   5.836
 6842SOL    HW221426   0.261   3.703   5.965
 6843SOL     OW21427   3.740   2.097   2.210
 6843SOL    HW121428   3.715   2.189   2.179
 6843SOL    HW221429   3.815   2.061   2.154
 6844SOL     OW21430   4.196   4.756   4.011
 6844SOL    HW121431   4.190   4.722   3.918
 6844SOL    HW221432   4.246   4.690   4.068
 6845SOL     OW21433   4.527   4.862   1.970
 6845SOL    HW121434   4.472   4.779   1.962
 6845SOL    HW221435   4.610   4.853   1.914
 6846SOL     OW21436   3.192   3.008   2.731
 6846SOL    HW121437   3.221   2.962   2.815
 6846SOL    HW221438   3.153   3.097   2.755
 6847SOL     OW21439   5.886   3.527   1.447
 6847SOL    HW121440   5.963   3.590   1.460
 6847SOL    HW221441   5.813   3.551   1.510
 6848SOL     OW21442   0.599   6.647   3.570
 6848SOL    HW121443   0.509   6.629   3.529
 6848SOL    HW221444   0.656   6.694   3.503
 6849SOL     OW21445   3.515   6.590   3.907
 6849SOL    HW121446   3.531   6.631   3.817
 6849SOL    HW221447   3.446   6.519   3.899
 6850SOL     OW21448   5.416   2.922   2.346
 6850SOL    HW121449   5.371   2.985   2.283
 6850SOL    HW221450   5.415   2.829   2.308
 6851SOL     OW21451   1.083   5.511   5.366
 6851SOL    HW121452   1.007   5.448   5.383
 6851SOL    HW221453   1.130   5.530   5.452
 6852SOL     OW21454   7.005   4.470   2.264
 6852SOL    HW121455   0.077   4.499   2.283
 6852SOL    HW221456   6.945   4.496   2.340
 6853SOL     OW21457   1.021   3.723   5.406
 6853SOL    HW121458   0.953   3.669   5.456
 6853SOL    HW221459   1.038   3.681   5.317
 6854SOL     OW21460   6.490   2.145   6.502
 6854SOL    HW121461   6.433   2.062   6.501
 6854SOL    HW221462   6.432   2.225   6.513
 6855SOL     OW21463   2.756   6.376   1.223
 6855SOL    HW121464   2.658   6.390   1.207
 6855SOL    HW221465   2.783   6.285   1.191
 6856SOL     OW21466   6.361   3.410   5.128
 6856SOL    HW121467   6.272   3.369   5.108
 6856SOL    HW221468   6.386   3.391   5.223
 6857SOL     OW21469   4.275   1.623   5.552
 6857SOL    HW121470   4.206   1.695   5.555
 6857SOL    HW221471   4.232   1.534   5.564
 6858SOL     OW21472   4.103   3.285   4.679
 6858SOL    HW121473   4.134   3.376   4.708
 6858SOL    HW221474   4.098   3.225   4.759
 6859SOL     OW21475   3.809   0.291   0.589
 6859SOL    HW121476   3.765   0.367   0.637
 6859SOL    HW221477   3.741   0.246   0.530
 6860SOL     OW21478   5.312   3.362   6.459
 6860SOL    HW121479   5.377   3.331   6.529
 6860SOL    HW221480   5.333   3.457   6.434
 6861SOL     OW21481   6.524   5.047   6.986
 6861SOL    HW121482   6.537   5.119   6.918
 6861SOL    HW221483   6.463   5.080   0.037
 6862SOL     OW21484   3.526   5.475   4.049
 6862SOL    HW121485   3.558   5.460   4.143
 6862SOL    HW221486   3.465   5.400   4.023
 6863SOL     OW21487   5.555   2.742   4.201
 6863SOL    HW121488   5.484   2.723   4.268
 6863SOL    HW221489   5.568   2.841   4.193
 6864SOL     OW21490   3.601   5.861   5.270
 6864SOL    HW121491   3.610   5.773   5.223
 6864SOL    HW221492   3.638   5.934   5.211
 6865SOL     OW21493   6.366   4.782   3.611
 6865SOL    HW121494   6.427   4.704   3.626
 6865SOL    HW221495   6.369   4.808   3.514
 6866SOL     OW21496   0.136   3.030   2.473
 6866SOL    HW121497   0.195   3.004   2.550
 6866SOL    HW221498   0.194   3.063   2.398
 6867SOL     OW21499   2.505   4.547   2.571
 6867SOL    HW121500   2.555   4.634   2.578
 6867SOL    HW221501   2.531   4.501   2.486
 6868SOL     OW21502   2.134   5.629   4.910
 6868SOL    HW121503   2.097   5.683   4.834
 6868SOL    HW221504   2.153   5.536   4.879
 6869SOL     OW21505   5.892   3.402   5.335
 6869SOL    HW121506   5.920   3.367   5.424
 6869SOL    HW221507   5.973   3.428   5.282
 6870SOL     OW21508   5.688   3.732   2.256
 6870SOL    HW121509   5.735   3.645   2.270
 6870SOL    HW221510   5.652   3.735   2.162
 6871SOL     OW21511   5.408   5.599   1.202
 6871SOL    HW121512   5.472   5.675   1.206
 6871SOL    HW221513   5.349   5.601   1.283
 6872SOL     OW21514   1.969   3.404   6.493
 6872SOL    HW121515   1.967   3.376   6.397
 6872SOL    HW221516   2.049   3.462   6.509
 6873SOL     OW21517   5.700   3.484   6.068
 6873SOL    HW121518   5.749   3.524   5.990
 6873SOL    HW221519   5.630   3.422   6.034
 6874SOL     OW21520   0.502   2.919   4.960
 6874SOL    HW121521   0.425   2.948   5.017
 6874SOL    HW221522   0.468   2.859   4.887
 6875SOL     OW21523   2.654   1.522   3.569
 6875SOL    HW121524   2.602   1.607   3.576
 6875SOL    HW221525   2.710   1.509   3.651
 6876SOL     OW21526   4.112   6.113   0.179
 6876SOL    HW121527   4.146   6.031   0.134
 6876SOL    HW221528   4.142   6.194   0.128
 6877SOL     OW21529   2.239   4.353   6.855
 6877SOL    HW121530   2.247   4.406   6.771
 6877SOL    HW221531   2.238   4.415   6.933
 6878SOL     OW21532   1.485   1.460   5.602
 6878SOL    HW121533   1.416   1.514   5.553
 6878SOL    HW221534   1.569   1.513   5.608
 6879SOL     OW21535   1.578   2.465   6.559
 6879SOL    HW121536   1.483   2.439   6.541
 6879SOL    HW221537   1.598   2.552   6.514
 6880SOL     OW21538   2.124   4.151   4.982
 6880SOL    HW121539   2.200   4.089   5.000
 6880SOL    HW221540   2.045   4.098   4.949
 6881SOL     OW21541   0.066   3.622   1.975
 6881SOL    HW121542   0.134   3.635   1.902
 6881SOL    HW221543   0.063   3.704   2.033
 6882SOL     OW21544   2.122   0.329   5.292
 6882SOL    HW121545   2.163   0.407   5.341
 6882SOL    HW221546   2.181   0.249   5.303
 6883SOL     OW21547   4.081   0.120   1.560
 6883SOL    HW121548   4.074   0.021   1.577
 6883SOL    HW221549   4.165   0.155   1.600
 6884SOL     OW21550   1.895   5.226   3.989
 6884SOL    HW121551   1.921   5.131   3.976
 6884SOL    HW221552   1.977   5.283   3.993
 6885SOL     OW21553   2.929   5.625   4.271
 6885SOL    HW121554   2.935   5.646   4.369
 6885SOL    HW221555   3.022   5.618   4.234
 6886SOL     OW21556   5.679   1.182   2.712
 6886SOL    HW121557   5.620   1.107   2.683
 6886SOL    HW221558   5.687   1.181   2.812
 6887SOL     OW21559   5.919   0.740   4.535
 6887SOL    HW121560   5.858   0.766   4.460
 6887SOL    HW221561   5.893   0.650   4.569
 6888SOL     OW21562   5.514   6.745   4.901
 6888SOL    HW121563   5.508   6.803   4.982
 6888SOL    HW221564   5.587   6.678   4.913
 6889SOL     OW21565   1.454   4.278   5.855
 6889SOL    HW121566   1.444   4.365   5.904
 6889SOL    HW221567   1.451   4.295   5.756
 6890SOL     OW21568   2.239   0.105   1.636
 6890SOL    HW121569   2.165   0.040   1.617
 6890SOL    HW221570   2.231   0.138   1.730
 6891SOL     OW21571   1.337   4.332   3.673
 6891SOL    HW121572   1.392   4.259   3.633
 6891SOL    HW221573   1.240   4.308   3.666
 6892SOL     OW21574   3.223   0.731   3.754
 6892SOL    HW121575   3.318   0.757   3.770
 6892SOL    HW221576   3.200   0.750   3.658
 6893SOL     OW21577   4.550   5.663   3.070
 6893SOL    HW121578   4.615   5.587   3.081
 6893SOL    HW221579   4.560   5.727   3.146
 6894SOL     OW21580   6.745   4.872   6.659
 6894SOL    HW121581   6.820   4.807   6.644
 6894SOL    HW221582   6.659   4.822   6.668
 6895SOL     OW21583   3.293   5.167   6.700
 6895SOL    HW121584   3.310   5.093   6.635
 6895SOL    HW221585   3.317   5.137   6.792
 6896SOL     OW21586   3.831   0.532   3.295
 6896SOL    HW121587   3.905   0.582   3.341
 6896SOL    HW221588   3.849   0.434   3.300
 6897SOL     OW21589   3.347   3.473   0.668
 6897SOL    HW121590   3.317   3.554   0.618
 6897SOL    HW221591   3.366   3.498   0.763
 6898SOL     OW21592   4.216   2.334   1.975
 6898SOL    HW121593   4.197   2.394   1.897
 6898SOL    HW221594   4.245   2.244   1.942
 6899SOL     OW21595   4.660   6.103   6.951
 6899SOL    HW121596   4.646   6.004   6.940
 6899SOL    HW221597   4.649   6.148   6.862
 6900SOL     OW21598   5.058   7.004   6.333
 6900SOL    HW121599   5.048   6.953   6.248
 6900SOL    HW221600   5.141   0.039   6.327
 6901SOL     OW21601   1.682   0.163   6.629
 6901SOL    HW121602   1.657   0.240   6.688
 6901SOL    HW221603   1.677   0.078   6.681
 6902SOL     OW21604   0.127   6.171   0.967
 6902SOL    HW121605   0.147   6.266   0.940
 6902SOL    HW221606   0.210   6.130   1.005
 6903SOL     OW21607   4.424   4.621   0.622
 6903SOL    HW121608   4.469   4.559   0.686
 6903SOL    HW221609   4.459   4.606   0.530
 6904SOL     OW21610   6.407   1.496   3.411
 6904SOL    HW121611   6.503   1.501   3.384
 6904SOL    HW221612   6.350   1.534   3.339
 6905SOL     OW21613   5.972   6.130   1.055
 6905SOL    HW121614   5.888   6.077   1.068
 6905SOL    HW221615   6.050   6.067   1.049
 6906SOL     OW21616   4.350   0.703   3.341
 6906SOL    HW121617   4.393   0.614   3.328
 6906SOL    HW221618   4.351   0.727   3.438
 6907SOL     OW21619   3.686   1.381   1.664
 6907SOL    HW121620   3.786   1.374   1.657
 6907SOL    HW221621   3.658   1.476   1.646
 6908SOL     OW21622   1.933   6.705   5.665
 6908SOL    HW121623   1.968   6.764   5.738
 6908SOL    HW221624   1.996   6.708   5.588
 6909SOL     OW21625   4.343   3.934   6.688
 6909SOL    HW121626   4.379   4.021   6.654
 6909SOL    HW221627   4.275   3.952   6.759
 6910SOL     OW21628   6.584   1.392   1.901
 6910SOL    HW121629   6.635   1.312   1.934
 6910SOL    HW221630   6.508   1.362   1.844
 6911SOL     OW21631   3.682   1.522   4.591
 6911SOL    HW121632   3.723   1.476   4.669
 6911SOL    HW221633   3.701   1.620   4.596
 6912SOL     OW21634   5.386   4.848   0.467
 6912SOL    HW121635   5.288   4.853   0.484
 6912SOL    HW221636   5.404   4.866   0.370
 6913SOL     OW21637   5.517   5.084   4.824
 6913SOL    HW121638   5.534   4.988   4.845
 6913SOL    HW221639   5.547   5.141   4.901
 6914SOL     OW21640   6.189   5.511   1.008
 6914SOL    HW121641   6.254   5.582   0.979
 6914SOL    HW221642   6.239   5.427   1.027
 6915SOL     OW21643   0.482   5.210   2.822
 6915SOL    HW121644   0.513   5.298   2.786
 6915SOL    HW221645   0.554   5.168   2.877
 6916SOL     OW21646   6.108   2.501   0.038
 6916SOL    HW121647   6.149   2.524   0.126
 6916SOL    HW221648   6.144   2.562   6.989
 6917SOL     OW21649   4.940   5.844   5.891
 6917SOL    HW121650   4.944   5.848   5.791
 6917SOL    HW221651   4.852   5.877   5.922
 6918SOL     OW21652   0.108   3.206   3.483
 6918SOL    HW121653   0.021   3.166   3.454
 6918SOL    HW221654   0.112   3.211   3.583
 6919SOL     OW21655   2.270   5.974   2.992
 6919SOL    HW121656   2.289   6.017   2.904
 6919SOL    HW221657   2.353   5.928   3.025
 6920SOL     OW21658   4.586   6.167   4.486
 6920SOL    HW121659   4.558   6.196   4.395
 6920SOL    HW221660   4.585   6.247   4.547
 6921SOL     OW21661   0.443   1.223   3.629
 6921SOL    HW121662   0.484   1.132   3.619
 6921SOL    HW221663   0.381   1.223   3.707
 6922SOL     OW21664   2.401   6.572   0.557
 6922SOL    HW121665   2.394   6.569   0.457
 6922SOL    HW221666   2.309   6.580   0.597
 6923SOL     OW21667   4.617   0.768   4.267
 6923SOL    HW121668   4.664   0.791   4.352
 6923SOL    HW221669   4.616   0.848   4.207
 6924SOL     OW21670   0.281   5.426   1.660
 6924SOL    HW121671   0.319   5.455   1.748
 6924SOL    HW221672   0.309   5.490   1.589
 6925SOL     OW21673   4.500   5.888   3.345
 6925SOL    HW121674   4.407   5.851   3.335
 6925SOL    HW221675   4.504   5.979   3.304
 6926SOL     OW21676   3.252   3.193   4.387
 6926SOL    HW121677   3.295   3.103   4.383
 6926SOL    HW221678   3.153   3.184   4.376
 6927SOL     OW21679   4.487   4.020   5.868
 6927SOL    HW121680   4.513   3.925   5.853
 6927SOL    HW221681   4.413   4.045   5.806
 6928SOL     OW21682   5.073   0.844   6.331
 6928SOL    HW121683   5.081   0.847   6.232
 6928SOL    HW221684   5.126   0.919   6.371
 6929SOL     OW21685   4.184   5.606   0.648
 6929SOL    HW121686   4.197   5.592   0.550
 6929SOL    HW221687   4.274   5.615   0.692
 6930SOL     OW21688   0.502   0.116   3.758
 6930SOL    HW121689   0.563   0.037   3.757
 6930SOL    HW221690   0.497   0.155   3.666
 6931SOL     OW21691   2.137   1.308   2.019
 6931SOL    HW121692   2.227   1.294   2.059
 6931SOL    HW221693   2.131   1.257   1.933
 6932SOL     OW21694   3.028   1.735   0.713
 6932SOL    HW121695   3.120   1.743   0.677
 6932SOL    HW221696   2.984   1.653   0.676
 6933SOL     OW21697   4.185   5.737   5.782
 6933SOL    HW121698   4.160   5.669   5.852
 6933SOL    HW221699   4.143   5.710   5.695
 6934SOL     OW21700   4.902   2.874   6.863
 6934SOL    HW121701   4.975   2.906   6.803
 6934SOL    HW221702   4.840   2.949   6.885
 6935SOL     OW21703   4.423   5.691   3.506
 6935SOL    HW121704   4.492   5.743   3.456
 6935SOL    HW221705   4.462   5.605   3.538
 6936SOL     OW21706   0.927   3.564   1.426
 6936SOL    HW121707   0.956   3.649   1.383
 6936SOL    HW221708   0.873   3.585   1.508
 6937SOL     OW21709   4.512   6.978   5.666
 6937SOL    HW121710   4.558   6.890   5.657
 6937SOL    HW221711   4.416   6.968   5.637
 6938SOL     OW21712   5.584   2.694   5.228
 6938SOL    HW121713   5.640   2.625   5.275
 6938SOL    HW221714   5.489   2.684   5.256
 6939SOL     OW21715   6.960   4.393   2.673
 6939SOL    HW121716   6.991   4.393   2.768
 6939SOL    HW221717   6.928   4.301   2.649
 6940SOL     OW21718   5.273   0.537   5.667
 6940SOL    HW121719   5.340   0.611   5.664
 6940SOL    HW221720   5.181   0.576   5.669
 6941SOL     OW21721   4.017   3.692   3.477
 6941SOL    HW121722   4.020   3.656   3.570
 6941SOL    HW221723   4.059   3.783   3.474
 6942SOL     OW21724   6.794   2.503   0.130
 6942SOL    HW121725   6.777   2.501   0.031
 6942SOL    HW221726   6.744   2.580   0.170
 6943SOL     OW21727   5.352   5.587   6.214
 6943SOL    HW121728   5.443   5.621   6.240
 6943SOL    HW221729   5.321   5.635   6.132
 6944SOL     OW21730   0.839   5.294   6.053
 6944SOL    HW121731   0.914   5.359   6.056
 6944SOL    HW221732   0.863   5.213   6.106
 6945SOL     OW21733   6.748   2.712   5.786
 6945SOL    HW121734   6.676   2.685   5.849
 6945SOL    HW221735   6.761   2.811   5.791
 6946SOL     OW21736   5.162   3.708   2.250
 6946SOL    HW121737   5.075   3.665   2.274
 6946SOL    HW221738   5.187   3.775   2.320
 6947SOL     OW21739   3.217   6.897   3.046
 6947SOL    HW121740   3.163   6.887   3.129
 6947SOL    HW221741   3.170   6.852   2.970
 6948SOL     OW21742   4.850   0.698   6.362
 6948SOL    HW121743   4.936   0.748   6.368
 6948SOL    HW221744   4.860   0.622   6.298
 6949SOL     OW21745   4.970   0.009   2.647
 6949SOL    HW121746   4.992   0.102   2.619
 6949SOL    HW221747   4.975   0.002   2.747
 6950SOL     OW21748   1.887   1.182   3.258
 6950SOL    HW121749   1.959   1.140   3.313
 6950SOL    HW221750   1.897   1.281   3.259
 6951SOL     OW21751   6.606   5.613   6.037
 6951SOL    HW121752   6.640   5.604   6.131
 6951SOL    HW221753   6.647   5.695   5.995
 6952SOL     OW21754   0.516   5.218   5.048
 6952SOL    HW121755   0.584   5.257   4.985
 6952SOL    HW221756   0.515   5.119   5.039
 6953SOL     OW21757   5.008   0.909   5.413
 6953SOL    HW121758   5.083   0.911   5.346
 6953SOL    HW221759   4.960   0.997   5.412
 6954SOL     OW21760   6.648   3.027   3.510
 6954SOL    HW121761   6.620   3.088   3.437
 6954SOL    HW221762   6.568   2.984   3.551
 6955SOL     OW21763   0.043   6.030   2.059
 6955SOL    HW121764   6.988   6.073   2.106
 6955SOL    HW221765   0.037   5.930   2.070
 6956SOL     OW21766   4.176   5.205   1.300
 6956SOL    HW121767   4.215   5.125   1.346
 6956SOL    HW221768   4.241   5.281   1.303
 6957SOL     OW21769   0.228   5.211   1.506
 6957SOL    HW121770   0.252   5.287   1.567
 6957SOL    HW221771   0.288   5.133   1.525
 6958SOL     OW21772   2.756   3.031   6.237
 6958SOL    HW121773   2.826   3.103   6.234
 6958SOL    HW221774   2.789   2.955   6.292
 6959SOL     OW21775   3.545   1.798   4.546
 6959SOL    HW121776   3.553   1.741   4.628
 6959SOL    HW221777   3.620   1.865   4.545
 6960SOL     OW21778   0.583   4.716   6.366
 6960SOL    HW121779   0.596   4.809   6.399
 6960SOL    HW221780   0.529   4.717   6.283
 6961SOL     OW21781   1.159   0.867   3.639
 6961SOL    HW121782   1.143   0.796   3.571
 6961SOL    HW221783   1.181   0.825   3.727
 6962SOL     OW21784   5.059   4.539   1.412
 6962SOL    HW121785   5.146   4.586   1.424
 6962SOL    HW221786   5.052   4.465   1.479
 6963SOL     OW21787   6.823   5.013   1.860
 6963SOL    HW121788   6.903   5.017   1.920
 6963SOL    HW221789   6.809   4.919   1.829
 6964SOL     OW21790   4.157   5.555   4.732
 6964SOL    HW121791   4.066   5.513   4.734
 6964SOL    HW221792   4.226   5.484   4.742
 6965SOL     OW21793   6.828   3.044   6.088
 6965SOL    HW121794   6.927   3.056   6.096
 6965SOL    HW221795   6.804   3.030   5.992
 6966SOL     OW21796   4.681   2.237   2.813
 6966SOL    HW121797   4.734   2.185   2.881
 6966SOL    HW221798   4.594   2.191   2.797
 6967SOL     OW21799   1.332   1.563   6.019
 6967SOL    HW121800   1.407   1.622   5.992
 6967SOL    HW221801   1.337   1.477   5.967
 6968SOL     OW21802   4.939   5.684   1.585
 6968SOL    HW121803   4.920   5.731   1.500
 6968SOL    HW221804   4.855   5.642   1.620
 6969SOL     OW21805   3.331   1.747   0.308
 6969SOL    HW121806   3.349   1.817   0.239
 6969SOL    HW221807   3.350   1.785   0.399
 6970SOL     OW21808   4.664   4.285   0.511
 6970SOL    HW121809   4.729   4.336   0.568
 6970SOL    HW221810   4.639   4.200   0.557
 6971SOL     OW21811   5.582   1.618   1.525
 6971SOL    HW121812   5.544   1.532   1.560
 6971SOL    HW221813   5.567   1.623   1.426
 6972SOL     OW21814   5.220   4.923   3.831
 6972SOL    HW121815   5.138   4.868   3.841
 6972SOL    HW221816   5.242   4.967   3.918
 6973SOL     OW21817   2.211   4.416   3.711
 6973SOL    HW121818   2.275   4.450   3.642
 6973SOL    HW221819   2.205   4.482   3.786
 6974SOL     OW21820   3.331   3.711   4.199
 6974SOL    HW121821   3.423   3.748   4.207
 6974SOL    HW221822   3.264   3.784   4.207
 6975SOL     OW21823   4.489   0.525   5.609
 6975SOL    HW121824   4.518   0.568   5.694
 6975SOL    HW221825   4.506   0.427   5.613
 6976SOL     OW21826   2.139   4.941   6.622
 6976SOL    HW121827   2.042   4.918   6.609
 6976SOL    HW221828   2.151   4.977   6.715
 6977SOL     OW21829   3.508   1.614   2.549
 6977SOL    HW121830   3.473   1.672   2.622
 6977SOL    HW221831   3.460   1.635   2.464
 6978SOL     OW21832   0.410   1.116   1.930
 6978SOL    HW121833   0.347   1.163   1.867
 6978SOL    HW221834   0.504   1.136   1.904
 6979SOL     OW21835   0.602   4.831   2.764
 6979SOL    HW121836   0.637   4.741   2.789
 6979SOL    HW221837   0.677   4.897   2.765
 6980SOL     OW21838   2.035   1.228   4.111
 6980SOL    HW121839   2.118   1.227   4.055
 6980SOL    HW221840   1.959   1.264   4.058
 6981SOL     OW21841   1.909   5.498   0.496
 6981SOL    HW121842   2.003   5.526   0.515
 6981SOL    HW221843   1.907   5.438   0.416
 6982SOL     OW21844   0.485   0.107   4.208
 6982SOL    HW121845   0.509   0.025   4.155
 6982SOL    HW221846   0.451   0.177   4.146
 6983SOL     OW21847   6.860   0.735   4.418
 6983SOL    HW121848   6.872   0.730   4.517
 6983SOL    HW221849   6.887   0.648   4.376
 6984SOL     OW21850   1.922   1.824   6.170
 6984SOL    HW121851   1.973   1.889   6.114
 6984SOL    HW221852   1.889   1.749   6.113
 6985SOL     OW21853   4.947   5.563   2.454
 6985SOL    HW121854   5.045   5.557   2.436
 6985SOL    HW221855   4.896   5.527   2.376
 6986SOL     OW21856   1.808   5.911   5.907
 6986SOL    HW121857   1.854   5.880   5.824
 6986SOL    HW221858   1.811   6.011   5.911
 6987SOL     OW21859   0.182   3.399   6.804
 6987SOL    HW121860   0.245   3.470   6.835
 6987SOL    HW221861   0.233   3.326   6.761
 6988SOL     OW21862   5.305   1.254   3.585
 6988SOL    HW121863   5.235   1.312   3.627
 6988SOL    HW221864   5.284   1.242   3.488
 6989SOL     OW21865   1.210   1.778   3.400
 6989SOL    HW121866   1.292   1.764   3.456
 6989SOL    HW221867   1.144   1.706   3.418
 6990SOL     OW21868   3.710   3.005   0.205
 6990SOL    HW121869   3.762   3.083   0.171
 6990SOL    HW221870   3.744   2.979   0.295
 6991SOL     OW21871   2.851   4.581   5.717
 6991SOL    HW121872   2.799   4.627   5.789
 6991SOL    HW221873   2.918   4.519   5.760
 6992SOL     OW21874   5.526   6.547   4.144
 6992SOL    HW121875   5.475   6.461   4.144
 6992SOL    HW221876   5.470   6.618   4.188
 6993SOL     OW21877   0.329   0.170   3.015
 6993SOL    HW121878   0.352   0.187   2.919
 6993SOL    HW221879   0.230   0.158   3.025
 6994SOL     OW21880   1.776   3.151   6.356
 6994SOL    HW121881   1.741   3.243   6.372
 6994SOL    HW221882   1.802   3.109   6.443
 6995SOL     OW21883   5.321   5.422   3.193
 6995SOL    HW121884   5.238   5.467   3.159
 6995SOL    HW221885   5.377   5.393   3.116
 6996SOL     OW21886   2.807   0.325   5.532
 6996SOL    HW121887   2.866   0.273   5.594
 6996SOL    HW221888   2.818   0.423   5.550
 6997SOL     OW21889   4.444   6.652   4.725
 6997SOL    HW121890   4.403   6.670   4.814
 6997SOL    HW221891   4.377   6.670   4.653
 6998SOL     OW21892   1.883   3.462   2.589
 6998SOL    HW121893   1.813   3.407   2.634
 6998SOL    HW221894   1.882   3.555   2.626
 6999SOL     OW21895   3.138   1.679   5.784
 6999SOL    HW121896   3.183   1.638   5.864
 6999SOL    HW221897   3.082   1.757   5.813
 7000SOL     OW21898   1.023   6.125   2.350
 7000SOL    HW121899   1.025   6.049   2.285
 7000SOL    HW221900   0.932   6.167   2.350
 7001SOL     OW21901   2.418   2.917   5.839
 7001SOL    HW121902   2.449   2.937   5.746
 7001SOL    HW221903   2.498   2.913   5.900
 7002SOL     OW21904   0.950   5.341   3.217
 7002SOL    HW121905   1.000   5.380   3.294
 7002SOL    HW221906   0.852   5.361   3.226
 7003SOL     OW21907   2.757   6.292   0.907
 7003SOL    HW121908   2.838   6.349   0.916
 7003SOL    HW221909   2.678   6.351   0.887
 7004SOL     OW21910   1.239   4.089   1.101
 7004SOL    HW121911   1.159   4.101   1.041
 7004SOL    HW221912   1.219   4.129   1.191
 7005SOL     OW21913   5.310   5.947   6.814
 7005SOL    HW121914   5.337   6.043   6.821
 7005SOL    HW221915   5.294   5.924   6.718
 7006SOL     OW21916   4.566   4.606   4.816
 7006SOL    HW121917   4.543   4.699   4.786
 7006SOL    HW221918   4.491   4.569   4.871
 7007SOL     OW21919   4.220   6.199   3.254
 7007SOL    HW121920   4.207   6.287   3.300
 7007SOL    HW221921   4.193   6.125   3.316
 7008SOL     OW21922   1.684   5.191   4.135
 7008SOL    HW121923   1.758   5.209   4.071
 7008SOL    HW221924   1.650   5.278   4.172
 7009SOL     OW21925   6.871   5.444   2.186
 7009SOL    HW121926   6.854   5.394   2.271
 7009SOL    HW221927   6.831   5.394   2.109
 7010SOL     OW21928   3.620   4.923   6.533
 7010SOL    HW121929   3.654   4.890   6.445
 7010SOL    HW221930   3.650   4.862   6.606
 7011SOL     OW21931   3.033   0.329   5.973
 7011SOL    HW121932   3.021   0.231   5.983
 7011SOL    HW221933   3.118   0.358   6.018
 7012SOL     OW21934   1.513   0.426   1.920
 7012SOL    HW121935   1.582   0.486   1.963
 7012SOL    HW221936   1.501   0.345   1.977
 7013SOL     OW21937   1.126   0.186   1.397
 7013SOL    HW121938   1.066   0.228   1.464
 7013SOL    HW221939   1.220   0.216   1.412
 7014SOL     OW21940   2.863   4.207   1.171
 7014SOL    HW121941   2.918   4.231   1.251
 7014SOL    HW221942   2.894   4.260   1.092
 7015SOL     OW21943   5.068   2.451   2.307
 7015SOL    HW121944   5.051   2.480   2.213
 7015SOL    HW221945   5.164   2.426   2.318
 7016SOL     OW21946   4.563   4.776   1.571
 7016SOL    HW121947   4.478   4.724   1.572
 7016SOL    HW221948   4.563   4.839   1.493
 7017SOL     OW21949   2.862   1.837   3.534
 7017SOL    HW121950   2.937   1.843   3.600
 7017SOL    HW221951   2.776   1.822   3.582
 7018SOL     OW21952   0.405   4.065   4.751
 7018SOL    HW121953   0.322   4.113   4.780
 7018SOL    HW221954   0.403   4.052   4.652
 7019SOL     OW21955   2.416   5.625   0.030
 7019SOL    HW121956   2.471   5.612   6.969
 7019SOL    HW221957   2.354   5.546   0.042
 7020SOL     OW21958   6.256   6.790   6.506
 7020SOL    HW121959   6.345   6.826   6.477
 7020SOL    HW221960   6.238   6.819   6.600
 7021SOL     OW21961   2.274   0.615   5.760
 7021SOL    HW121962   2.238   0.707   5.773
 7021SOL    HW221963   2.372   0.614   5.784
 7022SOL     OW21964   5.362   3.815   6.739
 7022SOL    HW121965   5.337   3.911   6.724
 7022SOL    HW221966   5.333   3.786   6.830
 7023SOL     OW21967   6.052   3.115   1.480
 7023SOL    HW121968   6.111   3.064   1.542
 7023SOL    HW221969   6.078   3.212   1.481
 7024SOL     OW21970   1.469   5.923   0.051
 7024SOL    HW121971   1.516   5.945   6.987
 7024SOL    HW221972   1.532   5.935   0.128
 7025SOL     OW21973   3.318   2.133   0.020
 7025SOL    HW121974   3.346   2.216   0.068
 7025SOL    HW221975   3.252   2.157   6.970
 7026SOL     OW21976   4.106   1.455   1.343
 7026SOL    HW121977   4.188   1.400   1.359
 7026SOL    HW221978   4.133   1.549   1.324
 7027SOL     OW21979   3.675   5.762   3.810
 7027SOL    HW121980   3.615   5.812   3.748
 7027SOL    HW221981   3.738   5.826   3.854
 7028SOL     OW21982   4.528   6.288   3.508
 7028SOL    HW121983   4.457   6.271   3.576
 7028SOL    HW221984   4.531   6.386   3.487
 7029SOL     OW21985   3.444   6.616   0.047
 7029SOL    HW121986   3.449   6.617   0.147
 7029SOL    HW221987   3.537   6.612   0.009
 7030SOL     OW21988   0.210   3.380   4.973
 7030SOL    HW121989   0.294   3.409   5.018
 7030SOL    HW221990   0.199   3.430   4.887
 7031SOL     OW21991   1.873   5.719   4.299
 7031SOL    HW121992   1.829   5.667   4.226
 7031SOL    HW221993   1.824   5.707   4.385
 7032SOL     OW21994   6.179   0.800   3.158
 7032SOL    HW121995   6.261   0.824   3.106
 7032SOL    HW221996   6.124   0.882   3.173
 7033SOL     OW21997   6.934   1.482   4.051
 7033SOL    HW121998   6.901   1.513   3.962
 7033SOL    HW221999   6.962   1.561   4.105
 7034SOL     OW22000   6.503   0.636   2.974
 7034SOL    HW122001   6.560   0.611   2.895
 7034SOL    HW222002   6.464   0.553   3.015
 7035SOL     OW22003   6.543   5.629   2.397
 7035SOL    HW122004   6.459   5.683   2.383
 7035SOL    HW222005   6.615   5.664   2.337
 7036SOL     OW22006   6.403   4.983   2.019
 7036SOL    HW122007   6.500   4.967   2.002
 7036SOL    HW222008   6.392   5.063   2.079
 7037SOL     OW22009   1.467   6.075   6.132
 7037SOL    HW122010   1.496   6.121   6.048
 7037SOL    HW222011   1.369   6.056   6.128
 7038SOL     OW22012   0.475   4.786   3.740
 7038SOL    HW122013   0.394   4.845   3.737
 7038SOL    HW222014   0.504   4.766   3.646
 7039SOL     OW22015   4.162   0.673   5.804
 7039SOL    HW122016   4.224   0.737   5.850
 7039SOL    HW222017   4.093   0.724   5.753
 7040SOL     OW22018   5.185   2.071   6.466
 7040SOL    HW122019   5.100   2.059   6.517
 7040SOL    HW222020   5.233   2.151   6.501
 7041SOL     OW22021   1.721   1.852   3.106
 7041SOL    HW122022   1.759   1.800   3.183
 7041SOL    HW222023   1.792   1.911   3.068
 7042SOL     OW22024   3.912   5.741   6.903
 7042SOL    HW122025   3.861   5.745   6.988
 7042SOL    HW222026   3.861   5.687   6.836
 7043SOL     OW22027   2.330   2.086   3.415
 7043SOL    HW122028   2.354   2.132   3.330
 7043SOL    HW222029   2.232   2.092   3.430
 7044SOL     OW22030   4.648   4.694   2.844
 7044SOL    HW122031   4.724   4.636   2.872
 7044SOL    HW222032   4.643   4.696   2.744
 7045SOL     OW22033   5.660   6.076   1.326
 7045SOL    HW122034   5.580   6.095   1.383
 7045SOL    HW222035   5.681   6.156   1.270
 7046SOL     OW22036   4.255   0.566   4.566
 7046SOL    HW122037   4.263   0.618   4.651
 7046SOL    HW222038   4.160   0.538   4.552
 7047SOL     OW22039   1.105   0.950   4.383
 7047SOL    HW122040   1.111   1.048   4.362
 7047SOL    HW222041   1.012   0.927   4.409
 7048SOL     OW22042   0.182   6.429   0.814
 7048SOL    HW122043   0.094   6.476   0.826
 7048SOL    HW222044   0.180   6.374   0.730
 7049SOL     OW22045   2.508   1.146   0.491
 7049SOL    HW122046   2.590   1.141   0.433
 7049SOL    HW222047   2.536   1.165   0.585
 7050SOL     OW22048   2.941   3.854   4.550
 7050SOL    HW122049   2.950   3.940   4.599
 7050SOL    HW222050   2.947   3.778   4.614
 7051SOL     OW22051   0.291   0.414   1.651
 7051SOL    HW122052   0.226   0.446   1.721
 7051SOL    HW222053   0.383   0.414   1.689
 7052SOL     OW22054   0.107   2.485   4.216
 7052SOL    HW122055   0.202   2.470   4.190
 7052SOL    HW222056   0.100   2.568   4.272
 7053SOL     OW22057   0.519   4.008   6.800
 7053SOL    HW122058   0.545   4.102   6.818
 7053SOL    HW222059   0.584   3.946   6.843
 7054SOL     OW22060   6.441   6.753   1.845
 7054SOL    HW122061   6.422   6.672   1.900
 7054SOL    HW222062   6.473   6.725   1.754
 7055SOL     OW22063   4.377   0.624   4.306
 7055SOL    HW122064   4.449   0.682   4.269
 7055SOL    HW222065   4.380   0.625   4.405
 7056SOL     OW22066   5.307   5.071   3.603
 7056SOL    HW122067   5.253   5.155   3.597
 7056SOL    HW222068   5.300   5.034   3.696
 7057SOL     OW22069   6.858   5.093   3.340
 7057SOL    HW122070   6.946   5.055   3.311
 7057SOL    HW222071   6.860   5.111   3.438
 7058SOL     OW22072   0.726   4.942   5.431
 7058SOL    HW122073   0.759   4.954   5.524
 7058SOL    HW222074   0.649   4.878   5.430
 7059SOL     OW22075   0.920   0.330   2.428
 7059SOL    HW122076   0.826   0.364   2.433
 7059SOL    HW222077   0.940   0.275   2.510
 7060SOL     OW22078   3.370   6.420   1.868
 7060SOL    HW122079   3.340   6.514   1.884
 7060SOL    HW222080   3.304   6.357   1.909
 7061SOL     OW22081   0.570   1.199   3.051
 7061SOL    HW122082   0.669   1.207   3.047
 7061SOL    HW222083   0.536   1.241   3.135
 7062SOL     OW22084   5.661   1.645   5.148
 7062SOL    HW122085   5.659   1.642   5.248
 7062SOL    HW222086   5.573   1.677   5.114
 7063SOL     OW22087   2.298   6.632   1.268
 7063SOL    HW122088   2.212   6.614   1.316
 7063SOL    HW222089   2.372   6.643   1.334
 7064SOL     OW22090   3.918   2.365   1.521
 7064SOL    HW122091   3.865   2.397   1.442
 7064SOL    HW222092   3.868   2.293   1.568
 7065SOL     OW22093   4.482   3.724   1.573
 7065SOL    HW122094   4.486   3.747   1.476
 7065SOL    HW222095   4.507   3.804   1.628
 7066SOL     OW22096   4.021   6.970   0.305
 7066SOL    HW122097   3.981   0.039   0.289
 7066SOL    HW222098   3.965   6.919   0.369
 7067SOL     OW22099   0.635   3.511   5.888
 7067SOL    HW122100   0.582   3.547   5.810
 7067SOL    HW222101   0.732   3.523   5.870
 7068SOL     OW22102   1.652   1.833   3.482
 7068SOL    HW122103   1.741   1.824   3.438
 7068SOL    HW222104   1.597   1.901   3.434
 7069SOL     OW22105   0.015   4.186   5.427
 7069SOL    HW122106   0.097   4.129   5.433
 7069SOL    HW222107   7.005   4.189   5.332
 7070SOL     OW22108   6.558   4.885   4.709
 7070SOL    HW122109   6.491   4.843   4.771
 7070SOL    HW222110   6.520   4.968   4.670
 7071SOL     OW22111   1.491   5.863   5.406
 7071SOL    HW122112   1.505   5.841   5.503
 7071SOL    HW222113   1.486   5.779   5.353
 7072SOL     OW22114   6.885   6.472   6.412
 7072SOL    HW122115   6.859   6.482   6.316
 7072SOL    HW222116   6.806   6.488   6.470
 7073SOL     OW22117   0.518   0.963   5.634
 7073SOL    HW122118   0.436   1.009   5.669
 7073SOL    HW222119   0.534   0.880   5.687
 7074SOL     OW22120   3.213   2.160   1.551
 7074SOL    HW122121   3.285   2.213   1.597
 7074SOL    HW222122   3.130   2.215   1.546
 7075SOL     OW22123   2.174   5.754   4.471
 7075SOL    HW122124   2.164   5.723   4.377
 7075SOL    HW222125   2.085   5.755   4.516
 7076SOL     OW22126   3.409   1.558   6.162
 7076SOL    HW122127   3.375   1.510   6.082
 7076SOL    HW222128   3.432   1.652   6.137
 7077SOL     OW22129   2.430   5.552   5.526
 7077SOL    HW122130   2.463   5.573   5.619
 7077SOL    HW222131   2.455   5.458   5.504
 7078SOL     OW22132   6.569   0.032   3.367
 7078SOL    HW122133   6.482   7.006   3.352
 7078SOL    HW222134   6.632   6.992   3.416
 7079SOL     OW22135   6.260   6.115   6.043
 7079SOL    HW122136   6.264   6.133   6.141
 7079SOL    HW222137   6.352   6.126   6.004
 7080SOL     OW22138   4.138   2.269   3.787
 7080SOL    HW122139   4.177   2.317   3.708
 7080SOL    HW222140   4.167   2.313   3.871
 7081SOL     OW22141   3.018   1.459   5.646
 7081SOL    HW122142   3.037   1.537   5.706
 7081SOL    HW222143   3.059   1.376   5.684
 7082SOL     OW22144   5.775   1.541   7.003
 7082SOL    HW122145   5.754   1.455   6.956
 7082SOL    HW222146   5.791   1.523   0.079
 7083SOL     OW22147   3.759   1.179   5.913
 7083SOL    HW122148   3.788   1.223   5.997
 7083SOL    HW222149   3.687   1.234   5.870
 7084SOL     OW22150   6.938   6.101   5.850
 7084SOL    HW122151   6.971   6.046   5.773
 7084SOL    HW222152   6.866   6.051   5.898
 7085SOL     OW22153   2.407   2.698   3.091
 7085SOL    HW122154   2.386   2.788   3.055
 7085SOL    HW222155   2.475   2.653   3.032
 7086SOL     OW22156   5.402   1.107   6.515
 7086SOL    HW122157   5.487   1.116   6.567
 7086SOL    HW222158   5.356   1.022   6.541
 7087SOL     OW22159   0.422   3.938   4.496
 7087SOL    HW122160   0.512   3.901   4.471
 7087SOL    HW222161   0.367   3.948   4.413
 7088SOL     OW22162   5.128   2.822   4.253
 7088SOL    HW122163   5.149   2.833   4.350
 7088SOL    HW222164   5.033   2.852   4.237
 7089SOL     OW22165   3.683   2.192   6.266
 7089SOL    HW122166   3.772   2.236   6.255
 7089SOL    HW222167   3.624   2.249   6.323
 7090SOL     OW22168   1.878   1.967   5.354
 7090SOL    HW122169   1.836   2.045   5.308
 7090SOL    HW222170   1.977   1.980   5.358
 7091SOL     OW22171   0.027   1.055   0.788
 7091SOL    HW122172   0.045   1.152   0.804
 7091SOL    HW222173   0.002   1.011   0.875
 7092SOL     OW22174   3.747   4.196   0.643
 7092SOL    HW122175   3.784   4.122   0.699
 7092SOL    HW222176   3.737   4.164   0.549
 7093SOL     OW22177   3.476   4.141   4.655
 7093SOL    HW122178   3.393   4.191   4.681
 7093SOL    HW222179   3.510   4.089   4.734
 7094SOL     OW22180   1.077   6.479   5.616
 7094SOL    HW122181   1.144   6.552   5.628
 7094SOL    HW222182   1.027   6.493   5.530
 7095SOL     OW22183   1.249   3.155   6.354
 7095SOL    HW122184   1.308   3.106   6.291
 7095SOL    HW222185   1.301   3.225   6.401
 7096SOL     OW22186   4.504   2.177   3.615
 7096SOL    HW122187   4.561   2.243   3.663
 7096SOL    HW222188   4.549   2.088   3.612
 7097SOL     OW22189   0.347   1.260   2.163
 7097SOL    HW122190   0.367   1.174   2.116
 7097SOL    HW222191   0.364   1.336   2.101
 7098SOL     OW22192   1.506   5.420   6.018
 7098SOL    HW122193   1.482   5.330   5.981
 7098SOL    HW222194   1.547   5.409   6.108
 7099SOL     OW22195   1.226   1.085   4.879
 7099SOL    HW122196   1.226   1.166   4.938
 7099SOL    HW222197   1.178   1.106   4.794
 7100SOL     OW22198   4.931   4.232   0.901
 7100SOL    HW122199   4.930   4.137   0.871
 7100SOL    HW222200   5.024   4.259   0.926
 7101SOL     OW22201   3.095   0.483   4.766
 7101SOL    HW122202   3.038   0.456   4.844
 7101SOL    HW222203   3.132   0.574   4.781
 7102SOL     OW22204   3.836   1.243   0.953
 7102SOL    HW122205   3.769   1.225   0.880
 7102SOL    HW222206   3.928   1.236   0.915
 7103SOL     OW22207   3.485   6.288   0.012
 7103SOL    HW122208   3.525   6.378   0.031
 7103SOL    HW222209   3.464   6.242   0.099
 7104SOL     OW22210   1.742   2.595   3.239
 7104SOL    HW122211   1.824   2.629   3.193
 7104SOL    HW222212   1.719   2.657   3.315
 7105SOL     OW22213   3.161   3.501   4.362
 7105SOL    HW122214   3.063   3.516   4.349
 7105SOL    HW222215   3.211   3.543   4.287
 7106SOL     OW22216   3.456   3.151   4.663
 7106SOL    HW122217   3.488   3.171   4.755
 7106SOL    HW222218   3.358   3.129   4.666
 7107SOL     OW22219   3.056   1.165   0.854
 7107SOL    HW122220   3.064   1.068   0.877
 7107SOL    HW222221   3.063   1.177   0.755
 7108SOL     OW22222   4.988   6.125   0.905
 7108SOL    HW122223   5.084   6.153   0.900
 7108SOL    HW222224   4.930   6.206   0.910
 7109SOL     OW22225   3.644   0.266   5.831
 7109SOL    HW122226   3.618   0.232   5.740
 7109SOL    HW222227   3.702   0.199   5.876
 7110SOL     OW22228   4.974   5.017   4.155
 7110SOL    HW122229   4.955   5.089   4.088
 7110SOL    HW222230   5.055   5.041   4.208
 7111SOL     OW22231   1.866   3.352   4.222
 7111SOL    HW122232   1.807   3.278   4.256
 7111SOL    HW222233   1.961   3.331   4.243
 7112SOL     OW22234   0.530   6.161   4.048
 7112SOL    HW122235   0.484   6.101   4.113
 7112SOL    HW222236   0.615   6.118   4.017
 7113SOL     OW22237   3.792   4.034   4.648
 7113SOL    HW122238   3.721   4.071   4.587
 7113SOL    HW222239   3.853   3.974   4.595
 7114SOL     OW22240   4.761   1.342   1.813
 7114SOL    HW122241   4.739   1.264   1.872
 7114SOL    HW222242   4.687   1.355   1.747
 7115SOL     OW22243   4.554   1.873   1.345
 7115SOL    HW122244   4.550   1.913   1.436
 7115SOL    HW222245   4.638   1.900   1.299
 7116SOL     OW22246   5.517   3.717   3.424
 7116SOL    HW122247   5.553   3.799   3.380
 7116SOL    HW222248   5.422   3.733   3.451
 7117SOL     OW22249   6.151   6.050   2.865
 7117SOL    HW122250   6.207   6.072   2.945
 7117SOL    HW222251   6.168   5.956   2.837
 7118SOL     OW22252   5.090   3.991   1.024
 7118SOL    HW122253   5.068   4.031   1.113
 7118SOL    HW222254   5.008   3.984   0.969
 7119SOL     OW22255   5.815   1.342   2.531
 7119SOL    HW122256   5.741   1.313   2.590
 7119SOL    HW222257   5.891   1.277   2.537
 7120SOL     OW22258   5.113   1.447   3.659
 7120SOL    HW122259   5.088   1.461   3.754
 7120SOL    HW222260   5.030   1.440   3.603
 7121SOL     OW22261   2.119   0.035   3.743
 7121SOL    HW122262   2.107   0.119   3.689
 7121SOL    HW222263   2.083   0.050   3.835
 7122SOL     OW22264   6.621   1.219   6.927
 7122SOL    HW122265   6.597   1.164   7.007
 7122SOL    HW222266   6.645   1.312   6.956
 7123SOL     OW22267   2.574   5.456   1.530
 7123SOL    HW122268   2.477   5.441   1.508
 7123SOL    HW222269   2.621   5.492   1.450
 7124SOL     OW22270   0.105   5.477   6.729
 7124SOL    HW122271   0.058   5.453   6.814
 7124SOL    HW222272   0.199   5.440   6.733
 7125SOL     OW22273   6.416   6.498   2.415
 7125SOL    HW122274   6.373   6.572   2.363
 7125SOL    HW222275   6.512   6.520   2.431
 7126SOL     OW22276   2.008   4.057   0.319
 7126SOL    HW122277   2.006   4.077   0.417
 7126SOL    HW222278   2.041   3.964   0.304
 7127SOL     OW22279   3.088   5.900   4.066
 7127SOL    HW122280   3.084   5.838   3.987
 7127SOL    HW222281   3.183   5.926   4.083
 7128SOL     OW22282   3.433   4.303   0.659
 7128SOL    HW122283   3.461   4.337   0.749
 7128SOL    HW222284   3.490   4.224   0.635
 7129SOL     OW22285   3.414   0.499   1.068
 7129SOL    HW122286   3.427   0.521   1.165
 7129SOL    HW222287   3.333   0.441   1.058
 7130SOL     OW22288   3.011   4.890   3.629
 7130SOL    HW122289   2.961   4.807   3.652
 7130SOL    HW222290   2.961   4.970   3.664
 7131SOL     OW22291   3.240   1.495   2.373
 7131SOL    HW122292   3.285   1.551   2.303
 7131SOL    HW222293   3.234   1.401   2.340
 7132SOL     OW22294   4.009   3.866   2.606
 7132SOL    HW122295   3.931   3.927   2.591
 7132SOL    HW222296   3.980   3.771   2.589
 7133SOL     OW22297   4.758   5.655   3.282
 7133SOL    HW122298   4.694   5.589   3.243
 7133SOL    HW222299   4.748   5.655   3.381
 7134SOL     OW22300   5.987   5.946   3.723
 7134SOL    HW122301   6.031   5.873   3.670
 7134SOL    HW222302   6.057   5.998   3.772
 7135SOL     OW22303   1.330   1.195   4.421
 7135SOL    HW122304   1.382   1.132   4.363
 7135SOL    HW222305   1.249   1.226   4.372
 7136SOL     OW22306   1.855   0.844   0.490
 7136SOL    HW122307   1.858   0.873   0.585
 7136SOL    HW222308   1.869   0.923   0.430
 7137SOL     OW22309   4.730   0.868   4.492
 7137SOL    HW122310   4.653   0.925   4.520
 7137SOL    HW222311   4.802   0.874   4.561
 7138SOL     OW22312   3.143   3.531   1.214
 7138SOL    HW122313   3.105   3.623   1.224
 7138SOL    HW222314   3.163   3.494   1.305
 7139SOL     OW22315   4.874   3.181   1.722
 7139SOL    HW122316   4.841   3.274   1.703
 7139SOL    HW222317   4.803   3.129   1.768
 7140SOL     OW22318   6.543   4.524   4.900
 7140SOL    HW122319   6.571   4.568   4.986
 7140SOL    HW222320   6.561   4.586   4.824
 7141SOL     OW22321   2.878   0.237   0.975
 7141SOL    HW122322   2.844   0.327   0.950
 7141SOL    HW222323   2.971   0.226   0.942
 7142SOL     OW22324   4.377   6.175   3.985
 7142SOL    HW122325   4.447   6.246   3.984
 7142SOL    HW222326   4.415   6.091   4.024
 7143SOL     OW22327   1.719   4.237   5.964
 7143SOL    HW122328   1.781   4.271   5.894
 7143SOL    HW222329   1.626   4.270   5.946
 7144SOL     OW22330   0.908   1.463   2.845
 7144SOL    HW122331   0.981   1.528   2.824
 7144SOL    HW222332   0.913   1.386   2.782
 7145SOL     OW22333   4.504   6.991   6.683
 7145SOL    HW122334   4.442   6.933   6.737
 7145SOL    HW222335   4.506   6.958   6.589
 7146SOL     OW22336   2.818   6.762   0.513
 7146SOL    HW122337   2.890   6.758   0.583
 7146SOL    HW222338   2.730   6.778   0.557
 7147SOL     OW22339   0.178   0.753   3.175
 7147SOL    HW122340   0.154   0.849   3.193
 7147SOL    HW222341   0.147   0.696   3.251
 7148SOL     OW22342   1.238   6.506   1.697
 7148SOL    HW122343   1.242   6.514   1.597
 7148SOL    HW222344   1.156   6.455   1.723
 7149SOL     OW22345   6.544   1.160   3.330
 7149SOL    HW122346   6.459   1.213   3.327
 7149SOL    HW222347   6.531   1.080   3.390
 7150SOL     OW22348   5.476   2.957   0.185
 7150SOL    HW122349   5.458   3.023   0.112
 7150SOL    HW222350   5.398   2.894   0.193
 7151SOL     OW22351   2.035   5.800   1.272
 7151SOL    HW122352   2.025   5.727   1.205
 7151SOL    HW222353   2.105   5.864   1.241
 7152SOL     OW22354   0.568   3.447   4.973
 7152SOL    HW122355   0.539   3.354   4.997
 7152SOL    HW222356   0.514   3.480   4.896
 7153SOL     OW22357   4.417   0.564   4.980
 7153SOL    HW122358   4.443   0.475   4.943
 7153SOL    HW222359   4.318   0.575   4.973
 7154SOL     OW22360   3.776   5.677   4.079
 7154SOL    HW122361   3.699   5.694   4.017
 7154SOL    HW222362   3.813   5.586   4.063
 7155SOL     OW22363   1.347   6.678   2.407
 7155SOL    HW122364   1.283   6.740   2.452
 7155SOL    HW222365   1.437   6.685   2.451
 7156SOL     OW22366   6.450   5.208   5.198
 7156SOL    HW122367   6.359   5.197   5.159
 7156SOL    HW222368   6.444   5.264   5.281
 7157SOL     OW22369   5.918   5.582   0.331
 7157SOL    HW122370   5.925   5.681   0.347
 7157SOL    HW222371   5.830   5.549   0.365
 7158SOL     OW22372   0.156   6.703   3.464
 7158SOL    HW122373   0.249   6.729   3.488
 7158SOL    HW222374   0.116   6.772   3.404
 7159SOL     OW22375   0.416   5.164   0.789
 7159SOL    HW122376   0.358   5.202   0.861
 7159SOL    HW222377   0.461   5.081   0.822
 7160SOL     OW22378   6.231   0.081   2.174
 7160SOL    HW122379   6.221   0.035   2.086
 7160SOL    HW222380   6.280   0.167   2.162
 7161SOL     OW22381   3.597   2.958   4.127
 7161SOL    HW122382   3.529   2.935   4.057
 7161SOL    HW222383   3.677   2.998   4.083
 7162SOL     OW22384   3.523   4.988   3.970
 7162SOL    HW122385   3.518   4.900   4.018
 7162SOL    HW222386   3.592   4.981   3.898
 7163SOL     OW22387   3.428   0.248   3.644
 7163SOL    HW122388   3.333   0.250   3.677
 7163SOL    HW222389   3.432   0.201   3.556
 7164SOL     OW22390   2.096   1.135   3.402
 7164SOL    HW122391   2.067   1.162   3.494
 7164SOL    HW222392   2.193   1.154   3.390
 7165SOL     OW22393   5.702   1.392   1.022
 7165SOL    HW122394   5.786   1.408   0.970
 7165SOL    HW222395   5.623   1.410   0.963
 7166SOL     OW22396   4.728   4.589   0.892
 7166SOL    HW122397   4.781   4.556   0.970
 7166SOL    HW222398   4.725   4.689   0.894
 7167SOL     OW22399   4.711   3.729   5.424
 7167SOL    HW122400   4.692   3.658   5.356
 7167SOL    HW222401   4.784   3.698   5.486
 7168SOL     OW22402   1.089   1.241   4.316
 7168SOL    HW122403   1.051   1.331   4.336
 7168SOL    HW222404   1.072   1.218   4.220
 7169SOL     OW22405   1.506   3.412   6.189
 7169SOL    HW122406   1.471   3.463   6.110
 7169SOL    HW222407   1.490   3.314   6.175
 7170SOL     OW22408   5.333   4.716   3.434
 7170SOL    HW122409   5.248   4.751   3.395
 7170SOL    HW222410   5.399   4.790   3.442
 7171SOL     OW22411   4.288   3.021   5.563
 7171SOL    HW122412   4.221   2.967   5.512
 7171SOL    HW222413   4.263   3.021   5.660
 7172SOL     OW22414   1.669   6.611   0.952
 7172SOL    HW122415   1.763   6.642   0.939
 7172SOL    HW222416   1.664   6.553   1.034
 7173SOL     OW22417   0.183   5.779   4.077
 7173SOL    HW122418   0.173   5.845   4.002
 7173SOL    HW222419   0.194   5.828   4.163
 7174SOL     OW22420   1.911   4.959   0.503
 7174SOL    HW122421   1.872   4.893   0.568
 7174SOL    HW222422   1.909   5.051   0.543
 7175SOL     OW22423   5.015   4.087   0.394
 7175SOL    HW122424   4.934   4.126   0.350
 7175SOL    HW222425   5.003   3.988   0.405
 7176SOL     OW22426   6.639   4.617   1.945
 7176SOL    HW122427   6.725   4.639   1.991
 7176SOL    HW222428   6.594   4.541   1.991
 7177SOL     OW22429   0.767   6.011   3.423
 7177SOL    HW122430   0.786   5.913   3.418
 7177SOL    HW222431   0.763   6.038   3.519
 7178SOL     OW22432   1.316   2.548   4.839
 7178SOL    HW122433   1.307   2.645   4.862
 7178SOL    HW222434   1.234   2.517   4.791
 7179SOL     OW22435   2.843   3.703   5.413
 7179SOL    HW122436   2.809   3.787   5.370
 7179SOL    HW222437   2.888   3.646   5.344
 7180SOL     OW22438   0.722   5.942   0.786
 7180SOL    HW122439   0.631   5.910   0.809
 7180SOL    HW222440   0.719   6.041   0.768
 7181SOL     OW22441   4.554   0.825   1.534
 7181SOL    HW122442   4.597   0.914   1.548
 7181SOL    HW222443   4.546   0.777   1.621
 7182SOL     OW22444   2.290   4.716   5.455
 7182SOL    HW122445   2.325   4.684   5.367
 7182SOL    HW222446   2.278   4.638   5.517
 7183SOL     OW22447   1.930   5.215   3.030
 7183SOL    HW122448   2.004   5.264   3.074
 7183SOL    HW222449   1.885   5.155   3.096
 7184SOL     OW22450   1.313   6.751   4.225
 7184SOL    HW122451   1.267   6.686   4.165
 7184SOL    HW222452   1.264   6.838   4.224
 7185SOL     OW22453   4.706   3.162   6.701
 7185SOL    HW122454   4.795   3.120   6.678
 7185SOL    HW222455   4.646   3.092   6.738
 7186SOL     OW22456   6.594   5.902   5.445
 7186SOL    HW122457   6.656   5.852   5.385
 7186SOL    HW222458   6.642   5.982   5.483
 7187SOL     OW22459   1.494   3.996   1.689
 7187SOL    HW122460   1.569   3.974   1.751
 7187SOL    HW222461   1.415   4.025   1.742
 7188SOL     OW22462   4.760   0.349   1.732
 7188SOL    HW122463   4.856   0.336   1.705
 7188SOL    HW222464   4.737   0.446   1.725
 7189SOL     OW22465   6.870   1.210   5.662
 7189SOL    HW122466   6.913   1.300   5.664
 7189SOL    HW222467   6.828   1.192   5.751
 7190SOL     OW22468   5.425   3.808   2.898
 7190SOL    HW122469   5.341   3.765   2.932
 7190SOL    HW222470   5.498   3.740   2.897
 7191SOL     OW22471   1.340   3.723   2.544
 7191SOL    HW122472   1.326   3.822   2.534
 7191SOL    HW222473   1.297   3.693   2.629
 7192SOL     OW22474   1.929   4.757   6.300
 7192SOL    HW122475   2.016   4.804   6.289
 7192SOL    HW222476   1.927   4.677   6.240
 7193SOL     OW22477   3.556   1.705   4.815
 7193SOL    HW122478   3.471   1.656   4.834
 7193SOL    HW222479   3.541   1.803   4.826
 7194SOL     OW22480   2.599   1.696   1.410
 7194SOL    HW122481   2.690   1.712   1.447
 7194SOL    HW222482   2.533   1.686   1.485
 7195SOL     OW22483   0.116   5.539   0.514
 7195SOL    HW122484   0.184   5.606   0.545
 7195SOL    HW222485   0.050   5.523   0.587
 7196SOL     OW22486   3.060   3.340   3.278
 7196SOL    HW122487   3.159   3.350   3.269
 7196SOL    HW222488   3.029   3.263   3.223
 7197SOL     OW22489   6.858   1.828   4.647
 7197SOL    HW122490   6.822   1.869   4.731
 7197SOL    HW222491   6.956   1.844   4.641
 7198SOL     OW22492   1.644   6.739   6.052
 7198SOL    HW122493   1.588   6.756   5.971
 7198SOL    HW222494   1.616   6.654   6.095
 7199SOL     OW22495   0.157   0.849   2.808
 7199SOL    HW122496   0.225   0.861   2.881
 7199SOL    HW222497   0.185   0.776   2.747
 7200SOL     OW22498   2.338   0.840   0.826
 7200SOL    HW122499   2.265   0.813   0.763
 7200SOL    HW222500   2.331   0.785   0.910
 7201SOL     OW22501   1.587   4.504   3.770
 7201SOL    HW122502   1.529   4.478   3.693
 7201SOL    HW222503   1.633   4.591   3.750
 7202SOL     OW22504   4.404   0.128   6.141
 7202SOL    HW122505   4.309   0.139   6.110
 7202SOL    HW222506   4.462   0.110   6.061
 7203SOL     OW22507   5.797   0.423   0.393
 7203SOL    HW122508   5.859   0.405   0.316
 7203SOL    HW222509   5.747   0.508   0.376
 7204SOL     OW22510   6.025   1.010   3.690
 7204SOL    HW122511   6.100   0.975   3.634
 7204SOL    HW222512   6.062   1.070   3.761
 7205SOL     OW22513   1.780   5.326   3.321
 7205SOL    HW122514   1.774   5.425   3.311
 7205SOL    HW222515   1.836   5.304   3.402
 7206SOL     OW22516   6.714   1.477   0.836
 7206SOL    HW122517   6.729   1.431   0.748
 7206SOL    HW222518   6.735   1.574   0.827
 7207SOL     OW22519   3.210   6.517   1.337
 7207SOL    HW122520   3.230   6.511   1.239
 7207SOL    HW222521   3.130   6.576   1.351
 7208SOL     OW22522   3.191   0.379   5.155
 7208SOL    HW122523   3.235   0.348   5.071
 7208SOL    HW222524   3.160   0.299   5.208
 7209SOL     OW22525   3.965   3.537   3.694
 7209SOL    HW122526   4.037   3.470   3.675
 7209SOL    HW222527   3.891   3.494   3.746
 7210SOL     OW22528   4.497   1.145   4.029
 7210SOL    HW122529   4.517   1.243   4.029
 7210SOL    HW222530   4.410   1.130   3.981
 7211SOL     OW22531   1.225   5.796   3.916
 7211SOL    HW122532   1.317   5.834   3.925
 7211SOL    HW222533   1.157   5.867   3.934
 7212SOL     OW22534   6.216   5.435   4.629
 7212SOL    HW122535   6.226   5.474   4.538
 7212SOL    HW222536   6.126   5.393   4.638
 7213SOL     OW22537   5.570   0.492   5.544
 7213SOL    HW122538   5.588   0.408   5.494
 7213SOL    HW222539   5.633   0.564   5.511
 7214SOL     OW22540   2.574   5.602   4.818
 7214SOL    HW122541   2.612   5.515   4.851
 7214SOL    HW222542   2.546   5.591   4.722
 7215SOL     OW22543   0.723   3.812   4.109
 7215SOL    HW122544   0.657   3.877   4.147
 7215SOL    HW222545   0.811   3.824   4.154
 7216SOL     OW22546   2.422   0.098   0.255
 7216SOL    HW122547   2.445   0.095   0.158
 7216SOL    HW222548   2.327   0.126   0.267
 7217SOL     OW22549   1.206   3.708   2.271
 7217SOL    HW122550   1.111   3.737   2.284
 7217SOL    HW222551   1.260   3.733   2.352
 7218SOL     OW22552   4.599   2.106   5.713
 7218SOL    HW122553   4.651   2.035   5.666
 7218SOL    HW222554   4.631   2.196   5.683
 7219SOL     OW22555   4.235   6.453   3.401
 7219SOL    HW122556   4.170   6.442   3.477
 7219SOL    HW222557   4.328   6.455   3.437
 7220SOL     OW22558   6.322   1.351   2.544
 7220SOL    HW122559   6.376   1.399   2.613
 7220SOL    HW222560   6.379   1.331   2.464
 7221SOL     OW22561   5.496   3.902   5.761
 7221SOL    HW122562   5.427   3.858   5.703
 7221SOL    HW222563   5.459   3.987   5.798
 7222SOL     OW22564   6.488   6.497   1.314
 7222SOL    HW122565   6.572   6.508   1.368
 7222SOL    HW222566   6.511   6.465   1.222
 7223SOL     OW22567   3.242   1.342   6.257
 7223SOL    HW122568   3.147   1.356   6.285
 7223SOL    HW222569   3.288   1.431   6.252
 7224SOL     OW22570   5.581   0.458   4.682
 7224SOL    HW122571   5.653   0.503   4.735
 7224SOL    HW222572   5.588   0.487   4.586
 7225SOL     OW22573   1.954   5.866   0.246
 7225SOL    HW122574   1.998   5.842   0.160
 7225SOL    HW222575   1.857   5.840   0.242
 7226SOL     OW22576   0.588   0.122   0.358
 7226SOL    HW122577   0.498   0.160   0.336
 7226SOL    HW222578   0.625   0.168   0.438
 7227SOL     OW22579   0.494   2.807   6.582
 7227SOL    HW122580   0.459   2.832   6.492
 7227SOL    HW222581   0.562   2.874   6.612
 7228SOL     OW22582   6.809   0.061   2.169
 7228SOL    HW122583   6.759   0.131   2.118
 7228SOL    HW222584   6.799   6.994   2.122
 7229SOL     OW22585   1.711   6.941   4.479
 7229SOL    HW122586   1.736   0.008   4.438
 7229SOL    HW222587   1.674   6.881   4.408
 7230SOL     OW22588   4.638   5.219   3.341
 7230SOL    HW122589   4.583   5.269   3.408
 7230SOL    HW222590   4.725   5.266   3.328
 7231SOL     OW22591   5.907   1.566   5.988
 7231SOL    HW122592   5.842   1.584   6.061
 7231SOL    HW222593   6.001   1.575   6.023
 7232SOL     OW22594   4.021   4.858   2.411
 7232SOL    HW122595   4.008   4.926   2.484
 7232SOL    HW222596   4.086   4.788   2.442
 7233SOL     OW22597   0.320   2.869   5.635
 7233SOL    HW122598   0.268   2.785   5.655
 7233SOL    HW222599   0.413   2.859   5.669
 7234SOL     OW22600   6.332   2.088   1.835
 7234SOL    HW122601   6.258   2.022   1.822
 7234SOL    HW222602   6.412   2.040   1.871
 7235SOL     OW22603   5.251   3.837   5.113
 7235SOL    HW122604   5.314   3.877   5.046
 7235SOL    HW222605   5.188   3.775   5.066
 7236SOL     OW22606   3.790   0.840   3.307
 7236SOL    HW122607   3.858   0.872   3.241
 7236SOL    HW222608   3.774   0.742   3.293
 7237SOL     OW22609   5.968   5.868   5.858
 7237SOL    HW122610   5.897   5.894   5.792
 7237SOL    HW222611   6.030   5.802   5.816
 7238SOL     OW22612   2.791   1.834   2.448
 7238SOL    HW122613   2.719   1.904   2.454
 7238SOL    HW222614   2.880   1.878   2.444
 7239SOL     OW22615   2.968   1.784   2.170
 7239SOL    HW122616   2.901   1.817   2.103
 7239SOL    HW222617   2.937   1.697   2.208
 7240SOL     OW22618   2.524   4.353   0.120
 7240SOL    HW122619   2.493   4.261   0.096
 7240SOL    HW222620   2.567   4.352   0.210
 7241SOL     OW22621   3.403   0.036   5.559
 7241SOL    HW122622   3.327   0.003   5.616
 7241SOL    HW222623   3.411   0.135   5.568
 7242SOL     OW22624   6.291   4.297   6.320
 7242SOL    HW122625   6.193   4.317   6.327
 7242SOL    HW222626   6.330   4.291   6.412
 7243SOL     OW22627   0.728   5.688   0.060
 7243SOL    HW122628   0.795   5.760   0.077
 7243SOL    HW222629   0.674   5.712   7.000
 7244SOL     OW22630   5.464   2.365   1.128
 7244SOL    HW122631   5.410   2.423   1.188
 7244SOL    HW222632   5.428   2.272   1.129
 7245SOL     OW22633   0.031   1.860   4.403
 7245SOL    HW122634   6.962   1.823   4.425
 7245SOL    HW222635   0.087   1.862   4.486
 7246SOL     OW22636   6.611   6.846   5.079
 7246SOL    HW122637   6.619   6.927   5.138
 7246SOL    HW222638   6.633   6.765   5.133
 7247SOL     OW22639   2.644   6.036   1.973
 7247SOL    HW122640   2.643   5.937   1.986
 7247SOL    HW222641   2.738   6.068   1.964
 7248SOL     OW22642   4.067   1.424   4.404
 7248SOL    HW122643   3.971   1.420   4.378
 7248SOL    HW222644   4.121   1.462   4.329
 7249SOL     OW22645   6.082   4.924   6.948
 7249SOL    HW122646   6.009   4.955   6.887
 7249SOL    HW222647   6.136   5.003   6.978
 7250SOL     OW22648   2.826   4.356   6.084
 7250SOL    HW122649   2.897   4.404   6.032
 7250SOL    HW222650   2.761   4.314   6.021
 7251SOL     OW22651   6.763   6.929   4.611
 7251SOL    HW122652   6.843   6.985   4.631
 7251SOL    HW222653   6.766   6.845   4.666
 7252SOL     OW22654   3.258   2.968   4.675
 7252SOL    HW122655   3.174   2.947   4.724
 7252SOL    HW222656   3.327   2.899   4.696
 7253SOL     OW22657   3.617   6.081   0.968
 7253SOL    HW122658   3.611   6.011   0.896
 7253SOL    HW222659   3.711   6.114   0.974
 7254SOL     OW22660   4.308   6.081   4.241
 7254SOL    HW122661   4.334   6.052   4.333
 7254SOL    HW222662   4.287   6.179   4.242
 7255SOL     OW22663   3.300   3.507   2.307
 7255SOL    HW122664   3.237   3.480   2.234
 7255SOL    HW222665   3.247   3.544   2.384
 7256SOL     OW22666   4.257   4.709   3.724
 7256SOL    HW122667   4.356   4.709   3.738
 7256SOL    HW222668   4.234   4.654   3.643
 7257SOL     OW22669   6.370   2.691   3.211
 7257SOL    HW122670   6.310   2.618   3.178
 7257SOL    HW222671   6.371   2.691   3.311
 7258SOL     OW22672   3.446   0.843   4.905
 7258SOL    HW122673   3.499   0.898   4.840
 7258SOL    HW222674   3.455   0.747   4.881
 7259SOL     OW22675   2.292   4.510   0.056
 7259SOL    HW122676   2.293   4.580   0.128
 7259SOL    HW222677   2.364   4.442   0.074
 7260SOL     OW22678   3.374   2.135   3.006
 7260SOL    HW122679   3.345   2.156   2.913
 7260SOL    HW222680   3.297   2.149   3.069
 7261SOL     OW22681   1.974   3.479   1.912
 7261SOL    HW122682   2.004   3.480   1.816
 7261SOL    HW222683   2.054   3.486   1.971
 7262SOL     OW22684   5.932   1.739   4.776
 7262SOL    HW122685   5.874   1.815   4.745
 7262SOL    HW222686   5.898   1.654   4.736
 7263SOL     OW22687   1.782   6.263   1.737
 7263SOL    HW122688   1.837   6.342   1.765
 7263SOL    HW222689   1.836   6.179   1.748
 7264SOL     OW22690   0.363   0.312   5.818
 7264SOL    HW122691   0.350   0.390   5.755
 7264SOL    HW222692   0.460   0.306   5.842
 7265SOL     OW22693   4.155   4.571   5.758
 7265SOL    HW122694   4.210   4.654   5.769
 7265SOL    HW222695   4.215   4.492   5.752
 7266SOL     OW22696   4.834   0.476   1.320
 7266SOL    HW122697   4.790   0.560   1.353
 7266SOL    HW222698   4.779   0.397   1.348
 7267SOL     OW22699   0.056   4.077   4.194
 7267SOL    HW122700   6.982   4.106   4.188
 7267SOL    HW222701   0.111   4.129   4.129
 7268SOL     OW22702   3.966   6.916   1.657
 7268SOL    HW122703   3.983   6.929   1.755
 7268SOL    HW222704   4.045   6.873   1.614
 7269SOL     OW22705   1.248   5.572   2.001
 7269SOL    HW122706   1.345   5.580   1.977
 7269SOL    HW222707   1.209   5.492   1.955
 7270SOL     OW22708   2.792   0.846   2.629
 7270SOL    HW122709   2.799   0.826   2.531
 7270SOL    HW222710   2.876   0.816   2.675
 7271SOL     OW22711   0.278   3.200   3.239
 7271SOL    HW122712   0.242   3.148   3.316
 7271SOL    HW222713   0.238   3.292   3.239
 7272SOL     OW22714   5.687   2.075   2.255
 7272SOL    HW122715   5.760   2.139   2.280
 7272SOL    HW222716   5.716   1.982   2.272
 7273SOL     OW22717   5.525   4.780   0.220
 7273SOL    HW122718   5.593   4.847   0.191
 7273SOL    HW222719   5.568   4.713   0.280
 7274SOL     OW22720   6.418   4.886   5.353
 7274SOL    HW122721   6.461   4.924   5.271
 7274SOL    HW222722   6.479   4.817   5.393
 7275SOL     OW22723   0.186   0.076   0.555
 7275SOL    HW122724   0.252   0.147   0.579
 7275SOL    HW222725   0.193   0.001   0.619
 7276SOL     OW22726   2.157   2.784   3.828
 7276SOL    HW122727   2.229   2.716   3.843
 7276SOL    HW222728   2.177   2.866   3.882
 7277SOL     OW22729   4.586   2.023   4.691
 7277SOL    HW122730   4.686   2.030   4.689
 7277SOL    HW222731   4.548   2.064   4.608
 7278SOL     OW22732   3.239   1.288   2.686
 7278SOL    HW122733   3.286   1.354   2.744
 7278SOL    HW222734   3.307   1.239   2.630
 7279SOL     OW22735   5.294   5.032   1.010
 7279SOL    HW122736   5.278   4.999   0.917
 7279SOL    HW222737   5.287   4.956   1.074
 7280SOL     OW22738   6.159   2.973   5.121
 7280SOL    HW122739   6.209   2.931   5.045
 7280SOL    HW222740   6.061   2.960   5.108
 7281SOL     OW22741   3.935   6.438   2.331
 7281SOL    HW122742   4.009   6.422   2.267
 7281SOL    HW222743   3.961   6.511   2.394
 7282SOL     OW22744   6.695   4.886   2.072
 7282SOL    HW122745   6.731   4.951   2.005
 7282SOL    HW222746   6.756   4.807   2.077
 7283SOL     OW22747   3.955   4.868   2.775
 7283SOL    HW122748   3.957   4.954   2.723
 7283SOL    HW222749   3.898   4.881   2.857
 7284SOL     OW22750   6.553   1.953   3.433
 7284SOL    HW122751   6.463   1.943   3.391
 7284SOL    HW222752   6.557   2.039   3.484
 7285SOL     OW22753   4.954   2.901   1.959
 7285SOL    HW122754   4.894   2.843   1.904
 7285SOL    HW222755   4.901   2.978   1.995
 7286SOL     OW22756   0.443   1.434   1.708
 7286SOL    HW122757   0.493   1.424   1.794
 7286SOL    HW222758   0.507   1.440   1.632
 7287SOL     OW22759   1.449   2.810   3.931
 7287SOL    HW122760   1.545   2.799   3.956
 7287SOL    HW222761   1.442   2.849   3.839
 7288SOL     OW22762   2.869   2.268   3.036
 7288SOL    HW122763   2.962   2.300   3.057
 7288SOL    HW222764   2.809   2.286   3.114
 7289SOL     OW22765   6.210   2.545   0.897
 7289SOL    HW122766   6.249   2.637   0.905
 7289SOL    HW222767   6.186   2.511   0.988
 7290SOL     OW22768   3.182   1.914   5.350
 7290SOL    HW122769   3.158   2.011   5.354
 7290SOL    HW222770   3.246   1.892   5.422
 7291SOL     OW22771   4.566   1.363   0.586
 7291SOL    HW122772   4.469   1.379   0.572
 7291SOL    HW222773   4.605   1.438   0.640
 7292SOL     OW22774   2.623   0.528   2.195
 7292SOL    HW122775   2.590   0.620   2.177
 7292SOL    HW222776   2.707   0.533   2.250
 7293SOL     OW22777   0.824   0.544   5.353
 7293SOL    HW122778   0.823   0.492   5.267
 7293SOL    HW222779   0.897   0.511   5.412
 7294SOL     OW22780   2.204   6.002   1.844
 7294SOL    HW122781   2.176   6.031   1.935
 7294SOL    HW222782   2.137   6.035   1.777
 7295SOL     OW22783   5.758   5.172   2.424
 7295SOL    HW122784   5.722   5.080   2.441
 7295SOL    HW222785   5.792   5.178   2.330
 7296SOL     OW22786   5.061   4.545   1.989
 7296SOL    HW122787   5.026   4.536   2.082
 7296SOL    HW222788   4.987   4.573   1.928
 7297SOL     OW22789   4.037   6.347   1.423
 7297SOL    HW122790   4.135   6.362   1.435
 7297SOL    HW222791   3.993   6.434   1.399
 7298SOL     OW22792   4.730   5.377   6.792
 7298SOL    HW122793   4.773   5.426   6.867
 7298SOL    HW222794   4.686   5.441   6.730
 7299SOL     OW22795   1.697   2.957   6.963
 7299SOL    HW122796   1.616   2.999   7.003
 7299SOL    HW222797   1.695   2.967   6.864
 7300SOL     OW22798   0.533   5.412   2.133
 7300SOL    HW122799   0.452   5.372   2.088
 7300SOL    HW222800   0.592   5.453   2.064
 7301SOL     OW22801   5.257   0.098   5.653
 7301SOL    HW122802   5.349   0.069   5.627
 7301SOL    HW222803   5.254   0.112   5.752
 7302SOL     OW22804   5.144   1.096   6.431
 7302SOL    HW122805   5.088   1.178   6.446
 7302SOL    HW222806   5.240   1.123   6.423
 7303SOL     OW22807   2.621   1.302   1.493
 7303SOL    HW122808   2.671   1.388   1.502
 7303SOL    HW222809   2.530   1.311   1.533
 7304SOL     OW22810   2.447   5.951   1.576
 7304SOL    HW122811   2.360   5.947   1.624
 7304SOL    HW222812   2.495   5.864   1.586
 7305SOL     OW22813   6.374   1.859   0.950
 7305SOL    HW122814   6.384   1.840   0.852
 7305SOL    HW222815   6.455   1.824   0.999
 7306SOL     OW22816   2.339   2.172   1.625
 7306SOL    HW122817   2.320   2.267   1.602
 7306SOL    HW222818   2.410   2.137   1.564
 7307SOL     OW22819   2.219   0.247   1.867
 7307SOL    HW122820   2.185   0.221   1.958
 7307SOL    HW222821   2.166   0.325   1.833
 7308SOL     OW22822   4.935   1.192   3.174
 7308SOL    HW122823   4.995   1.123   3.134
 7308SOL    HW222824   4.892   1.156   3.256
 7309SOL     OW22825   1.795   5.593   3.287
 7309SOL    HW122826   1.759   5.659   3.221
 7309SOL    HW222827   1.886   5.563   3.259
 7310SOL     OW22828   2.235   2.549   6.582
 7310SOL    HW122829   2.281   2.592   6.660
 7310SOL    HW222830   2.153   2.501   6.614
 7311SOL     OW22831   0.269   6.711   6.520
 7311SOL    HW122832   0.267   6.653   6.439
 7311SOL    HW222833   0.189   6.769   6.522
 7312SOL     OW22834   6.757   2.192   4.104
 7312SOL    HW122835   6.682   2.129   4.121
 7312SOL    HW222836   6.843   2.149   4.129
 7313SOL     OW22837   3.239   1.055   1.818
 7313SOL    HW122838   3.336   1.030   1.813
 7313SOL    HW222839   3.195   1.034   1.730
 7314SOL     OW22840   0.079   3.783   6.830
 7314SOL    HW122841   0.122   3.873   6.835
 7314SOL    HW222842   0.138   3.715   6.874
 7315SOL     OW22843   1.254   4.552   2.516
 7315SOL    HW122844   1.200   4.502   2.448
 7315SOL    HW222845   1.325   4.606   2.470
 7316SOL     OW22846   3.219   2.157   0.818
 7316SOL    HW122847   3.145   2.130   0.755
 7316SOL    HW222848   3.226   2.089   0.891
 7317SOL     OW22849   3.641   1.323   1.247
 7317SOL    HW122850   3.637   1.271   1.332
 7317SOL    HW222851   3.691   1.408   1.262
 7318SOL     OW22852   4.110   6.679   0.249
 7318SOL    HW122853   4.023   6.657   0.205
 7318SOL    HW222854   4.183   6.679   0.180
 7319SOL     OW22855   6.183   4.545   6.709
 7319SOL    HW122856   6.160   4.636   6.673
 7319SOL    HW222857   6.281   4.529   6.699
 7320SOL     OW22858   6.826   3.140   1.933
 7320SOL    HW122859   6.872   3.056   1.905
 7320SOL    HW222860   6.892   3.204   1.972
 7321SOL     OW22861   1.753   6.997   6.992
 7321SOL    HW122862   1.681   6.995   6.923
 7321SOL    HW222863   1.715   0.007   0.058
 7322SOL     OW22864   0.709   2.782   2.880
 7322SOL    HW122865   0.728   2.873   2.917
 7322SOL    HW222866   0.617   2.781   2.840
 7323SOL     OW22867   1.386   2.310   1.467
 7323SOL    HW122868   1.409   2.407   1.474
 7323SOL    HW222869   1.289   2.297   1.488
 7324SOL     OW22870   5.148   4.927   3.405
 7324SOL    HW122871   5.212   4.961   3.474
 7324SOL    HW222872   5.064   4.980   3.409
 7325SOL     OW22873   4.776   0.776   5.701
 7325SOL    HW122874   4.834   0.695   5.709
 7325SOL    HW222875   4.692   0.762   5.754
 7326SOL     OW22876   3.338   0.394   0.049
 7326SOL    HW122877   3.315   0.298   0.062
 7326SOL    HW222878   3.403   0.404   6.995
 7327SOL     OW22879   0.176   3.444   3.381
 7327SOL    HW122880   0.138   3.367   3.432
 7327SOL    HW222881   0.250   3.486   3.435
 7328SOL     OW22882   4.266   4.775   4.878
 7328SOL    HW122883   4.299   4.700   4.935
 7328SOL    HW222884   4.344   4.824   4.838
 7329SOL     OW22885   2.986   2.882   1.047
 7329SOL    HW122886   3.080   2.874   1.079
 7329SOL    HW222887   2.973   2.971   1.003
 7330SOL     OW22888   2.951   3.284   1.625
 7330SOL    HW122889   2.894   3.282   1.707
 7330SOL    HW222890   2.901   3.243   1.548
 7331SOL     OW22891   4.882   0.728   2.843
 7331SOL    HW122892   4.820   0.798   2.878
 7331SOL    HW222893   4.832   0.643   2.829
 7332SOL     OW22894   3.177   4.935   6.269
 7332SOL    HW122895   3.121   5.004   6.224
 7332SOL    HW222896   3.122   4.854   6.288
 7333SOL     OW22897   6.670   2.093   0.933
 7333SOL    HW122898   6.598   2.118   0.998
 7333SOL    HW222899   6.735   2.032   0.978
 7334SOL     OW22900   2.900   0.211   4.837
 7334SOL    HW122901   2.933   0.132   4.785
 7334SOL    HW222902   2.848   0.271   4.777
 7335SOL     OW22903   6.726   3.050   2.351
 7335SOL    HW122904   6.742   2.955   2.325
 7335SOL    HW222905   6.634   3.077   2.322
 7336SOL     OW22906   1.622   6.970   1.860
 7336SOL    HW122907   1.632   0.037   1.813
 7336SOL    HW222908   1.526   6.955   1.883
 7337SOL     OW22909   2.009   2.254   3.229
 7337SOL    HW122910   2.099   2.275   3.189
 7337SOL    HW222911   1.986   2.324   3.296
 7338SOL     OW22912   5.508   3.078   1.303
 7338SOL    HW122913   5.597   3.070   1.258
 7338SOL    HW222914   5.513   3.149   1.373
 7339SOL     OW22915   6.178   4.986   4.268
 7339SOL    HW122916   6.242   5.027   4.203
 7339SOL    HW222917   6.225   4.968   4.354
 7340SOL     OW22918   2.933   0.236   0.359
 7340SOL    HW122919   2.904   0.297   0.433
 7340SOL    HW222920   2.902   0.143   0.378
 7341SOL     OW22921   5.944   4.797   3.981
 7341SOL    HW122922   5.981   4.881   4.019
 7341SOL    HW222923   5.884   4.753   4.048
 7342SOL     OW22924   0.071   6.748   0.203
 7342SOL    HW122925   0.009   6.763   0.126
 7342SOL    HW222926   0.152   6.806   0.192
 7343SOL     OW22927   6.039   3.458   2.248
 7343SOL    HW122928   5.993   3.434   2.162
 7343SOL    HW222929   5.997   3.408   2.323
 7344SOL     OW22930   1.537   6.296   0.061
 7344SOL    HW122931   1.486   6.375   0.028
 7344SOL    HW222932   1.533   6.293   0.161
 7345SOL     OW22933   3.813   5.583   6.712
 7345SOL    HW122934   3.722   5.618   6.733
 7345SOL    HW222935   3.806   5.505   6.650
 7346SOL     OW22936   3.990   4.745   1.901
 7346SOL    HW122937   4.043   4.673   1.856
 7346SOL    HW222938   4.026   4.761   1.993
 7347SOL     OW22939   6.331   1.723   2.502
 7347SOL    HW122940   6.389   1.709   2.582
 7347SOL    HW222941   6.276   1.641   2.485
 7348SOL     OW22942   1.558   1.667   3.285
 7348SOL    HW122943   1.502   1.715   3.218
 7348SOL    HW222944   1.594   1.732   3.352
 7349SOL     OW22945   3.398   1.548   1.119
 7349SOL    HW122946   3.375   1.455   1.149
 7349SOL    HW222947   3.391   1.611   1.197
 7350SOL     OW22948   2.051   2.051   3.401
 7350SOL    HW122949   2.004   2.053   3.489
 7350SOL    HW222950   2.007   2.114   3.337
 7351SOL     OW22951   4.600   4.316   6.413
 7351SOL    HW122952   4.521   4.298   6.353
 7351SOL    HW222953   4.576   4.386   6.480
 7352SOL     OW22954   0.774   1.582   2.327
 7352SOL    HW122955   0.849   1.616   2.269
 7352SOL    HW222956   0.723   1.512   2.277
 7353SOL     OW22957   5.587   2.019   4.430
 7353SOL    HW122958   5.607   1.955   4.504
 7353SOL    HW222959   5.637   1.991   4.347
 7354SOL     OW22960   6.160   5.124   5.483
 7354SOL    HW122961   6.250   5.118   5.527
 7354SOL    HW222962   6.167   5.096   5.387
 7355SOL     OW22963   1.779   5.494   1.947
 7355SOL    HW122964   1.842   5.556   1.901
 7355SOL    HW222965   1.809   5.399   1.933
 7356SOL     OW22966   5.636   1.684   5.835
 7356SOL    HW122967   5.644   1.613   5.765
 7356SOL    HW222968   5.703   1.668   5.907
 7357SOL     OW22969   5.964   1.762   0.330
 7357SOL    HW122970   6.045   1.768   0.272
 7357SOL    HW222971   5.991   1.733   0.422
 7358SOL     OW22972   3.096   1.103   3.736
 7358SOL    HW122973   3.166   1.035   3.757
 7358SOL    HW222974   3.047   1.075   3.653
 7359SOL     OW22975   4.081   3.280   3.560
 7359SOL    HW122976   4.152   3.210   3.561
 7359SOL    HW222977   4.100   3.345   3.486
 7360SOL     OW22978   0.750   2.501   4.902
 7360SOL    HW122979   0.674   2.477   4.962
 7360SOL    HW222980   0.716   2.517   4.810
 7361SOL     OW22981   5.279   5.919   2.110
 7361SOL    HW122982   5.271   5.838   2.167
 7361SOL    HW222983   5.375   5.943   2.098
 7362SOL     OW22984   2.030   5.862   6.057
 7362SOL    HW122985   2.029   5.763   6.071
 7362SOL    HW222986   1.949   5.889   6.005
 7363SOL     OW22987   4.951   3.568   6.472
 7363SOL    HW122988   4.863   3.554   6.426
 7363SOL    HW222989   5.025   3.566   6.404
 7364SOL     OW22990   4.485   6.460   1.082
 7364SOL    HW122991   4.535   6.395   1.025
 7364SOL    HW222992   4.438   6.411   1.156
 7365SOL     OW22993   2.766   0.204   2.328
 7365SOL    HW122994   2.743   0.146   2.406
 7365SOL    HW222995   2.770   0.147   2.245
 7366SOL     OW22996   0.352   5.173   6.388
 7366SOL    HW122997   0.374   5.252   6.331
 7366SOL    HW222998   0.264   5.135   6.359
 7367SOL     OW22999   5.149   4.210   1.594
 7367SOL    HW123000   5.199   4.185   1.677
 7367SOL    HW223001   5.059   4.166   1.595
 7368SOL     OW23002   3.236   3.434   4.640
 7368SOL    HW123003   3.159   3.371   4.637
 7368SOL    HW223004   3.252   3.463   4.735
 7369SOL     OW23005   4.740   4.006   0.619
 7369SOL    HW123006   4.838   4.007   0.638
 7369SOL    HW223007   4.720   3.933   0.554
 7370SOL     OW23008   2.560   6.794   0.636
 7370SOL    HW123009   2.533   6.707   0.593
 7370SOL    HW223010   2.507   6.807   0.720
 7371SOL     OW23011   2.660   5.265   4.351
 7371SOL    HW123012   2.623   5.355   4.330
 7371SOL    HW223013   2.620   5.197   4.289
 7372SOL     OW23014   3.872   0.960   5.803
 7372SOL    HW123015   3.941   0.968   5.732
 7372SOL    HW223016   3.844   1.051   5.833
 7373SOL     OW23017   4.055   0.656   2.347
 7373SOL    HW123018   3.970   0.692   2.311
 7373SOL    HW223019   4.050   0.556   2.353
 7374SOL     OW23020   1.526   3.055   6.527
 7374SOL    HW123021   1.476   3.108   6.596
 7374SOL    HW223022   1.488   3.073   6.437
 7375SOL     OW23023   0.992   0.918   4.038
 7375SOL    HW123024   1.048   0.875   4.109
 7375SOL    HW223025   0.993   1.017   4.050
 7376SOL     OW23026   2.254   3.471   6.790
 7376SOL    HW123027   2.155   3.469   6.805
 7376SOL    HW223028   2.300   3.425   6.865
 7377SOL     OW23029   4.664   4.250   1.723
 7377SOL    HW123030   4.688   4.336   1.678
 7377SOL    HW223031   4.571   4.256   1.759
 7378SOL     OW23032   0.036   1.295   5.244
 7378SOL    HW123033   0.075   1.334   5.161
 7378SOL    HW223034   0.108   1.251   5.298
 7379SOL     OW23035   4.098   1.325   2.523
 7379SOL    HW123036   3.998   1.319   2.519
 7379SOL    HW223037   4.136   1.310   2.432
 7380SOL     OW23038   0.264   3.248   5.892
 7380SOL    HW123039   0.200   3.320   5.919
 7380SOL    HW223040   0.352   3.263   5.937
 7381SOL     OW23041   5.028   1.992   1.855
 7381SOL    HW123042   5.056   1.904   1.817
 7381SOL    HW223043   5.099   2.025   1.917
 7382SOL     OW23044   6.695   5.340   4.742
 7382SOL    HW123045   6.686   5.315   4.646
 7382SOL    HW223046   6.608   5.374   4.777
 7383SOL     OW23047   6.774   6.366   3.684
 7383SOL    HW123048   6.739   6.333   3.596
 7383SOL    HW223049   6.726   6.450   3.709
 7384SOL     OW23050   5.223   7.002   2.140
 7384SOL    HW123051   5.140   6.958   2.105
 7384SOL    HW223052   5.255   6.953   2.221
 7385SOL     OW23053   4.628   6.285   1.397
 7385SOL    HW123054   4.683   6.326   1.325
 7385SOL    HW223055   4.659   6.191   1.413
 7386SOL     OW23056   0.756   2.291   5.460
 7386SOL    HW123057   0.789   2.322   5.549
 7386SOL    HW223058   0.793   2.351   5.389
 7387SOL     OW23059   3.476   5.185   3.626
 7387SOL    HW123060   3.570   5.219   3.625
 7387SOL    HW223061   3.414   5.260   3.651
 7388SOL     OW23062   6.374   4.916   3.331
 7388SOL    HW123063   6.407   4.952   3.244
 7388SOL    HW223064   6.352   4.992   3.393
 7389SOL     OW23065   1.488   4.110   6.382
 7389SOL    HW123066   1.431   4.105   6.300
 7389SOL    HW223067   1.531   4.200   6.389
 7390SOL     OW23068   1.097   0.288   5.691
 7390SOL    HW123069   1.179   0.245   5.731
 7390SOL    HW223070   1.026   0.294   5.760
 7391SOL     OW23071   6.136   3.110   6.175
 7391SOL    HW123072   6.094   3.046   6.240
 7391SOL    HW223073   6.076   3.188   6.161
 7392SOL     OW23074   1.729   4.920   4.223
 7392SOL    HW123075   1.675   4.847   4.180
 7392SOL    HW223076   1.698   5.009   4.189
 7393SOL     OW23077   0.146   4.770   2.458
 7393SOL    HW123078   0.097   4.845   2.503
 7393SOL    HW223079   0.192   4.714   2.527
 7394SOL     OW23080   3.948   3.563   6.782
 7394SOL    HW123081   4.044   3.539   6.772
 7394SOL    HW223082   3.891   3.487   6.749
 7395SOL     OW23083   1.120   0.507   0.298
 7395SOL    HW123084   1.024   0.495   0.273
 7395SOL    HW223085   1.134   0.599   0.334
 7396SOL     OW23086   1.036   6.708   6.140
 7396SOL    HW123087   1.020   6.680   6.234
 7396SOL    HW223088   1.019   6.806   6.130
 7397SOL     OW23089   6.557   4.727   5.084
 7397SOL    HW123090   6.595   4.683   5.166
 7397SOL    HW223091   6.586   4.822   5.081
 7398SOL     OW23092   4.775   4.503   4.108
 7398SOL    HW123093   4.797   4.440   4.033
 7398SOL    HW223094   4.706   4.568   4.078
 7399SOL     OW23095   5.040   3.840   6.237
 7399SOL    HW123096   4.945   3.850   6.267
 7399SOL    HW223097   5.068   3.922   6.188
 7400SOL     OW23098   2.825   5.375   6.762
 7400SOL    HW123099   2.843   5.440   6.836
 7400SOL    HW223100   2.910   5.357   6.713
 7401SOL     OW23101   6.977   2.058   4.219
 7401SOL    HW123102   0.041   2.077   4.171
 7401SOL    HW223103   6.993   1.990   4.291
 7402SOL     OW23104   2.843   0.460   3.894
 7402SOL    HW123105   2.929   0.493   3.857
 7402SOL    HW223106   2.853   0.364   3.923
 7403SOL     OW23107   1.745   3.993   3.055
 7403SOL    HW123108   1.712   3.977   2.962
 7403SOL    HW223109   1.796   3.913   3.086
 7404SOL     OW23110   1.284   0.553   1.527
 7404SOL    HW123111   1.289   0.533   1.625
 7404SOL    HW223112   1.366   0.603   1.499
 7405SOL     OW23113   3.019   5.093   6.089
 7405SOL    HW123114   2.951   5.147   6.039
 7405SOL    HW223115   3.104   5.089   6.036
 7406SOL     OW23116   1.021   4.507   2.348
 7406SOL    HW123117   1.060   4.480   2.260
 7406SOL    HW223118   0.922   4.496   2.345
 7407SOL     OW23119   1.444   6.215   6.373
 7407SOL    HW123120   1.454   6.162   6.289
 7407SOL    HW223121   1.376   6.287   6.360
 7408SOL     OW23122   1.478   4.581   5.930
 7408SOL    HW123123   1.457   4.667   5.977
 7408SOL    HW223124   1.558   4.594   5.872
 7409SOL     OW23125   1.941   6.161   5.019
 7409SOL    HW123126   1.843   6.146   5.032
 7409SOL    HW223127   1.979   6.202   5.101
 7410SOL     OW23128   0.176   5.460   1.183
 7410SOL    HW123129   0.144   5.367   1.201
 7410SOL    HW223130   0.221   5.496   1.265
 7411SOL     OW23131   3.247   5.947   4.737
 7411SOL    HW123132   3.206   5.885   4.804
 7411SOL    HW223133   3.182   6.020   4.716
 7412SOL     OW23134   1.408   1.473   0.548
 7412SOL    HW123135   1.426   1.567   0.577
 7412SOL    HW223136   1.449   1.410   0.614
 7413SOL     OW23137   6.047   4.069   5.094
 7413SOL    HW123138   6.012   4.023   5.176
 7413SOL    HW223139   5.998   4.155   5.081
 7414SOL     OW23140   6.753   6.746   2.124
 7414SOL    HW123141   6.742   6.688   2.043
 7414SOL    HW223142   6.690   6.824   2.117
 7415SOL     OW23143   1.878   3.253   3.390
 7415SOL    HW123144   1.814   3.178   3.409
 7415SOL    HW223145   1.831   3.340   3.402
 7416SOL     OW23146   3.525   1.238   3.885
 7416SOL    HW123147   3.450   1.218   3.948
 7416SOL    HW223148   3.556   1.332   3.898
 7417SOL     OW23149   1.293   6.620   0.291
 7417SOL    HW123150   1.206   6.649   0.329
 7417SOL    HW223151   1.344   6.568   0.359
 7418SOL     OW23152   2.598   3.621   1.151
 7418SOL    HW123153   2.654   3.572   1.084
 7418SOL    HW223154   2.638   3.611   1.241
 7419SOL     OW23155   6.056   0.972   5.038
 7419SOL    HW123156   6.139   1.022   5.062
 7419SOL    HW223157   6.077   0.874   5.036
 7420SOL     OW23158   6.595   5.863   1.946
 7420SOL    HW123159   6.615   5.906   1.858
 7420SOL    HW223160   6.674   5.809   1.975
 7421SOL     OW23161   3.801   4.136   1.377
 7421SOL    HW123162   3.876   4.154   1.440
 7421SOL    HW223163   3.791   4.038   1.363
 7422SOL     OW23164   6.802   3.159   0.210
 7422SOL    HW123165   6.804   3.228   0.283
 7422SOL    HW223166   6.888   3.110   0.208
 7423SOL     OW23167   1.327   4.990   6.424
 7423SOL    HW123168   1.426   4.990   6.438
 7423SOL    HW223169   1.281   5.023   6.506
 7424SOL     OW23170   5.327   0.605   4.366
 7424SOL    HW123171   5.301   0.672   4.435
 7424SOL    HW223172   5.337   0.650   4.277
 7425SOL     OW23173   3.555   5.287   6.283
 7425SOL    HW123174   3.587   5.375   6.248
 7425SOL    HW223175   3.541   5.294   6.382
 7426SOL     OW23176   1.287   1.091   6.435
 7426SOL    HW123177   1.345   1.071   6.515
 7426SOL    HW223178   1.228   1.169   6.456
 7427SOL     OW23179   3.577   5.214   4.958
 7427SOL    HW123180   3.570   5.309   4.929
 7427SOL    HW223181   3.485   5.176   4.968
 7428SOL     OW23182   3.223   2.329   5.962
 7428SOL    HW123183   3.218   2.301   6.058
 7428SOL    HW223184   3.309   2.378   5.946
 7429SOL     OW23185   0.194   0.436   2.890
 7429SOL    HW123186   0.265   0.506   2.881
 7429SOL    HW223187   0.153   0.443   2.981
 7430SOL     OW23188   6.413   4.100   5.539
 7430SOL    HW123189   6.360   4.128   5.459
 7430SOL    HW223190   6.474   4.026   5.515
 7431SOL     OW23191   0.207   4.024   2.057
 7431SOL    HW123192   0.230   4.044   2.152
 7431SOL    HW223193   0.285   4.045   1.999
 7432SOL     OW23194   6.970   6.773   4.477
 7432SOL    HW123195   6.875   6.799   4.459
 7432SOL    HW223196   6.982   6.676   4.459
 7433SOL     OW23197   6.180   5.257   0.681
 7433SOL    HW123198   6.138   5.331   0.628
 7433SOL    HW223199   6.188   5.176   0.623
 7434SOL     OW23200   3.177   1.537   6.587
 7434SOL    HW123201   3.130   1.510   6.503
 7434SOL    HW223202   3.109   1.548   6.660
 7435SOL     OW23203   2.872   6.503   0.427
 7435SOL    HW123204   2.941   6.489   0.356
 7435SOL    HW223205   2.838   6.597   0.424
 7436SOL     OW23206   4.964   3.310   6.635
 7436SOL    HW123207   4.994   3.220   6.606
 7436SOL    HW223208   4.969   3.374   6.558
 7437SOL     OW23209   0.542   5.642   5.689
 7437SOL    HW123210   0.566   5.658   5.785
 7437SOL    HW223211   0.442   5.631   5.682
 7438SOL     OW23212   6.763   4.766   1.753
 7438SOL    HW123213   6.818   4.698   1.704
 7438SOL    HW223214   6.702   4.720   1.817
 7439SOL     OW23215   1.849   6.770   3.702
 7439SOL    HW123216   1.888   6.812   3.620
 7439SOL    HW223217   1.900   6.687   3.724
 7440SOL     OW23218   1.382   2.551   4.109
 7440SOL    HW123219   1.362   2.627   4.046
 7440SOL    HW223220   1.480   2.551   4.130
 7441SOL     OW23221   5.673   1.434   3.986
 7441SOL    HW123222   5.604   1.368   4.017
 7441SOL    HW223223   5.748   1.385   3.941
 7442SOL     OW23224   1.119   0.943   6.299
 7442SOL    HW123225   1.110   0.986   6.210
 7442SOL    HW223226   1.194   0.985   6.350
 7443SOL     OW23227   0.518   0.800   6.250
 7443SOL    HW123228   0.530   0.834   6.344
 7443SOL    HW223229   0.594   0.740   6.226
 7444SOL     OW23230   0.509   3.158   6.465
 7444SOL    HW123231   0.431   3.208   6.427
 7444SOL    HW223232   0.482   3.115   6.551
 7445SOL     OW23233   5.208   1.536   1.892
 7445SOL    HW123234   5.133   1.489   1.939
 7445SOL    HW223235   5.261   1.469   1.840
 7446SOL     OW23236   6.721   3.811   1.298
 7446SOL    HW123237   6.769   3.772   1.377
 7446SOL    HW223238   6.622   3.810   1.315
 7447SOL     OW23239   1.071   4.155   6.500
 7447SOL    HW123240   1.001   4.163   6.571
 7447SOL    HW223241   1.148   4.214   6.523
 7448SOL     OW23242   6.363   0.050   6.210
 7448SOL    HW123243   6.364   0.129   6.148
 7448SOL    HW223244   6.425   0.068   6.286
 7449SOL     OW23245   5.479   2.109   2.086
 7449SOL    HW123246   5.556   2.092   2.148
 7449SOL    HW223247   5.404   2.148   2.138
 7450SOL     OW23248   4.695   2.172   2.511
 7450SOL    HW123249   4.714   2.260   2.468
 7450SOL    HW223250   4.702   2.181   2.610
 7451SOL     OW23251   2.057   0.848   4.831
 7451SOL    HW123252   1.976   0.894   4.793
 7451SOL    HW223253   2.027   0.780   4.898
 7452SOL     OW23254   1.982   6.796   4.614
 7452SOL    HW123255   1.923   6.840   4.546
 7452SOL    HW223256   1.949   6.703   4.631
 7453SOL     OW23257   5.602   6.221   4.574
 7453SOL    HW123258   5.560   6.179   4.655
 7453SOL    HW223259   5.576   6.317   4.569
 7454SOL     OW23260   0.782   3.229   1.473
 7454SOL    HW123261   0.723   3.167   1.421
 7454SOL    HW223262   0.754   3.324   1.456
 7455SOL     OW23263   4.769   2.890   0.221
 7455SOL    HW123264   4.807   2.945   0.147
 7455SOL    HW223265   4.685   2.846   0.191
 7456SOL     OW23266   1.630   3.463   4.559
 7456SOL    HW123267   1.623   3.539   4.494
 7456SOL    HW223268   1.558   3.471   4.628
 7457SOL     OW23269   6.198   0.588   5.521
 7457SOL    HW123270   6.120   0.633   5.563
 7457SOL    HW223271   6.270   0.574   5.590
 7458SOL     OW23272   3.190   0.920   0.361
 7458SOL    HW123273   3.200   0.994   0.294
 7458SOL    HW223274   3.242   0.841   0.331
 7459SOL     OW23275   4.739   0.417   5.054
 7459SOL    HW123276   4.676   0.343   5.031
 7459SOL    HW223277   4.739   0.431   5.153
 7460SOL     OW23278   0.518   4.338   0.363
 7460SOL    HW123279   0.456   4.349   0.440
 7460SOL    HW223280   0.485   4.264   0.304
 7461SOL     OW23281   5.417   1.180   5.159
 7461SOL    HW123282   5.403   1.244   5.084
 7461SOL    HW223283   5.419   1.086   5.124
 7462SOL     OW23284   2.557   1.985   2.442
 7462SOL    HW123285   2.539   1.892   2.409
 7462SOL    HW223286   2.472   2.036   2.446
 7463SOL     OW23287   4.182   3.603   2.124
 7463SOL    HW123288   4.151   3.655   2.204
 7463SOL    HW223289   4.281   3.605   2.120
 7464SOL     OW23290   5.234   6.054   0.754
 7464SOL    HW123291   5.324   6.040   0.714
 7464SOL    HW223292   5.191   6.133   0.711
 7465SOL     OW23293   3.235   0.172   2.154
 7465SOL    HW123294   3.184   0.244   2.107
 7465SOL    HW223295   3.313   0.144   2.098
 7466SOL     OW23296   0.244   0.307   0.010
 7466SOL    HW123297   0.181   0.332   0.083
 7466SOL    HW223298   0.277   0.390   6.986
 7467SOL     OW23299   0.202   1.573   1.151
 7467SOL    HW123300   0.114   1.552   1.193
 7467SOL    HW223301   0.196   1.658   1.100
 7468SOL     OW23302   5.210   1.340   2.893
 7468SOL    HW123303   5.257   1.359   2.807
 7468SOL    HW223304   5.276   1.341   2.968
 7469SOL     OW23305   1.348   1.119   0.624
 7469SOL    HW123306   1.382   1.025   0.634
 7469SOL    HW223307   1.249   1.116   0.609
 7470SOL     OW23308   0.159   2.034   2.117
 7470SOL    HW123309   0.190   2.072   2.030
 7470SOL    HW223310   0.077   2.082   2.147
 7471SOL     OW23311   6.279   6.403   5.692
 7471SOL    HW123312   6.260   6.478   5.755
 7471SOL    HW223313   6.331   6.438   5.614
 7472SOL     OW23314   3.855   0.277   4.108
 7472SOL    HW123315   3.786   0.205   4.098
 7472SOL    HW223316   3.946   0.236   4.101
 7473SOL     OW23317   6.458   3.950   4.608
 7473SOL    HW123318   6.416   3.994   4.528
 7473SOL    HW223319   6.430   3.854   4.612
 7474SOL     OW23320   3.621   0.924   3.519
 7474SOL    HW123321   3.606   1.017   3.553
 7474SOL    HW223322   3.639   0.927   3.420
 7475SOL     OW23323   3.800   0.570   1.087
 7475SOL    HW123324   3.726   0.622   1.130
 7475SOL    HW223325   3.866   0.634   1.047
 7476SOL     OW23326   4.003   6.130   4.035
 7476SOL    HW123327   4.067   6.064   4.075
 7476SOL    HW223328   3.949   6.172   4.108
 7477SOL     OW23329   4.287   1.064   3.832
 7477SOL    HW123330   4.253   1.158   3.838
 7477SOL    HW223331   4.213   1.000   3.854
 7478SOL     OW23332   2.177   4.251   0.175
 7478SOL    HW123333   2.150   4.346   0.159
 7478SOL    HW223334   2.115   4.190   0.126
 7479SOL     OW23335   4.754   0.565   0.210
 7479SOL    HW123336   4.660   0.545   0.183
 7479SOL    HW223337   4.816   0.536   0.138
 7480SOL     OW23338   6.416   6.246   1.383
 7480SOL    HW123339   6.464   6.212   1.464
 7480SOL    HW223340   6.450   6.337   1.360
 7481SOL     OW23341   5.845   4.836   0.440
 7481SOL    HW123342   5.891   4.769   0.381
 7481SOL    HW223343   5.763   4.795   0.480
 7482SOL     OW23344   4.740   0.954   2.585
 7482SOL    HW123345   4.795   0.963   2.668
 7482SOL    HW223346   4.645   0.937   2.610
 7483SOL     OW23347   3.801   1.436   4.342
 7483SOL    HW123348   3.726   1.413   4.280
 7483SOL    HW223349   3.764   1.468   4.429
 7484SOL     OW23350   1.848   6.230   2.578
 7484SOL    HW123351   1.879   6.288   2.503
 7484SOL    HW223352   1.925   6.179   2.616
 7485SOL     OW23353   3.129   5.620   5.970
 7485SOL    HW123354   3.167   5.547   5.913
 7485SOL    HW223355   3.031   5.626   5.955
 7486SOL     OW23356   3.104   6.030   5.369
 7486SOL    HW123357   3.077   5.942   5.329
 7486SOL    HW223358   3.194   6.021   5.412
 7487SOL     OW23359   3.092   6.244   3.519
 7487SOL    HW123360   3.015   6.228   3.581
 7487SOL    HW223361   3.088   6.337   3.484
 7488SOL     OW23362   3.372   0.046   6.125
 7488SOL    HW123363   3.462   0.018   6.091
 7488SOL    HW223364   3.303   0.030   6.054
 7489SOL     OW23365   4.782   2.585   4.246
 7489SOL    HW123366   4.831   2.670   4.228
 7489SOL    HW223367   4.790   2.561   4.342
 7490SOL     OW23368   6.081   1.267   1.107
 7490SOL    HW123369   6.042   1.176   1.121
 7490SOL    HW223370   6.054   1.302   1.018
 7491SOL     OW23371   6.655   5.577   6.314
 7491SOL    HW123372   6.612   5.510   6.374
 7491SOL    HW223373   6.717   5.634   6.367
 7492SOL     OW23374   1.980   2.730   5.228
 7492SOL    HW123375   1.961   2.677   5.311
 7492SOL    HW223376   2.035   2.675   5.165
 7493SOL     OW23377   5.615   3.523   6.652
 7493SOL    HW123378   5.623   3.552   6.748
 7493SOL    HW223379   5.690   3.563   6.599
 7494SOL     OW23380   5.580   0.124   1.955
 7494SOL    HW123381   5.538   0.035   1.975
 7494SOL    HW223382   5.618   0.163   2.038
 7495SOL     OW23383   2.424   1.850   0.542
 7495SOL    HW123384   2.523   1.838   0.534
 7495SOL    HW223385   2.382   1.837   0.452
 7496SOL     OW23386   0.966   4.993   6.448
 7496SOL    HW123387   0.936   4.901   6.425
 7496SOL    HW223388   1.027   4.990   6.527
 7497SOL     OW23389   1.660   4.605   2.585
 7497SOL    HW123390   1.700   4.644   2.667
 7497SOL    HW223391   1.732   4.568   2.526
 7498SOL     OW23392   2.862   1.446   4.823
 7498SOL    HW123393   2.835   1.350   4.815
 7498SOL    HW223394   2.782   1.504   4.805
 7499SOL     OW23395   5.741   6.679   4.658
 7499SOL    HW123396   5.724   6.766   4.613
 7499SOL    HW223397   5.822   6.686   4.716
 7500SOL     OW23398   4.429   5.838   1.838
 7500SOL    HW123399   4.403   5.802   1.749
 7500SOL    HW223400   4.460   5.763   1.897
 7501SOL     OW23401   0.922   3.990   3.609
 7501SOL    HW123402   0.862   3.961   3.683
 7501SOL    HW223403   0.969   4.074   3.635
 7502SOL     OW23404   2.619   0.698   5.021
 7502SOL    HW123405   2.600   0.601   5.033
 7502SOL    HW223406   2.683   0.711   4.946
 7503SOL     OW23407   3.172   0.950   6.930
 7503SOL    HW123408   3.109   0.878   6.958
 7503SOL    HW223409   3.126   1.039   6.933
 7504SOL     OW23410   4.227   6.819   3.348
 7504SOL    HW123411   4.195   6.902   3.303
 7504SOL    HW223412   4.148   6.769   3.384
 7505SOL     OW23413   1.837   1.286   4.947
 7505SOL    HW123414   1.895   1.368   4.944
 7505SOL    HW223415   1.830   1.253   5.040
 7506SOL     OW23416   3.492   0.569   2.546
 7506SOL    HW123417   3.419   0.501   2.560
 7506SOL    HW223418   3.580   0.523   2.545
 7507SOL     OW23419   1.015   6.186   5.520
 7507SOL    HW123420   1.052   6.202   5.611
 7507SOL    HW223421   0.925   6.228   5.512
 7508SOL     OW23422   5.812   6.870   2.884
 7508SOL    HW123423   5.763   6.806   2.943
 7508SOL    HW223424   5.758   6.887   2.802
 7509SOL     OW23425   4.830   3.410   6.193
 7509SOL    HW123426   4.780   3.325   6.174
 7509SOL    HW223427   4.783   3.462   6.264
 7510SOL     OW23428   3.649   4.040   5.125
 7510SOL    HW123429   3.666   3.946   5.156
 7510SOL    HW223430   3.614   4.037   5.031
 7511SOL     OW23431   1.535   0.185   2.056
 7511SOL    HW123432   1.518   0.105   2.113
 7511SOL    HW223433   1.627   0.220   2.075
 7512SOL     OW23434   2.717   3.253   1.736
 7512SOL    HW123435   2.660   3.335   1.734
 7512SOL    HW223436   2.669   3.178   1.692
 7513SOL     OW23437   1.675   1.781   6.279
 7513SOL    HW123438   1.696   1.688   6.310
 7513SOL    HW223439   1.760   1.831   6.264
 7514SOL     OW23440   2.884   5.915   2.237
 7514SOL    HW123441   2.977   5.894   2.208
 7514SOL    HW223442   2.863   6.010   2.216
 7515SOL     OW23443   6.878   0.147   2.777
 7515SOL    HW123444   6.815   0.080   2.817
 7515SOL    HW223445   6.887   0.225   2.838
 7516SOL     OW23446   0.302   1.150   3.842
 7516SOL    HW123447   0.302   1.229   3.903
 7516SOL    HW223448   0.257   1.073   3.887
 7517SOL     OW23449   0.385   3.420   0.615
 7517SOL    HW123450   0.361   3.493   0.551
 7517SOL    HW223451   0.477   3.437   0.652
 7518SOL     OW23452   4.542   5.469   3.877
 7518SOL    HW123453   4.525   5.370   3.869
 7518SOL    HW223454   4.474   5.510   3.937
 7519SOL     OW23455   1.431   6.140   4.590
 7519SOL    HW123456   1.410   6.216   4.651
 7519SOL    HW223457   1.446   6.057   4.643
 7520SOL     OW23458   1.042   6.704   3.783
 7520SOL    HW123459   1.068   6.704   3.687
 7520SOL    HW223460   0.990   6.622   3.804
 7521SOL     OW23461   4.638   4.248   4.943
 7521SOL    HW123462   4.709   4.191   4.901
 7521SOL    HW223463   4.551   4.232   4.897
 7522SOL     OW23464   2.202   1.153   0.414
 7522SOL    HW123465   2.249   1.066   0.394
 7522SOL    HW223466   2.222   1.181   0.508
 7523SOL     OW23467   5.915   0.205   5.856
 7523SOL    HW123468   5.931   0.236   5.762
 7523SOL    HW223469   5.995   0.224   5.912
 7524SOL     OW23470   0.411   1.846   5.771
 7524SOL    HW123471   0.373   1.938   5.787
 7524SOL    HW223472   0.360   1.779   5.825
 7525SOL     OW23473   1.746   0.772   0.007
 7525SOL    HW123474   1.833   0.723   0.015
 7525SOL    HW223475   1.698   0.769   0.095
 7526SOL     OW23476   3.670   2.877   4.375
 7526SOL    HW123477   3.667   2.778   4.386
 7526SOL    HW223478   3.635   2.902   4.285
 7527SOL     OW23479   5.328   4.046   2.602
 7527SOL    HW123480   5.358   4.141   2.612
 7527SOL    HW223481   5.282   4.017   2.685
 7528SOL     OW23482   4.662   2.868   6.744
 7528SOL    HW123483   4.736   2.833   6.801
 7528SOL    HW223484   4.645   2.805   6.669
 7529SOL     OW23485   4.236   1.260   4.805
 7529SOL    HW123486   4.194   1.245   4.716
 7529SOL    HW223487   4.218   1.181   4.864
 7530SOL     OW23488   0.194   4.068   2.437
 7530SOL    HW123489   0.286   4.051   2.474
 7530SOL    HW223490   0.170   4.164   2.451
 7531SOL     OW23491   4.342   1.857   3.731
 7531SOL    HW123492   4.435   1.877   3.702
 7531SOL    HW223493   4.327   1.758   3.728
 7532SOL     OW23494   5.566   5.736   1.944
 7532SOL    HW123495   5.515   5.658   1.907
 7532SOL    HW223496   5.549   5.816   1.886
 7533SOL     OW23497   3.242   1.194   4.586
 7533SOL    HW123498   3.284   1.281   4.559
 7533SOL    HW223499   3.216   1.144   4.504
 7534SOL     OW23500   3.911   5.965   5.403
 7534SOL    HW123501   3.863   6.004   5.325
 7534SOL    HW223502   3.960   6.037   5.452
 7535SOL     OW23503   2.740   2.285   5.850
 7535SOL    HW123504   2.761   2.250   5.941
 7535SOL    HW223505   2.805   2.248   5.784
 7536SOL     OW23506   4.548   5.604   4.362
 7536SOL    HW123507   4.626   5.618   4.423
 7536SOL    HW223508   4.469   5.654   4.398
 7537SOL     OW23509   1.910   5.160   5.161
 7537SOL    HW123510   1.915   5.109   5.247
 7537SOL    HW223511   1.814   5.173   5.135
 7538SOL     OW23512   3.286   2.914   2.969
 7538SOL    HW123513   3.370   2.963   2.948
 7538SOL    HW223514   3.308   2.828   3.015
 7539SOL     OW23515   1.962   2.988   5.205
 7539SOL    HW123516   1.970   2.889   5.200
 7539SOL    HW223517   2.053   3.029   5.207
 7540SOL     OW23518   2.913   1.595   6.712
 7540SOL    HW123519   2.902   1.664   6.640
 7540SOL    HW223520   2.939   1.641   6.797
 7541SOL     OW23521   6.073   2.141   5.013
 7541SOL    HW123522   6.074   2.082   5.094
 7541SOL    HW223523   6.158   2.130   4.962
 7542SOL     OW23524   1.068   6.881   5.834
 7542SOL    HW123525   1.126   6.806   5.801
 7542SOL    HW223526   1.106   6.917   5.919
 7543SOL     OW23527   4.039   3.457   0.415
 7543SOL    HW123528   4.105   3.411   0.474
 7543SOL    HW223529   3.987   3.388   0.364
 7544SOL     OW23530   1.469   2.370   2.945
 7544SOL    HW123531   1.539   2.309   2.907
 7544SOL    HW223532   1.402   2.316   2.996
 7545SOL     OW23533   4.856   6.643   3.385
 7545SOL    HW123534   4.802   6.601   3.312
 7545SOL    HW223535   4.909   6.572   3.431
 7546SOL     OW23536   5.246   0.308   0.150
 7546SOL    HW123537   5.229   0.406   0.137
 7546SOL    HW223538   5.178   0.255   0.098
 7547SOL     OW23539   3.503   0.370   0.429
 7547SOL    HW123540   3.539   0.433   0.359
 7547SOL    HW223541   3.459   0.423   0.502
 7548SOL     OW23542   2.509   2.046   1.437
 7548SOL    HW123543   2.562   2.131   1.446
 7548SOL    HW223544   2.550   1.989   1.366
 7549SOL     OW23545   5.177   1.877   2.572
 7549SOL    HW123546   5.098   1.935   2.591
 7549SOL    HW223547   5.210   1.895   2.479
 7550SOL     OW23548   2.071   6.366   2.814
 7550SOL    HW123549   2.023   6.446   2.849
 7550SOL    HW223550   2.007   6.289   2.806
 7551SOL     OW23551   4.565   3.222   6.480
 7551SOL    HW123552   4.506   3.301   6.494
 7551SOL    HW223553   4.623   3.209   6.561
 7552SOL     OW23554   2.480   5.442   4.179
 7552SOL    HW123555   2.402   5.502   4.160
 7552SOL    HW223556   2.548   5.453   4.106
 7553SOL     OW23557   3.817   5.384   6.131
 7553SOL    HW123558   3.840   5.289   6.113
 7553SOL    HW223559   3.902   5.438   6.139
 7554SOL     OW23560   5.324   1.339   0.535
 7554SOL    HW123561   5.381   1.257   0.526
 7554SOL    HW223562   5.232   1.313   0.562
 7555SOL     OW23563   0.175   6.090   4.738
 7555SOL    HW123564   0.247   6.038   4.694
 7555SOL    HW223565   0.100   6.105   4.674
 7556SOL     OW23566   0.537   2.979   4.601
 7556SOL    HW123567   0.517   3.039   4.678
 7556SOL    HW223568   0.634   2.953   4.603
 7557SOL     OW23569   5.457   4.141   6.224
 7557SOL    HW123570   5.555   4.156   6.233
 7557SOL    HW223571   5.417   4.213   6.167
 7558SOL     OW23572   2.186   3.305   3.247
 7558SOL    HW123573   2.281   3.281   3.225
 7558SOL    HW223574   2.175   3.314   3.346
 7559SOL     OW23575   0.492   4.623   0.935
 7559SOL    HW123576   0.583   4.589   0.911
 7559SOL    HW223577   0.476   4.607   1.033
 7560SOL     OW23578   5.537   6.752   0.945
 7560SOL    HW123579   5.482   6.771   0.863
 7560SOL    HW223580   5.622   6.707   0.919
 7561SOL     OW23581   6.818   3.416   0.327
 7561SOL    HW123582   6.887   3.457   0.387
 7561SOL    HW223583   6.727   3.450   0.353
 7562SOL     OW23584   5.186   6.372   5.475
 7562SOL    HW123585   5.186   6.388   5.574
 7562SOL    HW223586   5.221   6.453   5.428
 7563SOL     OW23587   3.081   0.714   1.766
 7563SOL    HW123588   3.170   0.695   1.726
 7563SOL    HW223589   3.093   0.749   1.859
 7564SOL     OW23590   5.013   0.382   3.083
 7564SOL    HW123591   5.064   0.464   3.055
 7564SOL    HW223592   5.038   0.357   3.176
 7565SOL     OW23593   4.690   5.138   6.893
 7565SOL    HW123594   4.668   5.227   6.854
 7565SOL    HW223595   4.746   5.150   6.975
 7566SOL     OW23596   0.628   5.924   4.455
 7566SOL    HW123597   0.634   5.906   4.357
 7566SOL    HW223598   0.633   5.838   4.505
 7567SOL     OW23599   2.742   4.664   5.958
 7567SOL    HW123600   2.663   4.725   5.952
 7567SOL    HW223601   2.736   4.610   6.042
 7568SOL     OW23602   5.255   5.797   3.155
 7568SOL    HW123603   5.340   5.763   3.195
 7568SOL    HW223604   5.272   5.885   3.111
 7569SOL     OW23605   4.352   5.649   6.984
 7569SOL    HW123606   4.280   5.591   0.001
 7569SOL    HW223607   4.341   5.654   6.885
 7570SOL     OW23608   5.717   5.329   4.031
 7570SOL    HW123609   5.752   5.330   3.938
 7570SOL    HW223610   5.762   5.257   4.084
 7571SOL     OW23611   5.946   3.858   1.079
 7571SOL    HW123612   5.951   3.769   1.033
 7571SOL    HW223613   5.852   3.874   1.109
 7572SOL     OW23614   3.901   1.222   4.186
 7572SOL    HW123615   3.828   1.158   4.166
 7572SOL    HW223616   3.872   1.283   4.260
 7573SOL     OW23617   6.985   6.200   4.597
 7573SOL    HW123618   6.919   6.144   4.547
 7573SOL    HW223619   6.988   6.292   4.558
 7574SOL     OW23620   5.479   0.252   3.200
 7574SOL    HW123621   5.468   0.166   3.250
 7574SOL    HW223622   5.414   0.319   3.235
 7575SOL     OW23623   4.410   1.300   5.518
 7575SOL    HW123624   4.311   1.308   5.529
 7575SOL    HW223625   4.445   1.382   5.472
 7576SOL     OW23626   6.169   3.910   6.820
 7576SOL    HW123627   6.235   3.983   6.800
 7576SOL    HW223628   6.185   3.876   6.913
 7577SOL     OW23629   6.577   1.182   5.039
 7577SOL    HW123630   6.606   1.149   4.949
 7577SOL    HW223631   6.562   1.105   5.100
 7578SOL     OW23632   2.000   5.957   4.849
 7578SOL    HW123633   2.096   5.968   4.822
 7578SOL    HW223634   1.974   6.031   4.912
 7579SOL     OW23635   3.937   1.764   2.590
 7579SOL    HW123636   3.957   1.795   2.497
 7579SOL    HW223637   3.953   1.839   2.654
 7580SOL     OW23638   1.586   4.366   2.900
 7580SOL    HW123639   1.531   4.294   2.942
 7580SOL    HW223640   1.547   4.389   2.811
 7581SOL     OW23641   5.245   1.704   0.915
 7581SOL    HW123642   5.214   1.624   0.863
 7581SOL    HW223643   5.244   1.785   0.855
 7582SOL     OW23644   3.420   1.728   1.314
 7582SOL    HW123645   3.348   1.796   1.330
 7582SOL    HW223646   3.508   1.775   1.305
 7583SOL     OW23647   5.952   3.342   1.677
 7583SOL    HW123648   5.868   3.288   1.682
 7583SOL    HW223649   5.970   3.366   1.582
 7584SOL     OW23650   2.824   6.762   1.117
 7584SOL    HW123651   2.868   6.709   1.190
 7584SOL    HW223652   2.811   6.856   1.149
 7585SOL     OW23653   1.514   4.691   6.484
 7585SOL    HW123654   1.529   4.722   6.390
 7585SOL    HW223655   1.593   4.637   6.514
 7586SOL     OW23656   2.666   0.200   2.857
 7586SOL    HW123657   2.619   0.288   2.866
 7586SOL    HW223658   2.601   0.131   2.823
 7587SOL     OW23659   0.838   1.770   6.819
 7587SOL    HW123660   0.754   1.718   6.835
 7587SOL    HW223661   0.849   1.786   6.721
 7588SOL     OW23662   0.304   4.892   2.766
 7588SOL    HW123663   0.366   4.885   2.845
 7588SOL    HW223664   0.320   4.815   2.705
 7589SOL     OW23665   6.277   5.890   0.563
 7589SOL    HW123666   6.301   5.960   0.496
 7589SOL    HW223667   6.187   5.910   0.602
 7590SOL     OW23668   2.911   1.909   5.599
 7590SOL    HW123669   2.939   1.827   5.549
 7590SOL    HW223670   2.861   1.883   5.681
 7591SOL     OW23671   0.062   5.140   6.935
 7591SOL    HW123672   0.054   5.233   6.897
 7591SOL    HW223673   6.993   5.098   6.941
 7592SOL     OW23674   6.603   5.295   6.863
 7592SOL    HW123675   6.680   5.265   6.919
 7592SOL    HW223676   6.636   5.354   6.789
 7593SOL     OW23677   4.809   2.092   6.919
 7593SOL    HW123678   4.763   2.096   7.008
 7593SOL    HW223679   4.858   2.178   6.904
 7594SOL     OW23680   0.996   6.180   3.753
 7594SOL    HW123681   1.001   6.261   3.811
 7594SOL    HW223682   1.086   6.137   3.749
 7595SOL     OW23683   6.794   3.380   6.275
 7595SOL    HW123684   6.870   3.323   6.244
 7595SOL    HW223685   6.708   3.329   6.264
 7596SOL     OW23686   4.866   4.245   2.303
 7596SOL    HW123687   4.809   4.253   2.221
 7596SOL    HW223688   4.813   4.202   2.376
 7597SOL     OW23689   3.268   5.320   1.720
 7597SOL    HW123690   3.212   5.351   1.797
 7597SOL    HW223691   3.250   5.223   1.703
 7598SOL     OW23692   6.847   0.349   2.945
 7598SOL    HW123693   6.816   0.428   2.892
 7598SOL    HW223694   6.874   0.380   3.037
 7599SOL     OW23695   6.276   1.710   3.542
 7599SOL    HW123696   6.337   1.635   3.568
 7599SOL    HW223697   6.219   1.680   3.465
 7600SOL     OW23698   1.341   0.597   2.312
 7600SOL    HW123699   1.350   0.599   2.212
 7600SOL    HW223700   1.426   0.632   2.353
 7601SOL     OW23701   2.089   6.169   4.014
 7601SOL    HW123702   2.097   6.225   4.097
 7601SOL    HW223703   2.100   6.072   4.039
 7602SOL     OW23704   1.576   4.458   4.567
 7602SOL    HW123705   1.576   4.558   4.570
 7602SOL    HW223706   1.527   4.422   4.647
 7603SOL     OW23707   0.844   6.126   0.380
 7603SOL    HW123708   0.811   6.142   0.287
 7603SOL    HW223709   0.918   6.190   0.400
 7604SOL     OW23710   3.748   6.086   4.754
 7604SOL    HW123711   3.758   6.179   4.790
 7604SOL    HW223712   3.786   6.081   4.662
 7605SOL     OW23713   0.698   4.649   6.888
 7605SOL    HW123714   0.697   4.740   6.930
 7605SOL    HW223715   0.770   4.594   6.929
 7606SOL     OW23716   0.082   2.860   2.257
 7606SOL    HW123717   0.100   2.899   2.167
 7606SOL    HW223718   0.044   2.930   2.317
 7607SOL     OW23719   4.985   6.871   6.566
 7607SOL    HW123720   5.013   6.941   6.500
 7607SOL    HW223721   4.889   6.849   6.552
 7608SOL     OW23722   2.999   3.390   3.679
 7608SOL    HW123723   3.097   3.388   3.657
 7608SOL    HW223724   2.986   3.436   3.767
 7609SOL     OW23725   0.701   3.765   3.713
 7609SOL    HW123726   0.737   3.828   3.781
 7609SOL    HW223727   0.769   3.695   3.693
 7610SOL     OW23728   5.438   0.255   0.988
 7610SOL    HW123729   5.393   0.188   1.047
 7610SOL    HW223730   5.537   0.253   1.005
 7611SOL     OW23731   0.968   2.092   0.131
 7611SOL    HW123732   0.902   2.058   0.064
 7611SOL    HW223733   1.061   2.073   0.098
 7612SOL     OW23734   4.114   1.720   4.324
 7612SOL    HW123735   4.016   1.718   4.305
 7612SOL    HW223736   4.133   1.780   4.402
 7613SOL     OW23737   4.849   0.966   1.540
 7613SOL    HW123738   4.931   1.022   1.554
 7613SOL    HW223739   4.770   1.025   1.525
 7614SOL     OW23740   3.856   1.740   1.414
 7614SOL    HW123741   3.821   1.647   1.399
 7614SOL    HW223742   3.793   1.805   1.373
 7615SOL     OW23743   3.802   5.372   6.534
 7615SOL    HW123744   3.882   5.313   6.529
 7615SOL    HW223745   3.720   5.316   6.550
 7616SOL     OW23746   6.962   4.105   3.905
 7616SOL    HW123747   6.931   4.169   3.834
 7616SOL    HW223748   6.898   4.028   3.910
 7617SOL     OW23749   2.971   5.145   3.459
 7617SOL    HW123750   3.003   5.232   3.498
 7617SOL    HW223751   3.050   5.087   3.439
 7618SOL     OW23752   1.446   2.304   6.902
 7618SOL    HW123753   1.443   2.286   6.804
 7618SOL    HW223754   1.354   2.298   6.940
 7619SOL     OW23755   5.703   3.109   5.327
 7619SOL    HW123756   5.665   3.121   5.418
 7619SOL    HW223757   5.740   3.016   5.318
 7620SOL     OW23758   3.842   6.901   0.505
 7620SOL    HW123759   3.832   6.975   0.571
 7620SOL    HW223760   3.834   6.813   0.552
 7621SOL     OW23761   2.056   0.889   0.940
 7621SOL    HW123762   2.047   0.817   1.009
 7621SOL    HW223763   2.088   0.973   0.983
 7622SOL     OW23764   4.449   3.021   1.037
 7622SOL    HW123765   4.465   2.928   1.004
 7622SOL    HW223766   4.385   3.019   1.114
 7623SOL     OW23767   4.375   6.219   6.613
 7623SOL    HW123768   4.282   6.229   6.576
 7623SOL    HW223769   4.417   6.309   6.623
 7624SOL     OW23770   0.736   1.929   3.093
 7624SOL    HW123771   0.726   1.989   3.173
 7624SOL    HW223772   0.659   1.865   3.089
 7625SOL     OW23773   5.470   0.524   1.034
 7625SOL    HW123774   5.419   0.576   1.103
 7625SOL    HW223775   5.432   0.432   1.028
 7626SOL     OW23776   1.385   6.670   4.920
 7626SOL    HW123777   1.388   6.676   5.019
 7626SOL    HW223778   1.290   6.661   4.889
 7627SOL     OW23779   6.322   2.773   0.923
 7627SOL    HW123780   6.282   2.846   0.978
 7627SOL    HW223781   6.378   2.714   0.981
 7628SOL     OW23782   2.622   0.878   1.156
 7628SOL    HW123783   2.596   0.866   1.251
 7628SOL    HW223784   2.695   0.946   1.150
 7629SOL     OW23785   6.768   6.055   2.574
 7629SOL    HW123786   6.803   5.963   2.594
 7629SOL    HW223787   6.694   6.077   2.637
 7630SOL     OW23788   6.403   0.314   2.201
 7630SOL    HW123789   6.494   0.279   2.177
 7630SOL    HW223790   6.376   0.277   2.290
 7631SOL     OW23791   0.686   2.155   5.236
 7631SOL    HW123792   0.770   2.148   5.182
 7631SOL    HW223793   0.708   2.191   5.327
 7632SOL     OW23794   4.386   2.175   0.789
 7632SOL    HW123795   4.316   2.170   0.719
 7632SOL    HW223796   4.346   2.209   0.874
 7633SOL     OW23797   5.479   3.282   6.665
 7633SOL    HW123798   5.536   3.201   6.673
 7633SOL    HW223799   5.537   3.364   6.663
 7634SOL     OW23800   1.663   0.853   2.230
 7634SOL    HW123801   1.752   0.839   2.274
 7634SOL    HW223802   1.597   0.882   2.299
 7635SOL     OW23803   2.381   5.370   6.168
 7635SOL    HW123804   2.318   5.444   6.145
 7635SOL    HW223805   2.404   5.375   6.265
 7636SOL     OW23806   1.043   1.186   4.050
 7636SOL    HW123807   0.953   1.207   4.012
 7636SOL    HW223808   1.114   1.218   3.987
 7637SOL     OW23809   1.225   0.229   4.480
 7637SOL    HW123810   1.154   0.236   4.409
 7637SOL    HW223811   1.209   0.148   4.536
 7638SOL     OW23812   5.242   5.460   1.938
 7638SOL    HW123813   5.321   5.491   1.885
 7638SOL    HW223814   5.193   5.390   1.887
 7639SOL     OW23815   0.970   1.724   5.859
 7639SOL    HW123816   1.002   1.697   5.949
 7639SOL    HW223817   0.941   1.643   5.808
 7640SOL     OW23818   2.404   2.225   1.098
 7640SOL    HW123819   2.425   2.146   1.155
 7640SOL    HW223820   2.320   2.269   1.132
 7641SOL     OW23821   6.586   4.515   2.285
 7641SOL    HW123822   6.675   4.532   2.328
 7641SOL    HW223823   6.594   4.440   2.220
 7642SOL     OW23824   2.852   1.976   2.812
 7642SOL    HW123825   2.882   1.981   2.907
 7642SOL    HW223826   2.883   1.890   2.771
 7643SOL     OW23827   4.547   2.489   2.857
 7643SOL    HW123828   4.574   2.394   2.871
 7643SOL    HW223829   4.589   2.524   2.773
 7644SOL     OW23830   0.467   2.948   3.450
 7644SOL    HW123831   0.445   2.902   3.364
 7644SOL    HW223832   0.382   2.976   3.495
 7645SOL     OW23833   4.725   4.657   6.938
 7645SOL    HW123834   4.745   4.738   6.883
 7645SOL    HW223835   4.796   4.646   7.008
 7646SOL     OW23836   2.356   1.838   2.080
 7646SOL    HW123837   2.302   1.790   2.010
 7646SOL    HW223838   2.308   1.834   2.167
 7647SOL     OW23839   1.727   3.582   1.769
 7647SOL    HW123840   1.808   3.551   1.818
 7647SOL    HW223841   1.719   3.681   1.777
 7648SOL     OW23842   4.544   1.679   3.916
 7648SOL    HW123843   4.453   1.651   3.885
 7648SOL    HW223844   4.536   1.756   3.979
 7649SOL     OW23845   2.139   0.762   2.513
 7649SOL    HW123846   2.054   0.731   2.555
 7649SOL    HW223847   2.209   0.772   2.583
 7650SOL     OW23848   0.006   3.643   2.474
 7650SOL    HW123849   0.000   3.644   2.375
 7650SOL    HW223850   0.102   3.640   2.502
 7651SOL     OW23851   2.959   0.041   0.014
 7651SOL    HW123852   2.986   0.010   0.105
 7651SOL    HW223853   3.007   7.008   6.966
 7652SOL     OW23854   6.604   3.320   3.786
 7652SOL    HW123855   6.573   3.254   3.718
 7652SOL    HW223856   6.531   3.386   3.804
 7653SOL     OW23857   2.628   1.937   1.194
 7653SOL    HW123858   2.584   1.932   1.104
 7653SOL    HW223859   2.632   1.846   1.235
 7654SOL     OW23860   4.803   2.958   3.962
 7654SOL    HW123861   4.873   2.918   3.902
 7654SOL    HW223862   4.733   3.003   3.906
 7655SOL     OW23863   3.208   6.924   4.731
 7655SOL    HW123864   3.194   6.974   4.646
 7655SOL    HW223865   3.175   6.830   4.721
 7656SOL     OW23866   0.030   6.369   5.081
 7656SOL    HW123867   6.988   6.338   5.153
 7656SOL    HW223868   0.111   6.311   5.080
 7657SOL     OW23869   2.692   2.323   3.768
 7657SOL    HW123870   2.676   2.302   3.865
 7657SOL    HW223871   2.605   2.341   3.723
 7658SOL     OW23872   4.756   0.452   5.996
 7658SOL    HW123873   4.665   0.439   6.036
 7658SOL    HW223874   4.764   0.400   5.911
 7659SOL     OW23875   6.716   0.101   0.970
 7659SOL    HW123876   6.688   0.130   1.062
 7659SOL    HW223877   6.756   0.009   0.976
 7660SOL     OW23878   5.439   5.352   2.964
 7660SOL    HW123879   5.520   5.320   2.916
 7660SOL    HW223880   5.360   5.349   2.902
 7661SOL     OW23881   6.010   2.613   4.027
 7661SOL    HW123882   5.930   2.618   4.087
 7661SOL    HW223883   6.094   2.616   4.082
 7662SOL     OW23884   1.529   3.385   2.191
 7662SOL    HW123885   1.542   3.287   2.174
 7662SOL    HW223886   1.604   3.418   2.249
 7663SOL     OW23887   0.671   5.348   6.263
 7663SOL    HW123888   0.670   5.259   6.309
 7663SOL    HW223889   0.711   5.338   6.172
 7664SOL     OW23890   2.672   6.532   3.100
 7664SOL    HW123891   2.584   6.487   3.114
 7664SOL    HW223892   2.659   6.630   3.092
 7665SOL     OW23893   2.888   0.912   4.442
 7665SOL    HW123894   2.852   0.966   4.366
 7665SOL    HW223895   2.815   0.854   4.479
 7666SOL     OW23896   0.779   0.033   1.087
 7666SOL    HW123897   0.694   7.002   1.092
 7666SOL    HW223898   0.824   0.034   1.176
 7667SOL     OW23899   4.898   6.418   6.811
 7667SOL    HW123900   4.888   6.414   6.711
 7667SOL    HW223901   4.823   6.470   6.850
 7668SOL     OW23902   3.616   4.590   1.288
 7668SOL    HW123903   3.536   4.621   1.339
 7668SOL    HW223904   3.602   4.496   1.258
 7669SOL     OW23905   4.634   0.317   4.053
 7669SOL    HW123906   4.674   0.386   4.113
 7669SOL    HW223907   4.636   0.228   4.098
 7670SOL     OW23908   1.284   5.723   0.050
 7670SOL    HW123909   1.345   5.803   0.057
 7670SOL    HW223910   1.231   5.715   0.135
 7671SOL     OW23911   5.290   1.052   4.630
 7671SOL    HW123912   5.314   1.086   4.539
 7671SOL    HW223913   5.246   0.962   4.621
 7672SOL     OW23914   5.528   0.475   3.967
 7672SOL    HW123915   5.509   0.519   4.055
 7672SOL    HW223916   5.476   0.389   3.961
 7673SOL     OW23917   0.852   4.634   1.135
 7673SOL    HW123918   0.860   4.585   1.048
 7673SOL    HW223919   0.776   4.598   1.187
 7674SOL     OW23920   6.741   2.082   4.425
 7674SOL    HW123921   6.839   2.087   4.445
 7674SOL    HW223922   6.728   2.041   4.335
 7675SOL     OW23923   4.658   0.192   1.908
 7675SOL    HW123924   4.630   0.110   1.858
 7675SOL    HW223925   4.697   0.259   1.844
 7676SOL     OW23926   1.158   0.935   6.689
 7676SOL    HW123927   1.071   0.964   6.728
 7676SOL    HW223928   1.140   0.878   6.609
 7677SOL     OW23929   2.079   3.658   2.469
 7677SOL    HW123930   2.098   3.560   2.472
 7677SOL    HW223931   1.990   3.674   2.428
 7678SOL     OW23932   0.832   0.798   0.236
 7678SOL    HW123933   0.888   0.880   0.245
 7678SOL    HW223934   0.878   0.732   0.178
 7679SOL     OW23935   1.023   5.333   4.863
 7679SOL    HW123936   0.987   5.281   4.940
 7679SOL    HW223937   1.026   5.430   4.888
 7680SOL     OW23938   3.445   3.465   6.662
 7680SOL    HW123939   3.346   3.469   6.676
 7680SOL    HW223940   3.490   3.450   6.751
 7681SOL     OW23941   2.333   1.819   0.046
 7681SOL    HW123942   2.400   1.848   6.999
 7681SOL    HW223943   2.360   1.730   0.083
 7682SOL     OW23944   3.079   6.947   1.844
 7682SOL    HW123945   3.159   7.000   1.873
 7682SOL    HW223946   3.073   6.947   1.744
 7683SOL     OW23947   5.923   1.678   2.804
 7683SOL    HW123948   5.963   1.609   2.744
 7683SOL    HW223949   5.993   1.745   2.829
 7684SOL     OW23950   4.982   1.935   6.294
 7684SOL    HW123951   5.081   1.945   6.307
 7684SOL    HW223952   4.964   1.873   6.218
 7685SOL     OW23953   3.310   2.763   0.785
 7685SOL    HW123954   3.283   2.750   0.690
 7685SOL    HW223955   3.391   2.707   0.805
 7686SOL     OW23956   4.817   6.944   3.281
 7686SOL    HW123957   4.728   6.955   3.328
 7686SOL    HW223958   4.858   6.857   3.308
 7687SOL     OW23959   4.962   4.828   5.330
 7687SOL    HW123960   4.871   4.802   5.297
 7687SOL    HW223961   5.031   4.793   5.267
 7688SOL     OW23962   6.937   6.918   5.078
 7688SOL    HW123963   6.859   6.878   5.126
 7688SOL    HW223964   6.979   6.849   5.019
 7689SOL     OW23965   4.319   6.023   4.812
 7689SOL    HW123966   4.238   6.081   4.823
 7689SOL    HW223967   4.295   5.928   4.833
 7690SOL     OW23968   5.468   4.282   2.679
 7690SOL    HW123969   5.556   4.235   2.674
 7690SOL    HW223970   5.441   4.291   2.775
 7691SOL     OW23971   5.193   2.304   3.964
 7691SOL    HW123972   5.198   2.385   4.022
 7691SOL    HW223973   5.192   2.333   3.868
 7692SOL     OW23974   1.509   6.288   1.724
 7692SOL    HW123975   1.467   6.357   1.784
 7692SOL    HW223976   1.607   6.282   1.745
 7693SOL     OW23977   4.354   0.902   5.908
 7693SOL    HW123978   4.414   0.975   5.941
 7693SOL    HW223979   4.339   0.913   5.810
 7694SOL     OW23980   6.959   4.764   3.987
 7694SOL    HW123981   6.949   4.686   4.049
 7694SOL    HW223982   0.033   4.795   3.988
 7695SOL     OW23983   4.547   0.104   0.900
 7695SOL    HW123984   4.544   0.067   0.993
 7695SOL    HW223985   4.455   0.136   0.875
 7696SOL     OW23986   0.094   2.162   4.479
 7696SOL    HW123987   0.039   2.111   4.413
 7696SOL    HW223988   0.052   2.252   4.494
 7697SOL     OW23989   2.176   1.749   3.585
 7697SOL    HW123990   2.232   1.708   3.513
 7697SOL    HW223991   2.232   1.764   3.666
 7698SOL     OW23992   6.841   2.809   4.479
 7698SOL    HW123993   6.781   2.782   4.405
 7698SOL    HW223994   6.837   2.741   4.552
 7699SOL     OW23995   2.728   5.753   0.869
 7699SOL    HW123996   2.753   5.826   0.932
 7699SOL    HW223997   2.810   5.716   0.827
 7700SOL     OW23998   4.661   6.753   5.172
 7700SOL    HW123999   4.634   6.722   5.081
 7700SOL    HW224000   4.760   6.744   5.184
 7701SOL     OW24001   0.159   1.085   5.389
 7701SOL    HW124002   0.219   1.033   5.450
 7701SOL    HW224003   0.075   1.033   5.373
 7702SOL     OW24004   3.317   6.357   5.928
 7702SOL    HW124005   3.286   6.359   5.833
 7702SOL    HW224006   3.352   6.266   5.950
 7703SOL     OW24007   0.339   1.272   5.430
 7703SOL    HW124008   0.270   1.211   5.393
 7703SOL    HW224009   0.301   1.364   5.438
 7704SOL     OW24010   4.145   4.582   6.975
 7704SOL    HW124011   4.095   4.590   6.888
 7704SOL    HW224012   4.205   4.503   6.972
 7705SOL     OW24013   3.885   4.905   5.174
 7705SOL    HW124014   3.886   4.904   5.074
 7705SOL    HW224015   3.828   4.981   5.206
 7706SOL     OW24016   6.294   0.208   5.396
 7706SOL    HW124017   6.324   0.283   5.337
 7706SOL    HW224018   6.204   0.176   5.365
 7707SOL     OW24019   6.918   5.931   6.337
 7707SOL    HW124020   6.973   5.948   6.419
 7707SOL    HW224021   6.839   5.875   6.362
 7708SOL     OW24022   4.533   6.321   4.216
 7708SOL    HW124023   4.568   6.412   4.237
 7708SOL    HW224024   4.482   6.323   4.130
 7709SOL     OW24025   4.461   2.603   1.753
 7709SOL    HW124026   4.536   2.582   1.817
 7709SOL    HW224027   4.384   2.542   1.771
 7710SOL     OW24028   2.952   0.074   0.644
 7710SOL    HW124029   2.904   0.160   0.663
 7710SOL    HW224030   3.012   0.052   0.722
 7711SOL     OW24031   5.730   5.967   5.642
 7711SOL    HW124032   5.704   5.970   5.739
 7711SOL    HW224033   5.649   5.983   5.586
 7712SOL     OW24034   6.203   4.774   1.229
 7712SOL    HW124035   6.114   4.731   1.244
 7712SOL    HW224036   6.273   4.725   1.281
 7713SOL     OW24037   1.766   4.363   6.819
 7713SOL    HW124038   1.779   4.355   6.918
 7713SOL    HW224039   1.813   4.288   6.773
 7714SOL     OW24040   5.914   4.381   4.136
 7714SOL    HW124041   5.875   4.291   4.117
 7714SOL    HW224042   5.881   4.446   4.067
 7715SOL     OW24043   5.391   0.375   1.415
 7715SOL    HW124044   5.376   0.295   1.473
 7715SOL    HW224045   5.304   0.403   1.374
 7716SOL     OW24046   4.803   2.411   2.379
 7716SOL    HW124047   4.750   2.482   2.332
 7716SOL    HW224048   4.901   2.429   2.366
 7717SOL     OW24049   2.893   1.418   5.226
 7717SOL    HW124050   2.914   1.466   5.311
 7717SOL    HW224051   2.937   1.465   5.149
 7718SOL     OW24052   2.334   1.177   3.056
 7718SOL    HW124053   2.320   1.090   3.010
 7718SOL    HW224054   2.299   1.171   3.150
 7719SOL     OW24055   6.939   2.359   4.577
 7719SOL    HW124056   6.954   2.455   4.602
 7719SOL    HW224057   6.851   2.350   4.530
 7720SOL     OW24058   6.337   6.384   1.086
 7720SOL    HW124059   6.435   6.364   1.084
 7720SOL    HW224060   6.290   6.326   1.019
 7721SOL     OW24061   2.535   4.611   3.329
 7721SOL    HW124062   2.569   4.593   3.237
 7721SOL    HW224063   2.504   4.526   3.371
 7722SOL     OW24064   6.139   4.707   2.651
 7722SOL    HW124065   6.200   4.673   2.723
 7722SOL    HW224066   6.176   4.792   2.614
 7723SOL     OW24067   7.013   3.021   0.601
 7723SOL    HW124068   6.965   2.946   0.554
 7723SOL    HW224069   6.945   3.079   0.646
 7724SOL     OW24070   1.702   4.246   0.949
 7724SOL    HW124071   1.620   4.272   1.001
 7724SOL    HW224072   1.676   4.226   0.855
 7725SOL     OW24073   5.829   2.550   3.426
 7725SOL    HW124074   5.805   2.644   3.403
 7725SOL    HW224075   5.748   2.502   3.459
 7726SOL     OW24076   0.654   3.940   2.877
 7726SOL    HW124077   0.650   3.925   2.779
 7726SOL    HW224078   0.564   3.970   2.910
 7727SOL     OW24079   6.562   2.773   3.874
 7727SOL    HW124080   6.631   2.706   3.900
 7727SOL    HW224081   6.471   2.735   3.890
 7728SOL     OW24082   1.697   3.251   2.942
 7728SOL    HW124083   1.649   3.164   2.926
 7728SOL    HW224084   1.725   3.289   2.854
 7729SOL     OW24085   5.079   2.081   0.949
 7729SOL    HW124086   5.048   2.069   1.044
 7729SOL    HW224087   5.098   2.178   0.933
 7730SOL     OW24088   4.849   6.155   2.674
 7730SOL    HW124089   4.851   6.159   2.574
 7730SOL    HW224090   4.760   6.121   2.703
 7731SOL     OW24091   5.914   0.848   0.422
 7731SOL    HW124092   5.956   0.902   0.348
 7731SOL    HW224093   5.830   0.807   0.389
 7732SOL     OW24094   4.790   5.619   0.609
 7732SOL    HW124095   4.880   5.612   0.567
 7732SOL    HW224096   4.738   5.535   0.592
 7733SOL     OW24097   3.882   0.636   1.497
 7733SOL    HW124098   3.888   0.546   1.452
 7733SOL    HW224099   3.969   0.684   1.487
 7734SOL     OW24100   1.396   2.755   3.440
 7734SOL    HW124101   1.402   2.655   3.433
 7734SOL    HW224102   1.362   2.792   3.354
 7735SOL     OW24103   5.303   4.514   6.732
 7735SOL    HW124104   5.285   4.431   6.784
 7735SOL    HW224105   5.338   4.490   6.642
 7736SOL     OW24106   5.429   4.051   6.997
 7736SOL    HW124107   5.374   4.043   6.913
 7736SOL    HW224108   5.393   3.987   0.044
 7737SOL     OW24109   4.577   1.870   0.613
 7737SOL    HW124110   4.559   1.897   0.707
 7737SOL    HW224111   4.515   1.918   0.551
 7738SOL     OW24112   2.907   5.641   0.709
 7738SOL    HW124113   2.892   5.642   0.611
 7738SOL    HW224114   3.004   5.620   0.728
 7739SOL     OW24115   0.768   2.477   1.072
 7739SOL    HW124116   0.768   2.517   1.164
 7739SOL    HW224117   0.733   2.544   1.006
 7740SOL     OW24118   6.988   0.173   2.332
 7740SOL    HW124119   6.910   0.154   2.273
 7740SOL    HW224120   6.955   0.208   2.420
 7741SOL     OW24121   2.239   6.224   3.785
 7741SOL    HW124122   2.183   6.208   3.866
 7741SOL    HW224123   2.291   6.309   3.797
 7742SOL     OW24124   5.968   2.118   3.191
 7742SOL    HW124125   5.876   2.082   3.175
 7742SOL    HW224126   6.035   2.052   3.157
 7743SOL     OW24127   4.699   2.907   5.431
 7743SOL    HW124128   4.747   2.819   5.427
 7743SOL    HW224129   4.628   2.909   5.360
 7744SOL     OW24130   6.188   6.966   3.587
 7744SOL    HW124131   6.157   6.871   3.580
 7744SOL    HW224132   6.141   0.001   3.519
 7745SOL     OW24133   3.218   2.507   6.350
 7745SOL    HW124134   3.251   2.479   6.440
 7745SOL    HW224135   3.171   2.430   6.306
 7746SOL     OW24136   1.785   0.038   0.467
 7746SOL    HW124137   1.783   6.959   0.460
 7746SOL    HW224138   1.880   0.069   0.475
 7747SOL     OW24139   5.401   6.328   0.871
 7747SOL    HW124140   5.434   6.239   0.905
 7747SOL    HW224141   5.418   6.334   0.772
 7748SOL     OW24142   2.344   4.034   6.573
 7748SOL    HW124143   2.443   4.026   6.585
 7748SOL    HW224144   2.324   4.084   6.489
 7749SOL     OW24145   5.362   2.811   5.406
 7749SOL    HW124146   5.280   2.774   5.362
 7749SOL    HW224147   5.377   2.905   5.374
 7750SOL     OW24148   0.242   5.827   1.783
 7750SOL    HW124149   0.220   5.854   1.689
 7750SOL    HW224150   0.318   5.883   1.817
 7751SOL     OW24151   0.736   2.399   1.508
 7751SOL    HW124152   0.720   2.409   1.606
 7751SOL    HW224153   0.811   2.335   1.493
 7752SOL     OW24154   4.572   1.118   4.733
 7752SOL    HW124155   4.607   1.156   4.647
 7752SOL    HW224156   4.513   1.040   4.713
 7753SOL     OW24157   2.302   1.337   5.500
 7753SOL    HW124158   2.364   1.386   5.439
 7753SOL    HW224159   2.345   1.326   5.590
 7754SOL     OW24160   4.140   6.196   1.814
 7754SOL    HW124161   4.151   6.131   1.889
 7754SOL    HW224162   4.225   6.202   1.762
 7755SOL     OW24163   1.399   4.173   6.123
 7755SOL    HW124164   1.319   4.118   6.101
 7755SOL    HW224165   1.459   4.177   6.043
 7756SOL     OW24166   2.801   6.181   1.560
 7756SOL    HW124167   2.734   6.156   1.491
 7756SOL    HW224168   2.883   6.124   1.549
 7757SOL     OW24169   0.323   4.518   3.122
 7757SOL    HW124170   0.298   4.560   3.209
 7757SOL    HW224171   0.369   4.431   3.140
 7758SOL     OW24172   1.479   0.852   5.128
 7758SOL    HW124173   1.413   0.824   5.198
 7758SOL    HW224174   1.482   0.951   5.123
 7759SOL     OW24175   3.274   2.068   6.446
 7759SOL    HW124176   3.205   2.000   6.472
 7759SOL    HW224177   3.362   2.023   6.433
 7760SOL     OW24178   4.691   3.030   1.218
 7760SOL    HW124179   4.767   3.072   1.168
 7760SOL    HW224180   4.610   3.028   1.159
 7761SOL     OW24181   4.475   5.607   4.691
 7761SOL    HW124182   4.394   5.633   4.638
 7761SOL    HW224183   4.529   5.688   4.713
 7762SOL     OW24184   6.729   0.643   3.306
 7762SOL    HW124185   6.706   0.696   3.224
 7762SOL    HW224186   6.647   0.594   3.339
 7763SOL     OW24187   2.847   7.011   4.643
 7763SOL    HW124188   2.754   0.016   4.621
 7763SOL    HW224189   2.850   6.913   4.663
 7764SOL     OW24190   2.987   3.880   5.557
 7764SOL    HW124191   2.917   3.810   5.543
 7764SOL    HW224192   3.076   3.836   5.566
 7765SOL     OW24193   6.420   2.940   4.567
 7765SOL    HW124194   6.494   3.007   4.573
 7765SOL    HW224195   6.340   2.975   4.616
 7766SOL     OW24196   0.134   4.254   6.970
 7766SOL    HW124197   0.039   4.237   6.996
 7766SOL    HW224198   0.170   4.174   6.920
 7767SOL     OW24199   2.828   1.046   3.134
 7767SOL    HW124200   2.844   1.099   3.051
 7767SOL    HW224201   2.812   1.109   3.211
 7768SOL     OW24202   4.637   4.946   2.995
 7768SOL    HW124203   4.647   4.851   2.965
 7768SOL    HW224204   4.724   4.994   2.983
 7769SOL     OW24205   3.479   2.368   5.291
 7769SOL    HW124206   3.387   2.383   5.256
 7769SOL    HW224207   3.499   2.270   5.291
 7770SOL     OW24208   1.889   3.366   4.652
 7770SOL    HW124209   1.811   3.408   4.605
 7770SOL    HW224210   1.920   3.427   4.725
 7771SOL     OW24211   2.920   1.959   6.134
 7771SOL    HW124212   3.019   1.970   6.140
 7771SOL    HW224213   2.876   2.047   6.149
 7772SOL     OW24214   5.267   0.199   1.590
 7772SOL    HW124215   5.332   0.163   1.658
 7772SOL    HW224216   5.191   0.243   1.638
 7773SOL     OW24217   3.660   6.004   0.307
 7773SOL    HW124218   3.570   6.046   0.314
 7773SOL    HW224219   3.650   5.908   0.281
 7774SOL     OW24220   4.468   1.661   2.563
 7774SOL    HW124221   4.564   1.667   2.588
 7774SOL    HW224222   4.414   1.723   2.621
 7775SOL     OW24223   3.629   0.648   6.791
 7775SOL    HW124224   3.679   0.713   6.847
 7775SOL    HW224225   3.681   0.628   6.708
 7776SOL     OW24226   1.652   0.980   4.912
 7776SOL    HW124227   1.592   1.044   4.959
 7776SOL    HW224228   1.599   0.903   4.876
 7777SOL     OW24229   5.021   5.551   3.303
 7777SOL    HW124230   5.059   5.537   3.211
 7777SOL    HW224231   4.946   5.616   3.299
 7778SOL     OW24232   5.755   4.574   2.975
 7778SOL    HW124233   5.676   4.565   2.913
 7778SOL    HW224234   5.838   4.548   2.926
 7779SOL     OW24235   3.815   5.866   2.292
 7779SOL    HW124236   3.719   5.893   2.290
 7779SOL    HW224237   3.855   5.879   2.201
 7780SOL     OW24238   5.739   5.871   5.050
 7780SOL    HW124239   5.759   5.953   5.102
 7780SOL    HW224240   5.640   5.853   5.054
 7781SOL     OW24241   1.541   2.420   0.415
 7781SOL    HW124242   1.606   2.484   0.374
 7781SOL    HW224243   1.550   2.330   0.373
 7782SOL     OW24244   5.267   4.323   3.175
 7782SOL    HW124245   5.359   4.340   3.141
 7782SOL    HW224246   5.203   4.320   3.099
 7783SOL     OW24247   0.844   0.735   5.054
 7783SOL    HW124248   0.925   0.789   5.034
 7783SOL    HW224249   0.867   0.638   5.050
 7784SOL     OW24250   2.350   2.529   2.773
 7784SOL    HW124251   2.429   2.538   2.833
 7784SOL    HW224252   2.354   2.599   2.702
 7785SOL     OW24253   0.816   6.319   2.401
 7785SOL    HW124254   0.784   6.338   2.308
 7785SOL    HW224255   0.824   6.404   2.452
 7786SOL     OW24256   4.570   0.102   6.367
 7786SOL    HW124257   4.553   0.013   6.409
 7786SOL    HW224258   4.535   0.102   6.273
 7787SOL     OW24259   2.986   2.675   1.250
 7787SOL    HW124260   2.914   2.606   1.258
 7787SOL    HW224261   2.969   2.732   1.169
 7788SOL     OW24262   0.685   4.203   1.723
 7788SOL    HW124263   0.664   4.231   1.629
 7788SOL    HW224264   0.618   4.137   1.755
 7789SOL     OW24265   4.263   1.086   6.260
 7789SOL    HW124266   4.295   0.993   6.242
 7789SOL    HW224267   4.342   1.147   6.266
 7790SOL     OW24268   5.061   4.447   1.664
 7790SOL    HW124269   5.143   4.496   1.691
 7790SOL    HW224270   5.085   4.353   1.638
 7791SOL     OW24271   2.879   5.258   2.678
 7791SOL    HW124272   2.974   5.238   2.701
 7791SOL    HW224273   2.818   5.199   2.730
 7792SOL     OW24274   1.263   1.671   2.325
 7792SOL    HW124275   1.334   1.736   2.299
 7792SOL    HW224276   1.235   1.688   2.420
 7793SOL     OW24277   5.142   0.635   6.499
 7793SOL    HW124278   5.068   0.573   6.526
 7793SOL    HW224279   5.103   0.712   6.448
 7794SOL     OW24280   0.413   6.604   3.372
 7794SOL    HW124281   0.485   6.613   3.303
 7794SOL    HW224282   0.324   6.621   3.330
 7795SOL     OW24283   3.049   5.754   6.779
 7795SOL    HW124284   3.135   5.723   6.739
 7795SOL    HW224285   3.039   5.853   6.765
 7796SOL     OW24286   3.633   3.396   6.165
 7796SOL    HW124287   3.577   3.316   6.144
 7796SOL    HW224288   3.585   3.455   6.229
 7797SOL     OW24289   0.846   6.201   3.101
 7797SOL    HW124290   0.913   6.183   3.029
 7797SOL    HW224291   0.771   6.135   3.092
 7798SOL     OW24292   0.998   2.481   0.946
 7798SOL    HW124293   0.909   2.495   0.989
 7798SOL    HW224294   1.041   2.570   0.928
 7799SOL     OW24295   2.429   6.065   3.592
 7799SOL    HW124296   2.464   6.134   3.656
 7799SOL    HW224297   2.338   6.036   3.623
 7800SOL     OW24298   0.215   6.304   1.698
 7800SOL    HW124299   0.301   6.257   1.721
 7800SOL    HW224300   0.208   6.387   1.753
 7801SOL     OW24301   1.952   2.261   1.898
 7801SOL    HW124302   1.932   2.359   1.894
 7801SOL    HW224303   2.051   2.246   1.893
 7802SOL     OW24304   0.173   3.485   4.737
 7802SOL    HW124305   0.078   3.514   4.747
 7802SOL    HW224306   0.218   3.542   4.668
 7803SOL     OW24307   4.289   2.584   5.608
 7803SOL    HW124308   4.354   2.638   5.662
 7803SOL    HW224309   4.214   2.553   5.666
 7804SOL     OW24310   2.554   2.057   5.595
 7804SOL    HW124311   2.640   2.028   5.637
 7804SOL    HW224312   2.538   2.154   5.614
 7805SOL     OW24313   5.585   3.140   0.349
 7805SOL    HW124314   5.556   3.063   0.291
 7805SOL    HW224315   5.671   3.177   0.316
 7806SOL     OW24316   0.044   2.399   5.766
 7806SOL    HW124317   0.143   2.388   5.755
 7806SOL    HW224318   0.025   2.492   5.800
 7807SOL     OW24319   2.124   4.742   5.919
 7807SOL    HW124320   2.181   4.736   6.002
 7807SOL    HW224321   2.117   4.837   5.890
 7808SOL     OW24322   4.847   3.584   3.311
 7808SOL    HW124323   4.842   3.662   3.249
 7808SOL    HW224324   4.852   3.618   3.406
 7809SOL     OW24325   4.371   4.935   3.105
 7809SOL    HW124326   4.388   4.891   3.192
 7809SOL    HW224327   4.457   4.946   3.055
 7810SOL     OW24328   3.858   6.489   5.283
 7810SOL    HW124329   3.945   6.452   5.313
 7810SOL    HW224330   3.863   6.589   5.283
 7811SOL     OW24331   1.444   5.647   2.999
 7811SOL    HW124332   1.524   5.609   2.953
 7811SOL    HW224333   1.371   5.661   2.932
 7812SOL     OW24334   2.569   2.259   6.442
 7812SOL    HW124335   2.667   2.273   6.457
 7812SOL    HW224336   2.533   2.198   6.512
 7813SOL     OW24337   5.907   1.045   0.945
 7813SOL    HW124338   5.931   0.956   0.985
 7813SOL    HW224339   5.931   1.045   0.848
 7814SOL     OW24340   0.268   3.154   2.292
 7814SOL    HW124341   0.367   3.161   2.298
 7814SOL    HW224342   0.241   3.128   2.200
 7815SOL     OW24343   5.805   3.314   4.810
 7815SOL    HW124344   5.713   3.351   4.796
 7815SOL    HW224345   5.820   3.298   4.908
 7816SOL     OW24346   1.214   1.307   5.023
 7816SOL    HW124347   1.275   1.381   4.993
 7816SOL    HW224348   1.185   1.324   5.117
 7817SOL     OW24349   3.082   2.976   6.457
 7817SOL    HW124350   3.006   3.031   6.424
 7817SOL    HW224351   3.053   2.922   6.536
 7818SOL     OW24352   5.557   1.059   2.079
 7818SOL    HW124353   5.551   1.159   2.076
 7818SOL    HW224354   5.601   1.031   2.164
 7819SOL     OW24355   1.185   4.033   3.865
 7819SOL    HW124356   1.269   4.078   3.894
 7819SOL    HW224357   1.206   3.941   3.831
 7820SOL     OW24358   1.700   6.982   5.779
 7820SOL    HW124359   1.624   0.000   5.831
 7820SOL    HW224360   1.679   6.886   5.757
 7821SOL     OW24361   5.638   5.632   6.101
 7821SOL    HW124362   5.691   5.547   6.098
 7821SOL    HW224363   5.609   5.656   6.009
 7822SOL     OW24364   1.123   1.110   4.624
 7822SOL    HW124365   1.182   1.090   4.546
 7822SOL    HW224366   1.078   1.198   4.611
 7823SOL     OW24367   1.194   4.016   6.281
 7823SOL    HW124368   1.233   3.926   6.299
 7823SOL    HW224369   1.164   4.057   6.368
 7824SOL     OW24370   5.247   2.444   2.882
 7824SOL    HW124371   5.308   2.394   2.943
 7824SOL    HW224372   5.168   2.476   2.933
 7825SOL     OW24373   3.554   3.461   2.421
 7825SOL    HW124374   3.469   3.483   2.372
 7825SOL    HW224375   3.532   3.436   2.515
 7826SOL     OW24376   6.769   0.546   0.270
 7826SOL    HW124377   6.810   0.546   0.178
 7826SOL    HW224378   6.749   0.452   0.297
 7827SOL     OW24379   5.546   4.887   1.672
 7827SOL    HW124380   5.562   4.883   1.770
 7827SOL    HW224381   5.626   4.853   1.623
 7828SOL     OW24382   0.827   6.699   0.848
 7828SOL    HW124383   0.806   6.608   0.884
 7828SOL    HW224384   0.749   6.733   0.796
 7829SOL     OW24385   3.929   2.927   1.621
 7829SOL    HW124386   3.898   2.914   1.527
 7829SOL    HW224387   3.874   2.871   1.683
 7830SOL     OW24388   5.979   2.736   6.657
 7830SOL    HW124389   5.986   2.775   6.749
 7830SOL    HW224390   6.026   2.796   6.592
 7831SOL     OW24391   1.318   3.273   0.354
 7831SOL    HW124392   1.366   3.337   0.414
 7831SOL    HW224393   1.285   3.323   0.273
 7832SOL     OW24394   2.226   2.298   5.827
 7832SOL    HW124395   2.147   2.340   5.871
 7832SOL    HW224396   2.205   2.203   5.804
 7833SOL     OW24397   0.361   0.228   0.266
 7833SOL    HW124398   0.286   0.237   0.333
 7833SOL    HW224399   0.323   0.234   0.173
 7834SOL     OW24400   1.077   0.365   1.078
 7834SOL    HW124401   1.105   0.412   1.161
 7834SOL    HW224402   1.141   0.388   1.004
 7835SOL     OW24403   2.223   3.069   4.912
 7835SOL    HW124404   2.251   3.014   4.833
 7835SOL    HW224405   2.304   3.088   4.969
 7836SOL     OW24406   1.950   6.348   0.440
 7836SOL    HW124407   1.884   6.328   0.512
 7836SOL    HW224408   1.946   6.276   0.371
 7837SOL     OW24409   6.070   0.151   2.898
 7837SOL    HW124410   6.100   0.069   2.850
 7837SOL    HW224411   6.012   0.125   2.975
 7838SOL     OW24412   3.549   0.185   4.552
 7838SOL    HW124413   3.453   0.213   4.551
 7838SOL    HW224414   3.606   0.259   4.517
 7839SOL     OW24415   6.267   4.942   4.502
 7839SOL    HW124416   6.330   4.980   4.569
 7839SOL    HW224417   6.237   4.851   4.532
 7840SOL     OW24418   5.787   2.964   4.587
 7840SOL    HW124419   5.843   3.017   4.650
 7840SOL    HW224420   5.847   2.909   4.528
 7841SOL     OW24421   0.601   1.643   6.506
 7841SOL    HW124422   0.535   1.636   6.431
 7841SOL    HW224423   0.571   1.584   6.581
 7842SOL     OW24424   2.573   0.800   2.842
 7842SOL    HW124425   2.645   0.823   2.776
 7842SOL    HW224426   2.605   0.727   2.902
 7843SOL     OW24427   5.083   3.621   0.651
 7843SOL    HW124428   5.020   3.679   0.598
 7843SOL    HW224429   5.118   3.548   0.592
 7844SOL     OW24430   4.057   0.630   3.450
 7844SOL    HW124431   4.151   0.630   3.419
 7844SOL    HW224432   4.032   0.721   3.484
 7845SOL     OW24433   6.427   1.599   4.246
 7845SOL    HW124434   6.347   1.596   4.307
 7845SOL    HW224435   6.417   1.676   4.182
 7846SOL     OW24436   2.968   6.710   1.968
 7846SOL    HW124437   2.973   6.624   1.917
 7846SOL    HW224438   3.021   6.780   1.921
 7847SOL     OW24439   6.842   0.772   0.401
 7847SOL    HW124440   6.833   0.689   0.345
 7847SOL    HW224441   6.752   0.798   0.437
 7848SOL     OW24442   4.917   3.678   1.982
 7848SOL    HW124443   4.940   3.599   2.039
 7848SOL    HW224444   4.908   3.759   2.040
 7849SOL     OW24445   5.708   3.812   4.948
 7849SOL    HW124446   5.622   3.771   4.977
 7849SOL    HW224447   5.699   3.845   4.854
 7850SOL     OW24448   1.258   0.700   5.097
 7850SOL    HW124449   1.220   0.640   5.027
 7850SOL    HW224450   1.323   0.764   5.055
 7851SOL     OW24451   6.048   6.625   0.140
 7851SOL    HW124452   6.000   6.655   0.223
 7851SOL    HW224453   6.144   6.652   0.146
 7852SOL     OW24454   2.522   6.295   6.917
 7852SOL    HW124455   2.566   6.206   6.919
 7852SOL    HW224456   2.508   6.328   7.011
 7853SOL     OW24457   2.622   3.164   0.224
 7853SOL    HW124458   2.524   3.164   0.242
 7853SOL    HW224459   2.645   3.092   0.159
 7854SOL     OW24460   3.284   4.068   2.472
 7854SOL    HW124461   3.208   4.094   2.413
 7854SOL    HW224462   3.278   3.971   2.494
 7855SOL     OW24463   4.267   5.947   5.999
 7855SOL    HW124464   4.266   5.869   5.936
 7855SOL    HW224465   4.362   5.973   6.017
 7856SOL     OW24466   5.259   3.290   5.756
 7856SOL    HW124467   5.172   3.256   5.720
 7856SOL    HW224468   5.245   3.328   5.848
 7857SOL     OW24469   6.481   1.583   5.618
 7857SOL    HW124470   6.381   1.591   5.619
 7857SOL    HW224471   6.520   1.667   5.580
 7858SOL     OW24472   6.278   3.782   2.782
 7858SOL    HW124473   6.249   3.714   2.715
 7858SOL    HW224474   6.217   3.779   2.861
 7859SOL     OW24475   1.258   5.537   6.684
 7859SOL    HW124476   1.298   5.546   6.775
 7859SOL    HW224477   1.260   5.442   6.655
 7860SOL     OW24478   4.021   6.969   1.941
 7860SOL    HW124479   4.072   6.891   1.977
 7860SOL    HW224480   4.054   0.032   1.983
 7861SOL     OW24481   4.973   4.856   0.749
 7861SOL    HW124482   4.874   4.856   0.759
 7861SOL    HW224483   5.010   4.768   0.778
 7862SOL     OW24484   3.113   4.530   1.455
 7862SOL    HW124485   3.030   4.569   1.496
 7862SOL    HW224486   3.146   4.455   1.512
 7863SOL     OW24487   6.505   5.647   1.696
 7863SOL    HW124488   6.591   5.694   1.674
 7863SOL    HW224489   6.520   5.584   1.773
 7864SOL     OW24490   0.890   4.930   4.700
 7864SOL    HW124491   0.873   4.981   4.785
 7864SOL    HW224492   0.871   4.833   4.714
 7865SOL     OW24493   3.159   0.224   3.354
 7865SOL    HW124494   3.064   0.196   3.341
 7865SOL    HW224495   3.205   0.232   3.266
 7866SOL     OW24496   2.439   2.063   4.249
 7866SOL    HW124497   2.339   2.062   4.260
 7866SOL    HW224498   2.481   2.086   4.337
 7867SOL     OW24499   6.360   4.668   1.896
 7867SOL    HW124500   6.452   4.688   1.931
 7867SOL    HW224501   6.336   4.734   1.825
 7868SOL     OW24502   5.158   6.274   0.631
 7868SOL    HW124503   5.218   6.336   0.581
 7868SOL    HW224504   5.098   6.226   0.566
 7869SOL     OW24505   0.990   3.697   1.993
 7869SOL    HW124506   0.926   3.771   1.974
 7869SOL    HW224507   1.079   3.736   2.018
 7870SOL     OW24508   6.891   5.767   3.901
 7870SOL    HW124509   6.869   5.673   3.878
 7870SOL    HW224510   6.812   5.811   3.944
 7871SOL     OW24511   4.913   3.075   3.181
 7871SOL    HW124512   4.870   3.165   3.174
 7871SOL    HW224513   4.958   3.067   3.270
 7872SOL     OW24514   0.211   2.676   3.410
 7872SOL    HW124515   0.282   2.696   3.342
 7872SOL    HW224516   0.201   2.754   3.471
 7873SOL     OW24517   0.291   5.426   5.017
 7873SOL    HW124518   0.352   5.492   4.974
 7873SOL    HW224519   0.343   5.350   5.054
 7874SOL     OW24520   6.078   1.648   0.557
 7874SOL    HW124521   6.093   1.570   0.496
 7874SOL    HW224522   5.998   1.630   0.615
 7875SOL     OW24523   4.181   3.174   6.153
 7875SOL    HW124524   4.185   3.079   6.183
 7875SOL    HW224525   4.103   3.187   6.093
 7876SOL     OW24526   6.668   0.453   3.667
 7876SOL    HW124527   6.757   0.408   3.673
 7876SOL    HW224528   6.635   0.476   3.759
 7877SOL     OW24529   0.014   2.181   2.856
 7877SOL    HW124530   0.020   2.277   2.883
 7877SOL    HW224531   6.992   2.128   2.930
 7878SOL     OW24532   4.900   3.677   2.561
 7878SOL    HW124533   4.940   3.588   2.581
 7878SOL    HW224534   4.879   3.682   2.463
 7879SOL     OW24535   5.253   6.770   3.776
 7879SOL    HW124536   5.211   6.808   3.693
 7879SOL    HW224537   5.285   6.677   3.757
 7880SOL     OW24538   0.146   0.041   6.639
 7880SOL    HW124539   0.210   7.010   6.694
 7880SOL    HW224540   0.189   0.128   6.611
 7881SOL     OW24541   0.404   4.631   4.349
 7881SOL    HW124542   0.337   4.560   4.327
 7881SOL    HW224543   0.377   4.716   4.304
 7882SOL     OW24544   6.458   3.754   3.417
 7882SOL    HW124545   6.506   3.748   3.504
 7882SOL    HW224546   6.508   3.703   3.347
 7883SOL     OW24547   3.135   1.564   3.395
 7883SOL    HW124548   3.101   1.521   3.479
 7883SOL    HW224549   3.187   1.646   3.419
 7884SOL     OW24550   0.628   4.381   4.615
 7884SOL    HW124551   0.687   4.443   4.562
 7884SOL    HW224552   0.627   4.411   4.710
 7885SOL     OW24553   5.909   5.559   3.035
 7885SOL    HW124554   5.994   5.509   3.021
 7885SOL    HW224555   5.888   5.562   3.133
 7886SOL     OW24556   4.783   2.793   2.208
 7886SOL    HW124557   4.880   2.792   2.185
 7886SOL    HW224558   4.741   2.876   2.173
 7887SOL     OW24559   3.131   3.373   0.454
 7887SOL    HW124560   3.214   3.424   0.480
 7887SOL    HW224561   3.124   3.369   0.355
 7888SOL     OW24562   5.728   1.629   3.754
 7888SOL    HW124563   5.821   1.618   3.788
 7888SOL    HW224564   5.666   1.568   3.804
 7889SOL     OW24565   6.237   4.697   0.891
 7889SOL    HW124566   6.151   4.747   0.883
 7889SOL    HW224567   6.313   4.761   0.888
 7890SOL     OW24568   0.972   3.839   4.207
 7890SOL    HW124569   0.996   3.879   4.296
 7890SOL    HW224570   1.055   3.827   4.153
 7891SOL     OW24571   0.858   2.291   4.047
 7891SOL    HW124572   0.822   2.199   4.062
 7891SOL    HW224573   0.870   2.307   3.949
 7892SOL     OW24574   1.043   3.198   5.762
 7892SOL    HW124575   0.983   3.243   5.827
 7892SOL    HW224576   1.004   3.204   5.670
 7893SOL     OW24577   6.284   1.145   1.336
 7893SOL    HW124578   6.207   1.155   1.272
 7893SOL    HW224579   6.330   1.058   1.320
 7894SOL     OW24580   2.793   1.040   6.261
 7894SOL    HW124581   2.696   1.029   6.285
 7894SOL    HW224582   2.827   1.125   6.302
 7895SOL     OW24583   4.004   6.407   3.542
 7895SOL    HW124584   3.963   6.335   3.485
 7895SOL    HW224585   3.952   6.416   3.627
 7896SOL     OW24586   3.691   2.179   1.168
 7896SOL    HW124587   3.700   2.259   1.110
 7896SOL    HW224588   3.667   2.207   1.261
 7897SOL     OW24589   3.700   4.160   0.038
 7897SOL    HW124590   3.757   4.079   0.053
 7897SOL    HW224591   3.659   4.154   6.968
 7898SOL     OW24592   5.412   0.049   4.165
 7898SOL    HW124593   5.476   0.083   4.234
 7898SOL    HW224594   5.318   0.060   4.197
 7899SOL     OW24595   5.618   4.582   1.437
 7899SOL    HW124596   5.518   4.583   1.434
 7899SOL    HW224597   5.652   4.670   1.469
 7900SOL     OW24598   0.992   3.796   0.106
 7900SOL    HW124599   0.988   3.886   0.062
 7900SOL    HW224600   0.908   3.780   0.158
 7901SOL     OW24601   5.933   1.292   6.189
 7901SOL    HW124602   6.006   1.243   6.141
 7901SOL    HW224603   5.940   1.390   6.170
 7902SOL     OW24604   0.549   6.616   2.616
 7902SOL    HW124605   0.467   6.641   2.565
 7902SOL    HW224606   0.629   6.626   2.556
 7903SOL     OW24607   2.078   2.063   5.055
 7903SOL    HW124608   2.120   2.148   5.024
 7903SOL    HW224609   2.130   2.027   5.133
 7904SOL     OW24610   5.459   0.803   1.801
 7904SOL    HW124611   5.368   0.844   1.789
 7904SOL    HW224612   5.465   0.719   1.747
 7905SOL     OW24613   5.705   0.242   0.710
 7905SOL    HW124614   5.719   0.153   0.754
 7905SOL    HW224615   5.630   0.290   0.757
 7906SOL     OW24616   1.588   5.197   0.918
 7906SOL    HW124617   1.609   5.251   0.837
 7906SOL    HW224618   1.492   5.172   0.917
 7907SOL     OW24619   6.275   0.418   3.418
 7907SOL    HW124620   6.322   0.349   3.363
 7907SOL    HW224621   6.210   0.374   3.480
 7908SOL     OW24622   0.184   0.847   6.931
 7908SOL    HW124623   0.223   0.933   6.897
 7908SOL    HW224624   0.178   0.851   0.010
 7909SOL     OW24625   5.871   3.856   1.667
 7909SOL    HW124626   5.874   3.813   1.757
 7909SOL    HW224627   5.806   3.808   1.608
 7910SOL     OW24628   2.321   3.521   0.482
 7910SOL    HW124629   2.230   3.538   0.519
 7910SOL    HW224630   2.358   3.438   0.523
 7911SOL     OW24631   1.002   4.444   0.303
 7911SOL    HW124632   1.009   4.530   0.254
 7911SOL    HW224633   0.919   4.444   0.359
 7912SOL     OW24634   6.107   5.593   0.096
 7912SOL    HW124635   6.055   5.565   0.015
 7912SOL    HW224636   6.046   5.595   0.175
 7913SOL     OW24637   0.844   3.483   0.869
 7913SOL    HW124638   0.752   3.473   0.830
 7913SOL    HW224639   0.910   3.439   0.808
 7914SOL     OW24640   6.419   5.131   4.649
 7914SOL    HW124641   6.338   5.182   4.619
 7914SOL    HW224642   6.460   5.177   4.728
 7915SOL     OW24643   3.468   6.945   2.960
 7915SOL    HW124644   3.386   6.920   3.011
 7915SOL    HW224645   3.529   6.998   3.018
 7916SOL     OW24646   1.457   0.698   4.501
 7916SOL    HW124647   1.377   0.658   4.548
 7916SOL    HW224648   1.465   0.794   4.527
 7917SOL     OW24649   3.911   3.313   0.234
 7917SOL    HW124650   3.947   3.365   0.157
 7917SOL    HW224651   3.813   3.329   0.242
 7918SOL     OW24652   2.277   0.860   5.141
 7918SOL    HW124653   2.313   0.932   5.200
 7918SOL    HW224654   2.294   0.885   5.045
 7919SOL     OW24655   1.313   5.520   2.603
 7919SOL    HW124656   1.356   5.609   2.619
 7919SOL    HW224657   1.353   5.478   2.521
 7920SOL     OW24658   4.796   0.064   0.772
 7920SOL    HW124659   4.701   0.069   0.801
 7920SOL    HW224660   4.811   0.125   0.694
 7921SOL     OW24661   4.935   1.514   1.619
 7921SOL    HW124662   4.957   1.457   1.541
 7921SOL    HW224663   4.917   1.457   1.699
 7922SOL     OW24664   0.343   5.712   0.549
 7922SOL    HW124665   0.398   5.722   0.632
 7922SOL    HW224666   0.344   5.798   0.498
 7923SOL     OW24667   4.009   1.285   6.793
 7923SOL    HW124668   3.993   1.361   6.856
 7923SOL    HW224669   3.989   1.199   6.840
 7924SOL     OW24670   6.356   0.364   0.804
 7924SOL    HW124671   6.403   0.278   0.788
 7924SOL    HW224672   6.258   0.348   0.811
 7925SOL     OW24673   2.223   6.257   0.623
 7925SOL    HW124674   2.242   6.222   0.531
 7925SOL    HW224675   2.129   6.291   0.627
 7926SOL     OW24676   4.566   6.102   6.473
 7926SOL    HW124677   4.511   6.159   6.533
 7926SOL    HW224678   4.663   6.122   6.488
 7927SOL     OW24679   4.896   6.721   2.351
 7927SOL    HW124680   4.870   6.634   2.309
 7927SOL    HW224681   4.977   6.757   2.306
 7928SOL     OW24682   6.590   1.514   2.978
 7928SOL    HW124683   6.682   1.515   3.017
 7928SOL    HW224684   6.577   1.432   2.923
 7929SOL     OW24685   3.961   4.054   5.919
 7929SOL    HW124686   3.922   4.137   5.881
 7929SOL    HW224687   3.889   4.001   5.964
 7930SOL     OW24688   3.886   5.766   5.790
 7930SOL    HW124689   3.828   5.809   5.859
 7930SOL    HW224690   3.894   5.668   5.809
 7931SOL     OW24691   3.699   2.023   0.519
 7931SOL    HW124692   3.734   1.992   0.431
 7931SOL    HW224693   3.644   2.106   0.506
 7932SOL     OW24694   0.653   5.441   1.688
 7932SOL    HW124695   0.574   5.497   1.714
 7932SOL    HW224696   0.691   5.396   1.769
 7933SOL     OW24697   0.093   1.435   5.972
 7933SOL    HW124698   0.035   1.460   5.894
 7933SOL    HW224699   0.176   1.389   5.938
 7934SOL     OW24700   1.057   4.412   1.060
 7934SOL    HW124701   1.052   4.444   0.965
 7934SOL    HW224702   0.967   4.420   1.102
 7935SOL     OW24703   5.343   3.408   2.366
 7935SOL    HW124704   5.354   3.435   2.271
 7935SOL    HW224705   5.256   3.361   2.378
 7936SOL     OW24706   3.379   6.006   4.033
 7936SOL    HW124707   3.438   6.070   3.983
 7936SOL    HW224708   3.415   5.914   4.026
 7937SOL     OW24709   2.707   6.093   6.916
 7937SOL    HW124710   2.743   6.006   6.952
 7937SOL    HW224711   2.709   6.090   6.816
 7938SOL     OW24712   3.362   6.763   4.521
 7938SOL    HW124713   3.359   6.855   4.560
 7938SOL    HW224714   3.269   6.731   4.504
 7939SOL     OW24715   0.622   1.951   4.859
 7939SOL    HW124716   0.694   1.917   4.920
 7939SOL    HW224717   0.534   1.948   4.906
 7940SOL     OW24718   5.086   1.000   3.053
 7940SOL    HW124719   5.105   0.956   2.965
 7940SOL    HW224720   5.093   0.932   3.127
 7941SOL     OW24721   3.977   6.613   1.503
 7941SOL    HW124722   3.969   6.558   1.586
 7941SOL    HW224723   3.890   6.659   1.484
 7942SOL     OW24724   1.198   4.224   1.565
 7942SOL    HW124725   1.223   4.319   1.548
 7942SOL    HW224726   1.227   4.168   1.487
 7943SOL     OW24727   2.145   5.416   6.390
 7943SOL    HW124728   2.050   5.412   6.359
 7943SOL    HW224729   2.181   5.323   6.398
 7944SOL     OW24730   1.653   2.771   0.891
 7944SOL    HW124731   1.620   2.688   0.936
 7944SOL    HW224732   1.628   2.769   0.794
 7945SOL     OW24733   5.818   4.470   2.415
 7945SOL    HW124734   5.910   4.442   2.442
 7945SOL    HW224735   5.788   4.415   2.337
 7946SOL     OW24736   3.778   1.162   5.057
 7946SOL    HW124737   3.718   1.241   5.065
 7946SOL    HW224738   3.871   1.188   5.085
 7947SOL     OW24739   1.446   2.421   5.332
 7947SOL    HW124740   1.438   2.492   5.402
 7947SOL    HW224741   1.384   2.346   5.353
 7948SOL     OW24742   1.919   4.868   2.478
 7948SOL    HW124743   1.837   4.877   2.535
 7948SOL    HW224744   1.901   4.806   2.402
 7949SOL     OW24745   3.757   4.614   6.437
 7949SOL    HW124746   3.843   4.633   6.389
 7949SOL    HW224747   3.686   4.590   6.371
 7950SOL     OW24748   6.116   5.051   5.215
 7950SOL    HW124749   6.070   4.962   5.206
 7950SOL    HW224750   6.142   5.084   5.124
 7951SOL     OW24751   2.979   5.518   2.694
 7951SOL    HW124752   2.945   5.424   2.701
 7951SOL    HW224753   2.993   5.555   2.786
 7952SOL     OW24754   5.216   3.398   6.816
 7952SOL    HW124755   5.300   3.437   6.777
 7952SOL    HW224756   5.147   3.388   6.744
 7953SOL     OW24757   2.700   1.542   0.901
 7953SOL    HW124758   2.742   1.633   0.900
 7953SOL    HW224759   2.770   1.474   0.925
 7954SOL     OW24760   3.612   2.802   0.058
 7954SOL    HW124761   3.682   2.751   0.007
 7954SOL    HW224762   3.646   2.893   0.079
 7955SOL     OW24763   1.421   1.032   6.663
 7955SOL    HW124764   1.329   0.991   6.666
 7955SOL    HW224765   1.482   0.981   6.723
 7956SOL     OW24766   6.821   6.630   0.987
 7956SOL    HW124767   6.849   6.670   1.074
 7956SOL    HW224768   6.769   6.697   0.935
 7957SOL     OW24769   5.048   0.595   5.152
 7957SOL    HW124770   5.011   0.605   5.245
 7957SOL    HW224771   4.994   0.527   5.102
 7958SOL     OW24772   5.953   3.222   6.784
 7958SOL    HW124773   6.009   3.250   6.706
 7958SOL    HW224774   6.011   3.213   6.865
 7959SOL     OW24775   5.244   0.755   5.916
 7959SOL    HW124776   5.316   0.757   5.847
 7959SOL    HW224777   5.263   0.824   5.986
 7960SOL     OW24778   0.190   0.738   5.974
 7960SOL    HW124779   0.120   0.793   6.019
 7960SOL    HW224780   0.261   0.799   5.937
 7961SOL     OW24781   6.508   0.574   0.367
 7961SOL    HW124782   6.439   0.566   0.294
 7961SOL    HW224783   6.599   0.574   0.327
 7962SOL     OW24784   6.446   6.643   6.018
 7962SOL    HW124785   6.445   6.743   6.029
 7962SOL    HW224786   6.380   6.618   5.947
 7963SOL     OW24787   0.071   5.335   4.899
 7963SOL    HW124788   0.137   5.386   4.954
 7963SOL    HW224789   0.113   5.250   4.866
 7964SOL     OW24790   6.566   3.711   2.444
 7964SOL    HW124791   6.585   3.615   2.469
 7964SOL    HW224792   6.468   3.728   2.451
 7965SOL     OW24793   4.253   1.538   6.766
 7965SOL    HW124794   4.216   1.445   6.763
 7965SOL    HW224795   4.187   1.601   6.724
 7966SOL     OW24796   4.529   4.159   5.321
 7966SOL    HW124797   4.449   4.214   5.346
 7966SOL    HW224798   4.611   4.216   5.329
 7967SOL     OW24799   1.514   4.874   1.898
 7967SOL    HW124800   1.543   4.938   1.969
 7967SOL    HW224801   1.493   4.785   1.940
 7968SOL     OW24802   6.431   2.026   4.289
 7968SOL    HW124803   6.444   2.055   4.194
 7968SOL    HW224804   6.375   2.094   4.337
 7969SOL     OW24805   4.797   5.690   6.771
 7969SOL    HW124806   4.706   5.672   6.733
 7969SOL    HW224807   4.865   5.681   6.698
 7970SOL     OW24808   5.867   2.552   2.374
 7970SOL    HW124809   5.807   2.631   2.369
 7970SOL    HW224810   5.895   2.538   2.469
 7971SOL     OW24811   2.947   1.369   0.960
 7971SOL    HW124812   2.990   1.283   0.934
 7971SOL    HW224813   3.017   1.438   0.978
 7972SOL     OW24814   4.110   3.483   2.807
 7972SOL    HW124815   4.039   3.413   2.799
 7972SOL    HW224816   4.139   3.493   2.902
 7973SOL     OW24817   6.118   3.795   2.999
 7973SOL    HW124818   6.116   3.885   3.041
 7973SOL    HW224819   6.044   3.738   3.037
 7974SOL     OW24820   6.532   2.066   5.184
 7974SOL    HW124821   6.487   1.977   5.185
 7974SOL    HW224822   6.504   2.119   5.264
 7975SOL     OW24823   5.201   0.828   0.976
 7975SOL    HW124824   5.199   0.923   0.945
 7975SOL    HW224825   5.283   0.811   1.030
 7976SOL     OW24826   1.179   6.736   6.615
 7976SOL    HW124827   1.129   6.687   6.687
 7976SOL    HW224828   1.258   6.783   6.655
 7977SOL     OW24829   5.543   6.238   2.699
 7977SOL    HW124830   5.641   6.248   2.718
 7977SOL    HW224831   5.522   6.280   2.611
 7978SOL     OW24832   0.319   4.753   0.743
 7978SOL    HW124833   0.242   4.788   0.796
 7978SOL    HW224834   0.395   4.732   0.805
 7979SOL     OW24835   1.458   3.529   4.762
 7979SOL    HW124836   1.438   3.517   4.860
 7979SOL    HW224837   1.471   3.626   4.742
 7980SOL     OW24838   4.045   5.262   6.542
 7980SOL    HW124839   4.133   5.301   6.568
 7980SOL    HW224840   4.052   5.162   6.541
 7981SOL     OW24841   1.626   4.870   3.466
 7981SOL    HW124842   1.706   4.809   3.472
 7981SOL    HW224843   1.651   4.953   3.417
 7982SOL     OW24844   0.930   2.128   6.195
 7982SOL    HW124845   0.969   2.134   6.103
 7982SOL    HW224846   0.858   2.196   6.206
 7983SOL     OW24847   5.140   0.450   0.986
 7983SOL    HW124848   5.048   0.483   1.003
 7983SOL    HW224849   5.180   0.501   0.910
 7984SOL     OW24850   1.294   2.016   1.976
 7984SOL    HW124851   1.214   2.050   1.928
 7984SOL    HW224852   1.276   2.015   2.075
 7985SOL     OW24853   1.625   2.728   5.569
 7985SOL    HW124854   1.664   2.769   5.487
 7985SOL    HW224855   1.649   2.631   5.573
 7986SOL     OW24856   2.796   1.170   3.808
 7986SOL    HW124857   2.803   1.269   3.797
 7986SOL    HW224858   2.887   1.131   3.822
 7987SOL     OW24859   1.306   3.354   1.043
 7987SOL    HW124860   1.211   3.325   1.035
 7987SOL    HW224861   1.335   3.400   0.959
 7988SOL     OW24862   0.280   2.023   1.236
 7988SOL    HW124863   0.304   1.959   1.309
 7988SOL    HW224864   0.359   2.038   1.176
 7989SOL     OW24865   0.606   4.880   0.694
 7989SOL    HW124866   0.587   4.935   0.613
 7989SOL    HW224867   0.642   4.791   0.667
 7990SOL     OW24868   3.062   5.366   5.488
 7990SOL    HW124869   3.143   5.424   5.474
 7990SOL    HW224870   3.049   5.349   5.585
 7991SOL     OW24871   5.296   1.332   4.944
 7991SOL    HW124872   5.388   1.318   4.909
 7991SOL    HW224873   5.290   1.424   4.985
 7992SOL     OW24874   2.773   0.744   0.546
 7992SOL    HW124875   2.770   0.754   0.447
 7992SOL    HW224876   2.781   0.834   0.589
 7993SOL     OW24877   6.656   5.978   1.707
 7993SOL    HW124878   6.710   5.909   1.658
 7993SOL    HW224879   6.707   6.064   1.709
 7994SOL     OW24880   5.102   0.729   3.156
 7994SOL    HW124881   5.190   0.736   3.204
 7994SOL    HW224882   5.028   0.723   3.224
 7995SOL     OW24883   0.344   4.457   1.582
 7995SOL    HW124884   0.336   4.547   1.623
 7995SOL    HW224885   0.318   4.387   1.649
 7996SOL     OW24886   4.082   0.203   2.895
 7996SOL    HW124887   3.985   0.197   2.918
 7996SOL    HW224888   4.100   0.147   2.814
 7997SOL     OW24889   0.292   2.347   6.674
 7997SOL    HW124890   0.224   2.420   6.674
 7997SOL    HW224891   0.259   2.270   6.729
 7998SOL     OW24892   3.452   0.812   0.159
 7998SOL    HW124893   3.442   0.897   0.210
 7998SOL    HW224894   3.471   0.833   0.063
 7999SOL     OW24895   1.484   1.648   5.281
 7999SOL    HW124896   1.444   1.671   5.370
 7999SOL    HW224897   1.422   1.585   5.233
 8000SOL     OW24898   5.595   5.521   6.557
 8000SOL    HW124899   5.604   5.551   6.652
 8000SOL    HW224900   5.679   5.476   6.529
 8001SOL     OW24901   4.864   0.516   1.054
 8001SOL    HW124902   4.879   0.494   1.150
 8001SOL    HW224903   4.799   0.451   1.015
 8002SOL     OW24904   0.766   0.093   5.779
 8002SOL    HW124905   0.803   0.084   5.872
 8002SOL    HW224906   0.835   0.064   5.713
 8003SOL     OW24907   2.017   6.897   2.847
 8003SOL    HW124908   2.086   6.845   2.798
 8003SOL    HW224909   1.971   6.839   2.914
 8004SOL     OW24910   1.042   3.405   4.060
 8004SOL    HW124911   1.122   3.464   4.074
 8004SOL    HW224912   0.960   3.462   4.051
 8005SOL     OW24913   2.609   0.583   3.654
 8005SOL    HW124914   2.564   0.647   3.590
 8005SOL    HW224915   2.624   0.496   3.608
 8006SOL     OW24916   3.788   4.647   5.594
 8006SOL    HW124917   3.853   4.573   5.609
 8006SOL    HW224918   3.700   4.622   5.634
 8007SOL     OW24919   6.065   1.202   6.688
 8007SOL    HW124920   6.047   1.283   6.631
 8007SOL    HW224921   5.986   1.184   6.746
 8008SOL     OW24922   4.679   6.491   6.956
 8008SOL    HW124923   4.693   6.531   0.025
 8008SOL    HW224924   4.597   6.434   6.957
 8009SOL     OW24925   5.094   1.214   0.643
 8009SOL    HW124926   5.000   1.200   0.611
 8009SOL    HW224927   5.095   1.219   0.743
 8010SOL     OW24928   2.890   2.329   5.462
 8010SOL    HW124929   2.835   2.302   5.383
 8010SOL    HW224930   2.895   2.253   5.527
 8011SOL     OW24931   3.995   1.901   2.356
 8011SOL    HW124932   3.956   1.985   2.392
 8011SOL    HW224933   4.095   1.903   2.365
 8012SOL     OW24934   0.923   2.487   5.304
 8012SOL    HW124935   0.897   2.573   5.261
 8012SOL    HW224936   0.978   2.433   5.241
 8013SOL     OW24937   1.589   2.357   3.327
 8013SOL    HW124938   1.602   2.382   3.422
 8013SOL    HW224939   1.656   2.404   3.270
 8014SOL     OW24940   1.938   0.912   2.924
 8014SOL    HW124941   1.990   0.894   3.008
 8014SOL    HW224942   1.896   0.828   2.893
 8015SOL     OW24943   2.226   6.986   5.090
 8015SOL    HW124944   2.177   6.980   5.002
 8015SOL    HW224945   2.308   0.020   5.078
 8016SOL     OW24946   4.674   1.736   5.836
 8016SOL    HW124947   4.577   1.746   5.857
 8016SOL    HW224948   4.693   1.779   5.748
 8017SOL     OW24949   6.512   0.225   0.513
 8017SOL    HW124950   6.422   0.246   0.474
 8017SOL    HW224951   6.502   0.208   0.611
 8018SOL     OW24952   4.067   1.424   0.353
 8018SOL    HW124953   4.082   1.436   0.255
 8018SOL    HW224954   4.046   1.513   0.394
 8019SOL     OW24955   3.049   2.912   0.514
 8019SOL    HW124956   3.080   2.996   0.557
 8019SOL    HW224957   2.949   2.905   0.523
 8020SOL     OW24958   0.431   0.433   5.109
 8020SOL    HW124959   0.506   0.467   5.053
 8020SOL    HW224960   0.454   0.445   5.206
 8021SOL     OW24961   1.279   2.191   2.676
 8021SOL    HW124962   1.223   2.172   2.596
 8021SOL    HW224963   1.249   2.277   2.718
 8022SOL     OW24964   4.864   1.414   2.296
 8022SOL    HW124965   4.904   1.343   2.239
 8022SOL    HW224966   4.829   1.374   2.381
 8023SOL     OW24967   4.761   5.819   3.717
 8023SOL    HW124968   4.733   5.883   3.789
 8023SOL    HW224969   4.739   5.858   3.627
 8024SOL     OW24970   1.880   6.727   6.443
 8024SOL    HW124971   1.850   6.641   6.401
 8024SOL    HW224972   1.826   6.803   6.408
 8025SOL     OW24973   2.089   5.274   1.304
 8025SOL    HW124974   2.110   5.193   1.360
 8025SOL    HW224975   2.027   5.248   1.230
 8026SOL     OW24976   0.782   6.067   6.734
 8026SOL    HW124977   0.723   6.021   6.668
 8026SOL    HW224978   0.731   6.141   6.778
 8027SOL     OW24979   3.688   6.540   6.954
 8027SOL    HW124980   3.728   6.460   6.908
 8027SOL    HW224981   3.676   6.614   6.888
 8028SOL     OW24982   2.871   5.638   4.570
 8028SOL    HW124983   2.840   5.549   4.604
 8028SOL    HW224984   2.815   5.710   4.610
 8029SOL     OW24985   6.494   0.794   0.834
 8029SOL    HW124986   6.533   0.875   0.791
 8029SOL    HW224987   6.396   0.792   0.818
 8030SOL     OW24988   6.411   4.910   0.896
 8030SOL    HW124989   6.398   4.899   0.797
 8030SOL    HW224990   6.417   5.007   0.918
 8031SOL     OW24991   6.652   0.965   2.826
 8031SOL    HW124992   6.602   0.993   2.908
 8031SOL    HW224993   6.727   0.905   2.852
 8032SOL     OW24994   5.649   2.842   0.893
 8032SOL    HW124995   5.641   2.742   0.893
 8032SOL    HW224996   5.606   2.878   0.976
 8033SOL     OW24997   3.923   4.385   1.048
 8033SOL    HW124998   4.001   4.325   1.032
 8033SOL    HW224999   3.870   4.394   0.964
 8034SOL     OW25000   6.051   0.003   5.603
 8034SOL    HW125001   6.075   6.990   5.512
 8034SOL    HW225002   6.128   7.010   5.665
 8035SOL     OW25003   4.959   1.885   3.090
 8035SOL    HW125004   4.955   1.794   3.049
 8035SOL    HW225005   5.000   1.878   3.182
 8036SOL     OW25006   6.412   3.412   3.349
 8036SOL    HW125007   6.461   3.326   3.334
 8036SOL    HW225008   6.444   3.481   3.285
 8037SOL     OW25009   0.811   2.646   6.401
 8037SOL    HW125010   0.786   2.711   6.473
 8037SOL    HW225011   0.744   2.651   6.327
 8038SOL     OW25012   6.179   6.342   2.442
 8038SOL    HW125013   6.140   6.361   2.352
 8038SOL    HW225014   6.271   6.379   2.447
 8039SOL     OW25015   1.385   1.891   5.689
 8039SOL    HW125016   1.478   1.868   5.718
 8039SOL    HW225017   1.382   1.988   5.663
 8040SOL     OW25018   1.807   5.114   6.104
 8040SOL    HW125019   1.745   5.109   6.026
 8040SOL    HW225020   1.803   5.028   6.155
 8041SOL     OW25021   4.017   2.035   2.832
 8041SOL    HW125022   4.092   1.985   2.874
 8041SOL    HW225023   4.051   2.089   2.755
 8042SOL     OW25024   4.343   4.362   5.814
 8042SOL    HW125025   4.304   4.287   5.761
 8042SOL    HW225026   4.306   4.360   5.906
 8043SOL     OW25027   5.642   4.593   0.372
 8043SOL    HW125028   5.618   4.630   0.462
 8043SOL    HW225029   5.609   4.499   0.365
 8044SOL     OW25030   3.569   3.718   0.783
 8044SOL    HW125031   3.585   3.816   0.773
 8044SOL    HW225032   3.578   3.674   0.694
 8045SOL     OW25033   0.736   1.259   2.654
 8045SOL    HW125034   0.810   1.192   2.651
 8045SOL    HW225035   0.656   1.218   2.699
 8046SOL     OW25036   0.479   5.343   2.381
 8046SOL    HW125037   0.545   5.395   2.435
 8046SOL    HW225038   0.497   5.357   2.284
 8047SOL     OW25039   4.523   6.514   5.523
 8047SOL    HW125040   4.477   6.521   5.612
 8047SOL    HW225041   4.591   6.586   5.515
 8048SOL     OW25042   3.438   3.947   0.118
 8048SOL    HW125043   3.467   3.924   0.025
 8048SOL    HW225044   3.395   3.868   0.160
 8049SOL     OW25045   2.349   0.467   0.801
 8049SOL    HW125046   2.350   0.418   0.715
 8049SOL    HW225047   2.279   0.538   0.799
 8050SOL     OW25048   2.211   4.464   4.466
 8050SOL    HW125049   2.202   4.559   4.434
 8050SOL    HW225050   2.138   4.408   4.426
 8051SOL     OW25051   3.400   6.062   4.302
 8051SOL    HW125052   3.394   6.046   4.204
 8051SOL    HW225053   3.496   6.073   4.328
 8052SOL     OW25054   2.261   2.222   1.887
 8052SOL    HW125055   2.286   2.205   1.792
 8052SOL    HW225056   2.326   2.175   1.947
 8053SOL     OW25057   2.518   3.556   6.034
 8053SOL    HW125058   2.418   3.557   6.034
 8053SOL    HW225059   2.550   3.476   6.084
 8054SOL     OW25060   5.502   4.070   5.224
 8054SOL    HW125061   5.531   4.135   5.294
 8054SOL    HW225062   5.402   4.066   5.223
 8055SOL     OW25063   0.004   0.707   5.285
 8055SOL    HW125064   6.933   0.742   5.304
 8055SOL    HW225065   0.052   0.769   5.224
 8056SOL     OW25066   2.497   0.910   4.623
 8056SOL    HW125067   2.414   0.872   4.583
 8056SOL    HW225068   2.573   0.845   4.611
 8057SOL     OW25069   2.693   2.292   1.874
 8057SOL    HW125070   2.770   2.286   1.937
 8057SOL    HW225071   2.626   2.357   1.910
 8058SOL     OW25072   2.828   6.905   3.220
 8058SOL    HW125073   2.844   6.954   3.134
 8058SOL    HW225074   2.913   6.861   3.248
 8059SOL     OW25075   2.798   3.090   6.623
 8059SOL    HW125076   2.702   3.068   6.610
 8059SOL    HW225077   2.818   3.099   6.721
 8060SOL     OW25078   6.489   0.016   5.433
 8060SOL    HW125079   6.542   0.064   5.362
 8060SOL    HW225080   6.401   0.062   5.446
 8061SOL     OW25081   0.800   1.359   2.084
 8061SOL    HW125082   0.837   1.278   2.039
 8061SOL    HW225083   0.792   1.342   2.182
 8062SOL     OW25084   4.043   5.741   5.307
 8062SOL    HW125085   3.970   5.805   5.331
 8062SOL    HW225086   4.095   5.777   5.229
 8063SOL     OW25087   3.400   0.273   2.852
 8063SOL    HW125088   3.432   0.213   2.779
 8063SOL    HW225089   3.473   0.336   2.878
 8064SOL     OW25090   5.861   3.003   0.037
 8064SOL    HW125091   5.942   3.033   7.007
 8064SOL    HW225092   5.890   2.940   0.109
 8065SOL     OW25093   3.357   6.928   5.305
 8065SOL    HW125094   3.370   6.963   5.398
 8065SOL    HW225095   3.262   6.941   5.278
 8066SOL     OW25096   0.132   1.113   4.981
 8066SOL    HW125097   0.047   1.148   4.941
 8066SOL    HW225098   0.200   1.186   4.982
 8067SOL     OW25099   5.087   2.842   3.405
 8067SOL    HW125100   5.106   2.938   3.423
 8067SOL    HW225101   5.160   2.802   3.349
 8068SOL     OW25102   6.415   4.615   1.074
 8068SOL    HW125103   6.448   4.678   1.143
 8068SOL    HW225104   6.346   4.660   1.018
 8069SOL     OW25105   2.859   4.815   2.467
 8069SOL    HW125106   2.872   4.744   2.397
 8069SOL    HW225107   2.923   4.890   2.450
 8070SOL     OW25108   5.275   4.684   0.128
 8070SOL    HW125109   5.336   4.756   0.161
 8070SOL    HW225110   5.270   4.611   0.197
 8071SOL     OW25111   3.779   6.458   6.128
 8071SOL    HW125112   3.691   6.498   6.153
 8071SOL    HW225113   3.809   6.496   6.040
 8072SOL     OW25114   1.710   2.967   6.684
 8072SOL    HW125115   1.648   3.011   6.618
 8072SOL    HW225116   1.794   3.021   6.692
 8073SOL     OW25117   3.907   0.368   6.807
 8073SOL    HW125118   3.893   0.276   6.843
 8073SOL    HW225119   3.919   0.364   6.708
 8074SOL     OW25120   1.771   1.802   0.231
 8074SOL    HW125121   1.678   1.833   0.209
 8074SOL    HW225122   1.800   1.734   0.163
 8075SOL     OW25123   0.080   6.060   6.988
 8075SOL    HW125124   0.014   6.025   0.033
 8075SOL    HW225125   0.154   6.108   0.015
 8076SOL     OW25126   6.475   0.135   6.873
 8076SOL    HW125127   6.461   0.038   6.894
 8076SOL    HW225128   6.553   0.145   6.811
 8077SOL     OW25129   4.323   5.591   1.266
 8077SOL    HW125130   4.259   5.558   1.196
 8077SOL    HW225131   4.401   5.528   1.272
 8078SOL     OW25132   0.855   0.858   0.763
 8078SOL    HW125133   0.792   0.932   0.740
 8078SOL    HW225134   0.874   0.804   0.681
 8079SOL     OW25135   1.563   1.267   4.915
 8079SOL    HW125136   1.504   1.293   4.839
 8079SOL    HW225137   1.659   1.278   4.888
 8080SOL     OW25138   1.273   3.517   2.748
 8080SOL    HW125139   1.187   3.506   2.699
 8080SOL    HW225140   1.256   3.552   2.840
 8081SOL     OW25141   5.912   4.841   4.721
 8081SOL    HW125142   5.895   4.774   4.649
 8081SOL    HW225143   5.882   4.932   4.691
 8082SOL     OW25144   3.183   1.902   2.697
 8082SOL    HW125145   3.199   1.901   2.598
 8082SOL    HW225146   3.193   1.996   2.731
 8083SOL     OW25147   5.868   2.159   4.841
 8083SOL    HW125148   5.775   2.149   4.878
 8083SOL    HW225149   5.934   2.141   4.914
 8084SOL     OW25150   2.491   0.167   6.332
 8084SOL    HW125151   2.520   0.074   6.313
 8084SOL    HW225152   2.401   0.184   6.290
 8085SOL     OW25153   0.531   5.668   3.812
 8085SOL    HW125154   0.478   5.747   3.781
 8085SOL    HW225155   0.611   5.657   3.752
 8086SOL     OW25156   0.489   1.113   2.358
 8086SOL    HW125157   0.425   1.166   2.304
 8086SOL    HW225158   0.581   1.151   2.349
 8087SOL     OW25159   1.509   0.534   0.008
 8087SOL    HW125160   1.409   0.528   0.008
 8087SOL    HW225161   1.538   0.612   6.974
 8088SOL     OW25162   4.894   6.608   6.014
 8088SOL    HW125163   4.952   6.542   6.063
 8088SOL    HW225164   4.888   6.583   5.918
 8089SOL     OW25165   5.930   2.556   6.335
 8089SOL    HW125166   5.831   2.544   6.331
 8089SOL    HW225167   5.973   2.473   6.370
 8090SOL     OW25168   4.351   1.396   6.470
 8090SOL    HW125169   4.443   1.435   6.477
 8090SOL    HW225170   4.311   1.388   6.561
 8091SOL     OW25171   1.242   4.205   5.045
 8091SOL    HW125172   1.158   4.164   5.082
 8091SOL    HW225173   1.297   4.240   5.121
 8092SOL     OW25174   4.927   2.010   5.495
 8092SOL    HW125175   4.926   2.109   5.513
 8092SOL    HW225176   4.929   1.994   5.397
 8093SOL     OW25177   2.690   6.340   2.579
 8093SOL    HW125178   2.688   6.435   2.609
 8093SOL    HW225179   2.596   6.304   2.576
 8094SOL     OW25180   1.270   4.266   4.075
 8094SOL    HW125181   1.352   4.320   4.059
 8094SOL    HW225182   1.203   4.284   4.003
 8095SOL     OW25183   1.404   4.462   5.424
 8095SOL    HW125184   1.484   4.522   5.423
 8095SOL    HW225185   1.347   4.484   5.502
 8096SOL     OW25186   0.811   6.776   2.377
 8096SOL    HW125187   0.816   6.751   2.280
 8096SOL    HW225188   0.850   6.703   2.433
 8097SOL     OW25189   2.914   6.536   4.980
 8097SOL    HW125190   2.891   6.450   5.026
 8097SOL    HW225191   3.008   6.562   5.002
 8098SOL     OW25192   1.284   5.652   3.684
 8098SOL    HW125193   1.255   5.708   3.761
 8098SOL    HW225194   1.225   5.571   3.678
 8099SOL     OW25195   3.423   5.736   4.103
 8099SOL    HW125196   3.465   5.750   4.193
 8099SOL    HW225197   3.465   5.656   4.060
 8100SOL     OW25198   6.386   0.894   6.333
 8100SOL    HW125199   6.376   0.853   6.243
 8100SOL    HW225200   6.297   0.928   6.364
 8101SOL     OW25201   1.319   6.125   1.312
 8101SOL    HW125202   1.400   6.181   1.294
 8101SOL    HW225203   1.273   6.158   1.394
 8102SOL     OW25204   1.045   3.080   4.599
 8102SOL    HW125205   1.007   3.161   4.554
 8102SOL    HW225206   1.141   3.098   4.623
 8103SOL     OW25207   3.826   1.320   2.505
 8103SOL    HW125208   3.787   1.380   2.574
 8103SOL    HW225209   3.781   1.231   2.509
 8104SOL     OW25210   2.036   6.527   6.235
 8104SOL    HW125211   2.012   6.603   6.175
 8104SOL    HW225212   2.118   6.549   6.287
 8105SOL     OW25213   6.441   1.847   2.847
 8105SOL    HW125214   6.463   1.865   2.942
 8105SOL    HW225215   6.454   1.930   2.792
 8106SOL     OW25216   2.086   6.050   4.470
 8106SOL    HW125217   2.146   5.971   4.482
 8106SOL    HW225218   2.092   6.110   4.550
 8107SOL     OW25219   2.147   5.382   4.819
 8107SOL    HW125220   2.147   5.309   4.887
 8107SOL    HW225221   2.095   5.353   4.739
 8108SOL     OW25222   0.239   0.722   6.357
 8108SOL    HW125223   0.246   0.654   6.284
 8108SOL    HW225224   0.294   0.802   6.335
 8109SOL     OW25225   6.563   3.689   6.520
 8109SOL    HW125226   6.626   3.672   6.444
 8109SOL    HW225227   6.579   3.780   6.556
 8110SOL     OW25228   4.736   4.875   0.898
 8110SOL    HW125229   4.810   4.910   0.956
 8110SOL    HW225230   4.685   4.951   0.859
 8111SOL     OW25231   5.764   0.959   3.586
 8111SOL    HW125232   5.761   0.888   3.516
 8111SOL    HW225233   5.859   0.974   3.615
 8112SOL     OW25234   0.556   2.682   5.205
 8112SOL    HW125235   0.528   2.615   5.137
 8112SOL    HW225236   0.565   2.772   5.162
 8113SOL     OW25237   6.212   2.974   1.060
 8113SOL    HW125238   6.116   2.956   1.084
 8113SOL    HW225239   6.220   3.066   1.023
 8114SOL     OW25240   1.676   4.264   1.854
 8114SOL    HW125241   1.611   4.317   1.800
 8114SOL    HW225242   1.762   4.254   1.803
 8115SOL     OW25243   3.102   6.942   0.209
 8115SOL    HW125244   3.190   6.966   0.249
 8115SOL    HW225245   3.034   6.933   0.281
 8116SOL     OW25246   3.244   5.286   0.946
 8116SOL    HW125247   3.328   5.252   0.903
 8116SOL    HW225248   3.186   5.330   0.877
 8117SOL     OW25249   2.368   0.146   3.014
 8117SOL    HW125250   2.389   0.243   3.000
 8117SOL    HW225251   2.404   0.093   2.938
 8118SOL     OW25252   6.074   3.537   6.573
 8118SOL    HW125253   6.092   3.570   6.666
 8118SOL    HW225254   6.159   3.501   6.534
 8119SOL     OW25255   5.572   5.456   5.245
 8119SOL    HW125256   5.478   5.422   5.240
 8119SOL    HW225257   5.613   5.429   5.331
 8120SOL     OW25258   2.213   5.516   0.520
 8120SOL    HW125259   2.201   5.609   0.485
 8120SOL    HW225260   2.311   5.493   0.521
 8121SOL     OW25261   1.177   4.609   2.784
 8121SOL    HW125262   1.099   4.672   2.791
 8121SOL    HW225263   1.171   4.559   2.698
 8122SOL     OW25264   0.962   4.801   2.699
 8122SOL    HW125265   1.047   4.810   2.647
 8122SOL    HW225266   0.954   4.877   2.764
 8123SOL     OW25267   0.192   2.119   6.843
 8123SOL    HW125268   0.234   2.033   6.873
 8123SOL    HW225269   0.167   2.173   6.923
 8124SOL     OW25270   5.012   5.962   3.747
 8124SOL    HW125271   5.109   5.937   3.752
 8124SOL    HW225272   4.969   5.910   3.673
 8125SOL     OW25273   0.385   0.816   3.008
 8125SOL    HW125274   0.442   0.880   3.060
 8125SOL    HW225275   0.321   0.770   3.070
 8126SOL     OW25276   3.954   5.135   4.089
 8126SOL    HW125277   3.972   5.199   4.015
 8126SOL    HW225278   3.861   5.149   4.124
 8127SOL     OW25279   2.531   2.531   0.452
 8127SOL    HW125280   2.542   2.448   0.506
 8127SOL    HW225281   2.466   2.592   0.496
 8128SOL     OW25282   3.482   2.893   1.851
 8128SOL    HW125283   3.507   2.887   1.754
 8128SOL    HW225284   3.383   2.891   1.860
 8129SOL     OW25285   0.886   2.287   0.262
 8129SOL    HW125286   0.916   2.198   0.226
 8129SOL    HW225287   0.941   2.311   0.342
 8130SOL     OW25288   1.315   5.328   0.307
 8130SOL    HW125289   1.387   5.350   0.240
 8130SOL    HW225290   1.238   5.389   0.294
 8131SOL     OW25291   2.148   2.747   0.777
 8131SOL    HW125292   2.092   2.668   0.804
 8131SOL    HW225293   2.110   2.830   0.816
 8132SOL     OW25294   6.220   0.089   3.816
 8132SOL    HW125295   6.265   0.032   3.886
 8132SOL    HW225296   6.228   0.044   3.727
 8133SOL     OW25297   3.607   5.175   1.158
 8133SOL    HW125298   3.543   5.150   1.231
 8133SOL    HW225299   3.674   5.102   1.146
 8134SOL     OW25300   6.287   0.899   5.676
 8134SOL    HW125301   6.193   0.922   5.698
 8134SOL    HW225302   6.300   0.800   5.682
 8135SOL     OW25303   2.795   0.130   2.075
 8135SOL    HW125304   2.794   0.220   2.031
 8135SOL    HW225305   2.819   0.060   2.008
 8136SOL     OW25306   4.785   5.086   2.459
 8136SOL    HW125307   4.716   5.119   2.394
 8136SOL    HW225308   4.872   5.132   2.439
 8137SOL     OW25309   3.702   1.818   5.389
 8137SOL    HW125310   3.661   1.908   5.406
 8137SOL    HW225311   3.629   1.750   5.376
 8138SOL     OW25312   5.254   1.294   1.783
 8138SOL    HW125313   5.174   1.258   1.830
 8138SOL    HW225314   5.327   1.226   1.783
 8139SOL     OW25315   1.380   1.440   2.553
 8139SOL    HW125316   1.376   1.536   2.580
 8139SOL    HW225317   1.443   1.429   2.477
 8140SOL     OW25318   4.619   1.301   4.513
 8140SOL    HW125319   4.542   1.291   4.450
 8140SOL    HW225320   4.586   1.339   4.599
 8141SOL     OW25321   4.109   5.636   5.544
 8141SOL    HW125322   4.084   5.539   5.554
 8141SOL    HW225323   4.069   5.673   5.460
 8142SOL     OW25324   6.001   4.536   0.590
 8142SOL    HW125325   6.082   4.498   0.637
 8142SOL    HW225326   6.031   4.596   0.516
 8143SOL     OW25327   6.023   4.373   6.315
 8143SOL    HW125328   6.029   4.461   6.362
 8143SOL    HW225329   5.957   4.380   6.239
 8144SOL     OW25330   5.473   6.746   6.872
 8144SOL    HW125331   5.459   6.698   6.785
 8144SOL    HW225332   5.569   6.770   6.882
 8145SOL     OW25333   5.919   5.894   3.189
 8145SOL    HW125334   5.953   5.871   3.099
 8145SOL    HW225335   5.829   5.939   3.181
 8146SOL     OW25336   4.065   0.857   5.567
 8146SOL    HW125337   4.106   0.947   5.556
 8146SOL    HW225338   4.077   0.805   5.483
 8147SOL     OW25339   4.528   1.870   4.126
 8147SOL    HW125340   4.545   1.824   4.213
 8147SOL    HW225341   4.614   1.906   4.090
 8148SOL     OW25342   5.528   2.747   2.558
 8148SOL    HW125343   5.471   2.673   2.522
 8148SOL    HW225344   5.474   2.800   2.624
 8149SOL     OW25345   3.902   5.096   2.645
 8149SOL    HW125346   3.893   5.148   2.560
 8149SOL    HW225347   3.932   5.157   2.718
 8150SOL     OW25348   0.439   5.323   0.565
 8150SOL    HW125349   0.447   5.267   0.648
 8150SOL    HW225350   0.499   5.402   0.573
 8151SOL     OW25351   1.380   2.258   4.074
 8151SOL    HW125352   1.313   2.278   4.002
 8151SOL    HW225353   1.392   2.338   4.132
 8152SOL     OW25354   2.231   0.616   3.660
 8152SOL    HW125355   2.245   0.677   3.581
 8152SOL    HW225356   2.134   0.613   3.683
 8153SOL     OW25357   2.814   0.218   1.392
 8153SOL    HW125358   2.869   0.297   1.364
 8153SOL    HW225359   2.722   0.226   1.352
 8154SOL     OW25360   2.184   6.489   4.065
 8154SOL    HW125361   2.108   6.425   4.074
 8154SOL    HW225362   2.152   6.575   4.028
 8155SOL     OW25363   3.049   3.083   2.447
 8155SOL    HW125364   3.050   3.016   2.373
 8155SOL    HW225365   3.086   3.040   2.530
 8156SOL     OW25366   5.809   0.818   5.125
 8156SOL    HW125367   5.739   0.873   5.171
 8156SOL    HW225368   5.899   0.858   5.142
 8157SOL     OW25369   5.857   3.999   6.471
 8157SOL    HW125370   5.928   4.065   6.494
 8157SOL    HW225371   5.820   3.960   6.555
 8158SOL     OW25372   0.942   5.667   1.311
 8158SOL    HW125373   0.899   5.742   1.262
 8158SOL    HW225374   0.935   5.683   1.410
 8159SOL     OW25375   2.192   5.185   1.906
 8159SOL    HW125376   2.228   5.276   1.927
 8159SOL    HW225377   2.226   5.157   1.816
 8160SOL     OW25378   4.255   2.441   0.893
 8160SOL    HW125379   4.330   2.407   0.949
 8160SOL    HW225380   4.167   2.415   0.934
 8161SOL     OW25381   4.834   1.296   0.356
 8161SOL    HW125382   4.735   1.310   0.347
 8161SOL    HW225383   4.876   1.379   0.392
 8162SOL     OW25384   5.756   6.666   0.834
 8162SOL    HW125385   5.778   6.617   0.750
 8162SOL    HW225386   5.841   6.691   0.881
 8163SOL     OW25387   2.483   4.355   5.227
 8163SOL    HW125388   2.515   4.272   5.273
 8163SOL    HW225389   2.553   4.426   5.233
 8164SOL     OW25390   4.499   2.528   1.176
 8164SOL    HW125391   4.571   2.562   1.236
 8164SOL    HW225392   4.473   2.436   1.203
 8165SOL     OW25393   2.130   4.195   1.473
 8165SOL    HW125394   2.113   4.286   1.436
 8165SOL    HW225395   2.045   4.143   1.477
 8166SOL     OW25396   2.667   0.771   1.919
 8166SOL    HW125397   2.686   0.678   1.887
 8166SOL    HW225398   2.592   0.769   1.984
 8167SOL     OW25399   6.185   2.905   3.654
 8167SOL    HW125400   6.114   2.835   3.653
 8167SOL    HW225401   6.194   2.943   3.562
 8168SOL     OW25402   3.828   1.684   3.049
 8168SOL    HW125403   3.777   1.674   3.134
 8168SOL    HW225404   3.824   1.599   2.997
 8169SOL     OW25405   4.075   3.762   6.958
 8169SOL    HW125406   4.150   3.703   6.929
 8169SOL    HW225407   3.988   3.716   6.941
 8170SOL     OW25408   0.716   5.874   4.179
 8170SOL    HW125409   0.791   5.857   4.115
 8170SOL    HW225410   0.639   5.916   4.131
 8171SOL     OW25411   0.391   1.840   6.550
 8171SOL    HW125412   0.482   1.834   6.509
 8171SOL    HW225413   0.371   1.936   6.571
 8172SOL     OW25414   0.320   6.906   0.145
 8172SOL    HW125415   0.333   6.904   0.244
 8172SOL    HW225416   0.322   7.001   0.113
 8173SOL     OW25417   3.212   2.626   7.001
 8173SOL    HW125418   3.305   2.602   0.007
 8173SOL    HW225419   3.204   2.619   6.901
 8174SOL     OW25420   5.421   1.064   1.414
 8174SOL    HW125421   5.446   1.060   1.317
 8174SOL    HW225422   5.502   1.048   1.470
 8175SOL     OW25423   0.837   1.867   6.536
 8175SOL    HW125424   0.813   1.836   6.444
 8175SOL    HW225425   0.801   1.959   6.551
 8176SOL     OW25426   2.517   5.346   1.896
 8176SOL    HW125427   2.559   5.281   1.832
 8176SOL    HW225428   2.588   5.395   1.946
 8177SOL     OW25429   0.906   6.925   4.353
 8177SOL    HW125430   0.903   6.958   4.447
 8177SOL    HW225431   0.833   6.857   4.340
 8178SOL     OW25432   1.351   6.450   6.794
 8178SOL    HW125433   1.397   6.362   6.804
 8178SOL    HW225434   1.357   6.502   6.879
 8179SOL     OW25435   3.180   2.906   6.835
 8179SOL    HW125436   3.195   2.980   6.771
 8179SOL    HW225437   3.248   2.910   6.908
 8180SOL     OW25438   6.502   6.913   4.336
 8180SOL    HW125439   6.419   6.863   4.357
 8180SOL    HW225440   6.497   7.005   4.376
 8181SOL     OW25441   2.552   2.374   3.209
 8181SOL    HW125442   2.501   2.433   3.272
 8181SOL    HW225443   2.635   2.340   3.255
 8182SOL     OW25444   3.617   2.284   5.579
 8182SOL    HW125445   3.678   2.274   5.658
 8182SOL    HW225446   3.651   2.356   5.519
 8183SOL     OW25447   1.454   3.810   4.713
 8183SOL    HW125448   1.472   3.848   4.623
 8183SOL    HW225449   1.365   3.841   4.746
 8184SOL     OW25450   0.196   0.247   5.429
 8184SOL    HW125451   0.155   0.265   5.519
 8184SOL    HW225452   0.126   0.213   5.366
 8185SOL     OW25453   3.242   1.714   2.194
 8185SOL    HW125454   3.242   1.794   2.133
 8185SOL    HW225455   3.162   1.718   2.254
 8186SOL     OW25456   3.994   5.841   6.051
 8186SOL    HW125457   4.082   5.885   6.030
 8186SOL    HW225458   3.922   5.885   5.998
 8187SOL     OW25459   1.374   2.168   5.683
 8187SOL    HW125460   1.315   2.246   5.706
 8187SOL    HW225461   1.463   2.202   5.653
 8188SOL     OW25462   6.039   2.554   3.064
 8188SOL    HW125463   6.122   2.499   3.069
 8188SOL    HW225464   6.007   2.556   2.969
 8189SOL     OW25465   6.233   4.300   2.756
 8189SOL    HW125466   6.179   4.307   2.839
 8189SOL    HW225467   6.266   4.206   2.746
 8190SOL     OW25468   5.299   3.356   3.806
 8190SOL    HW125469   5.394   3.343   3.834
 8190SOL    HW225470   5.238   3.315   3.874
 8191SOL     OW25471   0.782   5.367   4.317
 8191SOL    HW125472   0.718   5.423   4.265
 8191SOL    HW225473   0.804   5.284   4.265
 8192SOL     OW25474   2.462   4.891   2.247
 8192SOL    HW125475   2.500   4.891   2.339
 8192SOL    HW225476   2.430   4.983   2.224
 8193SOL     OW25477   3.924   6.754   5.305
 8193SOL    HW125478   3.882   6.827   5.252
 8193SOL    HW225479   4.005   6.720   5.257
 8194SOL     OW25480   6.746   0.805   0.015
 8194SOL    HW125481   6.799   0.879   6.995
 8194SOL    HW225482   6.808   0.734   0.048
 8195SOL     OW25483   6.628   0.075   0.124
 8195SOL    HW125484   6.726   0.062   0.106
 8195SOL    HW225485   6.578   0.080   0.038
 8196SOL     OW25486   3.259   6.642   6.300
 8196SOL    HW125487   3.238   6.601   6.212
 8196SOL    HW225488   3.319   6.721   6.287
 8197SOL     OW25489   0.358   0.547   6.102
 8197SOL    HW125490   0.332   0.624   6.044
 8197SOL    HW225491   0.288   0.476   6.096
 8198SOL     OW25492   2.437   6.948   3.285
 8198SOL    HW125493   2.517   7.003   3.307
 8198SOL    HW225494   2.376   6.945   3.364
 8199SOL     OW25495   6.982   3.491   6.637
 8199SOL    HW125496   0.016   3.457   6.713
 8199SOL    HW225497   0.010   3.477   6.551
 8200SOL     OW25498   5.193   4.280   0.974
 8200SOL    HW125499   5.241   4.227   1.044
 8200SOL    HW225500   5.248   4.283   0.891
 8201SOL     OW25501   5.767   6.944   3.390
 8201SOL    HW125502   5.686   6.986   3.431
 8201SOL    HW225503   5.812   7.011   3.331
 8202SOL     OW25504   1.582   4.176   4.116
 8202SOL    HW125505   1.561   4.130   4.029
 8202SOL    HW225506   1.648   4.122   4.167
 8203SOL     OW25507   5.629   3.972   1.114
 8203SOL    HW125508   5.578   3.985   1.199
 8203SOL    HW225509   5.570   3.929   1.047
 8204SOL     OW25510   3.161   0.416   2.025
 8204SOL    HW125511   3.196   0.483   2.090
 8204SOL    HW225512   3.153   0.459   1.935
 8205SOL     OW25513   5.526   5.624   1.496
 8205SOL    HW125514   5.488   5.541   1.454
 8205SOL    HW225515   5.625   5.613   1.507
 8206SOL     OW25516   4.191   2.021   5.214
 8206SOL    HW125517   4.221   1.928   5.192
 8206SOL    HW225518   4.110   2.017   5.273
 8207SOL     OW25519   2.746   5.527   6.465
 8207SOL    HW125520   2.763   5.579   6.382
 8207SOL    HW225521   2.813   5.453   6.473
 8208SOL     OW25522   1.170   4.370   0.762
 8208SOL    HW125523   1.248   4.381   0.824
 8208SOL    HW225524   1.180   4.434   0.686
 8209SOL     OW25525   0.754   0.205   5.266
 8209SOL    HW125526   0.741   0.159   5.179
 8209SOL    HW225527   0.679   0.182   5.328
 8210SOL     OW25528   2.479   1.076   0.023
 8210SOL    HW125529   2.448   1.164   0.060
 8210SOL    HW225530   2.565   1.090   6.995
 8211SOL     OW25531   3.358   2.928   4.380
 8211SOL    HW125532   3.456   2.911   4.390
 8211SOL    HW225533   3.313   2.913   4.468
 8212SOL     OW25534   3.443   0.303   1.317
 8212SOL    HW125535   3.347   0.331   1.312
 8212SOL    HW225536   3.459   0.226   1.256
 8213SOL     OW25537   4.590   3.942   1.703
 8213SOL    HW125538   4.684   3.919   1.730
 8213SOL    HW225539   4.564   4.029   1.744
 8214SOL     OW25540   3.785   5.813   4.341
 8214SOL    HW125541   3.795   5.774   4.249
 8214SOL    HW225542   3.733   5.749   4.398
 8215SOL     OW25543   4.494   6.473   6.638
 8215SOL    HW125544   4.419   6.525   6.679
 8215SOL    HW225545   4.573   6.475   6.700
 8216SOL     OW25546   5.347   5.406   1.423
 8216SOL    HW125547   5.264   5.416   1.478
 8216SOL    HW225548   5.339   5.324   1.366
 8217SOL     OW25549   2.157   6.011   3.620
 8217SOL    HW125550   2.094   6.030   3.545
 8217SOL    HW225551   2.170   6.095   3.673
 8218SOL     OW25552   1.556   0.087   5.208
 8218SOL    HW125553   1.524   0.124   5.121
 8218SOL    HW225554   1.522   0.143   5.283
 8219SOL     OW25555   3.843   3.862   1.281
 8219SOL    HW125556   3.868   3.850   1.185
 8219SOL    HW225557   3.913   3.821   1.339
 8220SOL     OW25558   4.127   3.617   4.020
 8220SOL    HW125559   4.045   3.604   3.964
 8220SOL    HW225560   4.192   3.544   4.001
 8221SOL     OW25561   5.581   3.235   3.241
 8221SOL    HW125562   5.513   3.262   3.174
 8221SOL    HW225563   5.535   3.199   3.322
 8222SOL     OW25564   6.352   2.881   0.666
 8222SOL    HW125565   6.337   2.835   0.754
 8222SOL    HW225566   6.301   2.967   0.665
 8223SOL     OW25567   0.705   5.769   5.350
 8223SOL    HW125568   0.789   5.714   5.342
 8223SOL    HW225569   0.698   5.805   5.443
 8224SOL     OW25570   5.521   1.984   0.516
 8224SOL    HW125571   5.464   2.065   0.526
 8224SOL    HW225572   5.474   1.916   0.460
 8225SOL     OW25573   5.030   1.645   0.658
 8225SOL    HW125574   4.952   1.671   0.716
 8225SOL    HW225575   4.997   1.607   0.572
 8226SOL     OW25576   4.009   0.278   0.407
 8226SOL    HW125577   3.943   0.281   0.482
 8226SOL    HW225578   4.084   0.218   0.431
 8227SOL     OW25579   4.839   2.123   3.054
 8227SOL    HW125580   4.761   2.140   3.114
 8227SOL    HW225581   4.877   2.033   3.074
 8228SOL     OW25582   1.677   0.308   5.442
 8228SOL    HW125583   1.709   0.386   5.495
 8228SOL    HW225584   1.720   0.225   5.476
 8229SOL     OW25585   4.646   4.467   1.285
 8229SOL    HW125586   4.610   4.547   1.237
 8229SOL    HW225587   4.671   4.397   1.218
 8230SOL     OW25588   5.595   0.264   5.803
 8230SOL    HW125589   5.683   0.237   5.764
 8230SOL    HW225590   5.543   0.315   5.735
 8231SOL     OW25591   2.807   1.232   2.957
 8231SOL    HW125592   2.711   1.255   2.939
 8231SOL    HW225593   2.864   1.314   2.949
 8232SOL     OW25594   3.731   6.449   2.720
 8232SOL    HW125595   3.665   6.497   2.664
 8232SOL    HW225596   3.762   6.366   2.673
 8233SOL     OW25597   1.091   1.000   5.976
 8233SOL    HW125598   1.057   0.906   5.981
 8233SOL    HW225599   1.017   1.060   5.945
 8234SOL     OW25600   1.772   1.670   0.657
 8234SOL    HW125601   1.699   1.638   0.718
 8234SOL    HW225602   1.860   1.664   0.704
 8235SOL     OW25603   0.485   5.717   0.794
 8235SOL    HW125604   0.412   5.715   0.863
 8235SOL    HW225605   0.569   5.681   0.835
 8236SOL     OW25606   0.739   6.185   0.615
 8236SOL    HW125607   0.765   6.138   0.531
 8236SOL    HW225608   0.768   6.280   0.611
 8237SOL     OW25609   4.491   4.704   6.725
 8237SOL    HW125610   4.528   4.786   6.680
 8237SOL    HW225611   4.485   4.720   6.823
 8238SOL     OW25612   0.686   4.154   0.070
 8238SOL    HW125613   0.627   4.092   0.121
 8238SOL    HW225614   0.632   4.231   0.035
 8239SOL     OW25615   1.567   1.247   5.401
 8239SOL    HW125616   1.558   1.338   5.441
 8239SOL    HW225617   1.540   1.178   5.468
 8240SOL     OW25618   3.548   3.758   4.501
 8240SOL    HW125619   3.584   3.850   4.489
 8240SOL    HW225620   3.450   3.762   4.519
 8241SOL     OW25621   2.386   4.071   5.894
 8241SOL    HW125622   2.472   4.121   5.889
 8241SOL    HW225623   2.403   3.974   5.875
 8242SOL     OW25624   0.495   3.606   3.872
 8242SOL    HW125625   0.563   3.661   3.824
 8242SOL    HW225626   0.537   3.561   3.950
 8243SOL     OW25627   0.501   4.702   4.707
 8243SOL    HW125628   0.575   4.652   4.662
 8243SOL    HW225629   0.500   4.680   4.805
 8244SOL     OW25630   1.374   0.366   4.693
 8244SOL    HW125631   1.350   0.337   4.601
 8244SOL    HW225632   1.321   0.314   4.759
 8245SOL     OW25633   5.306   1.747   4.000
 8245SOL    HW125634   5.321   1.706   3.910
 8245SOL    HW225635   5.383   1.724   4.060
 8246SOL     OW25636   1.999   5.102   6.333
 8246SOL    HW125637   1.945   5.142   6.260
 8246SOL    HW225638   2.092   5.085   6.300
 8247SOL     OW25639   3.016   5.437   3.030
 8247SOL    HW125640   2.928   5.451   3.077
 8247SOL    HW225641   3.059   5.353   3.064
 8248SOL     OW25642   0.094   5.254   3.099
 8248SOL    HW125643   0.183   5.214   3.122
 8248SOL    HW225644   0.093   5.280   3.003
 8249SOL     OW25645   3.138   1.685   6.289
 8249SOL    HW125646   3.068   1.664   6.358
 8249SOL    HW225647   3.119   1.633   6.206
 8250SOL     OW25648   1.521   1.303   6.662
 8250SOL    HW125649   1.446   1.360   6.697
 8250SOL    HW225650   1.522   1.216   6.712
 8251SOL     OW25651   0.376   1.851   4.677
 8251SOL    HW125652   0.414   1.889   4.762
 8251SOL    HW225653   0.433   1.776   4.645
 8252SOL     OW25654   1.173   2.137   6.711
 8252SOL    HW125655   1.178   2.218   6.653
 8252SOL    HW225656   1.097   2.080   6.682
 8253SOL     OW25657   4.621   6.181   0.998
 8253SOL    HW125658   4.581   6.131   0.921
 8253SOL    HW225659   4.700   6.234   0.967
 8254SOL     OW25660   4.955   5.014   6.936
 8254SOL    HW125661   4.999   4.955   7.003
 8254SOL    HW225662   4.890   4.961   6.882
 8255SOL     OW25663   0.913   6.461   6.550
 8255SOL    HW125664   0.926   6.362   6.555
 8255SOL    HW225665   0.846   6.482   6.480
 8256SOL     OW25666   1.699   5.810   3.723
 8256SOL    HW125667   1.657   5.897   3.751
 8256SOL    HW225668   1.717   5.813   3.624
 8257SOL     OW25669   4.880   3.361   3.114
 8257SOL    HW125670   4.896   3.375   3.016
 8257SOL    HW225671   4.911   3.442   3.164
 8258SOL     OW25672   6.940   3.182   2.471
 8258SOL    HW125673   6.853   3.146   2.436
 8258SOL    HW225674   7.010   3.111   2.466
 8259SOL     OW25675   5.041   1.240   4.394
 8259SOL    HW125676   4.972   1.214   4.462
 8259SOL    HW225677   5.006   1.220   4.302
 8260SOL     OW25678   4.383   1.378   1.362
 8260SOL    HW125679   4.393   1.284   1.330
 8260SOL    HW225680   4.427   1.440   1.297
 8261SOL     OW25681   5.803   0.458   2.863
 8261SOL    HW125682   5.841   0.407   2.785
 8261SOL    HW225683   5.868   0.528   2.892
 8262SOL     OW25684   6.177   3.790   2.022
 8262SOL    HW125685   6.088   3.793   2.069
 8262SOL    HW225686   6.180   3.710   1.963
 8263SOL     OW25687   7.000   2.388   6.034
 8263SOL    HW125688   6.900   2.396   6.045
 8263SOL    HW225689   7.020   2.340   5.949
 8264SOL     OW25690   2.679   6.731   2.387
 8264SOL    HW125691   2.588   6.713   2.350
 8264SOL    HW225692   2.746   6.730   2.313
 8265SOL     OW25693   5.118   0.217   0.621
 8265SOL    HW125694   5.021   0.224   0.600
 8265SOL    HW225695   5.170   0.211   0.536
 8266SOL     OW25696   2.668   0.742   3.975
 8266SOL    HW125697   2.757   0.753   4.018
 8266SOL    HW225698   2.641   0.828   3.932
 8267SOL     OW25699   1.368   4.379   3.140
 8267SOL    HW125700   1.365   4.360   3.238
 8267SOL    HW225701   1.459   4.412   3.116
 8268SOL     OW25702   3.024   4.702   6.270
 8268SOL    HW125703   3.102   4.672   6.215
 8268SOL    HW225704   3.006   4.635   6.342
 8269SOL     OW25705   5.567   2.445   3.502
 8269SOL    HW125706   5.477   2.488   3.494
 8269SOL    HW225707   5.585   2.423   3.597
 8270SOL     OW25708   3.754   0.467   5.947
 8270SOL    HW125709   3.731   0.425   6.034
 8270SOL    HW225710   3.730   0.405   5.872
 8271SOL     OW25711   3.729   5.947   5.948
 8271SOL    HW125712   3.670   5.984   5.877
 8271SOL    HW225713   3.684   5.957   6.037
 8272SOL     OW25714   0.905   0.292   1.574
 8272SOL    HW125715   0.835   0.272   1.505
 8272SOL    HW225716   0.864   0.289   1.665
 8273SOL     OW25717   3.490   0.415   6.832
 8273SOL    HW125718   3.542   0.500   6.821
 8273SOL    HW225719   3.551   0.337   6.820
 8274SOL     OW25720   5.532   5.922   6.059
 8274SOL    HW125721   5.581   5.883   5.981
 8274SOL    HW225722   5.597   5.964   6.122
 8275SOL     OW25723   5.354   0.211   3.465
 8275SOL    HW125724   5.300   0.197   3.548
 8275SOL    HW225725   5.435   0.266   3.487
 8276SOL     OW25726   0.207   2.353   6.187
 8276SOL    HW125727   0.128   2.359   6.126
 8276SOL    HW225728   0.188   2.404   6.271
 8277SOL     OW25729   1.278   5.852   6.254
 8277SOL    HW125730   1.203   5.796   6.218
 8277SOL    HW225731   1.247   5.904   6.333
 8278SOL     OW25732   3.957   1.045   0.671
 8278SOL    HW125733   4.026   0.973   0.682
 8278SOL    HW225734   3.992   1.131   0.706
 8279SOL     OW25735   5.084   5.044   5.879
 8279SOL    HW125736   5.004   5.104   5.880
 8279SOL    HW225737   5.167   5.098   5.891
 8280SOL     OW25738   5.024   3.124   6.851
 8280SOL    HW125739   5.033   3.223   6.860
 8280SOL    HW225740   4.970   3.088   6.928
 8281SOL     OW25741   2.464   5.193   6.963
 8281SOL    HW125742   2.444   5.099   6.991
 8281SOL    HW225743   2.381   5.248   6.968
 8282SOL     OW25744   2.892   2.095   0.421
 8282SOL    HW125745   2.844   2.159   0.481
 8282SOL    HW225746   2.985   2.128   0.404
 8283SOL     OW25747   0.115   5.609   3.002
 8283SOL    HW125748   0.135   5.700   3.041
 8283SOL    HW225749   0.091   5.546   3.075
 8284SOL     OW25750   2.748   1.885   1.998
 8284SOL    HW125751   2.667   1.844   2.039
 8284SOL    HW225752   2.720   1.945   1.923
 8285SOL     OW25753   3.243   4.230   6.123
 8285SOL    HW125754   3.323   4.205   6.069
 8285SOL    HW225755   3.242   4.177   6.208
 8286SOL     OW25756   5.600   0.997   5.622
 8286SOL    HW125757   5.525   1.004   5.556
 8286SOL    HW225758   5.618   1.087   5.662
 8287SOL     OW25759   2.267   0.550   3.132
 8287SOL    HW125760   2.179   0.597   3.126
 8287SOL    HW225761   2.263   0.481   3.204
 8288SOL     OW25762   1.679   0.977   2.918
 8288SOL    HW125763   1.773   0.950   2.937
 8288SOL    HW225764   1.669   1.076   2.930
 8289SOL     OW25765   6.695   1.683   5.822
 8289SOL    HW125766   6.689   1.597   5.771
 8289SOL    HW225767   6.609   1.733   5.813
 8290SOL     OW25768   4.356   2.882   1.700
 8290SOL    HW125769   4.408   2.811   1.747
 8290SOL    HW225770   4.408   2.967   1.699
 8291SOL     OW25771   4.260   4.832   6.294
 8291SOL    HW125772   4.337   4.895   6.306
 8291SOL    HW225773   4.276   4.749   6.348
 8292SOL     OW25774   0.769   4.146   4.650
 8292SOL    HW125775   0.723   4.083   4.713
 8292SOL    HW225776   0.710   4.225   4.635
 8293SOL     OW25777   3.077   4.893   3.943
 8293SOL    HW125778   3.004   4.939   3.892
 8293SOL    HW225779   3.036   4.826   4.005
 8294SOL     OW25780   4.732   3.079   5.799
 8294SOL    HW125781   4.724   3.165   5.849
 8294SOL    HW225782   4.651   3.066   5.742
 8295SOL     OW25783   5.101   4.065   2.323
 8295SOL    HW125784   5.023   4.126   2.318
 8295SOL    HW225785   5.170   4.104   2.384
 8296SOL     OW25786   3.869   6.172   1.528
 8296SOL    HW125787   3.776   6.180   1.493
 8296SOL    HW225788   3.926   6.244   1.487
 8297SOL     OW25789   5.601   4.260   3.054
 8297SOL    HW125790   5.537   4.186   3.035
 8297SOL    HW225791   5.552   4.338   3.093
 8298SOL     OW25792   6.662   0.012   5.983
 8298SOL    HW125793   6.683   0.065   6.066
 8298SOL    HW225794   6.743   6.981   5.956
 8299SOL     OW25795   0.531   3.535   0.891
 8299SOL    HW125796   0.477   3.612   0.924
 8299SOL    HW225797   0.587   3.564   0.813
 8300SOL     OW25798   5.556   4.594   2.787
 8300SOL    HW125799   5.545   4.692   2.804
 8300SOL    HW225800   5.539   4.574   2.691
 8301SOL     OW25801   4.530   6.565   0.583
 8301SOL    HW125802   4.564   6.638   0.642
 8301SOL    HW225803   4.607   6.509   0.551
 8302SOL     OW25804   3.619   6.727   5.393
 8302SOL    HW125805   3.631   6.755   5.298
 8302SOL    HW225806   3.630   6.806   5.453
 8303SOL     OW25807   0.177   6.408   2.707
 8303SOL    HW125808   0.098   6.392   2.647
 8303SOL    HW225809   0.203   6.504   2.703
 8304SOL     OW25810   5.200   3.995   3.062
 8304SOL    HW125811   5.155   3.907   3.044
 8304SOL    HW225812   5.159   4.037   3.143
 8305SOL     OW25813   4.556   6.430   4.590
 8305SOL    HW125814   4.507   6.494   4.649
 8305SOL    HW225815   4.644   6.407   4.632
 8306SOL     OW25816   0.010   0.863   2.344
 8306SOL    HW125817   0.023   0.769   2.312
 8306SOL    HW225818   0.028   0.926   2.269
 8307SOL     OW25819   1.158   3.600   2.976
 8307SOL    HW125820   1.157   3.694   3.011
 8307SOL    HW225821   1.070   3.557   2.994
 8308SOL     OW25822   1.298   5.644   0.933
 8308SOL    HW125823   1.296   5.580   0.857
 8308SOL    HW225824   1.338   5.731   0.903
 8309SOL     OW25825   5.468   4.324   4.164
 8309SOL    HW125826   5.460   4.322   4.065
 8309SOL    HW225827   5.544   4.266   4.193
 8310SOL     OW25828   0.968   0.197   0.253
 8310SOL    HW125829   0.942   0.292   0.234
 8310SOL    HW225830   1.004   0.190   0.346
 8311SOL     OW25831   6.058   6.683   3.261
 8311SOL    HW125832   6.148   6.640   3.272
 8311SOL    HW225833   6.068   6.782   3.263
 8312SOL     OW25834   5.577   1.714   0.614
 8312SOL    HW125835   5.583   1.809   0.585
 8312SOL    HW225836   5.492   1.674   0.579
 8313SOL     OW25837   5.219   2.130   4.921
 8313SOL    HW125838   5.132   2.110   4.967
 8313SOL    HW225839   5.201   2.153   4.825
 8314SOL     OW25840   4.908   6.113   4.753
 8314SOL    HW125841   4.967   6.060   4.815
 8314SOL    HW225842   4.889   6.059   4.671
 8315SOL     OW25843   3.466   3.697   5.017
 8315SOL    HW125844   3.445   3.688   5.114
 8315SOL    HW225845   3.530   3.624   4.990
 8316SOL     OW25846   2.320   2.550   6.078
 8316SOL    HW125847   2.414   2.556   6.045
 8316SOL    HW225848   2.318   2.498   6.164
 8317SOL     OW25849   2.153   1.377   3.753
 8317SOL    HW125850   2.194   1.324   3.828
 8317SOL    HW225851   2.086   1.320   3.706
 8318SOL     OW25852   4.170   0.256   0.146
 8318SOL    HW125853   4.204   0.216   0.231
 8318SOL    HW225854   4.231   0.330   0.117
 8319SOL     OW25855   1.452   6.788   6.704
 8319SOL    HW125856   1.528   6.726   6.686
 8319SOL    HW225857   1.488   6.876   6.733
 8320SOL     OW25858   2.989   3.280   4.648
 8320SOL    HW125859   2.964   3.261   4.553
 8320SOL    HW225860   3.010   3.194   4.694
 8321SOL     OW25861   0.407   6.686   1.791
 8321SOL    HW125862   0.468   6.621   1.745
 8321SOL    HW225863   0.326   6.638   1.823
 8322SOL     OW25864   1.081   6.909   6.836
 8322SOL    HW125865   1.131   6.980   6.785
 8322SOL    HW225866   0.984   6.913   6.813
 8323SOL     OW25867   5.262   3.965   0.446
 8323SOL    HW125868   5.213   3.945   0.531
 8323SOL    HW225869   5.220   4.043   0.400
 8324SOL     OW25870   4.912   5.783   6.157
 8324SOL    HW125871   4.964   5.709   6.200
 8324SOL    HW225872   4.925   5.781   6.058
 8325SOL     OW25873   1.028   5.484   6.036
 8325SOL    HW125874   1.020   5.534   6.122
 8325SOL    HW225875   1.110   5.514   5.987
 8326SOL     OW25876   1.352   3.837   1.107
 8326SOL    HW125877   1.301   3.920   1.128
 8326SOL    HW225878   1.320   3.762   1.167
 8327SOL     OW25879   0.723   0.114   5.004
 8327SOL    HW125880   0.719   0.178   4.928
 8327SOL    HW225881   0.667   0.034   4.984
 8328SOL     OW25882   1.327   6.843   0.006
 8328SOL    HW125883   1.273   6.762   0.029
 8328SOL    HW225884   1.314   6.913   0.076
 8329SOL     OW25885   1.708   3.051   4.742
 8329SOL    HW125886   1.629   3.085   4.792
 8329SOL    HW225887   1.779   3.022   4.806
 8330SOL     OW25888   3.811   1.251   6.156
 8330SOL    HW125889   3.883   1.211   6.212
 8330SOL    HW225890   3.737   1.283   6.215
 8331SOL     OW25891   1.851   2.638   6.245
 8331SOL    HW125892   1.826   2.546   6.277
 8331SOL    HW225893   1.946   2.656   6.268
 8332SOL     OW25894   5.977   5.186   1.714
 8332SOL    HW125895   5.988   5.149   1.806
 8332SOL    HW225896   5.937   5.278   1.719
 8333SOL     OW25897   2.386   4.702   0.953
 8333SOL    HW125898   2.358   4.619   1.000
 8333SOL    HW225899   2.374   4.691   0.854
 8334SOL     OW25900   3.764   1.670   6.213
 8334SOL    HW125901   3.795   1.690   6.306
 8334SOL    HW225902   3.784   1.748   6.153
 8335SOL     OW25903   5.397   3.610   6.256
 8335SOL    HW125904   5.458   3.649   6.187
 8335SOL    HW225905   5.447   3.597   6.341
 8336SOL     OW25906   1.094   4.193   3.668
 8336SOL    HW125907   1.069   4.287   3.693
 8336SOL    HW225908   1.107   4.139   3.751
 8337SOL     OW25909   0.680   1.365   5.023
 8337SOL    HW125910   0.780   1.372   5.033
 8337SOL    HW225911   0.640   1.329   5.107
 8338SOL     OW25912   4.293   5.545   2.342
 8338SOL    HW125913   4.242   5.576   2.422
 8338SOL    HW225914   4.230   5.519   2.269
 8339SOL     OW25915   5.988   6.512   0.641
 8339SOL    HW125916   5.989   6.442   0.712
 8339SOL    HW225917   6.069   6.569   0.648
 8340SOL     OW25918   6.028   2.248   6.872
 8340SOL    HW125919   6.074   2.330   6.837
 8340SOL    HW225920   5.934   2.270   6.895
 8341SOL     OW25921   3.281   0.831   0.617
 8341SOL    HW125922   3.284   0.897   0.693
 8341SOL    HW225923   3.240   0.875   0.537
 8342SOL     OW25924   4.945   0.390   0.338
 8342SOL    HW125925   4.942   0.309   0.279
 8342SOL    HW225926   4.883   0.460   0.302
 8343SOL     OW25927   6.110   4.236   3.499
 8343SOL    HW125928   6.035   4.295   3.528
 8343SOL    HW225929   6.090   4.141   3.526
 8344SOL     OW25930   1.210   5.249   5.244
 8344SOL    HW125931   1.238   5.345   5.247
 8344SOL    HW225932   1.273   5.197   5.186
 8345SOL     OW25933   4.118   1.193   3.537
 8345SOL    HW125934   4.040   1.242   3.497
 8345SOL    HW225935   4.192   1.258   3.556
 8346SOL     OW25936   5.856   3.264   5.081
 8346SOL    HW125937   5.825   3.349   5.124
 8346SOL    HW225938   5.822   3.185   5.132
 8347SOL     OW25939   2.909   0.323   0.065
 8347SOL    HW125940   2.923   0.236   0.018
 8347SOL    HW225941   2.896   0.306   0.163
 8348SOL     OW25942   3.635   6.386   1.903
 8348SOL    HW125943   3.666   6.315   1.840
 8348SOL    HW225944   3.538   6.406   1.886
 8349SOL     OW25945   0.438   6.137   1.753
 8349SOL    HW125946   0.449   6.070   1.826
 8349SOL    HW225947   0.439   6.090   1.664
 8350SOL     OW25948   2.672   0.562   0.722
 8350SOL    HW125949   2.739   0.625   0.683
 8350SOL    HW225950   2.607   0.534   0.651
 8351SOL     OW25951   6.356   3.127   2.750
 8351SOL    HW125952   6.350   3.031   2.724
 8351SOL    HW225953   6.440   3.143   2.802
 8352SOL     OW25954   2.073   6.093   1.585
 8352SOL    HW125955   2.142   6.165   1.571
 8352SOL    HW225956   1.982   6.134   1.586
 8353SOL     OW25957   1.339   4.451   1.914
 8353SOL    HW125958   1.321   4.354   1.898
 8353SOL    HW225959   1.409   4.483   1.851
 8354SOL     OW25960   2.857   0.274   3.183
 8354SOL    HW125961   2.843   0.367   3.216
 8354SOL    HW225962   2.776   0.219   3.205
 8355SOL     OW25963   2.486   5.943   6.747
 8355SOL    HW125964   2.427   5.896   6.682
 8355SOL    HW225965   2.563   5.985   6.699
 8356SOL     OW25966   1.656   5.749   1.040
 8356SOL    HW125967   1.579   5.685   1.044
 8356SOL    HW225968   1.731   5.707   0.988
 8357SOL     OW25969   4.072   5.981   5.692
 8357SOL    HW125970   4.158   5.932   5.696
 8357SOL    HW225971   3.996   5.917   5.705
 8358SOL     OW25972   0.833   1.815   5.000
 8358SOL    HW125973   0.931   1.815   5.018
 8358SOL    HW225974   0.814   1.756   4.922
 8359SOL     OW25975   3.189   2.069   5.704
 8359SOL    HW125976   3.282   2.069   5.667
 8359SOL    HW225977   3.154   2.163   5.707
 8360SOL     OW25978   4.524   6.990   1.561
 8360SOL    HW125979   4.467   6.981   1.642
 8360SOL    HW225980   4.467   7.005   1.480
 8361SOL     OW25981   3.637   0.198   6.737
 8361SOL    HW125982   3.559   0.144   6.704
 8361SOL    HW225983   3.721   0.162   6.698
 8362SOL     OW25984   0.260   3.706   1.814
 8362SOL    HW125985   0.323   3.654   1.757
 8362SOL    HW225986   0.310   3.777   1.863
 8363SOL     OW25987   2.805   3.197   6.966
 8363SOL    HW125988   2.870   3.185   0.020
 8363SOL    HW225989   2.740   3.121   6.966
 8364SOL     OW25990   6.888   3.148   4.179
 8364SOL    HW125991   6.819   3.088   4.137
 8364SOL    HW225992   6.912   3.114   4.269
 8365SOL     OW25993   1.777   2.378   2.595
 8365SOL    HW125994   1.786   2.431   2.679
 8365SOL    HW225995   1.864   2.334   2.574
 8366SOL     OW25996   4.910   5.201   2.180
 8366SOL    HW125997   4.968   5.121   2.191
 8366SOL    HW225998   4.850   5.188   2.101
 8367SOL     OW25999   3.753   5.297   4.508
 8367SOL    HW126000   3.684   5.272   4.576
 8367SOL    HW226001   3.821   5.225   4.501
 8368SOL     OW26002   6.788   6.789   0.276
 8368SOL    HW126003   6.801   6.860   0.207
 8368SOL    HW226004   6.858   6.719   0.266
 8369SOL     OW26005   2.586   0.318   1.272
 8369SOL    HW126006   2.525   0.366   1.209
 8369SOL    HW226007   2.594   0.370   1.357
 8370SOL     OW26008   2.421   2.970   0.443
 8370SOL    HW126009   2.333   3.010   0.469
 8370SOL    HW226010   2.495   3.030   0.472
 8371SOL     OW26011   1.558   4.365   6.354
 8371SOL    HW126012   1.639   4.362   6.296
 8371SOL    HW226013   1.483   4.410   6.305
 8372SOL     OW26014   2.477   5.599   2.764
 8372SOL    HW126015   2.449   5.506   2.789
 8372SOL    HW226016   2.557   5.595   2.705
 8373SOL     OW26017   6.770   1.055   4.308
 8373SOL    HW126018   6.773   1.148   4.271
 8373SOL    HW226019   6.839   1.046   4.380
 8374SOL     OW26020   1.802   0.386   4.530
 8374SOL    HW126021   1.716   0.343   4.554
 8374SOL    HW226022   1.788   0.485   4.518
 8375SOL     OW26023   4.113   1.185   4.562
 8375SOL    HW126024   4.084   1.255   4.497
 8375SOL    HW226025   4.060   1.102   4.549
 8376SOL     OW26026   2.103   0.798   3.105
 8376SOL    HW126027   2.183   0.830   3.054
 8376SOL    HW226028   2.128   0.787   3.202
 8377SOL     OW26029   4.585   5.823   7.007
 8377SOL    HW126030   4.539   5.742   6.970
 8377SOL    HW226031   4.532   5.859   0.063
 8378SOL     OW26032   5.523   5.831   3.743
 8378SOL    HW126033   5.554   5.768   3.815
 8378SOL    HW226034   5.602   5.883   3.710
 8379SOL     OW26035   5.786   1.287   1.749
 8379SOL    HW126036   5.881   1.301   1.722
 8379SOL    HW226037   5.732   1.265   1.667
 8380SOL     OW26038   6.475   5.908   0.783
 8380SOL    HW126039   6.409   5.922   0.709
 8380SOL    HW226040   6.554   5.858   0.749
 8381SOL     OW26041   0.310   2.340   1.980
 8381SOL    HW126042   0.210   2.342   1.969
 8381SOL    HW226043   0.338   2.412   2.044
 8382SOL     OW26044   2.719   0.491   0.974
 8382SOL    HW126045   2.628   0.459   1.001
 8382SOL    HW226046   2.715   0.525   0.880
 8383SOL     OW26047   2.633   6.293   6.371
 8383SOL    HW126048   2.643   6.231   6.294
 8383SOL    HW226049   2.723   6.327   6.399
 8384SOL     OW26050   0.507   2.398   1.164
 8384SOL    HW126051   0.512   2.369   1.260
 8384SOL    HW226052   0.599   2.398   1.125
 8385SOL     OW26053   3.612   3.724   1.317
 8385SOL    HW126054   3.576   3.736   1.224
 8385SOL    HW226055   3.697   3.775   1.326
 8386SOL     OW26056   1.808   5.869   2.042
 8386SOL    HW126057   1.888   5.809   2.043
 8386SOL    HW226058   1.760   5.863   2.130
 8387SOL     OW26059   1.418   0.965   2.348
 8387SOL    HW126060   1.322   0.946   2.372
 8387SOL    HW226061   1.430   1.064   2.338
 8388SOL     OW26062   3.944   6.569   1.060
 8388SOL    HW126063   3.977   6.662   1.046
 8388SOL    HW226064   4.006   6.504   1.016
 8389SOL     OW26065   0.725   2.682   4.246
 8389SOL    HW126066   0.640   2.722   4.281
 8389SOL    HW226067   0.762   2.740   4.174
 8390SOL     OW26068   2.977   0.850   5.968
 8390SOL    HW126069   3.072   0.877   5.956
 8390SOL    HW226070   2.970   0.783   6.042
 8391SOL     OW26071   5.230   5.915   1.347
 8391SOL    HW126072   5.300   5.912   1.276
 8391SOL    HW226073   5.246   5.842   1.413
 8392SOL     OW26074   5.414   6.139   5.129
 8392SOL    HW126075   5.495   6.116   5.183
 8392SOL    HW226076   5.441   6.167   5.038
 8393SOL     OW26077   0.084   6.243   3.069
 8393SOL    HW126078   0.045   6.321   3.020
 8393SOL    HW226079   0.048   6.241   3.163
 8394SOL     OW26080   0.714   2.134   2.893
 8394SOL    HW126081   0.622   2.114   2.858
 8394SOL    HW226082   0.739   2.065   2.961
 8395SOL     OW26083   6.687   5.879   5.165
 8395SOL    HW126084   6.618   5.813   5.134
 8395SOL    HW226085   6.762   5.830   5.210
 8396SOL     OW26086   4.867   3.661   2.292
 8396SOL    HW126087   4.901   3.573   2.259
 8396SOL    HW226088   4.775   3.677   2.257
 8397SOL     OW26089   2.118   5.967   3.243
 8397SOL    HW126090   2.155   5.955   3.151
 8397SOL    HW226091   2.156   6.049   3.284
 8398SOL     OW26092   4.277   1.604   0.430
 8398SOL    HW126093   4.377   1.598   0.427
 8398SOL    HW226094   4.241   1.536   0.493
 8399SOL     OW26095   5.967   6.244   0.316
 8399SOL    HW126096   6.051   6.299   0.315
 8399SOL    HW226097   5.904   6.281   0.385
 8400SOL     OW26098   6.511   0.724   2.687
 8400SOL    HW126099   6.589   0.680   2.643
 8400SOL    HW226100   6.537   0.815   2.719
 8401SOL     OW26101   2.970   4.538   6.482
 8401SOL    HW126102   2.923   4.572   6.563
 8401SOL    HW226103   3.066   4.522   6.504
 8402SOL     OW26104   4.825   1.694   6.937
 8402SOL    HW126105   4.873   1.607   6.923
 8402SOL    HW226106   4.843   1.727   0.009
 8403SOL     OW26107   1.586   1.256   4.545
 8403SOL    HW126108   1.503   1.231   4.494
 8403SOL    HW226109   1.563   1.324   4.614
 8404SOL     OW26110   4.672   5.461   5.758
 8404SOL    HW126111   4.597   5.495   5.816
 8404SOL    HW226112   4.651   5.367   5.730
 8405SOL     OW26113   0.524   2.535   5.925
 8405SOL    HW126114   0.606   2.478   5.915
 8405SOL    HW226115   0.549   2.631   5.911
 8406SOL     OW26116   5.140   2.829   1.365
 8406SOL    HW126117   5.202   2.781   1.427
 8406SOL    HW226118   5.186   2.848   1.279
 8407SOL     OW26119   4.721   4.145   3.302
 8407SOL    HW126120   4.642   4.133   3.242
 8407SOL    HW226121   4.802   4.166   3.247
 8408SOL     OW26122   4.852   2.082   4.710
 8408SOL    HW126123   4.908   2.094   4.628
 8408SOL    HW226124   4.888   2.140   4.783
 8409SOL     OW26125   1.491   1.584   3.763
 8409SOL    HW126126   1.482   1.613   3.858
 8409SOL    HW226127   1.483   1.484   3.758
 8410SOL     OW26128   4.254   6.912   1.686
 8410SOL    HW126129   4.237   6.864   1.600
 8410SOL    HW226130   4.259   6.845   1.760
 8411SOL     OW26131   1.568   4.050   5.032
 8411SOL    HW126132   1.499   4.082   4.966
 8411SOL    HW226133   1.540   3.961   5.068
 8412SOL     OW26134   5.118   2.517   3.309
 8412SOL    HW126135   5.173   2.585   3.260
 8412SOL    HW226136   5.082   2.450   3.243
 8413SOL     OW26137   3.568   4.873   0.678
 8413SOL    HW126138   3.586   4.775   0.670
 8413SOL    HW226139   3.643   4.924   0.637
 8414SOL     OW26140   4.068   6.601   3.235
 8414SOL    HW126141   4.095   6.542   3.311
 8414SOL    HW226142   4.141   6.602   3.166
 8415SOL     OW26143   6.547   4.006   2.877
 8415SOL    HW126144   6.613   4.078   2.856
 8415SOL    HW226145   6.471   4.010   2.812
 8416SOL     OW26146   5.808   3.766   1.938
 8416SOL    HW126147   5.708   3.772   1.948
 8416SOL    HW226148   5.852   3.822   2.007
 8417SOL     OW26149   2.463   6.208   6.030
 8417SOL    HW126150   2.408   6.179   5.952
 8417SOL    HW226151   2.404   6.253   6.098
 8418SOL     OW26152   6.677   5.997   3.284
 8418SOL    HW126153   6.708   6.027   3.193
 8418SOL    HW226154   6.726   5.914   3.309
 8419SOL     OW26155   4.470   0.770   3.134
 8419SOL    HW126156   4.422   0.746   3.218
 8419SOL    HW226157   4.414   0.835   3.082
 8420SOL     OW26158   3.823   0.685   6.115
 8420SOL    HW126159   3.822   0.618   6.040
 8420SOL    HW226160   3.742   0.672   6.172
 8421SOL     OW26161   1.714   6.756   2.198
 8421SOL    HW126162   1.703   6.668   2.151
 8421SOL    HW226163   1.771   6.817   2.142
 8422SOL     OW26164   4.314   6.927   0.671
 8422SOL    HW126165   4.287   6.840   0.630
 8422SOL    HW226166   4.284   6.929   0.766
 8423SOL     OW26167   3.439   4.026   0.783
 8423SOL    HW126168   3.394   4.091   0.844
 8423SOL    HW226169   3.536   4.021   0.806
 8424SOL     OW26170   3.564   1.310   2.992
 8424SOL    HW126171   3.507   1.354   2.923
 8424SOL    HW226172   3.660   1.326   2.971
 8425SOL     OW26173   6.259   4.709   0.450
 8425SOL    HW126174   6.225   4.755   0.368
 8425SOL    HW226175   6.339   4.653   0.426
 8426SOL     OW26176   3.849   3.863   3.017
 8426SOL    HW126177   3.925   3.826   2.962
 8426SOL    HW226178   3.883   3.887   3.108
 8427SOL     OW26179   2.047   4.147   6.535
 8427SOL    HW126180   2.122   4.084   6.555
 8427SOL    HW226181   2.059   4.185   6.443
 8428SOL     OW26182   6.826   3.993   2.134
 8428SOL    HW126183   6.852   3.988   2.230
 8428SOL    HW226184   6.884   4.058   2.086
 8429SOL     OW26185   1.645   6.261   3.954
 8429SOL    HW126186   1.548   6.286   3.954
 8429SOL    HW226187   1.675   6.248   3.859
 8430SOL     OW26188   4.247   5.032   2.729
 8430SOL    HW126189   4.165   4.980   2.753
 8430SOL    HW226190   4.320   4.969   2.703
 8431SOL     OW26191   3.241   4.785   1.341
 8431SOL    HW126192   3.190   4.834   1.271
 8431SOL    HW226193   3.261   4.692   1.309
 8432SOL     OW26194   3.814   6.543   6.498
 8432SOL    HW126195   3.837   6.450   6.468
 8432SOL    HW226196   3.840   6.608   6.427
 8433SOL     OW26197   1.227   2.144   6.242
 8433SOL    HW126198   1.271   2.058   6.269
 8433SOL    HW226199   1.128   2.130   6.237
 8434SOL     OW26200   5.242   6.653   5.434
 8434SOL    HW126201   5.250   6.642   5.533
 8434SOL    HW226202   5.162   6.708   5.413
 8435SOL     OW26203   4.115   2.026   1.286
 8435SOL    HW126204   4.150   2.085   1.358
 8435SOL    HW226205   4.180   1.952   1.269
 8436SOL     OW26206   4.381   4.441   1.692
 8436SOL    HW126207   4.399   4.446   1.594
 8436SOL    HW226208   4.399   4.349   1.725
 8437SOL     OW26209   0.854   1.767   0.923
 8437SOL    HW126210   0.772   1.710   0.933
 8437SOL    HW226211   0.827   1.858   0.890
 8438SOL     OW26212   1.886   5.439   2.570
 8438SOL    HW126213   1.983   5.440   2.545
 8438SOL    HW226214   1.877   5.422   2.668
 8439SOL     OW26215   6.853   5.271   2.401
 8439SOL    HW126216   6.933   5.219   2.431
 8439SOL    HW226217   6.795   5.214   2.344
 8440SOL     OW26218   0.875   1.484   1.790
 8440SOL    HW126219   0.826   1.444   1.712
 8440SOL    HW226220   0.876   1.419   1.866
 8441SOL     OW26221   4.360   5.662   6.418
 8441SOL    HW126222   4.310   5.624   6.340
 8441SOL    HW226223   4.405   5.747   6.391
 8442SOL     OW26224   2.162   4.784   6.886
 8442SOL    HW126225   2.087   4.819   6.829
 8442SOL    HW226226   2.249   4.821   6.853
 8443SOL     OW26227   1.699   0.190   3.136
 8443SOL    HW126228   1.723   0.250   3.060
 8443SOL    HW226229   1.680   0.098   3.101
 8444SOL     OW26230   3.303   6.542   3.113
 8444SOL    HW126231   3.387   6.513   3.067
 8444SOL    HW226232   3.323   6.568   3.207
 8445SOL     OW26233   3.644   4.927   2.618
 8445SOL    HW126234   3.724   4.982   2.641
 8445SOL    HW226235   3.665   4.865   2.543
 8446SOL     OW26236   5.739   4.577   2.033
 8446SOL    HW126237   5.820   4.523   2.054
 8446SOL    HW226238   5.766   4.669   2.007
 8447SOL     OW26239   4.656   2.533   1.917
 8447SOL    HW126240   4.707   2.619   1.916
 8447SOL    HW226241   4.715   2.459   1.883
 8448SOL     OW26242   0.781   3.599   6.577
 8448SOL    HW126243   0.831   3.679   6.544
 8448SOL    HW226244   0.761   3.610   6.674
 8449SOL     OW26245   1.189   3.399   4.744
 8449SOL    HW126246   1.277   3.445   4.735
 8449SOL    HW226247   1.203   3.300   4.739
 8450SOL     OW26248   2.453   5.659   3.102
 8450SOL    HW126249   2.539   5.684   3.058
 8450SOL    HW226250   2.445   5.560   3.107
 8451SOL     OW26251   3.847   2.828   1.394
 8451SOL    HW126252   3.913   2.813   1.320
 8451SOL    HW226253   3.784   2.750   1.399
 8452SOL     OW26254   6.987   0.010   0.829
 8452SOL    HW126255   7.007   0.094   0.881
 8452SOL    HW226256   0.049   6.998   0.785
 8453SOL     OW26257   6.717   3.924   6.029
 8453SOL    HW126258   6.704   3.831   5.995
 8453SOL    HW226259   6.669   3.989   5.970
 8454SOL     OW26260   1.700   0.145   4.307
 8454SOL    HW126261   1.617   0.198   4.324
 8454SOL    HW226262   1.750   0.184   4.230
 8455SOL     OW26263   4.965   1.419   0.877
 8455SOL    HW126264   5.053   1.428   0.830
 8455SOL    HW226265   4.899   1.377   0.815
 8456SOL     OW26266   5.155   5.224   3.278
 8456SOL    HW126267   5.091   5.238   3.202
 8456SOL    HW226268   5.237   5.280   3.263
 8457SOL     OW26269   0.221   6.006   5.928
 8457SOL    HW126270   0.235   5.997   6.027
 8457SOL    HW226271   0.177   6.094   5.908
 8458SOL     OW26272   1.732   1.445   0.475
 8458SOL    HW126273   1.742   1.537   0.515
 8458SOL    HW226274   1.789   1.380   0.524
 8459SOL     OW26275   3.433   5.662   2.112
 8459SOL    HW126276   3.503   5.659   2.041
 8459SOL    HW226277   3.469   5.708   2.192
 8460SOL     OW26278   4.765   1.776   0.427
 8460SOL    HW126279   4.846   1.833   0.445
 8460SOL    HW226280   4.700   1.785   0.503
 8461SOL     OW26281   0.083   3.924   1.743
 8461SOL    HW126282   7.007   3.912   1.720
 8461SOL    HW226283   0.127   3.834   1.747
 8462SOL     OW26284   3.395   4.546   6.508
 8462SOL    HW126285   3.343   4.630   6.528
 8462SOL    HW226286   3.440   4.556   6.419
 8463SOL     OW26287   6.429   1.564   0.276
 8463SOL    HW126288   6.399   1.553   0.371
 8463SOL    HW226289   6.509   1.623   0.272
 8464SOL     OW26290   0.313   3.091   0.150
 8464SOL    HW126291   0.368   3.030   0.207
 8464SOL    HW226292   0.335   3.076   0.053
 8465SOL     OW26293   4.192   3.236   1.149
 8465SOL    HW126294   4.178   3.232   1.050
 8465SOL    HW226295   4.186   3.331   1.180
 8466SOL     OW26296   5.613   0.340   5.303
 8466SOL    HW126297   5.712   0.330   5.291
 8466SOL    HW226298   5.579   0.412   5.243
 8467SOL     OW26299   3.386   1.267   1.198
 8467SOL    HW126300   3.334   1.254   1.282
 8467SOL    HW226301   3.481   1.290   1.222
 8468SOL     OW26302   6.476   3.246   6.814
 8468SOL    HW126303   6.515   3.338   6.808
 8468SOL    HW226304   6.529   3.191   6.879
 8469SOL     OW26305   3.576   2.706   5.825
 8469SOL    HW126306   3.599   2.797   5.860
 8469SOL    HW226307   3.509   2.715   5.751
 8470SOL     OW26308   1.547   4.942   1.273
 8470SOL    HW126309   1.520   5.034   1.302
 8470SOL    HW226310   1.467   4.882   1.270
 8471SOL     OW26311   3.406   2.131   5.510
 8471SOL    HW126312   3.476   2.201   5.517
 8471SOL    HW226313   3.401   2.097   5.416
 8472SOL     OW26314   5.420   1.599   5.955
 8472SOL    HW126315   5.495   1.641   5.904
 8472SOL    HW226316   5.456   1.557   6.038
 8473SOL     OW26317   5.030   4.247   6.399
 8473SOL    HW126318   4.971   4.277   6.474
 8473SOL    HW226319   5.084   4.168   6.429
 8474SOL     OW26320   3.159   3.762   2.573
 8474SOL    HW126321   3.086   3.709   2.618
 8474SOL    HW226322   3.118   3.827   2.510
 8475SOL     OW26323   6.514   2.915   1.752
 8475SOL    HW126324   6.488   2.966   1.834
 8475SOL    HW226325   6.611   2.932   1.731
 8476SOL     OW26326   6.148   0.381   1.725
 8476SOL    HW126327   6.095   0.366   1.809
 8476SOL    HW226328   6.180   0.293   1.690
 8477SOL     OW26329   5.902   6.730   1.390
 8477SOL    HW126330   5.965   6.779   1.329
 8477SOL    HW226331   5.954   6.670   1.451
 8478SOL     OW26332   0.292   6.841   4.998
 8478SOL    HW126333   0.267   6.917   5.058
 8478SOL    HW226334   0.249   6.855   4.908
 8479SOL     OW26335   0.911   2.209   1.431
 8479SOL    HW126336   0.979   2.149   1.474
 8479SOL    HW226337   0.898   2.181   1.336
 8480SOL     OW26338   5.021   4.318   0.160
 8480SOL    HW126339   4.936   4.293   0.207
 8480SOL    HW226340   5.093   4.254   0.184
 8481SOL     OW26341   3.859   2.175   3.775
 8481SOL    HW126342   3.932   2.238   3.804
 8481SOL    HW226343   3.867   2.157   3.677
 8482SOL     OW26344   4.562   1.254   0.268
 8482SOL    HW126345   4.593   1.259   0.173
 8482SOL    HW226346   4.495   1.181   0.278
 8483SOL     OW26347   2.868   6.175   3.640
 8483SOL    HW126348   2.843   6.150   3.734
 8483SOL    HW226349   2.786   6.171   3.582
 8484SOL     OW26350   6.037   5.854   4.515
 8484SOL    HW126351   5.969   5.896   4.455
 8484SOL    HW226352   6.126   5.896   4.498
 8485SOL     OW26353   2.738   2.343   6.992
 8485SOL    HW126354   2.773   2.431   0.003
 8485SOL    HW226355   2.762   2.271   0.036
 8486SOL     OW26356   1.136   0.955   2.425
 8486SOL    HW126357   1.113   0.878   2.365
 8486SOL    HW226358   1.160   0.921   2.515
 8487SOL     OW26359   5.624   2.007   5.791
 8487SOL    HW126360   5.655   2.049   5.705
 8487SOL    HW226361   5.637   1.908   5.786
 8488SOL     OW26362   5.050   5.319   1.786
 8488SOL    HW126363   4.952   5.336   1.785
 8488SOL    HW226364   5.068   5.221   1.772
 8489SOL     OW26365   5.247   0.872   1.529
 8489SOL    HW126366   5.302   0.945   1.491
 8489SOL    HW226367   5.170   0.852   1.468
 8490SOL     OW26368   2.483   0.062   7.016
 8490SOL    HW126369   2.424   0.057   6.935
 8490SOL    HW226370   2.579   0.061   6.987
 8491SOL     OW26371   3.214   5.875   2.425
 8491SOL    HW126372   3.141   5.807   2.420
 8491SOL    HW226373   3.187   5.949   2.486
 8492SOL     OW26374   5.771   5.047   4.576
 8492SOL    HW126375   5.778   5.027   4.478
 8492SOL    HW226376   5.760   5.146   4.588
 8493SOL     OW26377   3.818   0.536   0.037
 8493SOL    HW126378   3.737   0.489   0.071
 8493SOL    HW226379   3.852   0.490   6.977
 8494SOL     OW26380   5.769   5.132   2.133
 8494SOL    HW126381   5.702   5.060   2.115
 8494SOL    HW226382   5.746   5.213   2.078
 8495SOL     OW26383   6.636   6.211   0.282
 8495SOL    HW126384   6.720   6.259   0.310
 8495SOL    HW226385   6.645   6.179   0.188
 8496SOL     OW26386   4.828   2.027   2.196
 8496SOL    HW126387   4.776   2.042   2.112
 8496SOL    HW226388   4.781   1.962   2.254
 8497SOL     OW26389   6.570   0.776   3.904
 8497SOL    HW126390   6.474   0.785   3.877
 8497SOL    HW226391   6.586   0.683   3.937
 8498SOL     OW26392   4.767   6.829   4.252
 8498SOL    HW126393   4.832   6.755   4.237
 8498SOL    HW226394   4.695   6.798   4.315
 8499SOL     OW26395   6.437   6.085   6.688
 8499SOL    HW126396   6.376   6.141   6.632
 8499SOL    HW226397   6.530   6.091   6.652
 8500SOL     OW26398   1.844   0.505   5.586
 8500SOL    HW126399   1.890   0.572   5.528
 8500SOL    HW226400   1.817   0.548   5.672
 8501SOL     OW26401   0.684   1.357   0.176
 8501SOL    HW126402   0.715   1.452   0.171
 8501SOL    HW226403   0.625   1.346   0.256
 8502SOL     OW26404   0.366   2.978   6.925
 8502SOL    HW126405   0.406   2.903   6.978
 8502SOL    HW226406   0.329   2.942   6.840
 8503SOL     OW26407   6.142   6.040   4.083
 8503SOL    HW126408   6.214   6.074   4.144
 8503SOL    HW226409   6.179   6.032   3.990
 8504SOL     OW26410   2.486   5.058   2.983
 8504SOL    HW126411   2.561   5.059   2.916
 8504SOL    HW226412   2.505   4.989   3.053
 8505SOL     OW26413   5.217   3.316   2.726
 8505SOL    HW126414   5.316   3.325   2.722
 8505SOL    HW226415   5.192   3.221   2.744
 8506SOL     OW26416   2.718   0.076   6.909
 8506SOL    HW126417   2.809   0.075   6.950
 8506SOL    HW226418   2.721   0.124   6.821
 8507SOL     OW26419   4.820   6.085   5.742
 8507SOL    HW126420   4.876   6.093   5.660
 8507SOL    HW226421   4.769   6.170   5.757
 8508SOL     OW26422   4.189   1.559   0.107
 8508SOL    HW126423   4.259   1.546   0.037
 8508SOL    HW226424   4.189   1.654   0.138
 8509SOL     OW26425   5.535   0.357   3.673
 8509SOL    HW126426   5.545   0.311   3.761
 8509SOL    HW226427   5.598   0.318   3.606
 8510SOL     OW26428   5.916   2.259   4.385
 8510SOL    HW126429   5.871   2.207   4.458
 8510SOL    HW226430   5.930   2.354   4.416
 8511SOL     OW26431   5.803   2.949   1.436
 8511SOL    HW126432   5.807   2.962   1.337
 8511SOL    HW226433   5.880   2.997   1.479
 8512SOL     OW26434   1.624   6.953   4.778
 8512SOL    HW126435   1.533   6.995   4.777
 8512SOL    HW226436   1.664   6.959   4.686
 8513SOL     OW26437   6.000   6.124   6.675
 8513SOL    HW126438   6.060   6.113   6.755
 8513SOL    HW226439   5.907   6.146   6.706
 8514SOL     OW26440   2.388   6.397   4.449
 8514SOL    HW126441   2.306   6.453   4.448
 8514SOL    HW226442   2.461   6.445   4.497
 8515SOL     OW26443   4.883   2.118   1.644
 8515SOL    HW126444   4.789   2.090   1.659
 8515SOL    HW226445   4.941   2.078   1.715
 8516SOL     OW26446   6.736   2.787   2.243
 8516SOL    HW126447   6.805   2.714   2.245
 8516SOL    HW226448   6.646   2.747   2.228
 8517SOL     OW26449   1.625   2.758   6.523
 8517SOL    HW126450   1.660   2.848   6.548
 8517SOL    HW226451   1.606   2.756   6.424
 8518SOL     OW26452   3.911   5.437   0.360
 8518SOL    HW126453   3.911   5.537   0.366
 8518SOL    HW226454   3.831   5.407   0.307
 8519SOL     OW26455   0.651   5.536   2.514
 8519SOL    HW126456   0.689   5.572   2.429
 8519SOL    HW226457   0.625   5.612   2.573
 8520SOL     OW26458   4.236   0.818   0.148
 8520SOL    HW126459   4.145   0.830   0.188
 8520SOL    HW226460   4.295   0.893   0.178
 8521SOL     OW26461   1.432   5.821   5.978
 8521SOL    HW126462   1.477   5.806   6.066
 8521SOL    HW226463   1.430   5.919   5.958
 8522SOL     OW26464   1.319   6.009   5.228
 8522SOL    HW126465   1.339   5.951   5.307
 8522SOL    HW226466   1.405   6.032   5.182
 8523SOL     OW26467   1.397   6.532   0.042
 8523SOL    HW126468   1.333   6.503   0.112
 8523SOL    HW226469   1.453   6.608   0.076
 8524SOL     OW26470   1.405   3.341   6.472
 8524SOL    HW126471   1.427   3.371   6.565
 8524SOL    HW226472   1.467   3.386   6.408
 8525SOL     OW26473   6.314   2.994   3.145
 8525SOL    HW126474   6.245   3.012   3.075
 8525SOL    HW226475   6.325   2.895   3.157
 8526SOL     OW26476   2.305   2.754   2.588
 8526SOL    HW126477   2.252   2.836   2.611
 8526SOL    HW226478   2.333   2.759   2.492
 8527SOL     OW26479   4.472   0.729   4.781
 8527SOL    HW126480   4.536   0.684   4.718
 8527SOL    HW226481   4.449   0.666   4.856
 8528SOL     OW26482   4.846   2.575   6.367
 8528SOL    HW126483   4.891   2.641   6.307
 8528SOL    HW226484   4.816   2.496   6.314
 8529SOL     OW26485   0.954   4.937   0.061
 8529SOL    HW126486   0.995   4.990   7.008
 8529SOL    HW226487   0.854   4.948   0.058
 8530SOL     OW26488   1.920   3.988   5.356
 8530SOL    HW126489   1.920   3.888   5.359
 8530SOL    HW226490   1.990   4.019   5.291
 8531SOL     OW26491   4.912   4.530   2.237
 8531SOL    HW126492   4.826   4.562   2.197
 8531SOL    HW226493   4.897   4.442   2.281
 8532SOL     OW26494   3.299   4.077   6.337
 8532SOL    HW126495   3.300   4.067   6.437
 8532SOL    HW226496   3.258   3.996   6.296
 8533SOL     OW26497   3.585   0.957   5.206
 8533SOL    HW126498   3.561   0.897   5.130
 8533SOL    HW226499   3.625   1.041   5.171
 8534SOL     OW26500   1.537   3.025   2.893
 8534SOL    HW126501   1.531   2.965   2.813
 8534SOL    HW226502   1.457   3.085   2.896
 8535SOL     OW26503   0.352   2.401   4.784
 8535SOL    HW126504   0.295   2.480   4.763
 8535SOL    HW226505   0.410   2.421   4.864
 8536SOL     OW26506   0.437   1.595   6.283
 8536SOL    HW126507   0.415   1.630   6.192
 8536SOL    HW226508   0.413   1.498   6.287
 8537SOL     OW26509   5.667   0.587   2.141
 8537SOL    HW126510   5.572   0.565   2.163
 8537SOL    HW226511   5.670   0.673   2.091
 8538SOL     OW26512   5.972   0.495   4.748
 8538SOL    HW126513   5.992   0.422   4.682
 8538SOL    HW226514   6.057   0.526   4.790
 8539SOL     OW26515   0.520   3.384   2.248
 8539SOL    HW126516   0.601   3.390   2.189
 8539SOL    HW226517   0.443   3.429   2.202
 8540SOL     OW26518   3.976   0.487   0.245
 8540SOL    HW126519   3.972   0.408   0.306
 8540SOL    HW226520   3.905   0.478   0.175
 8541SOL     OW26521   2.969   0.915   4.954
 8541SOL    HW126522   2.993   0.952   4.864
 8541SOL    HW226523   2.876   0.943   4.978
 8542SOL     OW26524   1.723   4.766   6.866
 8542SOL    HW126525   1.629   4.796   6.848
 8542SOL    HW226526   1.722   4.695   6.937
 8543SOL     OW26527   2.169   1.771   6.309
 8543SOL    HW126528   2.209   1.781   6.218
 8543SOL    HW226529   2.069   1.767   6.302
 8544SOL     OW26530   4.950   3.903   5.139
 8544SOL    HW126531   4.855   3.925   5.159
 8544SOL    HW226532   4.954   3.834   5.066
 8545SOL     OW26533   3.014   0.506   6.330
 8545SOL    HW126534   2.981   0.550   6.414
 8545SOL    HW226535   3.001   0.568   6.253
 8546SOL     OW26536   5.659   0.338   1.328
 8546SOL    HW126537   5.572   0.378   1.359
 8546SOL    HW226538   5.706   0.297   1.407
 8547SOL     OW26539   6.067   6.176   5.659
 8547SOL    HW126540   6.081   6.103   5.726
 8547SOL    HW226541   6.124   6.254   5.683
 8548SOL     OW26542   0.439   2.810   6.301
 8548SOL    HW126543   0.497   2.880   6.260
 8548SOL    HW226544   0.343   2.830   6.280
 8549SOL     OW26545   1.723   0.616   3.028
 8549SOL    HW126546   1.653   0.687   3.032
 8549SOL    HW226547   1.762   0.612   2.936
 8550SOL     OW26548   6.977   4.735   6.568
 8550SOL    HW126549   7.009   4.825   6.599
 8550SOL    HW226550   0.017   4.664   6.604
 8551SOL     OW26551   2.216   1.861   5.853
 8551SOL    HW126552   2.142   1.854   5.787
 8551SOL    HW226553   2.303   1.843   5.808
 8552SOL     OW26554   2.678   2.022   3.263
 8552SOL    HW126555   2.627   2.047   3.346
 8552SOL    HW226556   2.665   1.925   3.244
 8553SOL     OW26557   5.301   3.105   6.776
 8553SOL    HW126558   5.201   3.101   6.783
 8553SOL    HW226559   5.329   3.190   6.732
 8554SOL     OW26560   1.242   0.516   0.047
 8554SOL    HW126561   1.204   0.500   0.138
 8554SOL    HW226562   1.177   0.486   6.998
 8555SOL     OW26563   4.462   0.927   4.565
 8555SOL    HW126564   4.381   0.928   4.507
 8555SOL    HW226565   4.468   0.840   4.613
 8556SOL     OW26566   1.429   6.442   0.852
 8556SOL    HW126567   1.466   6.352   0.875
 8556SOL    HW226568   1.501   6.511   0.863
 8557SOL     OW26569   0.574   0.896   0.185
 8557SOL    HW126570   0.563   0.993   0.163
 8557SOL    HW226571   0.667   0.880   0.219
 8558SOL     OW26572   2.849   5.061   3.798
 8558SOL    HW126573   2.856   5.160   3.815
 8558SOL    HW226574   2.764   5.027   3.838
 8559SOL     OW26575   0.930   5.580   2.674
 8559SOL    HW126576   0.850   5.631   2.707
 8559SOL    HW226577   0.905   5.486   2.654
 8560SOL     OW26578   2.950   4.293   1.709
 8560SOL    HW126579   2.953   4.218   1.774
 8560SOL    HW226580   2.928   4.378   1.757
 8561SOL     OW26581   4.735   6.864   2.185
 8561SOL    HW126582   4.764   6.960   2.181
 8561SOL    HW226583   4.785   6.817   2.257
 8562SOL     OW26584   4.627   1.159   0.012
 8562SOL    HW126585   4.534   1.176   7.000
 8562SOL    HW226586   4.629   1.075   0.066
 8563SOL     OW26587   2.138   5.307   2.414
 8563SOL    HW126588   2.233   5.340   2.408
 8563SOL    HW226589   2.138   5.214   2.451
 8564SOL     OW26590   4.544   0.502   6.769
 8564SOL    HW126591   4.603   0.549   6.704
 8564SOL    HW226592   4.450   0.501   6.735
 8565SOL     OW26593   2.793   5.126   1.187
 8565SOL    HW126594   2.770   5.222   1.171
 8565SOL    HW226595   2.709   5.071   1.184
 8566SOL     OW26596   3.211   0.938   2.940
 8566SOL    HW126597   3.307   0.953   2.915
 8566SOL    HW226598   3.173   1.023   2.976
 8567SOL     OW26599   2.480   1.664   1.654
 8567SOL    HW126600   2.558   1.617   1.696
 8567SOL    HW226601   2.440   1.728   1.720
 8568SOL     OW26602   6.649   1.034   0.241
 8568SOL    HW126603   6.711   1.112   0.235
 8568SOL    HW226604   6.680   0.972   0.313
 8569SOL     OW26605   4.890   2.115   6.608
 8569SOL    HW126606   4.848   2.146   6.522
 8569SOL    HW226607   4.836   2.147   6.685
 8570SOL     OW26608   1.794   3.184   3.763
 8570SOL    HW126609   1.812   3.113   3.831
 8570SOL    HW226610   1.748   3.144   3.684
 8571SOL     OW26611   1.484   0.462   3.632
 8571SOL    HW126612   1.407   0.497   3.685
 8571SOL    HW226613   1.529   0.388   3.682
 8572SOL     OW26614   3.241   4.275   5.777
 8572SOL    HW126615   3.228   4.234   5.687
 8572SOL    HW226616   3.193   4.219   5.845
 8573SOL     OW26617   4.046   6.152   0.421
 8573SOL    HW126618   3.981   6.083   0.453
 8573SOL    HW226619   4.096   6.118   0.342
 8574SOL     OW26620   6.039   6.739   5.676
 8574SOL    HW126621   6.081   6.829   5.682
 8574SOL    HW226622   5.949   6.741   5.720
 8575SOL     OW26623   3.035   6.493   3.409
 8575SOL    HW126624   2.937   6.483   3.394
 8575SOL    HW226625   3.080   6.520   3.324
 8576SOL     OW26626   0.893   4.362   3.432
 8576SOL    HW126627   0.862   4.400   3.520
 8576SOL    HW226628   0.849   4.274   3.417
 8577SOL     OW26629   1.523   1.878   0.164
 8577SOL    HW126630   1.428   1.854   0.183
 8577SOL    HW226631   1.527   1.962   0.110
 8578SOL     OW26632   6.859   6.654   5.814
 8578SOL    HW126633   6.867   6.557   5.836
 8578SOL    HW226634   6.763   6.679   5.803
 8579SOL     OW26635   3.306   6.322   2.659
 8579SOL    HW126636   3.326   6.388   2.731
 8579SOL    HW226637   3.352   6.350   2.575
 8580SOL     OW26638   2.249   0.669   1.719
 8580SOL    HW126639   2.329   0.701   1.770
 8580SOL    HW226640   2.169   0.670   1.779
 8581SOL     OW26641   3.185   4.861   1.011
 8581SOL    HW126642   3.093   4.826   1.032
 8581SOL    HW226643   3.244   4.786   0.983
 8582SOL     OW26644   3.856   4.689   6.119
 8582SOL    HW126645   3.839   4.787   6.131
 8582SOL    HW226646   3.901   4.652   6.200
 8583SOL     OW26647   4.510   0.587   2.928
 8583SOL    HW126648   4.606   0.577   2.900
 8583SOL    HW226649   4.504   0.648   3.007
 8584SOL     OW26650   6.510   1.121   4.407
 8584SOL    HW126651   6.596   1.092   4.363
 8584SOL    HW226652   6.452   1.041   4.422
 8585SOL     OW26653   5.171   1.679   2.191
 8585SOL    HW126654   5.220   1.641   2.113
 8585SOL    HW226655   5.079   1.705   2.162
 8586SOL     OW26656   6.179   5.734   1.213
 8586SOL    HW126657   6.219   5.654   1.168
 8586SOL    HW226658   6.242   5.770   1.281
 8587SOL     OW26659   2.213   1.639   6.003
 8587SOL    HW126660   2.272   1.569   5.963
 8587SOL    HW226661   2.220   1.723   5.950
 8588SOL     OW26662   2.820   1.342   6.803
 8588SOL    HW126663   2.811   1.438   6.776
 8588SOL    HW226664   2.844   1.287   6.723
 8589SOL     OW26665   6.746   2.958   6.343
 8589SOL    HW126666   6.772   3.012   6.263
 8589SOL    HW226667   6.684   3.011   6.401
 8590SOL     OW26668   1.392   1.259   2.767
 8590SOL    HW126669   1.484   1.267   2.804
 8590SOL    HW226670   1.376   1.332   2.701
 8591SOL     OW26671   6.738   4.464   0.292
 8591SOL    HW126672   6.808   4.476   0.363
 8591SOL    HW226673   6.736   4.369   0.263
 8592SOL     OW26674   1.286   1.589   6.301
 8592SOL    HW126675   1.312   1.578   6.204
 8592SOL    HW226676   1.368   1.613   6.354
 8593SOL     OW26677   3.692   0.875   6.450
 8593SOL    HW126678   3.626   0.946   6.476
 8593SOL    HW226679   3.734   0.899   6.362
 8594SOL     OW26680   6.743   2.613   5.521
 8594SOL    HW126681   6.831   2.568   5.510
 8594SOL    HW226682   6.737   2.654   5.612
 8595SOL     OW26683   5.718   6.305   2.321
 8595SOL    HW126684   5.683   6.360   2.245
 8595SOL    HW226685   5.644   6.249   2.358
 8596SOL     OW26686   0.649   1.933   3.696
 8596SOL    HW126687   0.671   1.840   3.669
 8596SOL    HW226688   0.586   1.974   3.629
 8597SOL     OW26689   5.891   3.717   0.315
 8597SOL    HW126690   5.864   3.638   0.261
 8597SOL    HW226691   5.812   3.754   0.364
 8598SOL     OW26692   5.906   6.599   3.866
 8598SOL    HW126693   5.907   6.503   3.838
 8598SOL    HW226694   5.812   6.629   3.881
 8599SOL     OW26695   1.173   3.065   3.885
 8599SOL    HW126696   1.195   2.972   3.915
 8599SOL    HW226697   1.107   3.062   3.810
 8600SOL     OW26698   4.001   2.805   1.179
 8600SOL    HW126699   4.053   2.843   1.103
 8600SOL    HW226700   4.007   2.705   1.176
 8601SOL     OW26701   0.778   7.012   3.825
 8601SOL    HW126702   0.755   6.931   3.771
 8601SOL    HW226703   0.853   6.991   3.888
 8602SOL     OW26704   2.143   6.534   4.398
 8602SOL    HW126705   2.076   6.548   4.470
 8602SOL    HW226706   2.143   6.613   4.336
 8603SOL     OW26707   0.247   0.676   0.719
 8603SOL    HW126708   0.157   0.648   0.752
 8603SOL    HW226709   0.257   0.775   0.728
 8604SOL     OW26710   0.275   4.405   6.048
 8604SOL    HW126711   0.270   4.460   6.131
 8604SOL    HW226712   0.370   4.385   6.026
 8605SOL     OW26713   6.888   5.313   4.083
 8605SOL    HW126714   6.950   5.330   4.160
 8605SOL    HW226715   6.872   5.215   4.074
 8606SOL     OW26716   2.353   3.075   6.866
 8606SOL    HW126717   2.279   3.008   6.875
 8606SOL    HW226718   2.328   3.160   6.913
 8607SOL     OW26719   2.468   4.286   1.856
 8607SOL    HW126720   2.394   4.257   1.918
 8607SOL    HW226721   2.452   4.249   1.765
 8608SOL     OW26722   2.578   5.197   3.296
 8608SOL    HW126723   2.656   5.136   3.284
 8608SOL    HW226724   2.505   5.149   3.344
 8609SOL     OW26725   4.370   1.234   4.417
 8609SOL    HW126726   4.333   1.151   4.459
 8609SOL    HW226727   4.342   1.238   4.321
 8610SOL     OW26728   0.892   6.794   2.784
 8610SOL    HW126729   0.821   6.848   2.738
 8610SOL    HW226730   0.982   6.829   2.759
 8611SOL     OW26731   2.587   1.161   4.627
 8611SOL    HW126732   2.533   1.210   4.696
 8611SOL    HW226733   2.554   1.067   4.620
 8612SOL     OW26734   3.875   3.871   3.294
 8612SOL    HW126735   3.839   3.950   3.343
 8612SOL    HW226736   3.874   3.791   3.355
 8613SOL     OW26737   3.318   3.206   1.374
 8613SOL    HW126738   3.377   3.160   1.441
 8613SOL    HW226739   3.272   3.137   1.317
 8614SOL     OW26740   0.975   2.409   2.581
 8614SOL    HW126741   1.070   2.401   2.551
 8614SOL    HW226742   0.954   2.334   2.643
 8615SOL     OW26743   4.130   0.936   3.574
 8615SOL    HW126744   4.120   1.035   3.564
 8615SOL    HW226745   4.040   0.895   3.586
 8616SOL     OW26746   4.193   4.694   2.756
 8616SOL    HW126747   4.235   4.654   2.674
 8616SOL    HW226748   4.104   4.732   2.732
 8617SOL     OW26749   4.165   0.342   3.851
 8617SOL    HW126750   4.156   0.341   3.751
 8617SOL    HW226751   4.135   0.431   3.886
 8618SOL     OW26752   5.670   4.232   0.810
 8618SOL    HW126753   5.626   4.297   0.872
 8618SOL    HW226754   5.768   4.227   0.829
 8619SOL     OW26755   5.495   4.365   0.529
 8619SOL    HW126756   5.583   4.402   0.557
 8619SOL    HW226757   5.508   4.275   0.487
 8620SOL     OW26758   1.736   0.650   4.513
 8620SOL    HW126759   1.637   0.639   4.512
 8620SOL    HW226760   1.762   0.722   4.448
 8621SOL     OW26761   5.104   2.638   1.769
 8621SOL    HW126762   5.043   2.682   1.703
 8621SOL    HW226763   5.140   2.707   1.832
 8622SOL     OW26764   6.405   4.942   2.858
 8622SOL    HW126765   6.482   4.915   2.800
 8622SOL    HW226766   6.435   4.951   2.953
 8623SOL     OW26767   6.810   3.404   4.147
 8623SOL    HW126768   6.730   3.423   4.205
 8623SOL    HW226769   6.847   3.314   4.171
 8624SOL     OW26770   3.064   4.070   5.738
 8624SOL    HW126771   2.985   4.114   5.781
 8624SOL    HW226772   3.034   3.991   5.685
 8625SOL     OW26773   3.662   2.223   5.981
 8625SOL    HW126774   3.597   2.297   5.964
 8625SOL    HW226775   3.665   2.203   6.079
 8626SOL     OW26776   4.187   4.466   0.462
 8626SOL    HW126777   4.238   4.381   0.478
 8626SOL    HW226778   4.165   4.509   0.549
 8627SOL     OW26779   1.800   0.671   2.771
 8627SOL    HW126780   1.886   0.631   2.739
 8627SOL    HW226781   1.770   0.742   2.707
 8628SOL     OW26782   0.813   6.434   0.619
 8628SOL    HW126783   0.782   6.431   0.714
 8628SOL    HW226784   0.910   6.458   0.617
 8629SOL     OW26785   0.263   0.275   4.333
 8629SOL    HW126786   0.213   0.192   4.356
 8629SOL    HW226787   0.360   0.253   4.320
 8630SOL     OW26788   5.259   3.076   2.188
 8630SOL    HW126789   5.292   3.104   2.098
 8630SOL    HW226790   5.183   3.011   2.178
 8631SOL     OW26791   3.207   6.457   0.041
 8631SOL    HW126792   3.283   6.520   0.026
 8631SOL    HW226793   3.218   6.411   0.130
 8632SOL     OW26794   4.738   4.636   5.514
 8632SOL    HW126795   4.660   4.611   5.571
 8632SOL    HW226796   4.713   4.715   5.457
 8633SOL     OW26797   5.483   3.304   6.049
 8633SOL    HW126798   5.456   3.212   6.078
 8633SOL    HW226799   5.411   3.369   6.073
 8634SOL     OW26800   5.228   4.477   0.394
 8634SOL    HW126801   5.142   4.439   0.428
 8634SOL    HW226802   5.303   4.452   0.456
 8635SOL     OW26803   5.674   2.483   6.423
 8635SOL    HW126804   5.641   2.486   6.518
 8635SOL    HW226805   5.610   2.532   6.364
 8636SOL     OW26806   4.947   6.665   1.211
 8636SOL    HW126807   4.886   6.743   1.226
 8636SOL    HW226808   5.014   6.688   1.140
 8637SOL     OW26809   2.068   1.497   6.638
 8637SOL    HW126810   2.101   1.563   6.705
 8637SOL    HW226811   1.987   1.450   6.674
 8638SOL     OW26812   4.627   2.769   5.073
 8638SOL    HW126813   4.607   2.673   5.096
 8638SOL    HW226814   4.574   2.829   5.133
 8639SOL     OW26815   4.043   3.761   6.329
 8639SOL    HW126816   4.026   3.859   6.314
 8639SOL    HW226817   4.107   3.727   6.260
 8640SOL     OW26818   2.812   3.571   1.390
 8640SOL    HW126819   2.842   3.515   1.313
 8640SOL    HW226820   2.769   3.513   1.459
 8641SOL     OW26821   4.295   5.913   2.456
 8641SOL    HW126822   4.253   5.996   2.420
 8641SOL    HW226823   4.383   5.898   2.411
 8642SOL     OW26824   1.091   6.302   4.363
 8642SOL    HW126825   1.084   6.220   4.419
 8642SOL    HW226826   1.151   6.368   4.408
 8643SOL     OW26827   4.251   6.967   0.958
 8643SOL    HW126828   4.320   6.895   0.966
 8643SOL    HW226829   4.281   0.028   1.007
 8644SOL     OW26830   5.973   1.720   6.992
 8644SOL    HW126831   5.899   1.653   6.997
 8644SOL    HW226832   6.056   1.674   6.957
 8645SOL     OW26833   5.877   3.494   1.962
 8645SOL    HW126834   5.813   3.417   1.957
 8645SOL    HW226835   5.837   3.574   1.917
 8646SOL     OW26836   0.046   1.755   5.318
 8646SOL    HW126837   6.993   1.758   5.251
 8646SOL    HW226838   0.009   1.775   5.409
 8647SOL     OW26839   2.398   4.829   1.927
 8647SOL    HW126840   2.483   4.877   1.903
 8647SOL    HW226841   2.419   4.749   1.982
 8648SOL     OW26842   5.906   5.517   0.935
 8648SOL    HW126843   6.001   5.512   0.968
 8648SOL    HW226844   5.862   5.427   0.946
 8649SOL     OW26845   4.387   6.961   1.331
 8649SOL    HW126846   4.349   7.002   1.248
 8649SOL    HW226847   4.338   6.878   1.354
 8650SOL     OW26848   2.020   6.750   4.266
 8650SOL    HW126849   1.928   6.713   4.260
 8650SOL    HW226850   2.018   6.839   4.310
 8651SOL     OW26851   3.497   1.780   0.846
 8651SOL    HW126852   3.480   1.778   0.748
 8651SOL    HW226853   3.534   1.692   0.876
 8652SOL     OW26854   1.508   3.724   3.907
 8652SOL    HW126855   1.411   3.716   3.883
 8652SOL    HW226856   1.562   3.663   3.848
 8653SOL     OW26857   0.171   1.408   6.353
 8653SOL    HW126858   0.253   1.352   6.342
 8653SOL    HW226859   0.117   1.373   6.430
 8654SOL     OW26860   0.963   4.489   1.486
 8654SOL    HW126861   0.986   4.586   1.483
 8654SOL    HW226862   0.995   4.450   1.572
 8655SOL     OW26863   0.400   0.850   5.381
 8655SOL    HW126864   0.470   0.781   5.398
 8655SOL    HW226865   0.352   0.872   5.466
 8656SOL     OW26866   4.916   0.170   1.497
 8656SOL    HW126867   4.955   0.260   1.516
 8656SOL    HW226868   4.829   0.180   1.449
 8657SOL     OW26869   5.180   1.094   2.771
 8657SOL    HW126870   5.233   1.011   2.784
 8657SOL    HW226871   5.224   1.169   2.821
 8658SOL     OW26872   0.095   4.846   0.902
 8658SOL    HW126873   0.111   4.896   0.987
 8658SOL    HW226874   0.012   4.790   0.912
 8659SOL     OW26875   4.752   1.055   2.273
 8659SOL    HW126876   4.770   1.092   2.365
 8659SOL    HW226877   4.689   0.978   2.280
 8660SOL     OW26878   0.377   3.533   1.628
 8660SOL    HW126879   0.370   3.436   1.653
 8660SOL    HW226880   0.472   3.563   1.641
 8661SOL     OW26881   6.787   3.349   3.209
 8661SOL    HW126882   6.803   3.446   3.193
 8661SOL    HW226883   6.822   3.296   3.132
 8662SOL     OW26884   2.857   5.075   3.084
 8662SOL    HW126885   2.829   5.051   3.177
 8662SOL    HW226886   2.951   5.109   3.084
 8663SOL     OW26887   3.852   5.787   3.083
 8663SOL    HW126888   3.793   5.790   3.002
 8663SOL    HW226889   3.806   5.830   3.160
 8664SOL     OW26890   2.735   5.282   3.620
 8664SOL    HW126891   2.707   5.186   3.615
 8664SOL    HW226892   2.833   5.289   3.601
 8665SOL     OW26893   5.390   2.970   5.815
 8665SOL    HW126894   5.321   3.004   5.752
 8665SOL    HW226895   5.379   3.013   5.904
 8666SOL     OW26896   4.433   6.146   2.782
 8666SOL    HW126897   4.489   6.068   2.812
 8666SOL    HW226898   4.389   6.187   2.862
 8667SOL     OW26899   5.175   2.140   4.208
 8667SOL    HW126900   5.258   2.086   4.222
 8667SOL    HW226901   5.193   2.211   4.140
 8668SOL     OW26902   4.888   2.951   5.640
 8668SOL    HW126903   4.835   2.945   5.555
 8668SOL    HW226904   4.833   2.999   5.709
 8669SOL     OW26905   6.599   6.296   5.755
 8669SOL    HW126906   6.505   6.276   5.784
 8669SOL    HW226907   6.599   6.375   5.694
 8670SOL     OW26908   6.183   4.699   6.087
 8670SOL    HW126909   6.228   4.611   6.077
 8670SOL    HW226910   6.087   4.691   6.061
 8671SOL     OW26911   0.010   2.016   2.605
 8671SOL    HW126912   0.036   2.085   2.673
 8671SOL    HW226913   6.938   1.986   2.622
 8672SOL     OW26914   0.393   1.538   3.447
 8672SOL    HW126915   0.423   1.466   3.385
 8672SOL    HW226916   0.394   1.504   3.541
 8673SOL     OW26917   1.034   1.663   1.092
 8673SOL    HW126918   1.113   1.723   1.084
 8673SOL    HW226919   0.970   1.682   1.017
 8674SOL     OW26920   6.596   4.760   3.047
 8674SOL    HW126921   6.653   4.822   3.102
 8674SOL    HW226922   6.642   4.672   3.038
 8675SOL     OW26923   3.966   2.104   5.647
 8675SOL    HW126924   4.035   2.154   5.594
 8675SOL    HW226925   3.911   2.169   5.699
 8676SOL     OW26926   5.546   0.803   0.955
 8676SOL    HW126927   5.501   0.844   0.875
 8676SOL    HW226928   5.514   0.710   0.967
 8677SOL     OW26929   1.647   6.682   5.723
 8677SOL    HW126930   1.603   6.593   5.735
 8677SOL    HW226931   1.740   6.669   5.688
 8678SOL     OW26932   1.651   1.093   1.320
 8678SOL    HW126933   1.731   1.152   1.328
 8678SOL    HW226934   1.679   0.998   1.326
 8679SOL     OW26935   1.753   1.491   4.643
 8679SOL    HW126936   1.734   1.575   4.695
 8679SOL    HW226937   1.846   1.460   4.664
 8680SOL     OW26938   6.688   1.898   6.465
 8680SOL    HW126939   6.722   1.968   6.529
 8680SOL    HW226940   6.624   1.838   6.513
 8681SOL     OW26941   5.353   5.697   0.933
 8681SOL    HW126942   5.365   5.649   1.021
 8681SOL    HW226943   5.435   5.751   0.913
 8682SOL     OW26944   0.892   1.043   1.154
 8682SOL    HW126945   0.830   1.083   1.087
 8682SOL    HW226946   0.987   1.060   1.127
 8683SOL     OW26947   2.370   4.369   4.683
 8683SOL    HW126948   2.328   4.281   4.705
 8683SOL    HW226949   2.310   4.420   4.621
 8684SOL     OW26950   0.596   3.708   4.408
 8684SOL    HW126951   0.570   3.612   4.397
 8684SOL    HW226952   0.613   3.749   4.318
 8685SOL     OW26953   4.932   2.195   4.944
 8685SOL    HW126954   4.919   2.288   4.910
 8685SOL    HW226955   4.857   2.172   5.006
 8686SOL     OW26956   6.945   5.997   3.058
 8686SOL    HW126957   7.012   5.979   2.986
 8686SOL    HW226958   6.854   6.004   3.017
 8687SOL     OW26959   6.170   3.229   3.625
 8687SOL    HW126960   6.180   3.324   3.596
 8687SOL    HW226961   6.213   3.216   3.714
 8688SOL     OW26962   0.912   4.743   6.330
 8688SOL    HW126963   0.925   4.644   6.336
 8688SOL    HW226964   0.858   4.765   6.248
 8689SOL     OW26965   4.663   3.789   6.556
 8689SOL    HW126966   4.619   3.773   6.467
 8689SOL    HW226967   4.738   3.854   6.544
 8690SOL     OW26968   2.213   2.123   3.937
 8690SOL    HW126969   2.141   2.100   4.003
 8690SOL    HW226970   2.188   2.207   3.889
 8691SOL     OW26971   2.939   2.089   5.132
 8691SOL    HW126972   2.969   2.110   5.039
 8691SOL    HW226973   3.017   2.099   5.195
 8692SOL     OW26974   4.336   1.957   5.631
 8692SOL    HW126975   4.399   2.028   5.663
 8692SOL    HW226976   4.379   1.906   5.556
 8693SOL     OW26977   6.687   0.342   6.417
 8693SOL    HW126978   6.614   0.362   6.482
 8693SOL    HW226979   6.775   0.371   6.454
 8694SOL     OW26980   5.391   3.373   4.218
 8694SOL    HW126981   5.485   3.385   4.250
 8694SOL    HW226982   5.346   3.462   4.213
 8695SOL     OW26983   3.582   4.448   6.026
 8695SOL    HW126984   3.536   4.360   6.010
 8695SOL    HW226985   3.678   4.431   6.051
 8696SOL     OW26986   3.284   5.855   6.486
 8696SOL    HW126987   3.368   5.804   6.467
 8696SOL    HW226988   3.205   5.800   6.457
 8697SOL     OW26989   1.448   3.731   5.713
 8697SOL    HW126990   1.443   3.774   5.623
 8697SOL    HW226991   1.544   3.717   5.738
 8698SOL     OW26992   5.355   5.427   4.944
 8698SOL    HW126993   5.294   5.398   4.870
 8698SOL    HW226994   5.341   5.525   4.962
 8699SOL     OW26995   1.805   3.241   6.941
 8699SOL    HW126996   1.879   3.195   6.991
 8699SOL    HW226997   1.732   3.266   7.005
 8700SOL     OW26998   0.858   0.404   5.072
 8700SOL    HW126999   0.957   0.390   5.071
 8700SOL    HW227000   0.812   0.322   5.039
 8701SOL     OW27001   0.597   2.168   6.854
 8701SOL    HW127002   0.505   2.185   6.822
 8701SOL    HW227003   0.655   2.248   6.836
 8702SOL     OW27004   5.859   4.117   1.272
 8702SOL    HW127005   5.886   4.203   1.230
 8702SOL    HW227006   5.799   4.067   1.209
 8703SOL     OW27007   2.701   4.830   1.285
 8703SOL    HW127008   2.793   4.867   1.273
 8703SOL    HW227009   2.666   4.856   1.375
 8704SOL     OW27010   1.250   2.099   3.499
 8704SOL    HW127011   1.201   2.032   3.555
 8704SOL    HW227012   1.325   2.139   3.553
 8705SOL     OW27013   4.145   2.360   0.098
 8705SOL    HW127014   4.071   2.427   0.104
 8705SOL    HW227015   4.159   2.334   0.003
 8706SOL     OW27016   4.302   3.401   6.236
 8706SOL    HW127017   4.260   3.312   6.218
 8706SOL    HW227018   4.343   3.401   6.327
 8707SOL     OW27019   1.602   2.037   4.994
 8707SOL    HW127020   1.529   2.049   4.927
 8707SOL    HW227021   1.573   1.972   5.064
 8708SOL     OW27022   5.769   2.328   1.849
 8708SOL    HW127023   5.741   2.232   1.862
 8708SOL    HW227024   5.797   2.366   1.937
 8709SOL     OW27025   6.739   0.304   5.569
 8709SOL    HW127026   6.762   0.217   5.526
 8709SOL    HW227027   6.732   0.375   5.499
 8710SOL     OW27028   2.422   1.249   3.647
 8710SOL    HW127029   2.332   1.289   3.633
 8710SOL    HW227030   2.478   1.263   3.565
 8711SOL     OW27031   1.538   0.659   2.116
 8711SOL    HW127032   1.454   0.682   2.066
 8711SOL    HW227033   1.592   0.742   2.131
 8712SOL     OW27034   1.346   2.998   5.968
 8712SOL    HW127035   1.331   3.058   5.890
 8712SOL    HW227036   1.397   2.917   5.939
 8713SOL     OW27037   0.667   4.852   1.895
 8713SOL    HW127038   0.682   4.790   1.818
 8713SOL    HW227039   0.569   4.854   1.918
 8714SOL     OW27040   6.677   6.581   6.980
 8714SOL    HW127041   6.660   6.483   6.991
 8714SOL    HW227042   6.621   6.615   6.904
 8715SOL     OW27043   2.141   2.421   0.758
 8715SOL    HW127044   2.182   2.473   0.833
 8715SOL    HW227045   2.180   2.329   0.756
 8716SOL     OW27046   6.709   6.584   1.437
 8716SOL    HW127047   6.771   6.625   1.370
 8716SOL    HW227048   6.763   6.552   1.515
 8717SOL     OW27049   2.719   3.988   0.603
 8717SOL    HW127050   2.641   4.020   0.657
 8717SOL    HW227051   2.804   4.002   0.655
 8718SOL     OW27052   2.251   4.658   6.278
 8718SOL    HW127053   2.302   4.620   6.200
 8718SOL    HW227054   2.217   4.583   6.335
 8719SOL     OW27055   4.346   0.913   5.623
 8719SOL    HW127056   4.437   0.897   5.585
 8719SOL    HW227057   4.283   0.843   5.591
 8720SOL     OW27058   6.948   4.413   4.964
 8720SOL    HW127059   6.885   4.429   5.040
 8720SOL    HW227060   6.898   4.416   4.878
 8721SOL     OW27061   0.684   6.816   6.240
 8721SOL    HW127062   0.612   6.834   6.308
 8721SOL    HW227063   0.767   6.785   6.287
 8722SOL     OW27064   4.158   0.885   1.482
 8722SOL    HW127065   4.138   0.945   1.405
 8722SOL    HW227066   4.187   0.940   1.561
 8723SOL     OW27067   4.454   6.831   2.613
 8723SOL    HW127068   4.444   6.919   2.659
 8723SOL    HW227069   4.550   6.817   2.589
 8724SOL     OW27070   4.274   0.959   4.785
 8724SOL    HW127071   4.306   0.866   4.801
 8724SOL    HW227072   4.292   0.985   4.690
 8725SOL     OW27073   0.128   6.497   3.878
 8725SOL    HW127074   0.148   6.400   3.866
 8725SOL    HW227075   0.158   6.548   3.797
 8726SOL     OW27076   0.898   1.269   0.592
 8726SOL    HW127077   0.951   1.293   0.673
 8726SOL    HW227078   0.804   1.247   0.619
 8727SOL     OW27079   4.596   5.119   6.280
 8727SOL    HW127080   4.653   5.126   6.362
 8727SOL    HW227081   4.655   5.113   6.200
 8728SOL     OW27082   6.834   0.965   3.309
 8728SOL    HW127083   6.871   1.042   3.258
 8728SOL    HW227084   6.785   0.904   3.246
 8729SOL     OW27085   3.632   5.912   6.692
 8729SOL    HW127086   3.598   5.998   6.730
 8729SOL    HW227087   3.731   5.906   6.706
 8730SOL     OW27088   4.662   4.594   2.130
 8730SOL    HW127089   4.656   4.571   2.033
 8730SOL    HW227090   4.585   4.652   2.155
 8731SOL     OW27091   1.044   1.973   3.322
 8731SOL    HW127092   1.114   1.912   3.361
 8731SOL    HW227093   1.008   1.933   3.238
 8732SOL     OW27094   5.692   5.795   0.708
 8732SOL    HW127095   5.674   5.747   0.794
 8732SOL    HW227096   5.607   5.804   0.656
 8733SOL     OW27097   6.273   5.388   1.991
 8733SOL    HW127098   6.229   5.383   1.901
 8733SOL    HW227099   6.231   5.462   2.044
 8734SOL     OW27100   0.279   3.518   2.180
 8734SOL    HW127101   0.242   3.442   2.232
 8734SOL    HW227102   0.211   3.551   2.115
 8735SOL     OW27103   1.710   3.797   5.835
 8735SOL    HW127104   1.760   3.836   5.912
 8735SOL    HW227105   1.722   3.855   5.755
 8736SOL     OW27106   1.404   5.760   2.672
 8736SOL    HW127107   1.376   5.836   2.613
 8736SOL    HW227108   1.476   5.791   2.734
 8737SOL     OW27109   1.769   5.939   6.692
 8737SOL    HW127110   1.803   6.032   6.679
 8737SOL    HW227111   1.843   5.882   6.727
 8738SOL     OW27112   1.123   3.594   3.579
 8738SOL    HW127113   1.194   3.526   3.563
 8738SOL    HW227114   1.091   3.630   3.491
 8739SOL     OW27115   5.484   4.327   5.086
 8739SOL    HW127116   5.539   4.244   5.096
 8739SOL    HW227117   5.462   4.363   5.177
 8740SOL     OW27118   3.191   1.375   4.297
 8740SOL    HW127119   3.149   1.343   4.212
 8740SOL    HW227120   3.126   1.431   4.348
 8741SOL     OW27121   1.007   0.091   2.593
 8741SOL    HW127122   1.100   0.075   2.627
 8741SOL    HW227123   0.943   0.031   2.641
 8742SOL     OW27124   3.008   1.703   2.744
 8742SOL    HW127125   3.076   1.773   2.720
 8742SOL    HW227126   3.024   1.621   2.689
 8743SOL     OW27127   1.321   1.420   1.445
 8743SOL    HW127128   1.336   1.322   1.443
 8743SOL    HW227129   1.352   1.457   1.533
 8744SOL     OW27130   3.538   4.511   6.754
 8744SOL    HW127131   3.511   4.586   6.815
 8744SOL    HW227132   3.522   4.538   6.659
 8745SOL     OW27133   6.234   1.487   6.329
 8745SOL    HW127134   6.187   1.573   6.308
 8745SOL    HW227135   6.330   1.505   6.348
 8746SOL     OW27136   4.637   5.035   4.485
 8746SOL    HW127137   4.699   5.096   4.436
 8746SOL    HW227138   4.587   5.088   4.554
 8747SOL     OW27139   0.537   1.029   1.680
 8747SOL    HW127140   0.445   0.990   1.673
 8747SOL    HW227141   0.603   0.964   1.642
 8748SOL     OW27142   0.930   2.339   3.775
 8748SOL    HW127143   0.985   2.371   3.698
 8748SOL    HW227144   0.912   2.241   3.765
 8749SOL     OW27145   2.879   1.181   5.340
 8749SOL    HW127146   2.886   1.256   5.275
 8749SOL    HW227147   2.970   1.155   5.372
 8750SOL     OW27148   3.973   2.839   6.026
 8750SOL    HW127149   3.963   2.808   5.932
 8750SOL    HW227150   3.919   2.780   6.086
 8751SOL     OW27151   0.933   5.754   1.963
 8751SOL    HW127152   0.968   5.747   2.056
 8751SOL    HW227153   0.990   5.700   1.901
 8752SOL     OW27154   4.685   3.540   6.382
 8752SOL    HW127155   4.650   3.489   6.461
 8752SOL    HW227156   4.623   3.616   6.361
 8753SOL     OW27157   1.944   2.906   0.535
 8753SOL    HW127158   1.904   2.933   0.447
 8753SOL    HW227159   1.929   2.808   0.549
 8754SOL     OW27160   2.982   5.534   6.935
 8754SOL    HW127161   3.062   5.481   6.963
 8754SOL    HW227162   3.012   5.626   6.908
 8755SOL     OW27163   6.958   2.233   2.218
 8755SOL    HW127164   6.905   2.247   2.302
 8755SOL    HW227165   6.912   2.165   2.161
 8756SOL     OW27166   2.087   1.860   3.207
 8756SOL    HW127167   2.082   1.929   3.134
 8756SOL    HW227168   2.092   1.906   3.296
 8757SOL     OW27169   5.220   6.470   5.165
 8757SOL    HW127170   5.266   6.390   5.127
 8757SOL    HW227171   5.131   6.444   5.202
 8758SOL     OW27172   3.630   6.658   4.414
 8758SOL    HW127173   3.662   6.704   4.331
 8758SOL    HW227174   3.549   6.705   4.449
 8759SOL     OW27175   5.835   1.632   0.698
 8759SOL    HW127176   5.835   1.667   0.792
 8759SOL    HW227177   5.746   1.649   0.656
 8760SOL     OW27178   2.184   2.338   4.483
 8760SOL    HW127179   2.112   2.327   4.551
 8760SOL    HW227180   2.189   2.256   4.425
 8761SOL     OW27181   4.809   0.703   2.136
 8761SOL    HW127182   4.735   0.700   2.069
 8761SOL    HW227183   4.894   0.733   2.091
 8762SOL     OW27184   1.462   5.128   3.064
 8762SOL    HW127185   1.424   5.040   3.092
 8762SOL    HW227186   1.388   5.186   3.028
 8763SOL     OW27187   0.831   1.364   6.235
 8763SOL    HW127188   0.753   1.350   6.173
 8763SOL    HW227189   0.824   1.456   6.276
 8764SOL     OW27190   3.399   4.931   5.861
 8764SOL    HW127191   3.365   4.838   5.874
 8764SOL    HW227192   3.434   4.940   5.768
 8765SOL     OW27193   4.849   6.889   4.978
 8765SOL    HW127194   4.941   6.916   5.006
 8765SOL    HW227195   4.830   6.927   4.887
 8766SOL     OW27196   4.975   4.518   5.562
 8766SOL    HW127197   5.042   4.526   5.487
 8766SOL    HW227198   4.904   4.588   5.549
 8767SOL     OW27199   2.916   1.052   4.077
 8767SOL    HW127200   2.944   0.984   4.009
 8767SOL    HW227201   2.826   1.029   4.112
 8768SOL     OW27202   6.413   2.348   0.185
 8768SOL    HW127203   6.460   2.356   0.097
 8768SOL    HW227204   6.327   2.297   0.172
 8769SOL     OW27205   6.558   0.846   0.442
 8769SOL    HW127206   6.531   0.754   0.471
 8769SOL    HW227207   6.523   0.864   0.350
 8770SOL     OW27208   4.873   4.172   1.526
 8770SOL    HW127209   4.799   4.196   1.588
 8770SOL    HW227210   4.835   4.146   1.437
 8771SOL     OW27211   0.250   3.367   0.165
 8771SOL    HW127212   0.163   3.392   0.208
 8771SOL    HW227213   0.252   3.269   0.148
 8772SOL     OW27214   5.567   6.580   3.635
 8772SOL    HW127215   5.565   6.631   3.721
 8772SOL    HW227216   5.645   6.517   3.635
 8773SOL     OW27217   0.001   1.826   4.017
 8773SOL    HW127218   6.940   1.837   4.072
 8773SOL    HW227219   0.075   1.789   4.073
 8774SOL     OW27220   1.876   0.905   0.743
 8774SOL    HW127221   1.948   0.897   0.813
 8774SOL    HW227222   1.801   0.960   0.780
 8775SOL     OW27223   5.019   1.890   4.481
 8775SOL    HW127224   5.118   1.894   4.468
 8775SOL    HW227225   4.998   1.873   4.577
 8776SOL     OW27226   4.211   2.853   0.061
 8776SOL    HW127227   4.172   2.778   0.115
 8776SOL    HW227228   4.147   2.930   0.060
 8777SOL     OW27229   1.229   2.223   3.255
 8777SOL    HW127230   1.220   2.140   3.310
 8777SOL    HW227231   1.268   2.200   3.166
 8778SOL     OW27232   3.993   5.002   6.528
 8778SOL    HW127233   3.916   4.982   6.589
 8778SOL    HW227234   4.077   4.962   6.567
 8779SOL     OW27235   3.467   4.888   2.828
 8779SOL    HW127236   3.485   4.828   2.907
 8779SOL    HW227237   3.539   4.874   2.759
 8780SOL     OW27238   6.021   5.199   3.395
 8780SOL    HW127239   5.970   5.139   3.457
 8780SOL    HW227240   6.119   5.195   3.417
 8781SOL     OW27241   3.647   6.452   2.200
 8781SOL    HW127242   3.733   6.424   2.242
 8781SOL    HW227243   3.645   6.421   2.104
 8782SOL     OW27244   5.168   0.806   1.778
 8782SOL    HW127245   5.097   0.875   1.791
 8782SOL    HW227246   5.202   0.811   1.684
 8783SOL     OW27247   5.058   3.640   5.040
 8783SOL    HW127248   4.959   3.626   5.029
 8783SOL    HW227249   5.106   3.555   5.017
 8784SOL     OW27250   5.683   6.294   0.753
 8784SOL    HW127251   5.691   6.195   0.763
 8784SOL    HW227252   5.593   6.316   0.717
 8785SOL     OW27253   0.614   5.643   6.553
 8785SOL    HW127254   0.601   5.546   6.532
 8785SOL    HW227255   0.532   5.694   6.527
 8786SOL     OW27256   4.217   1.969   2.052
 8786SOL    HW127257   4.242   1.932   2.141
 8786SOL    HW227258   4.131   2.020   2.061
 8787SOL     OW27259   3.519   0.008   1.480
 8787SOL    HW127260   3.576   6.978   1.416
 8787SOL    HW227261   3.541   7.001   1.573
 8788SOL     OW27262   0.549   0.419   4.345
 8788SOL    HW127263   0.565   0.412   4.246
 8788SOL    HW227264   0.482   0.492   4.362
 8789SOL     OW27265   0.033   2.845   4.871
 8789SOL    HW127266   0.017   2.837   4.970
 8789SOL    HW227267   0.037   2.941   4.846
 8790SOL     OW27268   5.435   2.651   6.276
 8790SOL    HW127269   5.401   2.653   6.182
 8790SOL    HW227270   5.390   2.722   6.330
 8791SOL     OW27271   4.156   5.178   6.161
 8791SOL    HW127272   4.150   5.177   6.061
 8791SOL    HW227273   4.088   5.114   6.198
 8792SOL     OW27274   5.636   5.353   1.207
 8792SOL    HW127275   5.557   5.409   1.184
 8792SOL    HW227276   5.661   5.298   1.127
 8793SOL     OW27277   0.194   4.847   3.984
 8793SOL    HW127278   0.249   4.868   4.064
 8793SOL    HW227279   0.254   4.829   3.906
 8794SOL     OW27280   0.404   0.845   2.268
 8794SOL    HW127281   0.364   0.811   2.354
 8794SOL    HW227282   0.445   0.935   2.284
 8795SOL     OW27283   1.435   5.179   5.935
 8795SOL    HW127284   1.482   5.117   5.998
 8795SOL    HW227285   1.350   5.211   5.977
 8796SOL     OW27286   6.602   3.766   3.650
 8796SOL    HW127287   6.630   3.672   3.670
 8796SOL    HW227288   6.584   3.814   3.735
 8797SOL     OW27289   4.694   6.580   4.031
 8797SOL    HW127290   4.685   6.583   4.130
 8797SOL    HW227291   4.789   6.559   4.006
 8798SOL     OW27292   3.848   6.311   5.817
 8798SOL    HW127293   3.860   6.314   5.916
 8798SOL    HW227294   3.757   6.276   5.796
 8799SOL     OW27295   1.539   5.624   1.957
 8799SOL    HW127296   1.628   5.583   1.980
 8799SOL    HW227297   1.553   5.710   1.908
 8800SOL     OW27298   0.420   5.945   5.407
 8800SOL    HW127299   0.477   5.999   5.469
 8800SOL    HW227300   0.344   6.001   5.374
 8801SOL     OW27301   6.582   2.688   5.126
 8801SOL    HW127302   6.577   2.684   5.026
 8801SOL    HW227303   6.550   2.778   5.157
 8802SOL     OW27304   1.384   6.548   5.896
 8802SOL    HW127305   1.441   6.498   5.831
 8802SOL    HW227306   1.364   6.489   5.974
 8803SOL     OW27307   6.445   0.102   6.514
 8803SOL    HW127308   6.489   0.150   6.590
 8803SOL    HW227309   6.357   0.145   6.493
 8804SOL     OW27310   1.352   6.083   2.645
 8804SOL    HW127311   1.269   6.038   2.612
 8804SOL    HW227312   1.342   6.105   2.742
 8805SOL     OW27313   4.866   5.069   2.884
 8805SOL    HW127314   4.952   5.025   2.860
 8805SOL    HW227315   4.800   5.054   2.811
 8806SOL     OW27316   1.929   6.799   0.747
 8806SOL    HW127317   1.879   6.815   0.832
 8806SOL    HW227318   2.004   6.736   0.764
 8807SOL     OW27319   4.838   2.906   0.968
 8807SOL    HW127320   4.925   2.956   0.970
 8807SOL    HW227321   4.842   2.829   1.032
 8808SOL     OW27322   2.137   2.216   1.204
 8808SOL    HW127323   2.084   2.209   1.119
 8808SOL    HW227324   2.082   2.261   1.274
 8809SOL     OW27325   1.353   3.914   3.279
 8809SOL    HW127326   1.264   3.959   3.286
 8809SOL    HW227327   1.414   3.971   3.224
 8810SOL     OW27328   0.761   0.554   5.847
 8810SOL    HW127329   0.700   0.590   5.918
 8810SOL    HW227330   0.743   0.601   5.761
 8811SOL     OW27331   3.594   5.719   2.618
 8811SOL    HW127332   3.645   5.738   2.534
 8811SOL    HW227333   3.543   5.800   2.646
 8812SOL     OW27334   4.537   1.402   6.720
 8812SOL    HW127335   4.463   1.336   6.732
 8812SOL    HW227336   4.618   1.372   6.770
 8813SOL     OW27337   2.365   4.734   3.643
 8813SOL    HW127338   2.362   4.829   3.674
 8813SOL    HW227339   2.282   4.713   3.592
 8814SOL     OW27340   5.056   6.266   6.431
 8814SOL    HW127341   5.153   6.280   6.411
 8814SOL    HW227342   5.034   6.169   6.421
 8815SOL     OW27343   5.559   1.529   0.232
 8815SOL    HW127344   5.538   1.616   0.275
 8815SOL    HW227345   5.475   1.478   0.215
 8816SOL     OW27346   0.777   6.474   4.994
 8816SOL    HW127347   0.780   6.404   4.922
 8816SOL    HW227348   0.869   6.506   5.014
 8817SOL     OW27349   1.670   3.190   4.291
 8817SOL    HW127350   1.641   3.117   4.229
 8817SOL    HW227351   1.630   3.174   4.381
 8818SOL     OW27352   1.956   7.021   4.337
 8818SOL    HW127353   1.882   0.067   4.344
 8818SOL    HW227354   2.036   0.032   4.388
 8819SOL     OW27355   5.969   4.498   5.957
 8819SOL    HW127356   5.945   4.404   5.981
 8819SOL    HW227357   5.991   4.503   5.860
 8820SOL     OW27358   3.323   0.353   4.475
 8820SOL    HW127359   3.227   0.358   4.504
 8820SOL    HW227360   3.358   0.446   4.461
 8821SOL     OW27361   0.660   4.250   6.782
 8821SOL    HW127362   0.724   4.298   6.721
 8821SOL    HW227363   0.607   4.317   6.834
 8822SOL     OW27364   6.524   6.820   3.793
 8822SOL    HW127365   6.464   6.843   3.870
 8822SOL    HW227366   6.577   6.900   3.767
 8823SOL     OW27367   3.740   0.876   2.966
 8823SOL    HW127368   3.802   0.907   2.894
 8823SOL    HW227369   3.760   0.781   2.988
 8824SOL     OW27370   2.088   1.035   1.860
 8824SOL    HW127371   2.012   0.998   1.914
 8824SOL    HW227372   2.058   1.048   1.766
 8825SOL     OW27373   6.923   6.757   7.010
 8825SOL    HW127374   6.985   6.756   6.931
 8825SOL    HW227375   6.857   6.682   7.002
 8826SOL     OW27376   1.132   3.227   0.816
 8826SOL    HW127377   1.215   3.174   0.799
 8826SOL    HW227378   1.080   3.184   0.890
 8827SOL     OW27379   3.953   6.895   2.242
 8827SOL    HW127380   4.036   6.839   2.250
 8827SOL    HW227381   3.945   6.931   2.149
 8828SOL     OW27382   3.622   2.870   6.253
 8828SOL    HW127383   3.617   2.880   6.353
 8828SOL    HW227384   3.710   2.905   6.221
 8829SOL     OW27385   0.498   1.707   2.338
 8829SOL    HW127386   0.486   1.740   2.244
 8829SOL    HW227387   0.503   1.784   2.400
 8830SOL     OW27388   3.002   1.777   4.007
 8830SOL    HW127389   2.944   1.843   4.054
 8830SOL    HW227390   3.094   1.780   4.045
 8831SOL     OW27391   0.310   2.721   2.355
 8831SOL    HW127392   0.388   2.778   2.329
 8831SOL    HW227393   0.225   2.771   2.338
 8832SOL     OW27394   6.302   0.468   4.356
 8832SOL    HW127395   6.253   0.554   4.373
 8832SOL    HW227396   6.336   0.468   4.262
 8833SOL     OW27397   3.253   2.895   1.016
 8833SOL    HW127398   3.281   2.988   0.992
 8833SOL    HW227399   3.275   2.833   0.941
 8834SOL     OW27400   4.958   3.296   5.721
 8834SOL    HW127401   4.862   3.267   5.725
 8834SOL    HW227402   4.980   3.349   5.803
 8835SOL     OW27403   6.061   0.976   5.432
 8835SOL    HW127404   6.114   1.042   5.378
 8835SOL    HW227405   6.067   1.001   5.529
 8836SOL     OW27406   5.261   1.892   0.521
 8836SOL    HW127407   5.296   1.798   0.516
 8836SOL    HW227408   5.279   1.929   0.613
 8837SOL     OW27409   5.721   6.870   1.538
 8837SOL    HW127410   5.770   6.831   1.460
 8837SOL    HW227411   5.627   6.890   1.511
 8838SOL     OW27412   0.401   4.097   2.902
 8838SOL    HW127413   0.438   4.190   2.908
 8838SOL    HW227414   0.309   4.101   2.862
 8839SOL     OW27415   5.125   5.903   3.410
 8839SOL    HW127416   5.210   5.917   3.461
 8839SOL    HW227417   5.146   5.868   3.319
 8840SOL     OW27418   6.895   1.321   1.486
 8840SOL    HW127419   6.957   1.264   1.539
 8840SOL    HW227420   6.830   1.366   1.547
 8841SOL     OW27421   3.622   1.099   1.675
 8841SOL    HW127422   3.654   1.046   1.596
 8841SOL    HW227423   3.658   1.192   1.670
 8842SOL     OW27424   3.735   3.627   4.355
 8842SOL    HW127425   3.681   3.652   4.436
 8842SOL    HW227426   3.832   3.644   4.373
 8843SOL     OW27427   1.674   4.609   5.705
 8843SOL    HW127428   1.642   4.588   5.613
 8843SOL    HW227429   1.769   4.639   5.702
 8844SOL     OW27430   4.820   1.592   5.018
 8844SOL    HW127431   4.820   1.569   5.115
 8844SOL    HW227432   4.807   1.509   4.964
 8845SOL     OW27433   0.404   4.651   1.822
 8845SOL    HW127434   0.313   4.615   1.839
 8845SOL    HW227435   0.420   4.730   1.882
 8846SOL     OW27436   5.790   4.913   3.291
 8846SOL    HW127437   5.691   4.903   3.297
 8846SOL    HW227438   5.833   4.866   3.369
 8847SOL     OW27439   2.299   2.308   3.119
 8847SOL    HW127440   2.394   2.315   3.146
 8847SOL    HW227441   2.293   2.276   3.024
 8848SOL     OW27442   3.916   2.072   1.087
 8848SOL    HW127443   3.838   2.117   1.131
 8848SOL    HW227444   3.986   2.053   1.155
 8849SOL     OW27445   2.823   5.401   4.738
 8849SOL    HW127446   2.769   5.460   4.799
 8849SOL    HW227447   2.763   5.330   4.700
 8850SOL     OW27448   3.146   1.675   1.453
 8850SOL    HW127449   3.168   1.690   1.549
 8850SOL    HW227450   3.177   1.753   1.399
 8851SOL     OW27451   6.990   5.460   3.241
 8851SOL    HW127452   6.994   5.376   3.186
 8851SOL    HW227453   6.999   5.437   3.338
 8852SOL     OW27454   5.376   2.477   5.545
 8852SOL    HW127455   5.404   2.494   5.450
 8852SOL    HW227456   5.341   2.384   5.552
 8853SOL     OW27457   4.868   0.683   5.341
 8853SOL    HW127458   4.800   0.711   5.274
 8853SOL    HW227459   4.915   0.764   5.377
 8854SOL     OW27460   1.846   1.573   6.396
 8854SOL    HW127461   1.921   1.539   6.339
 8854SOL    HW227462   1.832   1.511   6.473
 8855SOL     OW27463   6.265   5.270   6.353
 8855SOL    HW127464   6.308   5.300   6.268
 8855SOL    HW227465   6.240   5.349   6.408
 8856SOL     OW27466   5.757   0.617   4.899
 8856SOL    HW127467   5.826   0.620   4.827
 8856SOL    HW227468   5.783   0.679   4.973
 8857SOL     OW27469   6.305   1.911   3.725
 8857SOL    HW127470   6.246   1.979   3.679
 8857SOL    HW227471   6.320   1.834   3.663
 8858SOL     OW27472   0.397   3.354   6.313
 8858SOL    HW127473   0.462   3.423   6.344
 8858SOL    HW227474   0.422   3.323   6.221
 8859SOL     OW27475   1.682   5.502   6.241
 8859SOL    HW127476   1.699   5.554   6.157
 8859SOL    HW227477   1.621   5.554   6.301
 8860SOL     OW27478   1.391   1.833   2.628
 8860SOL    HW127479   1.394   1.911   2.691
 8860SOL    HW227480   1.476   1.781   2.637
 8861SOL     OW27481   4.359   3.205   6.970
 8861SOL    HW127482   4.418   3.128   6.993
 8861SOL    HW227483   4.379   3.281   0.011
 8862SOL     OW27484   5.709   1.390   4.423
 8862SOL    HW127485   5.628   1.338   4.393
 8862SOL    HW227486   5.708   1.480   4.381
 8863SOL     OW27487   2.205   5.627   5.404
 8863SOL    HW127488   2.294   5.601   5.443
 8863SOL    HW227489   2.175   5.556   5.341
 8864SOL     OW27490   1.344   2.580   6.971
 8864SOL    HW127491   1.423   2.628   7.009
 8864SOL    HW227492   1.302   2.523   0.020
 8865SOL     OW27493   2.777   2.199   6.120
 8865SOL    HW127494   2.683   2.168   6.108
 8865SOL    HW227495   2.780   2.274   6.185
 8866SOL     OW27496   3.252   6.494   4.218
 8866SOL    HW127497   3.322   6.453   4.275
 8866SOL    HW227498   3.253   6.452   4.127
 8867SOL     OW27499   6.462   2.930   3.649
 8867SOL    HW127500   6.496   2.911   3.741
 8867SOL    HW227501   6.362   2.933   3.650
 8868SOL     OW27502   4.419   3.968   6.993
 8868SOL    HW127503   4.354   4.013   6.932
 8868SOL    HW227504   4.507   4.015   6.988
 8869SOL     OW27505   4.897   2.682   3.514
 8869SOL    HW127506   4.951   2.737   3.450
 8869SOL    HW227507   4.957   2.634   3.577
 8870SOL     OW27508   4.338   1.321   0.862
 8870SOL    HW127509   4.345   1.417   0.888
 8870SOL    HW227510   4.405   1.267   0.913
 8871SOL     OW27511   2.592   2.135   3.521
 8871SOL    HW127512   2.496   2.148   3.497
 8871SOL    HW227513   2.599   2.096   3.612
 8872SOL     OW27514   1.204   3.800   4.052
 8872SOL    HW127515   1.233   3.794   3.957
 8872SOL    HW227516   1.262   3.865   4.101
 8873SOL     OW27517   0.302   5.402   4.334
 8873SOL    HW127518   0.355   5.325   4.369
 8873SOL    HW227519   0.353   5.487   4.348
 8874SOL     OW27520   2.792   0.655   1.193
 8874SOL    HW127521   2.713   0.715   1.188
 8874SOL    HW227522   2.800   0.603   1.108
 8875SOL     OW27523   1.891   2.985   4.156
 8875SOL    HW127524   1.793   2.972   4.145
 8875SOL    HW227525   1.908   3.059   4.221
 8876SOL     OW27526   0.782   0.519   4.655
 8876SOL    HW127527   0.763   0.615   4.679
 8876SOL    HW227528   0.810   0.514   4.559
 8877SOL     OW27529   3.028   0.365   4.526
 8877SOL    HW127530   3.057   0.360   4.622
 8877SOL    HW227531   3.020   0.461   4.499
 8878SOL     OW27532   6.934   4.252   6.550
 8878SOL    HW127533   6.918   4.154   6.551
 8878SOL    HW227534   6.856   4.299   6.592
 8879SOL     OW27535   5.660   6.514   6.540
 8879SOL    HW127536   5.567   6.548   6.535
 8879SOL    HW227537   5.712   6.546   6.460
 8880SOL     OW27538   7.015   5.006   4.591
 8880SOL    HW127539   6.931   5.027   4.641
 8880SOL    HW227540   6.995   5.001   4.493
 8881SOL     OW27541   6.587   1.448   1.501
 8881SOL    HW127542   6.584   1.360   1.550
 8881SOL    HW227543   6.528   1.514   1.548
 8882SOL     OW27544   5.512   1.937   6.512
 8882SOL    HW127545   5.589   1.909   6.569
 8882SOL    HW227546   5.502   2.036   6.516
 8883SOL     OW27547   6.641   1.072   5.489
 8883SOL    HW127548   6.569   1.019   5.445
 8883SOL    HW227549   6.627   1.169   5.471
 8884SOL     OW27550   6.577   0.434   6.172
 8884SOL    HW127551   6.616   0.383   6.248
 8884SOL    HW227552   6.583   0.532   6.190
 8885SOL     OW27553   5.665   3.652   1.538
 8885SOL    HW127554   5.579   3.665   1.588
 8885SOL    HW227555   5.653   3.684   1.444
 8886SOL     OW27556   3.140   6.873   5.971
 8886SOL    HW127557   3.101   6.833   5.888
 8886SOL    HW227558   3.167   6.800   6.034
 8887SOL     OW27559   2.579   1.205   0.768
 8887SOL    HW127560   2.565   1.122   0.821
 8887SOL    HW227561   2.556   1.285   0.824
 8888SOL     OW27562   3.194   1.955   2.067
 8888SOL    HW127563   3.211   2.011   1.986
 8888SOL    HW227564   3.096   1.934   2.072
 8889SOL     OW27565   3.922   6.494   4.382
 8889SOL    HW127566   3.968   6.564   4.326
 8889SOL    HW227567   3.905   6.413   4.326
 8890SOL     OW27568   1.077   5.395   4.588
 8890SOL    HW127569   1.053   5.375   4.683
 8890SOL    HW227570   1.152   5.461   4.586
 8891SOL     OW27571   4.973   2.780   6.239
 8891SOL    HW127572   5.050   2.775   6.174
 8891SOL    HW227573   4.921   2.864   6.222
 8892SOL     OW27574   2.148   0.098   2.723
 8892SOL    HW127575   2.114   0.167   2.787
 8892SOL    HW227576   2.105   0.009   2.743
 8893SOL     OW27577   0.339   1.376   1.310
 8893SOL    HW127578   0.274   1.329   1.251
 8893SOL    HW227579   0.324   1.475   1.306
 8894SOL     OW27580   3.840   2.641   6.168
 8894SOL    HW127581   3.904   2.605   6.235
 8894SOL    HW227582   3.747   2.637   6.205
 8895SOL     OW27583   0.289   6.987   2.201
 8895SOL    HW127584   0.225   7.014   2.130
 8895SOL    HW227585   0.323   6.895   2.182
 8896SOL     OW27586   1.744   4.055   4.536
 8896SOL    HW127587   1.750   4.096   4.627
 8896SOL    HW227588   1.710   4.123   4.471
 8897SOL     OW27589   1.610   1.769   1.684
 8897SOL    HW127590   1.628   1.843   1.619
 8897SOL    HW227591   1.673   1.694   1.668
 8898SOL     OW27592   5.903   3.824   3.916
 8898SOL    HW127593   5.982   3.768   3.940
 8898SOL    HW227594   5.885   3.815   3.818
 8899SOL     OW27595   1.212   4.573   0.600
 8899SOL    HW127596   1.158   4.644   0.555
 8899SOL    HW227597   1.308   4.602   0.605
 8900SOL     OW27598   5.232   2.195   3.289
 8900SOL    HW127599   5.241   2.219   3.192
 8900SOL    HW227600   5.136   2.205   3.317
 8901SOL     OW27601   1.096   0.338   2.939
 8901SOL    HW127602   1.085   0.324   2.841
 8901SOL    HW227603   1.183   0.385   2.957
 8902SOL     OW27604   1.286   5.557   6.348
 8902SOL    HW127605   1.222   5.626   6.313
 8902SOL    HW227606   1.299   5.571   6.446
 8903SOL     OW27607   2.011   1.950   3.676
 8903SOL    HW127608   1.961   1.885   3.734
 8903SOL    HW227609   2.071   1.899   3.614
 8904SOL     OW27610   0.656   6.462   3.778
 8904SOL    HW127611   0.634   6.516   3.697
 8904SOL    HW227612   0.611   6.503   3.858
 8905SOL     OW27613   2.359   3.719   5.566
 8905SOL    HW127614   2.321   3.768   5.488
 8905SOL    HW227615   2.395   3.631   5.537
 8906SOL     OW27616   6.829   6.398   5.851
 8906SOL    HW127617   6.739   6.362   5.825
 8906SOL    HW227618   6.900   6.335   5.821
 8907SOL     OW27619   3.376   2.639   5.289
 8907SOL    HW127620   3.310   2.611   5.359
 8907SOL    HW227621   3.426   2.558   5.257
 8908SOL     OW27622   1.396   2.247   1.777
 8908SOL    HW127623   1.302   2.233   1.808
 8908SOL    HW227624   1.395   2.279   1.682
 8909SOL     OW27625   2.259   0.702   6.976
 8909SOL    HW127626   2.282   0.608   7.000
 8909SOL    HW227627   2.339   0.761   6.992
 8910SOL     OW27628   2.830   3.598   6.757
 8910SOL    HW127629   2.884   3.682   6.749
 8910SOL    HW227630   2.751   3.603   6.696
 8911SOL     OW27631   3.692   2.026   4.577
 8911SOL    HW127632   3.612   2.051   4.522
 8911SOL    HW227633   3.761   2.097   4.569
 8912SOL     OW27634   4.750   2.039   6.014
 8912SOL    HW127635   4.711   2.022   5.923
 8912SOL    HW227636   4.819   2.111   6.007
 8913SOL     OW27637   5.330   4.335   1.369
 8913SOL    HW127638   5.296   4.293   1.453
 8913SOL    HW227639   5.371   4.264   1.311
 8914SOL     OW27640   3.273   1.547   4.774
 8914SOL    HW127641   3.327   1.552   4.690
 8914SOL    HW227642   3.194   1.608   4.766
 8915SOL     OW27643   1.582   3.767   2.339
 8915SOL    HW127644   1.666   3.796   2.385
 8915SOL    HW227645   1.521   3.725   2.406
 8916SOL     OW27646   6.760   3.660   2.837
 8916SOL    HW127647   6.662   3.641   2.832
 8916SOL    HW227648   6.808   3.601   2.772
 8917SOL     OW27649   6.269   6.111   0.132
 8917SOL    HW127650   6.349   6.116   0.192
 8917SOL    HW227651   6.227   6.021   0.139
 8918SOL     OW27652   5.365   5.200   6.474
 8918SOL    HW127653   5.418   5.197   6.389
 8918SOL    HW227654   5.335   5.294   6.491
 8919SOL     OW27655   3.426   5.101   1.372
 8919SOL    HW127656   3.350   5.081   1.310
 8919SOL    HW227657   3.390   5.129   1.461
 8920SOL     OW27658   6.002   5.313   5.235
 8920SOL    HW127659   6.055   5.240   5.278
 8920SOL    HW227660   5.906   5.304   5.262
 8921SOL     OW27661   1.254   0.550   3.742
 8921SOL    HW127662   1.201   0.617   3.794
 8921SOL    HW227663   1.192   0.494   3.686
 8922SOL     OW27664   1.044   4.161   0.678
 8922SOL    HW127665   1.049   4.150   0.579
 8922SOL    HW227666   1.087   4.247   0.705
 8923SOL     OW27667   2.087   4.265   6.287
 8923SOL    HW127668   1.989   4.268   6.270
 8923SOL    HW227669   2.113   4.341   6.347
 8924SOL     OW27670   2.970   5.074   5.563
 8924SOL    HW127671   2.979   5.159   5.614
 8924SOL    HW227672   3.049   5.061   5.504
 8925SOL     OW27673   6.799   0.486   2.349
 8925SOL    HW127674   6.894   0.504   2.327
 8925SOL    HW227675   6.741   0.559   2.311
 8926SOL     OW27676   5.355   2.497   1.371
 8926SOL    HW127677   5.392   2.562   1.437
 8926SOL    HW227678   5.255   2.493   1.381
 8927SOL     OW27679   2.067   2.597   5.009
 8927SOL    HW127680   2.164   2.619   4.999
 8927SOL    HW227681   2.029   2.574   4.920
 8928SOL     OW27682   0.507   6.622   5.375
 8928SOL    HW127683   0.580   6.666   5.428
 8928SOL    HW227684   0.419   6.656   5.407
 8929SOL     OW27685   6.483   3.946   3.859
 8929SOL    HW127686   6.464   3.971   3.955
 8929SOL    HW227687   6.513   4.028   3.810
 8930SOL     OW27688   1.604   4.989   4.727
 8930SOL    HW127689   1.525   4.930   4.742
 8930SOL    HW227690   1.667   4.945   4.663
 8931SOL     OW27691   4.777   1.369   1.083
 8931SOL    HW127692   4.740   1.448   1.131
 8931SOL    HW227693   4.845   1.399   1.017
 8932SOL     OW27694   6.964   0.429   6.349
 8932SOL    HW127695   0.038   0.398   6.347
 8932SOL    HW227696   6.956   0.509   6.408
 8933SOL     OW27697   1.564   0.593   5.141
 8933SOL    HW127698   1.562   0.688   5.173
 8933SOL    HW227699   1.529   0.589   5.047
 8934SOL     OW27700   3.394   5.929   2.695
 8934SOL    HW127701   3.383   6.016   2.646
 8934SOL    HW227702   3.307   5.901   2.734
 8935SOL     OW27703   4.975   2.520   2.915
 8935SOL    HW127704   4.929   2.506   2.828
 8935SOL    HW227705   4.944   2.606   2.956
 8936SOL     OW27706   1.103   5.633   1.741
 8936SOL    HW127707   1.178   5.699   1.733
 8936SOL    HW227708   1.141   5.540   1.742
 8937SOL     OW27709   6.386   6.972   4.011
 8937SOL    HW127710   6.438   0.036   4.022
 8937SOL    HW227711   6.320   6.964   4.086
 8938SOL     OW27712   6.213   0.739   0.674
 8938SOL    HW127713   6.251   0.654   0.640
 8938SOL    HW227714   6.177   0.793   0.597
 8939SOL     OW27715   0.778   2.941   4.039
 8939SOL    HW127716   0.692   2.988   4.021
 8939SOL    HW227717   0.825   2.924   3.952
 8940SOL     OW27718   6.552   3.074   1.465
 8940SOL    HW127719   6.570   3.169   1.490
 8940SOL    HW227720   6.553   3.018   1.548
 8941SOL     OW27721   4.754   2.254   1.305
 8941SOL    HW127722   4.721   2.280   1.214
 8941SOL    HW227723   4.687   2.280   1.374
 8942SOL     OW27724   5.770   4.711   3.725
 8942SOL    HW127725   5.829   4.755   3.793
 8942SOL    HW227726   5.744   4.778   3.656
 8943SOL     OW27727   4.929   3.992   6.966
 8943SOL    HW127728   4.958   3.899   6.941
 8943SOL    HW227729   4.986   4.026   0.020
 8944SOL     OW27730   5.000   5.587   4.418
 8944SOL    HW127731   5.007   5.504   4.473
 8944SOL    HW227732   5.079   5.593   4.357
 8945SOL     OW27733   5.876   3.914   5.311
 8945SOL    HW127734   5.790   3.886   5.269
 8945SOL    HW227735   5.941   3.838   5.308
 8946SOL     OW27736   5.112   0.526   4.752
 8946SOL    HW127737   5.027   0.545   4.703
 8946SOL    HW227738   5.170   0.465   4.697
 8947SOL     OW27739   1.890   5.164   6.565
 8947SOL    HW127740   1.931   5.127   6.481
 8947SOL    HW227741   1.939   5.128   6.644
 8948SOL     OW27742   6.538   1.060   3.047
 8948SOL    HW127743   6.572   1.118   3.121
 8948SOL    HW227744   6.481   1.115   2.986
 8949SOL     OW27745   3.190   6.096   1.015
 8949SOL    HW127746   3.203   6.195   1.022
 8949SOL    HW227747   3.258   6.049   1.071
 8950SOL     OW27748   5.003   4.090   1.249
 8950SOL    HW127749   5.007   4.190   1.249
 8950SOL    HW227750   4.914   4.061   1.285
 8951SOL     OW27751   1.717   2.014   4.654
 8951SOL    HW127752   1.749   2.063   4.735
 8951SOL    HW227753   1.662   2.075   4.597
 8952SOL     OW27754   2.032   4.505   3.991
 8952SOL    HW127755   2.089   4.586   4.005
 8952SOL    HW227756   2.089   4.424   3.987
 8953SOL     OW27757   1.688   5.153   1.905
 8953SOL    HW127758   1.725   5.181   1.817
 8953SOL    HW227759   1.735   5.070   1.937
 8954SOL     OW27760   1.433   5.450   5.051
 8954SOL    HW127761   1.447   5.377   5.118
 8954SOL    HW227762   1.424   5.411   4.960
 8955SOL     OW27763   5.782   2.604   4.194
 8955SOL    HW127764   5.683   2.609   4.178
 8955SOL    HW227765   5.799   2.594   4.292
 8956SOL     OW27766   0.882   5.722   5.880
 8956SOL    HW127767   0.904   5.625   5.871
 8956SOL    HW227768   0.960   5.777   5.850
 8957SOL     OW27769   1.099   5.938   2.623
 8957SOL    HW127770   1.054   6.020   2.659
 8957SOL    HW227771   1.113   5.873   2.698
 8958SOL     OW27772   1.706   4.133   5.235
 8958SOL    HW127773   1.659   4.108   5.151
 8958SOL    HW227774   1.784   4.072   5.248
 8959SOL     OW27775   0.121   2.880   3.006
 8959SOL    HW127776   0.032   2.914   3.038
 8959SOL    HW227777   0.125   2.781   3.020
 8960SOL     OW27778   5.271   4.021   3.524
 8960SOL    HW127779   5.352   4.066   3.485
 8960SOL    HW227780   5.247   4.065   3.610
 8961SOL     OW27781   2.656   6.431   5.501
 8961SOL    HW127782   2.751   6.417   5.472
 8961SOL    HW227783   2.653   6.436   5.601
 8962SOL     OW27784   0.731   5.898   1.573
 8962SOL    HW127785   0.749   5.936   1.664
 8962SOL    HW227786   0.782   5.812   1.563
 8963SOL     OW27787   4.038   6.082   4.524
 8963SOL    HW127788   4.079   6.001   4.565
 8963SOL    HW227789   4.090   6.163   4.551
 8964SOL     OW27790   0.655   3.301   4.551
 8964SOL    HW127791   0.603   3.374   4.595
 8964SOL    HW227792   0.609   3.213   4.567
 8965SOL     OW27793   4.095   4.868   0.874
 8965SOL    HW127794   4.053   4.835   0.789
 8965SOL    HW227795   4.191   4.841   0.876
 8966SOL     OW27796   4.820   4.840   6.284
 8966SOL    HW127797   4.741   4.835   6.223
 8966SOL    HW227798   4.903   4.849   6.229
 8967SOL     OW27799   2.830   7.006   3.481
 8967SOL    HW127800   2.835   6.921   3.532
 8967SOL    HW227801   2.843   6.987   3.383
 8968SOL     OW27802   3.155   5.034   1.882
 8968SOL    HW127803   3.168   4.940   1.914
 8968SOL    HW227804   3.190   5.042   1.788
 8969SOL     OW27805   0.143   1.403   2.917
 8969SOL    HW127806   0.210   1.330   2.931
 8969SOL    HW227807   0.183   1.474   2.860
 8970SOL     OW27808   1.855   0.918   5.226
 8970SOL    HW127809   1.907   0.848   5.176
 8970SOL    HW227810   1.761   0.920   5.191
 8971SOL     OW27811   4.444   5.433   0.692
 8971SOL    HW127812   4.532   5.408   0.652
 8971SOL    HW227813   4.378   5.359   0.679
 8972SOL     OW27814   6.419   4.850   0.633
 8972SOL    HW127815   6.341   4.822   0.578
 8972SOL    HW227816   6.500   4.860   0.575
 8973SOL     OW27817   0.913   2.628   2.437
 8973SOL    HW127818   0.978   2.552   2.439
 8973SOL    HW227819   0.914   2.674   2.525
 8974SOL     OW27820   2.087   4.394   4.807
 8974SOL    HW127821   2.131   4.367   4.893
 8974SOL    HW227822   2.079   4.315   4.747
 8975SOL     OW27823   0.475   6.461   6.115
 8975SOL    HW127824   0.566   6.497   6.098
 8975SOL    HW227825   0.481   6.372   6.161
 8976SOL     OW27826   6.836   6.887   1.838
 8976SOL    HW127827   6.758   6.925   1.888
 8976SOL    HW227828   6.905   6.957   1.825
 8977SOL     OW27829   0.027   4.965   5.987
 8977SOL    HW127830   0.071   4.956   5.897
 8977SOL    HW227831   0.030   4.878   6.035
 8978SOL     OW27832   5.595   5.754   5.801
 8978SOL    HW127833   5.679   5.731   5.753
 8978SOL    HW227834   5.516   5.720   5.750
 8979SOL     OW27835   1.011   4.852   5.982
 8979SOL    HW127836   1.044   4.899   5.901
 8979SOL    HW227837   0.929   4.898   6.016
 8980SOL     OW27838   3.319   0.612   5.116
 8980SOL    HW127839   3.260   0.688   5.088
 8980SOL    HW227840   3.263   0.539   5.155
 8981SOL     OW27841   3.835   2.704   6.912
 8981SOL    HW127842   3.866   2.644   6.985
 8981SOL    HW227843   3.911   2.722   6.849
 8982SOL     OW27844   0.848   1.487   1.177
 8982SOL    HW127845   0.823   1.465   1.272
 8982SOL    HW227846   0.929   1.546   1.177
 8983SOL     OW27847   1.029   0.455   2.228
 8983SOL    HW127848   1.054   0.369   2.183
 8983SOL    HW227849   0.975   0.435   2.309
 8984SOL     OW27850   6.298   0.378   3.802
 8984SOL    HW127851   6.299   0.278   3.793
 8984SOL    HW227852   6.237   0.417   3.733
 8985SOL     OW27853   4.566   2.826   0.662
 8985SOL    HW127854   4.659   2.813   0.626
 8985SOL    HW227855   4.502   2.772   0.608
 8986SOL     OW27856   0.005   5.666   0.305
 8986SOL    HW127857   0.065   5.612   0.365
 8986SOL    HW227858   0.049   5.754   0.286
 8987SOL     OW27859   2.030   0.773   1.429
 8987SOL    HW127860   2.128   0.784   1.413
 8987SOL    HW227861   2.014   0.690   1.483
 8988SOL     OW27862   1.527   5.362   1.812
 8988SOL    HW127863   1.539   5.448   1.863
 8988SOL    HW227864   1.588   5.293   1.849
 8989SOL     OW27865   4.732   1.604   1.434
 8989SOL    HW127866   4.678   1.687   1.446
 8989SOL    HW227867   4.818   1.612   1.484
 8990SOL     OW27868   3.909   0.362   1.895
 8990SOL    HW127869   3.818   0.330   1.921
 8990SOL    HW227870   3.978   0.308   1.943
 8991SOL     OW27871   2.141   2.871   6.874
 8991SOL    HW127872   2.079   2.834   6.805
 8991SOL    HW227873   2.232   2.831   6.862
 8992SOL     OW27874   0.407   3.594   0.413
 8992SOL    HW127875   0.458   3.528   0.358
 8992SOL    HW227876   0.354   3.654   0.353
 8993SOL     OW27877   5.672   3.078   3.826
 8993SOL    HW127878   5.684   3.141   3.902
 8993SOL    HW227879   5.670   2.984   3.860
 8994SOL     OW27880   0.605   5.405   3.113
 8994SOL    HW127881   0.526   5.466   3.116
 8994SOL    HW227882   0.658   5.424   3.030
 8995SOL     OW27883   1.895   3.972   4.979
 8995SOL    HW127884   1.809   3.925   4.958
 8995SOL    HW227885   1.970   3.926   4.932
 8996SOL     OW27886   0.500   4.332   2.810
 8996SOL    HW127887   0.560   4.274   2.755
 8996SOL    HW227888   0.414   4.348   2.761
 8997SOL     OW27889   4.668   1.753   5.361
 8997SOL    HW127890   4.588   1.695   5.375
 8997SOL    HW227891   4.666   1.791   5.268
 8998SOL     OW27892   1.347   2.773   6.516
 8998SOL    HW127893   1.276   2.818   6.462
 8998SOL    HW227894   1.435   2.819   6.501
 8999SOL     OW27895   6.225   1.165   4.422
 8999SOL    HW127896   6.311   1.215   4.435
 8999SOL    HW227897   6.151   1.214   4.468
 9000SOL     OW27898   3.214   3.697   0.505
 9000SOL    HW127899   3.249   3.784   0.540
 9000SOL    HW227900   3.114   3.702   0.497
 9001SOL     OW27901   1.761   5.373   3.765
 9001SOL    HW127902   1.783   5.379   3.862
 9001SOL    HW227903   1.672   5.415   3.748
 9002SOL     OW27904   5.657   4.400   5.533
 9002SOL    HW127905   5.633   4.381   5.629
 9002SOL    HW227906   5.687   4.495   5.524
 9003SOL     OW27907   5.698   2.751   6.566
 9003SOL    HW127908   5.654   2.668   6.533
 9003SOL    HW227909   5.779   2.727   6.620
 9004SOL     OW27910   4.393   6.773   1.041
 9004SOL    HW127911   4.374   6.712   0.964
 9004SOL    HW227912   4.470   6.738   1.093
 9005SOL     OW27913   4.916   1.839   3.376
 9005SOL    HW127914   4.986   1.877   3.436
 9005SOL    HW227915   4.933   1.742   3.362
 9006SOL     OW27916   0.747   5.198   1.122
 9006SOL    HW127917   0.693   5.261   1.066
 9006SOL    HW227918   0.818   5.248   1.171
 9007SOL     OW27919   2.687   6.882   4.339
 9007SOL    HW127920   2.691   6.783   4.349
 9007SOL    HW227921   2.650   6.923   4.422
 9008SOL     OW27922   6.818   4.573   2.440
 9008SOL    HW127923   6.858   4.529   2.521
 9008SOL    HW227924   6.816   4.672   2.453
 9009SOL     OW27925   2.918   6.170   1.095
 9009SOL    HW127926   3.011   6.150   1.067
 9009SOL    HW227927   2.866   6.207   1.018
 9010SOL     OW27928   1.138   6.218   5.277
 9010SOL    HW127929   1.202   6.147   5.250
 9010SOL    HW227930   1.085   6.187   5.356
 9011SOL     OW27931   4.769   1.956   1.221
 9011SOL    HW127932   4.717   2.034   1.186
 9011SOL    HW227933   4.867   1.977   1.219
 9012SOL     OW27934   7.011   5.374   1.668
 9012SOL    HW127935   0.064   5.432   1.702
 9012SOL    HW227936   6.980   5.407   1.579
 9013SOL     OW27937   6.060   5.573   3.539
 9013SOL    HW127938   6.096   5.663   3.514
 9013SOL    HW227939   5.980   5.552   3.481
 9014SOL     OW27940   3.017   0.884   0.950
 9014SOL    HW127941   2.962   0.931   1.020
 9014SOL    HW227942   3.061   0.804   0.991
 9015SOL     OW27943   0.299   1.035   5.835
 9015SOL    HW127944   0.320   0.994   5.924
 9015SOL    HW227945   0.205   1.070   5.836
 9016SOL     OW27946   6.222   5.719   6.673
 9016SOL    HW127947   6.177   5.792   6.622
 9016SOL    HW227948   6.298   5.757   6.726
 9017SOL     OW27949   6.825   2.719   3.605
 9017SOL    HW127950   6.770   2.642   3.636
 9017SOL    HW227951   6.791   2.803   3.648
 9018SOL     OW27952   3.708   2.470   5.384
 9018SOL    HW127953   3.625   2.435   5.340
 9018SOL    HW227954   3.716   2.568   5.367
 9019SOL     OW27955   2.347   0.118   0.868
 9019SOL    HW127956   2.358   0.112   0.768
 9019SOL    HW227957   2.359   0.213   0.897
 9020SOL     OW27958   0.432   4.815   3.014
 9020SOL    HW127959   0.423   4.721   3.045
 9020SOL    HW227960   0.524   4.829   2.977
 9021SOL     OW27961   6.538   5.680   5.059
 9021SOL    HW127962   6.442   5.691   5.032
 9021SOL    HW227963   6.558   5.582   5.070
 9022SOL     OW27964   3.550   0.534   0.135
 9022SOL    HW127965   3.547   0.633   0.122
 9022SOL    HW227966   3.458   0.496   0.125
 9023SOL     OW27967   3.471   3.326   3.422
 9023SOL    HW127968   3.532   3.394   3.381
 9023SOL    HW227969   3.418   3.282   3.349
 9024SOL     OW27970   2.158   6.565   6.882
 9024SOL    HW127971   2.107   6.615   6.812
 9024SOL    HW227972   2.194   6.630   6.949
 9025SOL     OW27973   6.100   4.956   1.030
 9025SOL    HW127974   6.149   4.897   1.094
 9025SOL    HW227975   6.137   5.049   1.035
 9026SOL     OW27976   3.406   2.837   5.041
 9026SOL    HW127977   3.344   2.896   4.991
 9026SOL    HW227978   3.357   2.756   5.074
 9027SOL     OW27979   2.174   3.007   3.574
 9027SOL    HW127980   2.150   2.981   3.668
 9027SOL    HW227981   2.204   2.926   3.524
 9028SOL     OW27982   2.888   4.871   5.089
 9028SOL    HW127983   2.848   4.918   5.168
 9028SOL    HW227984   2.871   4.773   5.096
 9029SOL     OW27985   5.065   6.416   3.070
 9029SOL    HW127986   4.985   6.424   3.010
 9029SOL    HW227987   5.127   6.492   3.053
 9030SOL     OW27988   3.094   1.107   2.060
 9030SOL    HW127989   3.152   1.105   1.978
 9030SOL    HW227990   3.009   1.155   2.039
 9031SOL     OW27991   2.450   6.077   6.383
 9031SOL    HW127992   2.510   6.153   6.410
 9031SOL    HW227993   2.355   6.107   6.389
 9032SOL     OW27994   2.187   1.711   1.928
 9032SOL    HW127995   2.229   1.631   1.886
 9032SOL    HW227996   2.105   1.737   1.877
 9033SOL     OW27997   1.797   3.830   2.491
 9033SOL    HW127998   1.857   3.910   2.483
 9033SOL    HW227999   1.811   3.787   2.580
 9034SOL     OW28000   3.345   6.635   6.029
 9034SOL    HW128001   3.332   6.539   6.002
 9034SOL    HW228002   3.423   6.642   6.091
 9035SOL     OW28003   7.001   1.088   4.475
 9035SOL    HW128004   0.022   1.130   4.394
 9035SOL    HW228005   7.010   1.150   4.553
 9036SOL     OW28006   0.655   2.092   5.855
 9036SOL    HW128007   0.747   2.055   5.860
 9036SOL    HW228008   0.606   2.050   5.779
 9037SOL     OW28009   2.167   4.463   6.447
 9037SOL    HW128010   2.232   4.417   6.507
 9037SOL    HW228011   2.104   4.518   6.502
 9038SOL     OW28012   4.966   5.958   5.383
 9038SOL    HW128013   4.972   6.039   5.441
 9038SOL    HW228014   5.021   5.972   5.300
 9039SOL     OW28015   2.012   5.583   5.625
 9039SOL    HW128016   1.960   5.527   5.561
 9039SOL    HW228017   2.084   5.632   5.576
 9040SOL     OW28018   1.845   1.335   2.708
 9040SOL    HW128019   1.843   1.434   2.698
 9040SOL    HW228020   1.902   1.310   2.787
 9041SOL     OW28021   1.892   3.051   0.759
 9041SOL    HW128022   1.877   3.148   0.740
 9041SOL    HW228023   1.904   3.001   0.673
 9042SOL     OW28024   2.738   4.678   3.673
 9042SOL    HW128025   2.647   4.636   3.666
 9042SOL    HW228026   2.774   4.662   3.765
 9043SOL     OW28027   0.733   2.349   5.929
 9043SOL    HW128028   0.719   2.264   5.878
 9043SOL    HW228029   0.729   2.330   6.027
 9044SOL     OW28030   6.214   6.667   1.031
 9044SOL    HW128031   6.273   6.588   1.050
 9044SOL    HW228032   6.188   6.711   1.117
 9045SOL     OW28033   2.562   6.697   3.441
 9045SOL    HW128034   2.524   6.751   3.366
 9045SOL    HW228035   2.621   6.625   3.404
 9046SOL     OW28036   3.175   4.042   4.710
 9046SOL    HW128037   3.116   4.065   4.788
 9046SOL    HW228038   3.231   3.963   4.734
 9047SOL     OW28039   1.345   4.886   4.768
 9047SOL    HW128040   1.325   4.815   4.835
 9047SOL    HW228041   1.269   4.892   4.703
 9048SOL     OW28042   0.796   3.646   4.642
 9048SOL    HW128043   0.738   3.668   4.564
 9048SOL    HW228044   0.892   3.662   4.618
 9049SOL     OW28045   5.317   5.461   6.483
 9049SOL    HW128046   5.395   5.505   6.528
 9049SOL    HW228047   5.319   5.484   6.385
 9050SOL     OW28048   6.952   5.243   6.105
 9050SOL    HW128049   6.951   5.175   6.032
 9050SOL    HW228050   6.858   5.264   6.132
 9051SOL     OW28051   5.390   6.235   6.780
 9051SOL    HW128052   5.436   6.270   6.862
 9051SOL    HW228053   5.448   6.249   6.700
 9052SOL     OW28054   2.662   5.222   4.620
 9052SOL    HW128055   2.569   5.238   4.587
 9052SOL    HW228056   2.725   5.218   4.542
 9053SOL     OW28057   2.744   2.389   4.094
 9053SOL    HW128058   2.797   2.406   4.176
 9053SOL    HW228059   2.664   2.332   4.117
 9054SOL     OW28060   2.912   0.476   1.354
 9054SOL    HW128061   2.930   0.516   1.444
 9054SOL    HW228062   2.871   0.544   1.294
 9055SOL     OW28063   1.182   2.774   4.015
 9055SOL    HW128064   1.281   2.787   4.003
 9055SOL    HW228065   1.146   2.721   3.938
 9056SOL     OW28066   5.693   0.253   3.046
 9056SOL    HW128067   5.687   0.326   2.979
 9056SOL    HW228068   5.609   0.251   3.101
 9057SOL     OW28069   5.784   5.419   6.110
 9057SOL    HW128070   5.844   5.477   6.164
 9057SOL    HW228071   5.836   5.339   6.078
 9058SOL     OW28072   1.505   2.868   4.676
 9058SOL    HW128073   1.589   2.923   4.680
 9058SOL    HW228074   1.458   2.874   4.764
 9059SOL     OW28075   6.877   1.978   2.980
 9059SOL    HW128076   6.935   1.900   2.958
 9059SOL    HW228077   6.795   1.947   3.027
 9060SOL     OW28078   0.636   3.682   1.706
 9060SOL    HW128079   0.672   3.600   1.750
 9060SOL    HW228080   0.711   3.737   1.670
 9061SOL     OW28081   5.162   5.070   1.769
 9061SOL    HW128082   5.082   5.015   1.791
 9061SOL    HW228083   5.233   5.054   1.838
 9062SOL     OW28084   0.701   5.237   3.383
 9062SOL    HW128085   0.724   5.140   3.389
 9062SOL    HW228086   0.654   5.255   3.296
 9063SOL     OW28087   3.741   0.917   2.447
 9063SOL    HW128088   3.749   1.015   2.428
 9063SOL    HW228089   3.647   0.895   2.472
 9064SOL     OW28090   0.670   4.665   3.474
 9064SOL    HW128091   0.652   4.567   3.465
 9064SOL    HW228092   0.767   4.680   3.492
 9065SOL     OW28093   2.543   5.321   5.505
 9065SOL    HW128094   2.456   5.275   5.488
 9065SOL    HW228095   2.577   5.297   5.596
 9066SOL     OW28096   5.146   4.863   5.693
 9066SOL    HW128097   5.127   4.932   5.763
 9066SOL    HW228098   5.075   4.867   5.623
 9067SOL     OW28099   0.134   0.590   4.627
 9067SOL    HW128100   0.188   0.513   4.662
 9067SOL    HW228101   0.196   0.664   4.601
 9068SOL     OW28102   4.656   6.532   4.340
 9068SOL    HW128103   4.598   6.504   4.417
 9068SOL    HW228104   4.747   6.554   4.373
 9069SOL     OW28105   4.755   2.081   1.910
 9069SOL    HW128106   4.707   1.994   1.906
 9069SOL    HW228107   4.853   2.066   1.896
 9070SOL     OW28108   1.627   1.858   5.771
 9070SOL    HW128109   1.600   1.811   5.855
 9070SOL    HW228110   1.703   1.920   5.791
 9071SOL     OW28111   5.156   1.163   5.550
 9071SOL    HW128112   5.056   1.157   5.544
 9071SOL    HW228113   5.185   1.143   5.644
 9072SOL     OW28114   5.299   0.806   2.591
 9072SOL    HW128115   5.299   0.823   2.689
 9072SOL    HW228116   5.222   0.747   2.567
 9073SOL     OW28117   4.561   0.812   6.683
 9073SOL    HW128118   4.538   0.728   6.633
 9073SOL    HW228119   4.632   0.861   6.633
 9074SOL     OW28120   1.579   0.235   1.736
 9074SOL    HW128121   1.676   0.217   1.752
 9074SOL    HW228122   1.554   0.321   1.780
 9075SOL     OW28123   6.762   0.370   1.718
 9075SOL    HW128124   6.846   0.410   1.681
 9075SOL    HW228125   6.683   0.421   1.683
 9076SOL     OW28126   6.642   0.514   2.010
 9076SOL    HW128127   6.659   0.562   2.096
 9076SOL    HW228128   6.548   0.531   1.981
 9077SOL     OW28129   6.207   1.378   5.992
 9077SOL    HW128130   6.197   1.396   5.894
 9077SOL    HW228131   6.303   1.383   6.017
 9078SOL     OW28132   5.785   5.696   6.965
 9078SOL    HW128133   5.854   5.768   6.965
 9078SOL    HW228134   5.718   5.714   0.016
 9079SOL     OW28135   1.217   0.267   6.093
 9079SOL    HW128136   1.309   0.242   6.121
 9079SOL    HW228137   1.156   0.267   6.173
 9080SOL     OW28138   6.566   3.441   1.112
 9080SOL    HW128139   6.566   3.484   1.203
 9080SOL    HW228140   6.505   3.362   1.112
 9081SOL     OW28141   3.561   1.785   0.574
 9081SOL    HW128142   3.605   1.875   0.576
 9081SOL    HW228143   3.608   1.727   0.508
 9082SOL     OW28144   3.267   5.843   5.830
 9082SOL    HW128145   3.211   5.923   5.810
 9082SOL    HW228146   3.225   5.791   5.904
 9083SOL     OW28147   4.588   4.439   6.653
 9083SOL    HW128148   4.577   4.374   6.729
 9083SOL    HW228149   4.563   4.530   6.683
 9084SOL     OW28150   0.591   2.886   5.666
 9084SOL    HW128151   0.616   2.807   5.610
 9084SOL    HW228152   0.635   2.968   5.629
 9085SOL     OW28153   2.629   5.184   6.702
 9085SOL    HW128154   2.575   5.185   6.786
 9085SOL    HW228155   2.716   5.232   6.718
 9086SOL     OW28156   6.726   4.285   0.620
 9086SOL    HW128157   6.641   4.338   0.622
 9086SOL    HW228158   6.803   4.344   0.599
 9087SOL     OW28159   6.027   1.342   1.642
 9087SOL    HW128160   5.964   1.409   1.601
 9087SOL    HW228161   6.120   1.363   1.613
 9088SOL     OW28162   6.377   0.674   1.172
 9088SOL    HW128163   6.332   0.724   1.098
 9088SOL    HW228164   6.408   0.739   1.242
 9089SOL     OW28165   4.243   5.845   3.628
 9089SOL    HW128166   4.297   5.770   3.588
 9089SOL    HW228167   4.302   5.903   3.683
 9090SOL     OW28168   5.922   6.444   4.907
 9090SOL    HW128169   5.947   6.365   4.961
 9090SOL    HW228170   5.918   6.419   4.810
 9091SOL     OW28171   2.904   1.759   0.979
 9091SOL    HW128172   2.870   1.851   0.958
 9091SOL    HW228173   2.978   1.736   0.915
 9092SOL     OW28174   1.554   6.419   5.720
 9092SOL    HW128175   1.653   6.413   5.737
 9092SOL    HW228176   1.536   6.405   5.623
 9093SOL     OW28177   1.477   5.449   0.514
 9093SOL    HW128178   1.440   5.380   0.452
 9093SOL    HW228179   1.540   5.509   0.464
 9094SOL     OW28180   0.120   5.491   2.589
 9094SOL    HW128181   0.151   5.487   2.494
 9094SOL    HW228182   0.161   5.415   2.640
 9095SOL     OW28183   4.313   3.709   6.529
 9095SOL    HW128184   4.336   3.793   6.579
 9095SOL    HW228185   4.214   3.705   6.514
 9096SOL     OW28186   5.965   2.731   2.830
 9096SOL    HW128187   5.888   2.778   2.874
 9096SOL    HW228188   5.960   2.744   2.731
 9097SOL     OW28189   1.062   3.872   6.674
 9097SOL    HW128190   0.990   3.922   6.626
 9097SOL    HW228191   1.134   3.935   6.700
 9098SOL     OW28192   3.923   3.985   2.238
 9098SOL    HW128193   3.986   4.051   2.197
 9098SOL    HW228194   3.902   3.914   2.171
 9099SOL     OW28195   2.834   3.430   1.162
 9099SOL    HW128196   2.838   3.332   1.143
 9099SOL    HW228197   2.850   3.481   1.078
 9100SOL     OW28198   0.490   3.348   1.117
 9100SOL    HW128199   0.401   3.339   1.162
 9100SOL    HW228200   0.481   3.407   1.037
 9101SOL     OW28201   1.558   2.599   2.653
 9101SOL    HW128202   1.532   2.510   2.691
 9101SOL    HW228203   1.653   2.619   2.678
 9102SOL     OW28204   3.445   5.464   1.585
 9102SOL    HW128205   3.403   5.502   1.502
 9102SOL    HW228206   3.381   5.402   1.629
 9103SOL     OW28207   0.098   3.752   0.818
 9103SOL    HW128208   0.083   3.719   0.724
 9103SOL    HW228209   0.028   3.713   0.878
 9104SOL     OW28210   4.465   6.068   1.549
 9104SOL    HW128211   4.482   6.160   1.513
 9104SOL    HW228212   4.460   6.003   1.473
 9105SOL     OW28213   1.369   0.729   6.233
 9105SOL    HW128214   1.302   0.666   6.194
 9105SOL    HW228215   1.334   0.823   6.225
 9106SOL     OW28216   5.579   5.014   6.719
 9106SOL    HW128217   5.489   5.041   6.753
 9106SOL    HW228218   5.574   4.920   6.685
 9107SOL     OW28219   3.712   6.770   0.288
 9107SOL    HW128220   3.749   6.818   0.368
 9107SOL    HW228221   3.767   6.792   0.208
 9108SOL     OW28222   4.740   4.308   5.388
 9108SOL    HW128223   4.785   4.377   5.444
 9108SOL    HW228224   4.786   4.220   5.400
 9109SOL     OW28225   2.326   2.775   3.545
 9109SOL    HW128226   2.404   2.719   3.516
 9109SOL    HW228227   2.327   2.785   3.645
 9110SOL     OW28228   1.910   4.953   3.655
 9110SOL    HW128229   1.891   4.968   3.752
 9110SOL    HW228230   1.835   4.900   3.615
 9111SOL     OW28231   3.597   4.298   1.274
 9111SOL    HW128232   3.679   4.242   1.285
 9111SOL    HW228233   3.531   4.275   1.346
 9112SOL     OW28234   0.881   4.126   3.064
 9112SOL    HW128235   0.782   4.119   3.047
 9112SOL    HW228236   0.926   4.163   2.983
 9113SOL     OW28237   5.381   0.623   0.556
 9113SOL    HW128238   5.452   0.554   0.563
 9113SOL    HW228239   5.315   0.597   0.486
 9114SOL     OW28240   2.276   4.623   2.294
 9114SOL    HW128241   2.338   4.697   2.267
 9114SOL    HW228242   2.214   4.655   2.365
 9115SOL     OW28243   1.460   5.010   4.430
 9115SOL    HW128244   1.441   5.093   4.377
 9115SOL    HW228245   1.521   5.033   4.506
 9116SOL     OW28246   6.649   1.633   6.774
 9116SOL    HW128247   6.653   1.732   6.783
 9116SOL    HW228248   6.728   1.601   6.721
 9117SOL     OW28249   6.395   2.959   6.036
 9117SOL    HW128250   6.457   2.903   6.090
 9117SOL    HW228251   6.443   2.994   5.955
 9118SOL     OW28252   6.328   0.270   1.136
 9118SOL    HW128253   6.413   0.312   1.168
 9118SOL    HW228254   6.292   0.323   1.060
 9119SOL     OW28255   5.914   0.886   2.352
 9119SOL    HW128256   5.910   0.792   2.320
 9119SOL    HW228257   5.948   0.889   2.446
 9120SOL     OW28258   6.079   2.058   6.149
 9120SOL    HW128259   6.103   1.977   6.202
 9120SOL    HW228260   6.010   2.111   6.197
 9121SOL     OW28261   0.861   2.710   5.164
 9121SOL    HW128262   0.782   2.750   5.210
 9121SOL    HW228263   0.869   2.750   5.073
 9122SOL     OW28264   1.694   2.416   2.336
 9122SOL    HW128265   1.760   2.428   2.262
 9122SOL    HW228266   1.742   2.404   2.423
 9123SOL     OW28267   3.253   6.242   4.975
 9123SOL    HW128268   3.244   6.231   5.074
 9123SOL    HW228269   3.170   6.210   4.930
 9124SOL     OW28270   6.188   5.737   5.176
 9124SOL    HW128271   6.244   5.757   5.257
 9124SOL    HW228272   6.232   5.772   5.094
 9125SOL     OW28273   4.493   4.438   3.718
 9125SOL    HW128274   4.523   4.385   3.797
 9125SOL    HW228275   4.510   4.385   3.635
 9126SOL     OW28276   6.467   1.121   1.881
 9126SOL    HW128277   6.391   1.174   1.917
 9126SOL    HW228278   6.452   1.024   1.900
 9127SOL     OW28279   6.053   6.834   5.998
 9127SOL    HW128280   5.971   6.871   5.954
 9127SOL    HW228281   6.042   6.837   6.097
 9128SOL     OW28282   4.341   1.499   5.117
 9128SOL    HW128283   4.414   1.431   5.120
 9128SOL    HW228284   4.253   1.453   5.101
 9129SOL     OW28285   1.972   3.448   6.764
 9129SOL    HW128286   1.954   3.433   6.666
 9129SOL    HW228287   1.929   3.376   6.818
 9130SOL     OW28288   0.065   4.499   6.666
 9130SOL    HW128289   0.124   4.447   6.604
 9130SOL    HW228290   0.107   4.504   6.756
 9131SOL     OW28291   0.626   4.294   5.028
 9131SOL    HW128292   0.647   4.276   5.124
 9131SOL    HW228293   0.583   4.214   4.987
 9132SOL     OW28294   6.519   4.281   3.947
 9132SOL    HW128295   6.596   4.233   3.988
 9132SOL    HW228296   6.433   4.239   3.977
 9133SOL     OW28297   2.631   4.644   0.441
 9133SOL    HW128298   2.549   4.610   0.486
 9133SOL    HW228299   2.616   4.738   0.411
 9134SOL     OW28300   3.397   6.391   0.717
 9134SOL    HW128301   3.374   6.305   0.671
 9134SOL    HW228302   3.496   6.404   0.717
 9135SOL     OW28303   0.099   6.983   2.439
 9135SOL    HW128304   0.097   6.904   2.377
 9135SOL    HW228305   0.063   0.042   2.391
 9136SOL     OW28306   4.921   5.240   5.726
 9136SOL    HW128307   4.870   5.171   5.675
 9136SOL    HW228308   4.861   5.280   5.796
 9137SOL     OW28309   5.719   1.124   1.106
 9137SOL    HW128310   5.715   1.223   1.095
 9137SOL    HW228311   5.790   1.087   1.047
 9138SOL     OW28312   6.332   5.313   5.697
 9138SOL    HW128313   6.254   5.310   5.759
 9138SOL    HW228314   6.407   5.365   5.739
 9139SOL     OW28315   2.385   1.499   5.282
 9139SOL    HW128316   2.471   1.464   5.245
 9139SOL    HW228317   2.376   1.596   5.260
 9140SOL     OW28318   6.463   2.541   2.713
 9140SOL    HW128319   6.465   2.464   2.776
 9140SOL    HW228320   6.369   2.574   2.703
 9141SOL     OW28321   5.361   6.554   6.297
 9141SOL    HW128322   5.371   6.456   6.314
 9141SOL    HW228323   5.402   6.606   6.372
 9142SOL     OW28324   0.219   2.562   5.140
 9142SOL    HW128325   0.242   2.641   5.197
 9142SOL    HW228326   0.220   2.479   5.196
 9143SOL     OW28327   4.308   3.594   0.356
 9143SOL    HW128328   4.375   3.666   0.368
 9143SOL    HW228329   4.217   3.629   0.378
 9144SOL     OW28330   2.060   5.952   6.315
 9144SOL    HW128331   2.050   5.966   6.217
 9144SOL    HW228332   2.111   5.868   6.332
 9145SOL     OW28333   0.328   5.332   1.020
 9145SOL    HW128334   0.371   5.270   1.086
 9145SOL    HW228335   0.278   5.403   1.069
 9146SOL     OW28336   5.085   2.248   1.484
 9146SOL    HW128337   5.173   2.203   1.475
 9146SOL    HW228338   5.024   2.193   1.542
 9147SOL     OW28339   5.469   6.423   4.662
 9147SOL    HW128340   5.405   6.441   4.736
 9147SOL    HW228341   5.499   6.510   4.622
 9148SOL     OW28342   6.110   6.753   1.710
 9148SOL    HW128343   6.091   6.693   1.632
 9148SOL    HW228344   6.134   6.697   1.790
 9149SOL     OW28345   4.853   2.374   4.068
 9149SOL    HW128346   4.932   2.431   4.046
 9149SOL    HW228347   4.793   2.424   4.131
 9150SOL     OW28348   3.805   6.045   3.510
 9150SOL    HW128349   3.791   6.099   3.427
 9150SOL    HW228350   3.816   5.949   3.486
 9151SOL     OW28351   1.284   4.175   2.782
 9151SOL    HW128352   1.288   4.105   2.711
 9151SOL    HW228353   1.257   4.133   2.869
 9152SOL     OW28354   2.529   5.967   3.925
 9152SOL    HW128355   2.499   5.905   3.853
 9152SOL    HW228356   2.502   5.931   4.014
 9153SOL     OW28357   1.683   3.030   0.464
 9153SOL    HW128358   1.626   2.965   0.412
 9153SOL    HW228359   1.678   3.008   0.561
 9154SOL     OW28360   2.472   5.406   6.418
 9154SOL    HW128361   2.503   5.318   6.455
 9154SOL    HW228362   2.523   5.480   6.462
 9155SOL     OW28363   2.026   3.619   0.508
 9155SOL    HW128364   2.041   3.636   0.410
 9155SOL    HW228365   1.931   3.591   0.522
 9156SOL     OW28366   3.070   2.855   1.462
 9156SOL    HW128367   3.026   2.779   1.414
 9156SOL    HW228368   3.141   2.895   1.404
 9157SOL     OW28369   5.824   4.643   5.329
 9157SOL    HW128370   5.908   4.589   5.333
 9157SOL    HW228371   5.784   4.648   5.420
 9158SOL     OW28372   6.170   3.472   4.662
 9158SOL    HW128373   6.083   3.433   4.694
 9158SOL    HW228374   6.245   3.413   4.691
 9159SOL     OW28375   0.035   6.254   3.336
 9159SOL    HW128376   6.983   6.192   3.366
 9159SOL    HW228377   0.028   6.340   3.385
 9160SOL     OW28378   0.108   0.245   4.833
 9160SOL    HW128379   0.184   0.260   4.771
 9160SOL    HW228380   0.141   0.250   4.928
 9161SOL     OW28381   4.843   3.965   4.498
 9161SOL    HW128382   4.808   3.909   4.573
 9161SOL    HW228383   4.943   3.972   4.505
 9162SOL     OW28384   4.624   2.144   3.207
 9162SOL    HW128385   4.677   2.195   3.275
 9162SOL    HW228386   4.537   2.117   3.247
 9163SOL     OW28387   2.001   3.391   3.753
 9163SOL    HW128388   1.921   3.334   3.771
 9163SOL    HW228389   2.047   3.359   3.670
 9164SOL     OW28390   2.927   0.851   6.947
 9164SOL    HW128391   2.871   0.919   6.996
 9164SOL    HW228392   2.944   0.773   7.006
 9165SOL     OW28393   6.266   1.230   6.277
 9165SOL    HW128394   6.217   1.317   6.272
 9165SOL    HW228395   6.257   1.182   6.190
 9166SOL     OW28396   4.847   6.348   0.973
 9166SOL    HW128397   4.822   6.434   0.928
 9166SOL    HW228398   4.846   6.360   1.072
 9167SOL     OW28399   1.695   3.434   6.391
 9167SOL    HW128400   1.727   3.526   6.414
 9167SOL    HW228401   1.636   3.439   6.310
 9168SOL     OW28402   1.492   6.372   5.454
 9168SOL    HW128403   1.550   6.378   5.373
 9168SOL    HW228404   1.414   6.433   5.443
 9169SOL     OW28405   0.226   1.389   5.016
 9169SOL    HW128406   0.260   1.457   5.081
 9169SOL    HW228407   0.169   1.434   4.947
 9170SOL     OW28408   0.414   4.844   0.159
 9170SOL    HW128409   0.325   4.861   0.202
 9170SOL    HW228410   0.451   4.757   0.192
 9171SOL     OW28411   3.308   5.524   0.582
 9171SOL    HW128412   3.214   5.503   0.608
 9171SOL    HW228413   3.312   5.543   0.484
 9172SOL     OW28414   3.281   1.068   5.171
 9172SOL    HW128415   3.277   1.140   5.102
 9172SOL    HW228416   3.376   1.037   5.183
 9173SOL     OW28417   5.913   4.499   4.959
 9173SOL    HW128418   5.863   4.428   5.007
 9173SOL    HW228419   5.852   4.545   4.895
 9174SOL     OW28420   6.425   4.329   1.093
 9174SOL    HW128421   6.504   4.292   1.045
 9174SOL    HW228422   6.420   4.428   1.078
 9175SOL     OW28423   1.892   6.528   4.518
 9175SOL    HW128424   1.855   6.567   4.434
 9175SOL    HW228425   1.845   6.442   4.539
 9176SOL     OW28426   2.608   0.862   5.732
 9176SOL    HW128427   2.695   0.912   5.725
 9176SOL    HW228428   2.535   0.926   5.753
 9177SOL     OW28429   1.517   5.551   4.661
 9177SOL    HW128430   1.514   5.453   4.681
 9177SOL    HW228431   1.428   5.592   4.682
 9178SOL     OW28432   1.918   5.665   0.974
 9178SOL    HW128433   1.990   5.733   0.959
 9178SOL    HW228434   1.947   5.602   1.046
 9179SOL     OW28435   2.834   6.056   3.905
 9179SOL    HW128436   2.739   6.078   3.924
 9179SOL    HW228437   2.876   6.017   3.987
 9180SOL     OW28438   6.078   2.341   3.350
 9180SOL    HW128439   6.016   2.420   3.356
 9180SOL    HW228440   6.042   2.276   3.284
 9181SOL     OW28441   4.247   2.345   3.276
 9181SOL    HW128442   4.177   2.317   3.341
 9181SOL    HW228443   4.306   2.414   3.317
 9182SOL     OW28444   2.499   0.024   2.302
 9182SOL    HW128445   2.435   0.068   2.365
 9182SOL    HW228446   2.585   0.005   2.349
 9183SOL     OW28447   5.514   6.005   0.425
 9183SOL    HW128448   5.564   6.090   0.408
 9183SOL    HW228449   5.419   6.015   0.395
 9184SOL     OW28450   4.913   1.547   0.410
 9184SOL    HW128451   4.851   1.617   0.446
 9184SOL    HW228452   4.992   1.591   0.367
 9185SOL     OW28453   4.293   6.761   4.533
 9185SOL    HW128454   4.298   6.797   4.439
 9185SOL    HW228455   4.198   6.758   4.563
 9186SOL     OW28456   5.535   0.990   4.093
 9186SOL    HW128457   5.555   0.990   3.995
 9186SOL    HW228458   5.619   0.974   4.144
 9187SOL     OW28459   2.570   0.420   1.530
 9187SOL    HW128460   2.515   0.503   1.528
 9187SOL    HW228461   2.629   0.421   1.611
 9188SOL     OW28462   2.104   6.724   2.070
 9188SOL    HW128463   2.118   6.813   2.027
 9188SOL    HW228464   2.090   6.736   2.169
 9189SOL     OW28465   5.530   5.934   1.736
 9189SOL    HW128466   5.456   5.977   1.685
 9189SOL    HW228467   5.614   5.987   1.723
 9190SOL     OW28468   1.018   5.040   0.338
 9190SOL    HW128469   1.106   5.024   0.382
 9190SOL    HW228470   1.007   4.977   0.261
 9191SOL     OW28471   5.828   0.672   5.949
 9191SOL    HW128472   5.742   0.675   5.999
 9191SOL    HW228473   5.895   0.731   5.993
 9192SOL     OW28474   0.449   3.989   5.815
 9192SOL    HW128475   0.485   4.000   5.907
 9192SOL    HW228476   0.430   3.892   5.797
 9193SOL     OW28477   4.776   4.683   0.421
 9193SOL    HW128478   4.711   4.625   0.372
 9193SOL    HW228479   4.866   4.640   0.421
 9194SOL     OW28480   3.116   0.979   3.280
 9194SOL    HW128481   3.049   1.047   3.311
 9194SOL    HW228482   3.167   1.016   3.203
 9195SOL     OW28483   1.645   2.488   4.243
 9195SOL    HW128484   1.617   2.445   4.329
 9195SOL    HW228485   1.736   2.528   4.255
 9196SOL     OW28486   3.862   0.718   4.637
 9196SOL    HW128487   3.794   0.702   4.708
 9196SOL    HW228488   3.919   0.636   4.626
 9197SOL     OW28489   1.504   4.431   1.694
 9197SOL    HW128490   1.437   4.401   1.626
 9197SOL    HW228491   1.586   4.466   1.648
 9198SOL     OW28492   6.619   5.222   5.661
 9198SOL    HW128493   6.539   5.166   5.642
 9198SOL    HW228494   6.656   5.257   5.575
 9199SOL     OW28495   1.053   3.581   6.358
 9199SOL    HW128496   1.041   3.483   6.342
 9199SOL    HW228497   0.967   3.628   6.337
 9200SOL     OW28498   2.994   0.547   0.615
 9200SOL    HW128499   2.915   0.593   0.575
 9200SOL    HW228500   3.068   0.613   0.629
 9201SOL     OW28501   0.677   3.067   0.695
 9201SOL    HW128502   0.579   3.049   0.688
 9201SOL    HW228503   0.727   2.980   0.693
 9202SOL     OW28504   2.091   0.128   3.449
 9202SOL    HW128505   2.053   0.038   3.473
 9202SOL    HW228506   2.187   0.132   3.475
 9203SOL     OW28507   0.424   5.014   6.887
 9203SOL    HW128508   0.375   5.065   6.958
 9203SOL    HW228509   0.371   4.933   6.862
 9204SOL     OW28510   4.359   2.573   6.693
 9204SOL    HW128511   4.331   2.664   6.661
 9204SOL    HW228512   4.394   2.520   6.616
 9205SOL     OW28513   5.760   4.267   2.635
 9205SOL    HW128514   5.835   4.212   2.670
 9205SOL    HW228515   5.787   4.363   2.634
 9206SOL     OW28516   3.763   5.499   1.718
 9206SOL    HW128517   3.838   5.556   1.683
 9206SOL    HW228518   3.764   5.500   1.818
 9207SOL     OW28519   4.213   5.034   0.251
 9207SOL    HW128520   4.265   5.073   0.174
 9207SOL    HW228521   4.142   4.974   0.216
 9208SOL     OW28522   5.627   4.261   3.875
 9208SOL    HW128523   5.684   4.180   3.888
 9208SOL    HW228524   5.683   4.343   3.886
 9209SOL     OW28525   2.958   0.607   0.075
 9209SOL    HW128526   3.056   0.629   0.071
 9209SOL    HW228527   2.945   0.510   0.054
 9210SOL     OW28528   6.641   1.357   2.760
 9210SOL    HW128529   6.620   1.284   2.695
 9210SOL    HW228530   6.738   1.357   2.781
 9211SOL     OW28531   6.570   3.058   4.344
 9211SOL    HW128532   6.615   3.077   4.431
 9211SOL    HW228533   6.602   2.971   4.308
 9212SOL     OW28534   4.150   5.520   4.284
 9212SOL    HW128535   4.230   5.573   4.257
 9212SOL    HW228536   4.096   5.571   4.351
 9213SOL     OW28537   5.710   2.613   5.600
 9213SOL    HW128538   5.642   2.683   5.621
 9213SOL    HW228539   5.667   2.536   5.553
 9214SOL     OW28540   0.267   5.679   5.410
 9214SOL    HW128541   0.309   5.769   5.405
 9214SOL    HW228542   0.204   5.668   5.333
 9215SOL     OW28543   1.228   2.430   0.138
 9215SOL    HW128544   1.268   2.353   0.189
 9215SOL    HW228545   1.192   2.497   0.203
 9216SOL     OW28546   2.653   0.599   3.006
 9216SOL    HW128547   2.699   0.655   3.075
 9216SOL    HW228548   2.718   0.533   2.968
 9217SOL     OW28549   0.056   0.589   5.559
 9217SOL    HW128550   0.058   0.641   5.473
 9217SOL    HW228551   0.061   0.491   5.539
 9218SOL     OW28552   3.879   6.401   0.361
 9218SOL    HW128553   3.940   6.365   0.432
 9218SOL    HW228554   3.853   6.326   0.299
 9219SOL     OW28555   0.173   2.724   0.098
 9219SOL    HW128556   0.133   2.779   0.024
 9219SOL    HW228557   0.157   2.769   0.186
 9220SOL     OW28558   2.615   6.897   1.362
 9220SOL    HW128559   2.569   6.945   1.437
 9220SOL    HW228560   2.610   6.952   1.279
 9221SOL     OW28561   3.398   1.043   4.302
 9221SOL    HW128562   3.298   1.032   4.299
 9221SOL    HW228563   3.435   0.994   4.380
 9222SOL     OW28564   2.741   6.654   6.822
 9222SOL    HW128565   2.745   6.674   6.920
 9222SOL    HW228566   2.662   6.699   6.782
 9223SOL     OW28567   1.460   1.803   4.729
 9223SOL    HW128568   1.470   1.899   4.755
 9223SOL    HW228569   1.550   1.765   4.707
 9224SOL     OW28570   3.085   5.368   5.211
 9224SOL    HW128571   3.048   5.302   5.277
 9224SOL    HW228572   3.122   5.447   5.261
 9225SOL     OW28573   3.795   0.042   5.922
 9225SOL    HW128574   3.886   0.044   5.882
 9225SOL    HW228575   3.743   6.987   5.882
 9226SOL     OW28576   5.440   6.837   1.585
 9226SOL    HW128577   5.465   6.741   1.592
 9226SOL    HW228578   5.384   6.851   1.504
 9227SOL     OW28579   0.867   5.422   2.173
 9227SOL    HW128580   0.955   5.390   2.210
 9227SOL    HW228581   0.857   5.519   2.192
 9228SOL     OW28582   1.581   0.289   5.890
 9228SOL    HW128583   1.535   0.205   5.919
 9228SOL    HW228584   1.680   0.274   5.888
 9229SOL     OW28585   1.702   5.704   4.529
 9229SOL    HW128586   1.634   5.649   4.576
 9229SOL    HW228587   1.664   5.793   4.507
 9230SOL     OW28588   6.156   0.382   2.501
 9230SOL    HW128589   6.234   0.416   2.554
 9230SOL    HW228590   6.077   0.372   2.561
 9231SOL     OW28591   1.927   3.947   4.196
 9231SOL    HW128592   1.901   4.043   4.208
 9231SOL    HW228593   2.026   3.939   4.187
 9232SOL     OW28594   2.906   5.091   0.799
 9232SOL    HW128595   2.865   5.063   0.885
 9232SOL    HW228596   2.872   5.181   0.773
 9233SOL     OW28597   5.693   5.140   1.436
 9233SOL    HW128598   5.783   5.097   1.439
 9233SOL    HW228599   5.693   5.211   1.365
 9234SOL     OW28600   3.599   5.107   4.659
 9234SOL    HW128601   3.636   5.036   4.719
 9234SOL    HW228602   3.499   5.104   4.662
 9235SOL     OW28603   1.987   2.404   3.458
 9235SOL    HW128604   1.957   2.329   3.517
 9235SOL    HW228605   2.023   2.479   3.515
 9236SOL     OW28606   3.324   4.104   5.282
 9236SOL    HW128607   3.407   4.149   5.315
 9236SOL    HW228608   3.261   4.172   5.246
 9237SOL     OW28609   2.330   5.000   4.872
 9237SOL    HW128610   2.401   5.011   4.802
 9237SOL    HW228611   2.243   4.980   4.827
 9238SOL     OW28612   4.461   2.192   5.977
 9238SOL    HW128613   4.503   2.145   5.899
 9238SOL    HW228614   4.424   2.124   6.041
 9239SOL     OW28615   0.535   3.920   1.690
 9239SOL    HW128616   0.570   3.829   1.713
 9239SOL    HW228617   0.581   3.954   1.608
 9240SOL     OW28618   5.783   1.298   0.696
 9240SOL    HW128619   5.840   1.217   0.688
 9240SOL    HW228620   5.789   1.352   0.612
 9241SOL     OW28621   6.946   5.518   5.945
 9241SOL    HW128622   7.021   5.584   5.932
 9241SOL    HW228623   6.983   5.434   5.984
 9242SOL     OW28624   6.903   5.976   0.666
 9242SOL    HW128625   6.810   6.012   0.652
 9242SOL    HW228626   6.913   5.889   0.618
 9243SOL     OW28627   5.853   5.618   2.783
 9243SOL    HW128628   5.837   5.716   2.781
 9243SOL    HW228629   5.886   5.590   2.873
 9244SOL     OW28630   4.433   5.452   5.973
 9244SOL    HW128631   4.422   5.411   6.064
 9244SOL    HW228632   4.462   5.547   5.983
 9245SOL     OW28633   1.606   5.557   2.794
 9245SOL    HW128634   1.644   5.472   2.830
 9245SOL    HW228635   1.557   5.538   2.709
 9246SOL     OW28636   6.333   4.557   2.790
 9246SOL    HW128637   6.307   4.463   2.765
 9246SOL    HW228638   6.364   4.558   2.885
 9247SOL     OW28639   0.644   6.642   3.203
 9247SOL    HW128640   0.706   6.598   3.139
 9247SOL    HW228641   0.691   6.719   3.247
 9248SOL     OW28642   2.322   3.014   6.126
 9248SOL    HW128643   2.371   2.993   6.041
 9248SOL    HW228644   2.233   2.968   6.125
 9249SOL     OW28645   5.656   2.534   6.063
 9249SOL    HW128646   5.685   2.469   5.993
 9249SOL    HW228647   5.565   2.507   6.096
 9250SOL     OW28648   5.324   3.888   4.867
 9250SOL    HW128649   5.366   3.797   4.860
 9250SOL    HW228650   5.349   3.943   4.788
 9251SOL     OW28651   3.671   2.028   3.404
 9251SOL    HW128652   3.663   2.068   3.313
 9251SOL    HW228653   3.764   2.038   3.437
 9252SOL     OW28654   6.313   0.321   4.078
 9252SOL    HW128655   6.399   0.277   4.052
 9252SOL    HW228656   6.271   0.361   3.997
 9253SOL     OW28657   4.594   5.674   5.976
 9253SOL    HW128658   4.642   5.735   5.913
 9253SOL    HW228659   4.609   5.704   6.070
 9254SOL     OW28660   6.381   4.137   1.342
 9254SOL    HW128661   6.359   4.090   1.257
 9254SOL    HW228662   6.481   4.144   1.352
 9255SOL     OW28663   5.072   2.678   0.057
 9255SOL    HW128664   5.130   2.711   0.132
 9255SOL    HW228665   5.036   2.756   0.006
 9256SOL     OW28666   3.772   4.912   3.367
 9256SOL    HW128667   3.694   4.919   3.428
 9256SOL    HW228668   3.849   4.869   3.415
 9257SOL     OW28669   0.991   4.075   2.663
 9257SOL    HW128670   0.928   4.144   2.629
 9257SOL    HW228671   1.034   4.027   2.586
 9258SOL     OW28672   3.944   3.147   3.754
 9258SOL    HW128673   4.012   3.177   3.686
 9258SOL    HW228674   3.885   3.077   3.713
 9259SOL     OW28675   1.582   2.483   0.922
 9259SOL    HW128676   1.521   2.469   0.843
 9259SOL    HW228677   1.671   2.443   0.902
 9260SOL     OW28678   5.083   1.696   5.571
 9260SOL    HW128679   5.024   1.685   5.651
 9260SOL    HW228680   5.175   1.661   5.592
 9261SOL     OW28681   4.496   6.870   6.431
 9261SOL    HW128682   4.528   6.860   6.337
 9261SOL    HW228683   4.398   6.851   6.436
 9262SOL     OW28684   6.416   2.703   5.413
 9262SOL    HW128685   6.329   2.693   5.364
 9262SOL    HW228686   6.404   2.768   5.488
 9263SOL     OW28687   6.263   4.156   0.752
 9263SOL    HW128688   6.236   4.080   0.811
 9263SOL    HW228689   6.359   4.145   0.726
 9264SOL     OW28690   6.072   3.876   0.458
 9264SOL    HW128691   6.004   3.853   0.389
 9264SOL    HW228692   6.164   3.866   0.419
 9265SOL     OW28693   3.333   1.499   0.742
 9265SOL    HW128694   3.412   1.518   0.684
 9265SOL    HW228695   3.274   1.432   0.698
 9266SOL     OW28696   2.450   6.246   2.589
 9266SOL    HW128697   2.376   6.295   2.543
 9266SOL    HW228698   2.480   6.169   2.533
 9267SOL     OW28699   0.233   3.998   5.482
 9267SOL    HW128700   0.216   3.912   5.530
 9267SOL    HW228701   0.286   3.980   5.399
 9268SOL     OW28702   0.756   6.423   2.157
 9268SOL    HW128703   0.670   6.400   2.112
 9268SOL    HW228704   0.780   6.518   2.138
 9269SOL     OW28705   2.686   2.508   6.620
 9269SOL    HW128706   2.767   2.453   6.600
 9269SOL    HW228707   2.605   2.461   6.585
 9270SOL     OW28708   4.964   6.196   5.507
 9270SOL    HW128709   5.037   6.262   5.490
 9270SOL    HW228710   4.879   6.229   5.465
 9271SOL     OW28711   1.200   6.084   1.043
 9271SOL    HW128712   1.249   6.098   1.129
 9271SOL    HW228713   1.159   6.170   1.014
 9272SOL     OW28714   2.970   4.839   5.979
 9272SOL    HW128715   2.966   4.911   6.048
 9272SOL    HW228716   2.904   4.768   6.001
 9273SOL     OW28717   5.021   5.615   3.860
 9273SOL    HW128718   4.977   5.697   3.898
 9273SOL    HW228719   4.950   5.552   3.828
 9274SOL     OW28720   6.112   2.004   6.786
 9274SOL    HW128721   6.084   2.080   6.845
 9274SOL    HW228722   6.032   1.947   6.767
 9275SOL     OW28723   0.394   1.662   0.503
 9275SOL    HW128724   0.459   1.694   0.572
 9275SOL    HW228725   0.443   1.640   0.418
 9276SOL     OW28726   2.349   5.096   4.200
 9276SOL    HW128727   2.436   5.045   4.200
 9276SOL    HW228728   2.301   5.081   4.286
 9277SOL     OW28729   3.652   3.624   0.116
 9277SOL    HW128730   3.732   3.623   0.175
 9277SOL    HW228731   3.570   3.606   0.170
 9278SOL     OW28732   1.976   0.908   3.933
 9278SOL    HW128733   1.926   0.949   3.857
 9278SOL    HW228734   1.990   0.977   4.005
 9279SOL     OW28735   4.787   0.729   1.421
 9279SOL    HW128736   4.707   0.788   1.434
 9279SOL    HW228737   4.868   0.775   1.456
 9280SOL     OW28738   2.104   0.313   3.728
 9280SOL    HW128739   2.061   0.403   3.729
 9280SOL    HW228740   2.184   0.315   3.668
 9281SOL     OW28741   3.300   3.523   1.006
 9281SOL    HW128742   3.279   3.610   0.962
 9281SOL    HW228743   3.246   3.513   1.089
 9282SOL     OW28744   4.918   2.121   4.144
 9282SOL    HW128745   4.902   2.218   4.128
 9282SOL    HW228746   5.014   2.106   4.169
 9283SOL     OW28747   6.369   0.926   2.560
 9283SOL    HW128748   6.270   0.928   2.546
 9283SOL    HW228749   6.405   0.835   2.538
 9284SOL     OW28750   3.836   4.924   0.196
 9284SOL    HW128751   3.852   4.937   0.294
 9284SOL    HW228752   3.922   4.904   0.150
 9285SOL     OW28753   4.877   3.350   0.030
 9285SOL    HW128754   4.893   3.398   0.116
 9285SOL    HW228755   4.832   3.412   6.986
 9286SOL     OW28756   5.820   0.151   5.594
 9286SOL    HW128757   5.795   0.173   5.499
 9286SOL    HW228758   5.908   0.105   5.595
 9287SOL     OW28759   3.035   5.740   1.040
 9287SOL    HW128760   3.119   5.715   1.088
 9287SOL    HW228761   3.049   5.733   0.942
 9288SOL     OW28762   2.764   1.317   5.577
 9288SOL    HW128763   2.788   1.277   5.488
 9288SOL    HW228764   2.842   1.370   5.611
 9289SOL     OW28765   3.736   1.740   2.323
 9289SOL    HW128766   3.774   1.648   2.312
 9289SOL    HW228767   3.809   1.805   2.346
 9290SOL     OW28768   4.466   1.406   4.732
 9290SOL    HW128769   4.404   1.384   4.808
 9290SOL    HW228770   4.414   1.448   4.658
 9291SOL     OW28771   2.440   0.276   5.692
 9291SOL    HW128772   2.341   0.267   5.707
 9291SOL    HW228773   2.459   0.363   5.647
 9292SOL     OW28774   6.441   3.507   6.117
 9292SOL    HW128775   6.346   3.537   6.110
 9292SOL    HW228776   6.447   3.428   6.177
 9293SOL     OW28777   6.372   3.977   0.999
 9293SOL    HW128778   6.434   4.031   0.942
 9293SOL    HW228779   6.424   3.935   1.074
 9294SOL     OW28780   3.997   6.217   5.569
 9294SOL    HW128781   4.005   6.129   5.614
 9294SOL    HW228782   4.056   6.284   5.615
 9295SOL     OW28783   4.980   2.161   3.376
 9295SOL    HW128784   4.910   2.212   3.425
 9295SOL    HW228785   4.944   2.129   3.289
 9296SOL     OW28786   6.614   6.195   6.381
 9296SOL    HW128787   6.660   6.132   6.443
 9296SOL    HW228788   6.672   6.213   6.302
 9297SOL     OW28789   0.320   0.644   1.089
 9297SOL    HW128790   0.286   0.591   1.167
 9297SOL    HW228791   0.345   0.582   1.015
 9298SOL     OW28792   1.815   6.189   5.868
 9298SOL    HW128793   1.869   6.266   5.901
 9298SOL    HW228794   1.821   6.184   5.768
 9299SOL     OW28795   1.078   3.652   4.618
 9299SOL    HW128796   1.101   3.581   4.685
 9299SOL    HW228797   1.102   3.619   4.526
 9300SOL     OW28798   6.924   5.045   4.062
 9300SOL    HW128799   6.877   4.967   4.022
 9300SOL    HW228800   7.017   5.049   4.026
 9301SOL     OW28801   4.965   4.774   3.211
 9301SOL    HW128802   5.058   4.740   3.223
 9301SOL    HW228803   4.962   4.872   3.231
 9302SOL     OW28804   2.239   2.979   3.980
 9302SOL    HW128805   2.200   3.071   3.990
 9302SOL    HW228806   2.297   2.959   4.059
 9303SOL     OW28807   3.886   6.044   0.670
 9303SOL    HW128808   3.927   6.078   0.755
 9303SOL    HW228809   3.816   6.107   0.639
 9304SOL     OW28810   4.409   4.246   1.168
 9304SOL    HW128811   4.429   4.293   1.254
 9304SOL    HW228812   4.494   4.211   1.128
 9305SOL     OW28813   4.604   1.369   1.579
 9305SOL    HW128814   4.668   1.437   1.544
 9305SOL    HW228815   4.531   1.355   1.512
 9306SOL     OW28816   0.369   4.940   4.841
 9306SOL    HW128817   0.409   4.956   4.932
 9306SOL    HW228818   0.402   4.852   4.807
 9307SOL     OW28819   1.468   3.370   1.454
 9307SOL    HW128820   1.377   3.329   1.456
 9307SOL    HW228821   1.502   3.369   1.360
 9308SOL     OW28822   0.953   3.966   1.417
 9308SOL    HW128823   0.980   4.061   1.398
 9308SOL    HW228824   1.028   3.905   1.393
 9309SOL     OW28825   3.666   4.982   5.405
 9309SOL    HW128826   3.665   4.887   5.376
 9309SOL    HW228827   3.657   5.042   5.326
 9310SOL     OW28828   4.069   5.779   6.540
 9310SOL    HW128829   4.092   5.840   6.464
 9310SOL    HW228830   4.025   5.696   6.505
 9311SOL     OW28831   6.476   4.727   1.360
 9311SOL    HW128832   6.518   4.639   1.382
 9311SOL    HW228833   6.525   4.800   1.407
 9312SOL     OW28834   1.881   3.917   1.111
 9312SOL    HW128835   1.826   3.996   1.139
 9312SOL    HW228836   1.889   3.915   1.012
 9313SOL     OW28837   0.381   0.907   1.042
 9313SOL    HW128838   0.436   0.926   1.123
 9313SOL    HW228839   0.353   0.811   1.042
 9314SOL     OW28840   4.251   5.459   6.592
 9314SOL    HW128841   4.295   5.507   6.516
 9314SOL    HW228842   4.218   5.526   6.659
 9315SOL     OW28843   6.472   0.652   5.288
 9315SOL    HW128844   6.452   0.740   5.332
 9315SOL    HW228845   6.540   0.665   5.216
 9316SOL     OW28846   4.441   5.776   5.655
 9316SOL    HW128847   4.490   5.824   5.727
 9316SOL    HW228848   4.350   5.752   5.687
 9317SOL     OW28849   6.706   6.006   2.926
 9317SOL    HW128850   6.610   5.979   2.938
 9317SOL    HW228851   6.715   6.105   2.941
 9318SOL     OW28852   6.913   1.141   4.873
 9318SOL    HW128853   6.846   1.068   4.884
 9318SOL    HW228854   6.962   1.128   4.787
 9319SOL     OW28855   0.591   2.797   5.940
 9319SOL    HW128856   0.683   2.813   5.976
 9319SOL    HW228857   0.581   2.844   5.853
 9320SOL     OW28858   4.466   1.734   6.605
 9320SOL    HW128859   4.559   1.735   6.642
 9320SOL    HW228860   4.434   1.640   6.598
 9321SOL     OW28861   6.570   6.915   2.010
 9321SOL    HW128862   6.519   6.863   1.943
 9321SOL    HW228863   6.549   7.013   2.000
 9322SOL     OW28864   0.092   6.361   6.269
 9322SOL    HW128865   0.070   6.372   6.172
 9322SOL    HW228866   0.011   6.376   6.324
 9323SOL     OW28867   1.763   0.063   5.521
 9323SOL    HW128868   1.781   7.003   5.464
 9323SOL    HW228869   1.721   0.034   5.607
 9324SOL     OW28870   1.519   5.057   0.610
 9324SOL    HW128871   1.545   5.145   0.651
 9324SOL    HW228872   1.424   5.062   0.579
 9325SOL     OW28873   4.872   2.050   0.770
 9325SOL    HW128874   4.967   2.048   0.799
 9325SOL    HW228875   4.817   1.993   0.831
 9326SOL     OW28876   2.883   0.044   1.173
 9326SOL    HW128877   2.879   0.094   1.259
 9326SOL    HW228878   2.892   0.109   1.097
 9327SOL     OW28879   5.166   6.427   2.278
 9327SOL    HW128880   5.146   6.407   2.374
 9327SOL    HW228881   5.229   6.358   2.243
 9328SOL     OW28882   4.159   1.591   6.005
 9328SOL    HW128883   4.061   1.592   5.984
 9328SOL    HW228884   4.174   1.541   6.090
 9329SOL     OW28885   7.010   3.872   2.748
 9329SOL    HW128886   6.946   3.828   2.685
 9329SOL    HW228887   0.039   3.802   2.799
 9330SOL     OW28888   0.086   6.084   0.476
 9330SOL    HW128889   0.118   6.178   0.462
 9330SOL    HW228890   0.097   6.059   0.573
 9331SOL     OW28891   0.621   1.300   6.053
 9331SOL    HW128892   0.615   1.215   6.001
 9331SOL    HW228893   0.622   1.378   5.990
 9332SOL     OW28894   3.148   4.005   3.320
 9332SOL    HW128895   3.066   3.947   3.314
 9332SOL    HW228896   3.224   3.960   3.272
 9333SOL     OW28897   5.073   3.796   1.500
 9333SOL    HW128898   4.999   3.809   1.435
 9333SOL    HW228899   5.152   3.851   1.472
 9334SOL     OW28900   3.588   6.687   3.671
 9334SOL    HW128901   3.533   6.770   3.662
 9334SOL    HW228902   3.650   6.679   3.593
 9335SOL     OW28903   1.275   0.938   5.801
 9335SOL    HW128904   1.294   1.009   5.733
 9335SOL    HW228905   1.211   0.973   5.869
 9336SOL     OW28906   3.436   6.097   6.843
 9336SOL    HW128907   3.457   6.175   6.901
 9336SOL    HW228908   3.386   6.128   6.762
 9337SOL     OW28909   5.124   0.620   2.904
 9337SOL    HW128910   5.039   0.646   2.859
 9337SOL    HW228911   5.116   0.636   3.002
 9338SOL     OW28912   4.708   0.597   1.659
 9338SOL    HW128913   4.609   0.586   1.654
 9338SOL    HW228914   4.740   0.652   1.582
 9339SOL     OW28915   5.541   0.032   0.441
 9339SOL    HW128916   5.468   0.100   0.429
 9339SOL    HW228917   5.625   0.078   0.470
 9340SOL     OW28918   5.334   3.953   5.432
 9340SOL    HW128919   5.404   3.882   5.425
 9340SOL    HW228920   5.377   4.039   5.458
 9341SOL     OW28921   0.653   5.925   6.534
 9341SOL    HW128922   0.564   5.945   6.492
 9341SOL    HW228923   0.668   5.827   6.535
 9342SOL     OW28924   2.146   0.849   4.341
 9342SOL    HW128925   2.194   0.805   4.417
 9342SOL    HW228926   2.148   0.948   4.353
 9343SOL     OW28927   6.300   4.419   3.543
 9343SOL    HW128928   6.240   4.345   3.513
 9343SOL    HW228929   6.245   4.489   3.589
 9344SOL     OW28930   4.375   5.665   1.615
 9344SOL    HW128931   4.419   5.576   1.627
 9344SOL    HW228932   4.390   5.697   1.521
 9345SOL     OW28933   6.129   3.277   1.877
 9345SOL    HW128934   6.047   3.298   1.824
 9345SOL    HW228935   6.210   3.286   1.819
 9346SOL     OW28936   6.120   0.753   0.962
 9346SOL    HW128937   6.026   0.722   0.977
 9346SOL    HW228938   6.138   0.759   0.864
 9347SOL     OW28939   1.664   5.440   1.064
 9347SOL    HW128940   1.759   5.421   1.086
 9347SOL    HW228941   1.624   5.361   1.017
 9348SOL     OW28942   4.546   5.478   1.338
 9348SOL    HW128943   4.600   5.455   1.419
 9348SOL    HW228944   4.573   5.419   1.262
 9349SOL     OW28945   0.730   0.201   2.224
 9349SOL    HW128946   0.787   0.126   2.258
 9349SOL    HW228947   0.772   0.288   2.251
 9350SOL     OW28948   0.897   2.460   5.750
 9350SOL    HW128949   0.988   2.451   5.791
 9350SOL    HW228950   0.830   2.413   5.807
 9351SOL     OW28951   3.473   1.572   6.962
 9351SOL    HW128952   3.418   1.529   6.890
 9351SOL    HW228953   3.431   1.553   0.030
 9352SOL     OW28954   2.774   3.399   0.212
 9352SOL    HW128955   2.837   3.388   0.134
 9352SOL    HW228956   2.698   3.335   0.202
 9353SOL     OW28957   1.014   5.177   1.817
 9353SOL    HW128958   0.975   5.102   1.871
 9353SOL    HW228959   1.071   5.235   1.876
 9354SOL     OW28960   6.818   2.544   6.417
 9354SOL    HW128961   6.874   2.462   6.418
 9354SOL    HW228962   6.737   2.529   6.360
 9355SOL     OW28963   1.000   2.172   4.610
 9355SOL    HW128964   0.951   2.251   4.646
 9355SOL    HW228965   1.008   2.180   4.510
 9356SOL     OW28966   4.009   6.890   1.241
 9356SOL    HW128967   3.999   6.874   1.143
 9356SOL    HW228968   3.931   6.942   1.275
 9357SOL     OW28969   1.008   2.343   6.977
 9357SOL    HW128970   1.082   2.387   0.007
 9357SOL    HW228971   0.998   2.249   7.009
 9358SOL     OW28972   0.270   4.344   2.671
 9358SOL    HW128973   0.222   4.395   2.742
 9358SOL    HW228974   0.248   4.247   2.679
 9359SOL     OW28975   1.776   5.912   6.373
 9359SOL    HW128976   1.866   5.916   6.329
 9359SOL    HW228977   1.780   5.961   6.460
 9360SOL     OW28978   1.637   6.374   6.523
 9360SOL    HW128979   1.665   6.377   6.427
 9360SOL    HW228980   1.553   6.320   6.531
 9361SOL     OW28981   1.906   6.308   3.836
 9361SOL    HW128982   1.816   6.324   3.877
 9361SOL    HW228983   1.963   6.254   3.899
 9362SOL     OW28984   1.821   1.226   2.100
 9362SOL    HW128985   1.768   1.230   2.015
 9362SOL    HW228986   1.914   1.260   2.082
 9363SOL     OW28987   2.958   5.366   2.145
 9363SOL    HW128988   3.034   5.428   2.168
 9363SOL    HW228989   2.990   5.272   2.150
 9364SOL     OW28990   2.757   2.531   1.677
 9364SOL    HW128991   2.819   2.502   1.750
 9364SOL    HW228992   2.663   2.530   1.710
 9365SOL     OW28993   2.945   2.059   4.397
 9365SOL    HW128994   3.012   1.996   4.356
 9365SOL    HW228995   2.918   2.024   4.487
 9366SOL     OW28996   3.803   5.440   0.633
 9366SOL    HW128997   3.841   5.429   0.541
 9366SOL    HW228998   3.706   5.416   0.631
 9367SOL     OW28999   5.121   0.142   0.872
 9367SOL    HW129000   5.136   0.231   0.914
 9367SOL    HW229001   5.074   0.153   0.784
 9368SOL     OW29002   3.928   0.230   2.573
 9368SOL    HW129003   4.009   0.201   2.624
 9368SOL    HW229004   3.884   0.149   2.532
 9369SOL     OW29005   0.786   5.488   5.688
 9369SOL    HW129006   0.856   5.548   5.649
 9369SOL    HW229007   0.698   5.536   5.688
 9370SOL     OW29008   4.334   1.408   4.175
 9370SOL    HW129009   4.312   1.505   4.183
 9370SOL    HW229010   4.425   1.398   4.135
 9371SOL     OW29011   3.379   5.479   1.108
 9371SOL    HW129012   3.316   5.418   1.060
 9371SOL    HW229013   3.468   5.479   1.061
 9372SOL     OW29014   4.627   6.887   1.929
 9372SOL    HW129015   4.663   6.871   2.021
 9372SOL    HW229016   4.702   6.911   1.867
 9373SOL     OW29017   5.829   2.506   0.180
 9373SOL    HW129018   5.743   2.524   0.131
 9373SOL    HW229019   5.900   2.482   0.114
 9374SOL     OW29020   0.191   4.561   5.416
 9374SOL    HW129021   0.191   4.514   5.504
 9374SOL    HW229022   0.229   4.501   5.345
 9375SOL     OW29023   6.423   1.696   6.955
 9375SOL    HW129024   6.397   1.793   6.957
 9375SOL    HW229025   6.514   1.686   6.995
 9376SOL     OW29026   2.068   3.407   2.251
 9376SOL    HW129027   2.129   3.431   2.176
 9376SOL    HW229028   1.974   3.404   2.217
 9377SOL     OW29029   1.796   5.471   2.232
 9377SOL    HW129030   1.776   5.503   2.140
 9377SOL    HW229031   1.894   5.479   2.250
 9378SOL     OW29032   3.855   0.772   3.879
 9378SOL    HW129033   3.797   0.691   3.881
 9378SOL    HW229034   3.800   0.854   3.893
 9379SOL     OW29035   3.715   6.747   4.653
 9379SOL    HW129036   3.688   6.687   4.578
 9379SOL    HW229037   3.689   6.842   4.631
 9380SOL     OW29038   4.202   5.522   6.246
 9380SOL    HW129039   4.156   5.542   6.159
 9380SOL    HW229040   4.217   5.423   6.254
 9381SOL     OW29041   5.242   1.406   4.454
 9381SOL    HW129042   5.157   1.355   4.440
 9381SOL    HW229043   5.231   1.469   4.531
 9382SOL     OW29044   3.603   0.837   4.151
 9382SOL    HW129045   3.630   0.743   4.132
 9382SOL    HW229046   3.511   0.853   4.115
 9383SOL     OW29047   4.979   3.781   3.521
 9383SOL    HW129048   4.969   3.728   3.605
 9383SOL    HW229049   4.926   3.866   3.528
 9384SOL     OW29050   1.845   6.952   2.030
 9384SOL    HW129051   1.758   6.964   1.983
 9384SOL    HW229052   1.875   0.017   2.069
 9385SOL     OW29053   4.313   1.600   3.838
 9385SOL    HW129054   4.223   1.581   3.876
 9385SOL    HW229055   4.334   1.535   3.766
 9386SOL     OW29056   3.767   5.516   5.309
 9386SOL    HW129057   3.753   5.551   5.217
 9386SOL    HW229058   3.809   5.587   5.366
 9387SOL     OW29059   4.002   1.781   6.918
 9387SOL    HW129060   4.006   1.683   6.940
 9387SOL    HW229061   4.001   1.792   6.819
 9388SOL     OW29062   2.046   0.082   4.023
 9388SOL    HW129063   2.128   0.079   4.080
 9388SOL    HW229064   2.001   7.014   4.023
 9389SOL     OW29065   3.463   5.335   2.501
 9389SOL    HW129066   3.406   5.417   2.505
 9389SOL    HW229067   3.501   5.325   2.409
 9390SOL     OW29068   5.209   4.491   5.720
 9390SOL    HW129069   5.226   4.406   5.769
 9390SOL    HW229070   5.124   4.483   5.667
 9391SOL     OW29071   1.491   6.734   4.670
 9391SOL    HW129072   1.565   6.789   4.709
 9391SOL    HW229073   1.425   6.713   4.742
 9392SOL     OW29074   5.144   4.010   2.796
 9392SOL    HW129075   5.172   3.993   2.891
 9392SOL    HW229076   5.048   3.985   2.785
 9393SOL     OW29077   3.270   6.213   6.334
 9393SOL    HW129078   3.205   6.237   6.407
 9393SOL    HW229079   3.254   6.119   6.305
 9394SOL     OW29080   5.081   0.291   1.178
 9394SOL    HW129081   5.100   0.351   1.100
 9394SOL    HW229082   5.000   0.236   1.159
 9395SOL     OW29083   2.921   1.485   0.574
 9395SOL    HW129084   2.998   1.461   0.515
 9395SOL    HW229085   2.876   1.401   0.606
 9396SOL     OW29086   1.939   5.718   6.763
 9396SOL    HW129087   1.975   5.650   6.699
 9396SOL    HW229088   1.922   5.674   6.852
 9397SOL     OW29089   4.148   0.213   6.443
 9397SOL    HW129090   4.165   0.310   6.455
 9397SOL    HW229091   4.089   0.199   6.364
 9398SOL     OW29092   6.946   1.691   6.708
 9398SOL    HW129093   7.001   1.746   6.645
 9398SOL    HW229094   6.946   1.733   6.798
 9399SOL     OW29095   1.915   2.932   3.868
 9399SOL    HW129096   2.001   2.886   3.844
 9399SOL    HW229097   1.915   2.952   3.966
 9400SOL     OW29098   5.439   1.049   0.587
 9400SOL    HW129099   5.406   0.989   0.660
 9400SOL    HW229100   5.398   1.021   0.500
 9401SOL     OW29101   1.130   1.644   2.845
 9401SOL    HW129102   1.078   1.695   2.915
 9401SOL    HW229103   1.207   1.598   2.889
 9402SOL     OW29104   1.153   5.821   3.181
 9402SOL    HW129105   1.148   5.744   3.245
 9402SOL    HW229106   1.249   5.847   3.169
 9403SOL     OW29107   6.515   1.940   1.992
 9403SOL    HW129108   6.549   2.034   1.989
 9403SOL    HW229109   6.584   1.881   2.033
 9404SOL     OW29110   2.188   3.286   1.047
 9404SOL    HW129111   2.134   3.348   0.991
 9404SOL    HW229112   2.190   3.195   1.005
 9405SOL     OW29113   0.200   4.938   5.155
 9405SOL    HW129114   0.116   4.962   5.107
 9405SOL    HW229115   0.178   4.882   5.235
 9406SOL     OW29116   0.032   2.967   6.589
 9406SOL    HW129117   6.994   2.896   6.551
 9406SOL    HW229118   7.007   3.009   6.668
 9407SOL     OW29119   2.034   4.898   4.933
 9407SOL    HW129120   2.041   4.991   4.898
 9407SOL    HW229121   2.088   4.890   5.017
 9408SOL     OW29122   6.697   4.306   4.812
 9408SOL    HW129123   6.620   4.356   4.850
 9408SOL    HW229124   6.730   4.353   4.730
 9409SOL     OW29125   6.691   5.148   2.207
 9409SOL    HW129126   6.683   5.200   2.122
 9409SOL    HW229127   6.700   5.051   2.186
 9410SOL     OW29128   3.881   0.607   1.782
 9410SOL    HW129129   3.895   0.515   1.820
 9410SOL    HW229130   3.848   0.600   1.688
 9411SOL     OW29131   3.872   3.359   3.112
 9411SOL    HW129132   3.865   3.261   3.131
 9411SOL    HW229133   3.833   3.411   3.189
 9412SOL     OW29134   0.197   0.807   1.311
 9412SOL    HW129135   0.106   0.772   1.291
 9412SOL    HW229136   0.258   0.789   1.234
 9413SOL     OW29137   3.981   4.912   3.934
 9413SOL    HW129138   4.065   4.866   3.966
 9413SOL    HW229139   3.961   4.989   3.994
 9414SOL     OW29140   2.282   2.226   5.359
 9414SOL    HW129141   2.356   2.285   5.391
 9414SOL    HW229142   2.268   2.152   5.425
 9415SOL     OW29143   3.817   0.730   2.267
 9415SOL    HW129144   3.743   0.664   2.259
 9415SOL    HW229145   3.786   0.809   2.319
 9416SOL     OW29146   0.110   5.738   6.136
 9416SOL    HW129147   0.098   5.756   6.038
 9416SOL    HW229148   0.025   5.759   6.185
 9417SOL     OW29149   3.036   6.145   1.391
 9417SOL    HW129150   2.970   6.197   1.337
 9417SOL    HW229151   3.061   6.061   1.343
 9418SOL     OW29152   3.118   1.774   4.764
 9418SOL    HW129153   3.175   1.855   4.754
 9418SOL    HW229154   3.023   1.802   4.779
 9419SOL     OW29155   3.105   2.801   0.174
 9419SOL    HW129156   3.182   2.865   0.183
 9419SOL    HW229157   3.134   2.721   0.121
 9420SOL     OW29158   5.482   3.132   6.990
 9420SOL    HW129159   5.561   3.138   6.929
 9420SOL    HW229160   5.398   3.127   6.936
 9421SOL     OW29161   3.785   6.512   5.592
 9421SOL    HW129162   3.790   6.465   5.680
 9421SOL    HW229163   3.802   6.609   5.605
 9422SOL     OW29164   2.615   5.946   4.413
 9422SOL    HW129165   2.649   6.037   4.439
 9422SOL    HW229166   2.691   5.880   4.418
 9423SOL     OW29167   4.235   5.806   3.279
 9423SOL    HW129168   4.214   5.834   3.185
 9423SOL    HW229169   4.164   5.743   3.311
 9424SOL     OW29170   5.588   0.517   4.426
 9424SOL    HW129171   5.594   0.422   4.394
 9424SOL    HW229172   5.502   0.558   4.393
 9425SOL     OW29173   6.819   4.962   0.639
 9425SOL    HW129174   6.913   4.995   0.645
 9425SOL    HW229175   6.757   5.027   0.683
 9426SOL     OW29176   0.039   2.016   6.378
 9426SOL    HW129177   0.132   2.003   6.343
 9426SOL    HW229178   7.013   1.928   6.382
 9427SOL     OW29179   3.237   5.814   3.103
 9427SOL    HW129180   3.223   5.826   3.004
 9427SOL    HW229181   3.241   5.903   3.147
 9428SOL     OW29182   6.506   0.356   6.631
 9428SOL    HW129183   6.568   0.412   6.686
 9428SOL    HW229184   6.411   0.381   6.651
 9429SOL     OW29185   1.913   2.575   4.299
 9429SOL    HW129186   1.881   2.632   4.375
 9429SOL    HW229187   1.970   2.630   4.238
 9430SOL     OW29188   0.746   2.068   4.094
 9430SOL    HW129189   0.658   2.033   4.063
 9430SOL    HW229190   0.772   2.023   4.180
 9431SOL     OW29191   0.253   4.927   6.214
 9431SOL    HW129192   0.172   4.983   6.233
 9431SOL    HW229193   0.225   4.831   6.207
 9432SOL     OW29194   6.777   1.802   3.338
 9432SOL    HW129195   6.701   1.851   3.380
 9432SOL    HW229196   6.750   1.771   3.247
 9433SOL     OW29197   3.625   6.470   3.013
 9433SOL    HW129198   3.685   6.429   2.945
 9433SOL    HW229199   3.672   6.472   3.102
 9434SOL     OW29200   5.609   5.649   3.951
 9434SOL    HW129201   5.645   5.559   3.928
 9434SOL    HW229202   5.578   5.649   4.046
 9435SOL     OW29203   0.882   3.212   1.882
 9435SOL    HW129204   0.973   3.170   1.873
 9435SOL    HW229205   0.818   3.167   1.820
 9436SOL     OW29206   1.114   0.350   3.611
 9436SOL    HW129207   1.103   0.329   3.708
 9436SOL    HW229208   1.032   0.322   3.562
 9437SOL     OW29209   6.942   5.075   4.336
 9437SOL    HW129210   6.938   5.081   4.236
 9437SOL    HW229211   6.993   5.153   4.372
 9438SOL     OW29212   2.528   6.406   1.626
 9438SOL    HW129213   2.547   6.309   1.636
 9438SOL    HW229214   2.567   6.456   1.703
 9439SOL     OW29215   1.052   2.980   0.261
 9439SOL    HW129216   1.107   3.002   0.181
 9439SOL    HW229217   1.031   3.064   0.312
 9440SOL     OW29218   3.103   5.192   3.138
 9440SOL    HW129219   3.111   5.187   3.238
 9440SOL    HW229220   3.172   5.133   3.096
 9441SOL     OW29221   6.702   6.417   4.565
 9441SOL    HW129222   6.649   6.452   4.642
 9441SOL    HW229223   6.659   6.332   4.531
 9442SOL     OW29224   4.534   3.781   0.144
 9442SOL    HW129225   4.495   3.841   0.075
 9442SOL    HW229226   4.498   3.806   0.234
 9443SOL     OW29227   2.390   4.668   2.990
 9443SOL    HW129228   2.339   4.741   2.944
 9443SOL    HW229229   2.344   4.580   2.974
 9444SOL     OW29230   1.336   4.039   0.310
 9444SOL    HW129231   1.412   4.028   0.246
 9444SOL    HW229232   1.303   3.949   0.338
 9445SOL     OW29233   0.131   2.075   4.003
 9445SOL    HW129234   0.063   2.005   3.979
 9445SOL    HW229235   0.222   2.043   3.977
 9446SOL     OW29236   6.477   5.056   3.123
 9446SOL    HW129237   6.577   5.060   3.127
 9446SOL    HW229238   6.442   5.133   3.070
 9447SOL     OW29239   5.558   4.967   2.134
 9447SOL    HW129240   5.558   4.872   2.104
 9447SOL    HW229241   5.485   4.982   2.200
 9448SOL     OW29242   5.498   0.050   5.961
 9448SOL    HW129243   5.525   6.994   5.904
 9448SOL    HW229244   5.529   0.135   5.919
 9449SOL     OW29245   6.226   7.007   1.910
 9449SOL    HW129246   6.201   0.006   1.816
 9449SOL    HW229247   6.188   6.919   1.938
 9450SOL     OW29248   1.851   6.053   4.351
 9450SOL    HW129249   1.936   6.025   4.395
 9450SOL    HW229250   1.859   6.042   4.252
 9451SOL     OW29251   3.356   5.856   6.964
 9451SOL    HW129252   3.378   5.936   6.907
 9451SOL    HW229253   3.324   5.781   6.905
 9452SOL     OW29254   0.035   4.140   1.089
 9452SOL    HW129255   0.108   4.101   1.145
 9452SOL    HW229256   0.038   4.098   0.998
 9453SOL     OW29257   3.907   5.582   3.634
 9453SOL    HW129258   3.928   5.506   3.571
 9453SOL    HW229259   3.816   5.568   3.674
 9454SOL     OW29260   4.548   4.316   0.771
 9454SOL    HW129261   4.602   4.393   0.806
 9454SOL    HW229262   4.561   4.237   0.831
 9455SOL     OW29263   2.713   2.167   2.120
 9455SOL    HW129264   2.763   2.089   2.160
 9455SOL    HW229265   2.779   2.236   2.091
 9456SOL     OW29266   5.945   2.844   2.576
 9456SOL    HW129267   6.038   2.854   2.542
 9456SOL    HW229268   5.884   2.820   2.500
 9457SOL     OW29269   0.272   4.980   3.712
 9457SOL    HW129270   0.314   5.003   3.624
 9457SOL    HW229271   0.222   5.059   3.747
 9458SOL     OW29272   6.419   4.091   6.801
 9458SOL    HW129273   6.433   4.057   6.894
 9458SOL    HW229274   6.498   4.069   6.745
 9459SOL     OW29275   5.094   5.196   4.885
 9459SOL    HW129276   5.124   5.165   4.975
 9459SOL    HW229277   5.166   5.176   4.818
 9460SOL     OW29278   1.000   2.304   3.144
 9460SOL    HW129279   1.082   2.303   3.200
 9460SOL    HW229280   0.993   2.219   3.092
 9461SOL     OW29281   1.719   2.437   1.923
 9461SOL    HW129282   1.726   2.341   1.950
 9461SOL    HW229283   1.629   2.473   1.948
 9462SOL     OW29284   1.745   1.756   4.725
 9462SOL    HW129285   1.796   1.744   4.810
 9462SOL    HW229286   1.748   1.852   4.697
 9463SOL     OW29287   5.572   5.885   1.017
 9463SOL    HW129288   5.670   5.902   1.001
 9463SOL    HW229289   5.559   5.849   1.109
 9464SOL     OW29290   0.537   1.181   1.428
 9464SOL    HW129291   0.466   1.247   1.403
 9464SOL    HW229292   0.509   1.132   1.511
 9465SOL     OW29293   0.288   3.911   1.532
 9465SOL    HW129294   0.373   3.926   1.584
 9465SOL    HW229295   0.209   3.926   1.592
 9466SOL     OW29296   3.876   5.376   7.009
 9466SOL    HW129297   3.816   5.344   0.062
 9466SOL    HW229298   3.820   5.402   6.930
 9467SOL     OW29299   2.441   3.254   1.189
 9467SOL    HW129300   2.365   3.300   1.143
 9467SOL    HW229301   2.520   3.250   1.128
 9468SOL     OW29302   6.232   3.110   0.696
 9468SOL    HW129303   6.185   3.093   0.783
 9468SOL    HW229304   6.193   3.191   0.653
 9469SOL     OW29305   0.443   6.379   0.913
 9469SOL    HW129306   0.447   6.392   1.012
 9469SOL    HW229307   0.359   6.420   0.877
 9470SOL     OW29308   4.004   4.089   0.763
 9470SOL    HW129309   3.998   3.989   0.761
 9470SOL    HW229310   4.004   4.120   0.858
 9471SOL     OW29311   6.169   2.489   5.116
 9471SOL    HW129312   6.233   2.412   5.107
 9471SOL    HW229313   6.219   2.570   5.148
 9472SOL     OW29314   1.734   3.671   6.238
 9472SOL    HW129315   1.803   3.731   6.278
 9472SOL    HW229316   1.649   3.723   6.226
 9473SOL     OW29317   2.866   4.503   0.340
 9473SOL    HW129318   2.785   4.552   0.370
 9473SOL    HW229319   2.865   4.494   0.240
 9474SOL     OW29320   5.681   3.261   1.661
 9474SOL    HW129321   5.652   3.169   1.635
 9474SOL    HW229322   5.630   3.328   1.608
 9475SOL     OW29323   4.666   3.755   5.837
 9475SOL    HW129324   4.708   3.697   5.907
 9475SOL    HW229325   4.601   3.702   5.784
 9476SOL     OW29326   3.663   3.740   6.308
 9476SOL    HW129327   3.747   3.736   6.361
 9476SOL    HW229328   3.655   3.829   6.264
 9477SOL     OW29329   1.700   3.880   1.821
 9477SOL    HW129330   1.761   3.895   1.743
 9477SOL    HW229331   1.730   3.935   1.898
 9478SOL     OW29332   5.460   2.608   0.292
 9478SOL    HW129333   5.486   2.665   0.214
 9478SOL    HW229334   5.375   2.644   0.332
 9479SOL     OW29335   4.160   0.655   1.684
 9479SOL    HW129336   4.096   0.675   1.758
 9479SOL    HW229337   4.159   0.730   1.617
 9480SOL     OW29338   6.169   6.854   6.962
 9480SOL    HW129339   6.164   6.755   6.947
 9480SOL    HW229340   6.141   6.902   6.878
 9481SOL     OW29341   4.243   1.786   2.726
 9481SOL    HW129342   4.244   1.822   2.819
 9481SOL    HW229343   4.199   1.696   2.726
 9482SOL     OW29344   6.089   0.265   0.863
 9482SOL    HW129345   6.025   0.339   0.881
 9482SOL    HW229346   6.063   0.185   0.916
 9483SOL     OW29347   0.085   0.904   1.025
 9483SOL    HW129348   0.176   0.939   1.049
 9483SOL    HW229349   0.021   0.923   1.100
 9484SOL     OW29350   3.374   5.861   4.501
 9484SOL    HW129351   3.367   5.939   4.438
 9484SOL    HW229352   3.336   5.886   4.590
 9485SOL     OW29353   6.773   1.457   6.961
 9485SOL    HW129354   6.716   1.530   6.923
 9485SOL    HW229355   6.840   1.497   0.003
 9486SOL     OW29356   4.747   5.652   0.259
 9486SOL    HW129357   4.746   5.565   0.309
 9486SOL    HW229358   4.750   5.635   0.161
 9487SOL     OW29359   3.569   3.185   3.878
 9487SOL    HW129360   3.585   3.212   3.783
 9487SOL    HW229361   3.552   3.087   3.882
 9488SOL     OW29362   1.604   1.556   0.852
 9488SOL    HW129363   1.592   1.458   0.835
 9488SOL    HW229364   1.514   1.600   0.858
 9489SOL     OW29365   4.538   4.524   0.393
 9489SOL    HW129366   4.571   4.441   0.439
 9489SOL    HW229367   4.508   4.501   0.301
 9490SOL     OW29368   5.782   4.017   3.325
 9490SOL    HW129369   5.684   4.007   3.313
 9490SOL    HW229370   5.801   4.054   3.416
 9491SOL     OW29371   5.206   6.618   2.947
 9491SOL    HW129372   5.174   6.591   2.856
 9491SOL    HW229373   5.190   6.716   2.960
 9492SOL     OW29374   4.673   2.388   4.534
 9492SOL    HW129375   4.693   2.358   4.440
 9492SOL    HW229376   4.686   2.486   4.540
 9493SOL     OW29377   4.353   6.642   3.183
 9493SOL    HW129378   4.390   6.571   3.243
 9493SOL    HW229379   4.330   6.723   3.237
 9494SOL     OW29380   5.123   2.376   1.823
 9494SOL    HW129381   5.134   2.466   1.781
 9494SOL    HW229382   5.185   2.311   1.779
 9495SOL     OW29383   0.649   0.758   2.794
 9495SOL    HW129384   0.726   0.707   2.755
 9495SOL    HW229385   0.674   0.796   2.883
 9496SOL     OW29386   3.972   2.179   2.396
 9496SOL    HW129387   4.053   2.181   2.338
 9496SOL    HW229388   3.889   2.176   2.339
 9497SOL     OW29389   5.850   4.746   4.247
 9497SOL    HW129390   5.880   4.710   4.336
 9497SOL    HW229391   5.877   4.842   4.239
 9498SOL     OW29392   6.257   5.069   3.994
 9498SOL    HW129393   6.205   5.151   3.970
 9498SOL    HW229394   6.250   5.002   3.920
 9499SOL     OW29395   5.582   5.724   5.338
 9499SOL    HW129396   5.581   5.631   5.300
 9499SOL    HW229397   5.667   5.737   5.391
 9500SOL     OW29398   4.226   0.857   0.973
 9500SOL    HW129399   4.239   0.898   0.883
 9500SOL    HW229400   4.242   0.759   0.968
 9501SOL     OW29401   1.666   2.651   4.766
 9501SOL    HW129402   1.654   2.608   4.855
 9501SOL    HW229403   1.593   2.719   4.752
 9502SOL     OW29404   6.009   4.504   5.677
 9502SOL    HW129405   6.018   4.413   5.636
 9502SOL    HW229406   6.099   4.539   5.701
 9503SOL     OW29407   0.396   2.544   6.507
 9503SOL    HW129408   0.376   2.455   6.549
 9503SOL    HW229409   0.453   2.598   6.569
 9504SOL     OW29410   6.012   5.154   1.997
 9504SOL    HW129411   5.923   5.121   2.031
 9504SOL    HW229412   6.082   5.140   2.067
 9505SOL     OW29413   4.341   4.805   5.236
 9505SOL    HW129414   4.376   4.895   5.212
 9505SOL    HW229415   4.259   4.815   5.292
 9506SOL     OW29416   3.045   2.150   1.214
 9506SOL    HW129417   3.014   2.213   1.142
 9506SOL    HW229418   2.969   2.130   1.276
 9507SOL     OW29419   5.956   0.168   2.120
 9507SOL    HW129420   5.927   0.075   2.098
 9507SOL    HW229421   6.049   0.166   2.158
 9508SOL     OW29422   4.919   1.579   3.274
 9508SOL    HW129423   4.892   1.541   3.186
 9508SOL    HW229424   5.015   1.556   3.292
 9509SOL     OW29425   6.644   0.154   2.388
 9509SOL    HW129426   6.716   0.121   2.327
 9509SOL    HW229427   6.644   0.099   2.472
 9510SOL     OW29428   0.663   2.881   3.694
 9510SOL    HW129429   0.606   2.956   3.728
 9510SOL    HW229430   0.629   2.851   3.605
 9511SOL     OW29431   1.356   1.186   0.219
 9511SOL    HW129432   1.444   1.233   0.226
 9511SOL    HW229433   1.287   1.237   0.270
 9512SOL     OW29434   6.292   2.206   1.209
 9512SOL    HW129435   6.322   2.173   1.120
 9512SOL    HW229436   6.222   2.275   1.198
 9513SOL     OW29437   3.804   5.069   6.749
 9513SOL    HW129438   3.743   5.132   6.699
 9513SOL    HW229439   3.770   5.058   6.842
 9514SOL     OW29440   3.435   3.191   6.611
 9514SOL    HW129441   3.440   3.277   6.560
 9514SOL    HW229442   3.344   3.181   6.651
 9515SOL     OW29443   2.622   4.970   3.908
 9515SOL    HW129444   2.577   5.058   3.918
 9515SOL    HW229445   2.603   4.932   3.818
 9516SOL     OW29446   6.866   3.921   0.365
 9516SOL    HW129447   6.804   3.859   0.317
 9516SOL    HW229448   6.937   3.868   0.411
 9517SOL     OW29449   0.630   4.609   1.285
 9517SOL    HW129450   0.642   4.538   1.353
 9517SOL    HW229451   0.553   4.667   1.310
 9518SOL     OW29452   2.413   1.259   0.213
 9518SOL    HW129453   2.469   1.203   0.273
 9518SOL    HW229454   2.319   1.262   0.247
 9519SOL     OW29455   0.672   2.970   5.253
 9519SOL    HW129456   0.747   3.033   5.233
 9519SOL    HW229457   0.692   2.920   5.337
 9520SOL     OW29458   2.254   6.874   2.629
 9520SOL    HW129459   2.239   6.801   2.561
 9520SOL    HW229460   2.239   6.963   2.586
 9521SOL     OW29461   5.536   5.630   4.237
 9521SOL    HW129462   5.440   5.610   4.258
 9521SOL    HW229463   5.562   5.716   4.281
 9522SOL     OW29464   3.412   6.050   1.169
 9522SOL    HW129465   3.489   6.089   1.118
 9522SOL    HW229466   3.397   6.105   1.252
 9523SOL     OW29467   3.603   4.933   4.875
 9523SOL    HW129468   3.588   5.015   4.930
 9523SOL    HW229469   3.561   4.854   4.919
 9524SOL     OW29470   4.026   3.544   1.108
 9524SOL    HW129471   4.118   3.548   1.145
 9524SOL    HW229472   3.964   3.507   1.178
 9525SOL     OW29473   2.555   0.779   6.139
 9525SOL    HW129474   2.578   0.714   6.211
 9525SOL    HW229475   2.532   0.868   6.180
 9526SOL     OW29476   4.976   5.684   2.807
 9526SOL    HW129477   4.959   5.746   2.731
 9526SOL    HW229478   4.945   5.726   2.892
 9527SOL     OW29479   0.724   1.260   2.365
 9527SOL    HW129480   0.823   1.245   2.361
 9527SOL    HW229481   0.695   1.272   2.460
 9528SOL     OW29482   6.646   0.683   2.225
 9528SOL    HW129483   6.669   0.775   2.194
 9528SOL    HW229484   6.555   0.684   2.267
 9529SOL     OW29485   0.852   2.852   6.073
 9529SOL    HW129486   0.802   2.915   6.132
 9529SOL    HW229487   0.943   2.889   6.053
 9530SOL     OW29488   1.341   2.420   3.418
 9530SOL    HW129489   1.431   2.415   3.376
 9530SOL    HW229490   1.280   2.352   3.376
 9531SOL     OW29491   3.604   0.099   3.138
 9531SOL    HW129492   3.677   0.104   3.206
 9531SOL    HW229493   3.572   0.192   3.118
 9532SOL     OW29494   2.099   6.972   1.932
 9532SOL    HW129495   2.172   7.009   1.990
 9532SOL    HW229496   2.010   6.993   1.972
 9533SOL     OW29497   1.531   0.936   5.964
 9533SOL    HW129498   1.448   0.940   5.908
 9533SOL    HW229499   1.521   0.999   6.042
 9534SOL     OW29500   5.790   2.284   5.206
 9534SOL    HW129501   5.767   2.196   5.247
 9534SOL    HW229502   5.805   2.272   5.107
 9535SOL     OW29503   2.644   1.065   5.423
 9535SOL    HW129504   2.630   1.113   5.509
 9535SOL    HW229505   2.722   1.105   5.374
 9536SOL     OW29506   1.480   5.678   5.699
 9536SOL    HW129507   1.458   5.652   5.793
 9536SOL    HW229508   1.579   5.688   5.689
 9537SOL     OW29509   2.974   0.310   1.815
 9537SOL    HW129510   2.904   0.261   1.763
 9537SOL    HW229511   2.979   0.272   1.907
 9538SOL     OW29512   6.612   2.376   4.695
 9538SOL    HW129513   6.625   2.396   4.598
 9538SOL    HW229514   6.690   2.410   4.747
 9539SOL     OW29515   0.587   5.857   0.371
 9539SOL    HW129516   0.685   5.840   0.381
 9539SOL    HW229517   0.555   5.819   0.285
 9540SOL     OW29518   5.028   4.759   4.289
 9540SOL    HW129519   4.968   4.699   4.341
 9540SOL    HW229520   4.974   4.809   4.221
 9541SOL     OW29521   2.050   2.773   4.151
 9541SOL    HW129522   1.985   2.848   4.167
 9541SOL    HW229523   2.143   2.805   4.167
 9542SOL     OW29524   5.013   3.571   4.720
 9542SOL    HW129525   4.936   3.528   4.767
 9542SOL    HW229526   5.016   3.668   4.743
 9543SOL     OW29527   5.372   1.369   3.125
 9543SOL    HW129528   5.316   1.422   3.189
 9543SOL    HW229529   5.468   1.383   3.146
 9544SOL     OW29530   4.911   1.493   2.640
 9544SOL    HW129531   4.940   1.412   2.692
 9544SOL    HW229532   4.970   1.504   2.560
 9545SOL     OW29533   6.696   1.183   3.605
 9545SOL    HW129534   6.725   1.177   3.510
 9545SOL    HW229535   6.640   1.104   3.628
 9546SOL     OW29536   2.797   5.318   0.321
 9546SOL    HW129537   2.767   5.312   0.226
 9546SOL    HW229538   2.896   5.310   0.326
 9547SOL     OW29539   0.754   6.423   4.092
 9547SOL    HW129540   0.780   6.520   4.097
 9547SOL    HW229541   0.658   6.413   4.118
 9548SOL     OW29542   4.959   5.871   4.024
 9548SOL    HW129543   4.884   5.821   4.068
 9548SOL    HW229544   4.925   5.913   3.939
 9549SOL     OW29545   2.494   6.224   0.668
 9549SOL    HW129546   2.395   6.223   0.651
 9549SOL    HW229547   2.520   6.311   0.710
 9550SOL     OW29548   1.339   1.477   0.064
 9550SOL    HW129549   1.388   1.396   0.034
 9550SOL    HW229550   1.404   1.549   0.086
 9551SOL     OW29551   1.147   6.674   4.815
 9551SOL    HW129552   1.129   6.612   4.739
 9551SOL    HW229553   1.100   6.640   4.897
 9552SOL     OW29554   1.668   6.283   3.138
 9552SOL    HW129555   1.705   6.372   3.164
 9552SOL    HW229556   1.740   6.213   3.147
 9553SOL     OW29557   5.942   4.031   5.799
 9553SOL    HW129558   5.915   3.965   5.869
 9553SOL    HW229559   5.878   4.027   5.723
 9554SOL     OW29560   2.482   1.385   1.952
 9554SOL    HW129561   2.568   1.423   1.918
 9554SOL    HW229562   2.405   1.435   1.912
 9555SOL     OW29563   6.891   2.499   0.562
 9555SOL    HW129564   6.829   2.448   0.622
 9555SOL    HW229565   6.940   2.434   0.504
 9556SOL     OW29566   1.860   1.616   1.596
 9556SOL    HW129567   1.899   1.538   1.646
 9556SOL    HW229568   1.909   1.627   1.510
 9557SOL     OW29569   5.131   0.491   2.120
 9557SOL    HW129570   5.117   0.584   2.155
 9557SOL    HW229571   5.229   0.473   2.110
 9558SOL     OW29572   6.223   4.983   2.582
 9558SOL    HW129573   6.171   4.952   2.502
 9558SOL    HW229574   6.318   4.954   2.573
 9559SOL     OW29575   6.731   3.339   1.762
 9559SOL    HW129576   6.819   3.382   1.741
 9559SOL    HW229577   6.743   3.272   1.836
 9560SOL     OW29578   3.038   1.854   3.741
 9560SOL    HW129579   3.121   1.819   3.697
 9560SOL    HW229580   3.028   1.810   3.830
 9561SOL     OW29581   4.354   6.350   0.684
 9561SOL    HW129582   4.418   6.333   0.609
 9561SOL    HW229583   4.358   6.275   0.750
 9562SOL     OW29584   5.294   4.748   2.604
 9562SOL    HW129585   5.324   4.840   2.629
 9562SOL    HW229586   5.201   4.733   2.637
 9563SOL     OW29587   6.472   5.817   0.082
 9563SOL    HW129588   6.501   5.839   0.175
 9563SOL    HW229589   6.458   5.718   0.074
 9564SOL     OW29590   3.002   6.596   0.146
 9564SOL    HW129591   3.054   6.680   0.161
 9564SOL    HW229592   3.057   6.532   0.091
 9565SOL     OW29593   3.783   5.678   4.663
 9565SOL    HW129594   3.735   5.727   4.735
 9565SOL    HW229595   3.721   5.660   4.587
 9566SOL     OW29596   2.860   4.341   5.404
 9566SOL    HW129597   2.856   4.246   5.372
 9566SOL    HW229598   2.887   4.401   5.328
 9567SOL     OW29599   5.963   5.444   5.577
 9567SOL    HW129600   5.912   5.425   5.493
 9567SOL    HW229601   6.002   5.359   5.612
 9568SOL     OW29602   4.756   3.667   6.070
 9568SOL    HW129603   4.757   3.731   6.148
 9568SOL    HW229604   4.754   3.574   6.105
 9569SOL     OW29605   6.008   1.003   0.227
 9569SOL    HW129606   6.017   0.910   0.192
 9569SOL    HW229607   5.935   1.050   0.179
 9570SOL     OW29608   1.000   1.012   0.226
 9570SOL    HW129609   1.034   1.081   0.290
 9570SOL    HW229610   1.077   0.976   0.173
 9571SOL     OW29611   1.838   3.854   0.152
 9571SOL    HW129612   1.791   3.804   0.079
 9571SOL    HW229613   1.875   3.940   0.116
 9572SOL     OW29614   1.707   4.515   1.550
 9572SOL    HW129615   1.777   4.458   1.508
 9572SOL    HW229616   1.699   4.601   1.499
 9573SOL     OW29617   2.027   1.589   0.675
 9573SOL    HW129618   2.121   1.608   0.703
 9573SOL    HW229619   2.013   1.490   0.671
 9574SOL     OW29620   2.627   2.647   5.965
 9574SOL    HW129621   2.668   2.594   5.890
 9574SOL    HW229622   2.660   2.741   5.961
 9575SOL     OW29623   5.632   0.914   2.315
 9575SOL    HW129624   5.587   0.828   2.340
 9575SOL    HW229625   5.722   0.919   2.358
 9576SOL     OW29626   3.271   1.496   5.176
 9576SOL    HW129627   3.188   1.503   5.120
 9576SOL    HW229628   3.249   1.451   5.262
 9577SOL     OW29629   0.911   6.458   3.486
 9577SOL    HW129630   0.852   6.457   3.566
 9577SOL    HW229631   0.935   6.365   3.460
 9578SOL     OW29632   6.182   2.841   2.450
 9578SOL    HW129633   6.117   2.844   2.374
 9578SOL    HW229634   6.241   2.922   2.446
 9579SOL     OW29635   1.128   6.451   2.550
 9579SOL    HW129636   1.181   6.517   2.604
 9579SOL    HW229637   1.166   6.445   2.458
 9580SOL     OW29638   4.181   3.100   5.840
 9580SOL    HW129639   4.090   3.063   5.829
 9580SOL    HW229640   4.177   3.200   5.837
 9581SOL     OW29641   0.887   4.404   5.823
 9581SOL    HW129642   0.964   4.376   5.880
 9581SOL    HW229643   0.804   4.357   5.854
 9582SOL     OW29644   4.082   4.882   4.689
 9582SOL    HW129645   4.125   4.854   4.603
 9582SOL    HW229646   4.124   4.832   4.765
 9583SOL     OW29647   1.929   4.236   1.760
 9583SOL    HW129648   1.963   4.330   1.756
 9583SOL    HW229649   1.941   4.192   1.672
 9584SOL     OW29650   6.059   5.945   6.093
 9584SOL    HW129651   6.018   5.899   6.014
 9584SOL    HW229652   6.144   5.989   6.066
 9585SOL     OW29653   6.037   0.215   4.842
 9585SOL    HW129654   6.063   0.225   4.746
 9585SOL    HW229655   6.074   0.291   4.895
 9586SOL     OW29656   5.944   3.536   3.190
 9586SOL    HW129657   5.866   3.548   3.128
 9586SOL    HW229658   5.962   3.438   3.201
 9587SOL     OW29659   4.760   6.875   2.542
 9587SOL    HW129660   4.809   6.819   2.475
 9587SOL    HW229661   4.823   6.940   2.584
 9588SOL     OW29662   0.802   0.545   1.812
 9588SOL    HW129663   0.819   0.552   1.713
 9588SOL    HW229664   0.833   0.456   1.844
 9589SOL     OW29665   2.632   1.393   6.568
 9589SOL    HW129666   2.666   1.427   6.481
 9589SOL    HW229667   2.570   1.460   6.608
 9590SOL     OW29668   6.391   4.176   4.407
 9590SOL    HW129669   6.468   4.227   4.446
 9590SOL    HW229670   6.352   4.228   4.331
 9591SOL     OW29671   1.494   5.171   1.411
 9591SOL    HW129672   1.486   5.263   1.371
 9591SOL    HW229673   1.566   5.171   1.480
 9592SOL     OW29674   4.779   5.227   1.751
 9592SOL    HW129675   4.776   5.177   1.665
 9592SOL    HW229676   4.717   5.185   1.817
 9593SOL     OW29677   0.631   3.074   4.330
 9593SOL    HW129678   0.635   3.037   4.423
 9593SOL    HW229679   0.719   3.114   4.307
 9594SOL     OW29680   6.328   6.904   2.427
 9594SOL    HW129681   6.320   6.999   2.396
 9594SOL    HW229682   6.341   6.845   2.347
 9595SOL     OW29683   1.188   5.283   4.053
 9595SOL    HW129684   1.151   5.342   4.125
 9595SOL    HW229685   1.274   5.321   4.020
 9596SOL     OW29686   5.582   6.262   4.872
 9596SOL    HW129687   5.545   6.297   4.786
 9596SOL    HW229688   5.677   6.292   4.882
 9597SOL     OW29689   1.975   3.606   1.103
 9597SOL    HW129690   2.032   3.558   1.169
 9597SOL    HW229691   1.967   3.703   1.129
 9598SOL     OW29692   0.021   5.527   5.522
 9598SOL    HW129693   0.101   5.497   5.575
 9598SOL    HW229694   0.009   5.468   5.443
 9599SOL     OW29695   4.711   1.410   4.838
 9599SOL    HW129696   4.628   1.437   4.789
 9599SOL    HW229697   4.707   1.313   4.859
 9600SOL     OW29698   1.531   7.000   6.873
 9600SOL    HW129699   1.510   0.070   6.909
 9600SOL    HW229700   1.497   6.930   6.937
 9601SOL     OW29701   0.329   5.222   5.274
 9601SOL    HW129702   0.274   5.145   5.243
 9601SOL    HW229703   0.410   5.232   5.216
 9602SOL     OW29704   1.169   5.776   0.287
 9602SOL    HW129705   1.207   5.788   0.379
 9602SOL    HW229706   1.140   5.865   0.251
 9603SOL     OW29707   1.745   5.935   4.096
 9603SOL    HW129708   1.787   5.844   4.102
 9603SOL    HW229709   1.792   5.989   4.026
 9604SOL     OW29710   6.246   1.319   6.847
 9604SOL    HW129711   6.193   1.265   6.782
 9604SOL    HW229712   6.336   1.339   6.808
 9605SOL     OW29713   2.056   6.298   6.838
 9605SOL    HW129714   2.081   6.385   6.880
 9605SOL    HW229715   2.139   6.247   6.815
 9606SOL     OW29716   6.258   6.417   4.104
 9606SOL    HW129717   6.301   6.461   4.183
 9606SOL    HW229718   6.284   6.466   4.021
 9607SOL     OW29719   1.125   2.158   1.798
 9607SOL    HW129720   1.034   2.158   1.837
 9607SOL    HW229721   1.126   2.103   1.714
 9608SOL     OW29722   0.445   6.743   2.147
 9608SOL    HW129723   0.499   6.789   2.076
 9608SOL    HW229724   0.488   6.757   2.236
 9609SOL     OW29725   1.263   3.351   4.411
 9609SOL    HW129726   1.186   3.400   4.371
 9609SOL    HW229727   1.254   3.351   4.511
 9610SOL     OW29728   2.526   1.756   6.311
 9610SOL    HW129729   2.429   1.778   6.306
 9610SOL    HW229730   2.573   1.826   6.365
 9611SOL     OW29731   6.620   6.978   1.323
 9611SOL    HW129732   6.702   6.924   1.339
 9611SOL    HW229733   6.646   0.047   1.287
 9612SOL     OW29734   5.528   2.584   1.609
 9612SOL    HW129735   5.481   2.515   1.664
 9612SOL    HW229736   5.593   2.634   1.666
 9613SOL     OW29737   5.660   6.065   5.274
 9613SOL    HW129738   5.637   6.002   5.348
 9613SOL    HW229739   5.756   6.094   5.282
 9614SOL     OW29740   3.848   3.269   2.431
 9614SOL    HW129741   3.914   3.240   2.500
 9614SOL    HW229742   3.867   3.221   2.345
 9615SOL     OW29743   0.954   6.214   3.351
 9615SOL    HW129744   0.905   6.135   3.388
 9615SOL    HW229745   0.904   6.250   3.271
 9616SOL     OW29746   3.067   3.169   0.616
 9616SOL    HW129747   3.113   3.238   0.562
 9616SOL    HW229748   3.008   3.213   0.684
 9617SOL     OW29749   0.762   4.419   3.704
 9617SOL    HW129750   0.695   4.468   3.760
 9617SOL    HW229751   0.719   4.339   3.663
 9618SOL     OW29752   4.457   6.321   0.011
 9618SOL    HW129753   4.380   6.327   0.075
 9618SOL    HW229754   4.505   6.235   0.024
 9619SOL     OW29755   2.646   6.901   0.272
 9619SOL    HW129756   2.734   6.940   0.301
 9619SOL    HW229757   2.571   6.956   0.309
 9620SOL     OW29758   3.461   1.018   6.231
 9620SOL    HW129759   3.362   1.026   6.239
 9620SOL    HW229760   3.502   1.017   6.322
 9621SOL     OW29761   1.329   1.117   0.981
 9621SOL    HW129762   1.255   1.108   1.048
 9621SOL    HW229763   1.361   1.212   0.979
 9622SOL     OW29764   6.432   0.245   6.008
 9622SOL    HW129765   6.456   0.236   5.911
 9622SOL    HW229766   6.510   0.282   6.058
 9623SOL     OW29767   4.112   6.325   6.592
 9623SOL    HW129768   4.040   6.255   6.593
 9623SOL    HW229769   4.110   6.375   6.679
 9624SOL     OW29770   4.015   5.196   4.716
 9624SOL    HW129771   3.944   5.143   4.669
 9624SOL    HW229772   4.103   5.150   4.707
 9625SOL     OW29773   4.860   3.939   5.955
 9625SOL    HW129774   4.796   3.982   6.018
 9625SOL    HW229775   4.812   3.869   5.902
 9626SOL     OW29776   2.292   3.830   6.129
 9626SOL    HW129777   2.227   3.754   6.134
 9626SOL    HW229778   2.340   3.828   6.042
 9627SOL     OW29779   0.951   5.478   0.046
 9627SOL    HW129780   0.997   5.543   7.006
 9627SOL    HW229781   0.861   5.514   0.071
 9628SOL     OW29782   5.949   2.102   6.546
 9628SOL    HW129783   5.895   2.124   6.628
 9628SOL    HW229784   5.949   2.003   6.532
 9629SOL     OW29785   0.002   5.761   3.667
 9629SOL    HW129786   0.045   5.670   3.673
 9629SOL    HW229787   6.984   5.784   3.756
 9630SOL     OW29788   6.088   5.907   6.547
 9630SOL    HW129789   5.998   5.865   6.536
 9630SOL    HW229790   6.080   5.990   6.602
 9631SOL     OW29791   4.430   0.951   0.293
 9631SOL    HW129792   4.400   0.865   0.335
 9631SOL    HW229793   4.515   0.936   0.243
 9632SOL     OW29794   3.584   5.948   2.111
 9632SOL    HW129795   3.535   5.945   2.198
 9632SOL    HW229796   3.641   6.031   2.108
 9633SOL     OW29797   2.966   3.073   2.149
 9633SOL    HW129798   2.932   3.150   2.095
 9633SOL    HW229799   2.894   3.041   2.211
 9634SOL     OW29800   5.276   4.394   2.489
 9634SOL    HW129801   5.330   4.364   2.567
 9634SOL    HW229802   5.283   4.493   2.479
 9635SOL     OW29803   0.400   4.491   4.081
 9635SOL    HW129804   0.322   4.506   4.141
 9635SOL    HW229805   0.442   4.403   4.101
 9636SOL     OW29806   4.744   2.840   4.792
 9636SOL    HW129807   4.789   2.923   4.824
 9636SOL    HW229808   4.654   2.832   4.837
 9637SOL     OW29809   2.339   2.695   0.572
 9637SOL    HW129810   2.352   2.777   0.516
 9637SOL    HW229811   2.274   2.715   0.645
 9638SOL     OW29812   6.642   4.727   5.405
 9638SOL    HW129813   6.706   4.776   5.464
 9638SOL    HW229814   6.628   4.634   5.440
 9639SOL     OW29815   3.777   1.413   2.864
 9639SOL    HW129816   3.783   1.462   2.777
 9639SOL    HW229817   3.865   1.416   2.910
 9640SOL     OW29818   4.494   0.472   3.309
 9640SOL    HW129819   4.466   0.386   3.351
 9640SOL    HW229820   4.554   0.455   3.232
 9641SOL     OW29821   6.077   3.830   2.571
 9641SOL    HW129822   6.120   3.917   2.549
 9641SOL    HW229823   6.038   3.834   2.663
 9642SOL     OW29824   1.564   0.277   3.821
 9642SOL    HW129825   1.530   0.236   3.906
 9642SOL    HW229826   1.664   0.273   3.820
 9643SOL     OW29827   4.950   4.773   3.867
 9643SOL    HW129828   4.955   4.807   3.774
 9643SOL    HW229829   4.980   4.677   3.869
 9644SOL     OW29830   1.444   6.091   4.948
 9644SOL    HW129831   1.480   6.015   4.894
 9644SOL    HW229832   1.346   6.078   4.961
 9645SOL     OW29833   0.421   5.315   0.130
 9645SOL    HW129834   0.467   5.369   0.201
 9645SOL    HW229835   0.323   5.337   0.130
 9646SOL     OW29836   3.565   6.011   6.184
 9646SOL    HW129837   3.521   5.931   6.224
 9646SOL    HW229838   3.611   6.063   6.256
 9647SOL     OW29839   6.313   7.003   3.148
 9647SOL    HW129840   6.335   6.982   3.053
 9647SOL    HW229841   6.331   6.922   3.205
 9648SOL     OW29842   3.959   2.521   1.233
 9648SOL    HW129843   3.961   2.463   1.151
 9648SOL    HW229844   4.049   2.520   1.276
 9649SOL     OW29845   1.385   5.229   6.853
 9649SOL    HW129846   1.354   5.288   6.927
 9649SOL    HW229847   1.485   5.234   6.846
 9650SOL     OW29848   6.981   5.503   4.694
 9650SOL    HW129849   6.984   5.438   4.619
 9650SOL    HW229850   7.009   5.457   4.779
 9651SOL     OW29851   3.996   1.180   0.283
 9651SOL    HW129852   3.986   1.272   0.320
 9651SOL    HW229853   4.073   1.134   0.327
 9652SOL     OW29854   6.946   3.701   0.125
 9652SOL    HW129855   7.015   3.630   0.117
 9652SOL    HW229856   6.991   3.791   0.125
 9653SOL     OW29857   3.788   4.274   6.053
 9653SOL    HW129858   3.814   4.286   5.957
 9653SOL    HW229859   3.870   4.276   6.110
 9654SOL     OW29860   3.683   3.467   3.299
 9654SOL    HW129861   3.611   3.485   3.232
 9654SOL    HW229862   3.707   3.553   3.344
 9655SOL     OW29863   4.141   1.315   1.932
 9655SOL    HW129864   4.052   1.344   1.895
 9655SOL    HW229865   4.212   1.378   1.902
 9656SOL     OW29866   5.748   4.086   0.598
 9656SOL    HW129867   5.712   4.149   0.668
 9656SOL    HW229868   5.841   4.112   0.574
 9657SOL     OW29869   5.834   3.417   3.500
 9657SOL    HW129870   5.824   3.336   3.558
 9657SOL    HW229871   5.918   3.409   3.447
 9658SOL     OW29872   5.263   2.134   2.259
 9658SOL    HW129873   5.297   2.043   2.283
 9658SOL    HW229874   5.174   2.149   2.302
 9659SOL     OW29875   2.789   3.008   0.682
 9659SOL    HW129876   2.712   3.038   0.739
 9659SOL    HW229877   2.796   3.068   0.602
 9660SOL     OW29878   0.501   5.945   1.461
 9660SOL    HW129879   0.529   6.031   1.418
 9660SOL    HW229880   0.579   5.903   1.507
 9661SOL     OW29881   5.283   4.962   0.762
 9661SOL    HW129882   5.333   4.881   0.789
 9661SOL    HW229883   5.305   4.985   0.667
 9662SOL     OW29884   5.203   4.818   6.375
 9662SOL    HW129885   5.189   4.734   6.427
 9662SOL    HW229886   5.297   4.851   6.387
 9663SOL     OW29887   0.652   5.137   3.043
 9663SOL    HW129888   0.636   5.226   3.085
 9663SOL    HW229889   0.675   5.071   3.114
 9664SOL     OW29890   5.043   3.792   3.002
 9664SOL    HW129891   5.040   3.709   2.946
 9664SOL    HW229892   4.968   3.790   3.068
 9665SOL     OW29893   5.550   5.711   6.362
 9665SOL    HW129894   5.610   5.701   6.283
 9665SOL    HW229895   5.581   5.653   6.436
 9666SOL     OW29896   5.456   3.590   0.279
 9666SOL    HW129897   5.358   3.612   0.277
 9666SOL    HW229898   5.475   3.521   0.210
 9667SOL     OW29899   6.038   5.943   6.967
 9667SOL    HW129900   6.039   6.043   6.954
 9667SOL    HW229901   6.086   5.920   0.030
 9668SOL     OW29902   6.987   6.983   5.587
 9668SOL    HW129903   6.973   6.948   5.679
 9668SOL    HW229904   0.012   6.914   5.531
 9669SOL     OW29905   3.760   0.114   0.210
 9669SOL    HW129906   3.722   0.132   0.301
 9669SOL    HW229907   3.686   0.112   0.143
 9670SOL     OW29908   0.458   0.063   6.541
 9670SOL    HW129909   0.544   0.081   6.588
 9670SOL    HW229910   0.472   7.013   6.472
 9671SOL     OW29911   1.205   5.239   6.084
 9671SOL    HW129912   1.200   5.258   6.182
 9671SOL    HW229913   1.150   5.307   6.035
 9672SOL     OW29914   0.512   3.497   4.678
 9672SOL    HW129915   0.598   3.544   4.697
 9672SOL    HW229916   0.442   3.565   4.656
 9673SOL     OW29917   2.455   4.063   1.200
 9673SOL    HW129918   2.504   4.005   1.265
 9673SOL    HW229919   2.360   4.034   1.195
 9674SOL     OW29920   2.641   6.512   4.047
 9674SOL    HW129921   2.620   6.415   4.036
 9674SOL    HW229922   2.697   6.543   3.969
 9675SOL     OW29923   4.763   3.967   1.327
 9675SOL    HW129924   4.679   4.004   1.365
 9675SOL    HW229925   4.741   3.895   1.261
 9676SOL     OW29926   1.112   3.015   6.092
 9676SOL    HW129927   1.073   3.106   6.109
 9676SOL    HW229928   1.201   3.025   6.047
 9677SOL     OW29929   6.716   5.655   0.899
 9677SOL    HW129930   6.680   5.607   0.979
 9677SOL    HW229931   6.665   5.627   0.817
 9678SOL     OW29932   3.645   3.245   4.859
 9678SOL    HW129933   3.705   3.247   4.779
 9678SOL    HW229934   3.693   3.199   4.935
 9679SOL     OW29935   2.056   1.499   4.866
 9679SOL    HW129936   2.133   1.478   4.926
 9679SOL    HW229937   2.058   1.439   4.787
 9680SOL     OW29938   4.348   5.518   2.939
 9680SOL    HW129939   4.310   5.485   3.025
 9680SOL    HW229940   4.433   5.567   2.956
 9681SOL     OW29941   1.600   1.696   2.571
 9681SOL    HW129942   1.626   1.603   2.545
 9681SOL    HW229943   1.666   1.761   2.535
 9682SOL     OW29944   4.943   5.345   5.171
 9682SOL    HW129945   5.011   5.417   5.178
 9682SOL    HW229946   4.899   5.349   5.081
 9683SOL     OW29947   2.601   6.166   1.743
 9683SOL    HW129948   2.687   6.152   1.692
 9683SOL    HW229949   2.596   6.098   1.816
 9684SOL     OW29950   0.857   4.253   5.598
 9684SOL    HW129951   0.847   4.162   5.638
 9684SOL    HW229952   0.895   4.315   5.667
 9685SOL     OW29953   3.932   5.078   1.714
 9685SOL    HW129954   3.995   5.135   1.767
 9685SOL    HW229955   3.933   5.107   1.619
 9686SOL     OW29956   0.306   1.763   6.042
 9686SOL    HW129957   0.235   1.702   6.078
 9686SOL    HW229958   0.270   1.856   6.035
 9687SOL     OW29959   5.687   0.808   1.985
 9687SOL    HW129960   5.691   0.903   2.014
 9687SOL    HW229961   5.616   0.797   1.915
 9688SOL     OW29962   0.451   4.304   1.376
 9688SOL    HW129963   0.422   4.371   1.444
 9688SOL    HW229964   0.543   4.271   1.399
 9689SOL     OW29965   1.067   6.789   1.010
 9689SOL    HW129966   1.090   6.878   1.049
 9689SOL    HW229967   0.985   6.797   0.953
 9690SOL     OW29968   5.714   5.106   5.224
 9690SOL    HW129969   5.757   5.067   5.142
 9690SOL    HW229970   5.700   5.033   5.291
 9691SOL     OW29971   3.155   3.881   1.645
 9691SOL    HW129972   3.094   3.806   1.618
 9691SOL    HW229973   3.127   3.916   1.734
 9692SOL     OW29974   4.987   5.144   0.832
 9692SOL    HW129975   4.993   5.131   0.931
 9692SOL    HW229976   4.982   5.055   0.787
 9693SOL     OW29977   5.264   3.614   4.252
 9693SOL    HW129978   5.226   3.582   4.339
 9693SOL    HW229979   5.216   3.696   4.223
 9694SOL     OW29980   3.475   6.608   2.329
 9694SOL    HW129981   3.536   6.548   2.279
 9694SOL    HW229982   3.425   6.667   2.265
 9695SOL     OW29983   1.178   2.575   3.813
 9695SOL    HW129984   1.172   2.487   3.860
 9695SOL    HW229985   1.176   2.560   3.714
 9696SOL     OW29986   5.315   1.870   2.333
 9696SOL    HW129987   5.273   1.793   2.286
 9696SOL    HW229988   5.406   1.845   2.365
 9697SOL     OW29989   0.265   6.235   0.136
 9697SOL    HW129990   0.363   6.217   0.148
 9697SOL    HW229991   0.239   6.314   0.190
 9698SOL     OW29992   5.846   3.890   0.089
 9698SOL    HW129993   5.785   3.967   0.107
 9698SOL    HW229994   5.880   3.854   0.176
 9699SOL     OW29995   0.816   5.033   0.892
 9699SOL    HW129996   0.820   5.066   0.987
 9699SOL    HW229997   0.721   5.013   0.868
 9700SOL     OW29998   5.800   6.587   5.111
 9700SOL    HW129999   5.849   6.528   5.048
 9700SOL    HW230000   5.792   6.679   5.073
 9701SOL     OW30001   4.681   3.192   6.218
 9701SOL    HW130002   4.633   3.115   6.177
 9701SOL    HW230003   4.621   3.239   6.283
 9702SOL     OW30004   3.639   3.212   1.305
 9702SOL    HW130005   3.586   3.168   1.377
 9702SOL    HW230006   3.737   3.203   1.325
 9703SOL     OW30007   6.448   3.968   5.157
 9703SOL    HW130008   6.505   3.898   5.199
 9703SOL    HW230009   6.505   4.031   5.105
 9704SOL     OW30010   2.322   4.213   3.155
 9704SOL    HW130011   2.269   4.140   3.111
 9704SOL    HW230012   2.357   4.179   3.243
 9705SOL     OW30013   5.998   3.654   5.650
 9705SOL    HW130014   6.059   3.642   5.572
 9705SOL    HW230015   6.050   3.686   5.729
 9706SOL     OW30016   1.508   1.802   2.275
 9706SOL    HW130017   1.588   1.823   2.331
 9706SOL    HW230018   1.533   1.733   2.207
 9707SOL     OW30019   6.451   5.254   2.657
 9707SOL    HW130020   6.425   5.270   2.562
 9707SOL    HW230021   6.543   5.216   2.661
 9708SOL     OW30022   2.177   0.616   2.285
 9708SOL    HW130023   2.258   0.560   2.270
 9708SOL    HW230024   2.192   0.677   2.362
 9709SOL     OW30025   5.521   2.077   2.620
 9709SOL    HW130026   5.547   2.011   2.550
 9709SOL    HW230027   5.562   2.166   2.599
 9710SOL     OW30028   5.945   5.548   4.453
 9710SOL    HW130029   5.913   5.544   4.359
 9710SOL    HW230030   5.954   5.643   4.482
 9711SOL     OW30031   3.971   0.056   6.777
 9711SOL    HW130032   3.993   0.099   6.865
 9711SOL    HW230033   4.054   0.044   6.723
 9712SOL     OW30034   5.760   2.281   6.949
 9712SOL    HW130035   5.755   2.234   0.016
 9712SOL    HW230036   5.732   2.377   6.960
 9713SOL     OW30037   1.356   6.343   3.863
 9713SOL    HW130038   1.359   6.441   3.840
 9713SOL    HW230039   1.343   6.290   3.779
 9714SOL     OW30040   2.915   4.930   4.813
 9714SOL    HW130041   2.918   4.914   4.912
 9714SOL    HW230042   2.851   4.866   4.771
 9715SOL     OW30043   6.376   3.905   0.451
 9715SOL    HW130044   6.401   3.904   0.548
 9715SOL    HW230045   6.429   3.975   0.404
 9716SOL     OW30046   2.858   5.064   0.061
 9716SOL    HW130047   2.878   5.026   6.992
 9716SOL    HW230048   2.855   4.990   0.128
 9717SOL     OW30049   4.625   0.860   5.482
 9717SOL    HW130050   4.634   0.957   5.504
 9717SOL    HW230051   4.701   0.809   5.522
 9718SOL     OW30052   2.677   1.893   0.475
 9718SOL    HW130053   2.762   1.933   0.441
 9718SOL    HW230054   2.599   1.941   0.434
 9719SOL     OW30055   4.950   6.393   5.184
 9719SOL    HW130056   4.885   6.339   5.237
 9719SOL    HW230057   4.932   6.379   5.086
 9720SOL     OW30058   2.154   3.722   3.020
 9720SOL    HW130059   2.126   3.629   3.046
 9720SOL    HW230060   2.214   3.718   2.941
 9721SOL     OW30061   0.770   2.019   0.823
 9721SOL    HW130062   0.672   2.037   0.833
 9721SOL    HW230063   0.796   2.032   0.727
 9722SOL     OW30064   3.964   3.106   4.861
 9722SOL    HW130065   3.966   3.048   4.779
 9722SOL    HW230066   3.885   3.083   4.917
 9723SOL     OW30067   6.309   5.621   4.362
 9723SOL    HW130068   6.309   5.716   4.392
 9723SOL    HW230069   6.394   5.576   4.391
 9724SOL     OW30070   0.573   5.525   0.277
 9724SOL    HW130071   0.638   5.589   0.236
 9724SOL    HW230072   0.585   5.524   0.376
 9725SOL     OW30073   3.295   5.420   5.738
 9725SOL    HW130074   3.323   5.343   5.681
 9725SOL    HW230075   3.307   5.396   5.834
 9726SOL     OW30076   5.930   1.235   4.481
 9726SOL    HW130077   5.928   1.152   4.536
 9726SOL    HW230078   5.837   1.261   4.454
 9727SOL     OW30079   1.190   1.265   6.826
 9727SOL    HW130080   1.117   1.197   6.837
 9727SOL    HW230081   1.270   1.236   6.880
 9728SOL     OW30082   5.216   0.084   5.966
 9728SOL    HW130083   5.160   0.155   6.008
 9728SOL    HW230084   5.310   0.090   5.999
 9729SOL     OW30085   0.346   5.128   3.070
 9729SOL    HW130086   0.415   5.158   3.004
 9729SOL    HW230087   0.336   5.029   3.064
 9730SOL     OW30088   0.269   4.335   3.344
 9730SOL    HW130089   0.206   4.266   3.377
 9730SOL    HW230090   0.275   4.410   3.411
 9731SOL     OW30091   5.339   3.567   2.623
 9731SOL    HW130092   5.361   3.505   2.548
 9731SOL    HW230093   5.275   3.637   2.591
 9732SOL     OW30094   1.140   3.225   2.378
 9732SOL    HW130095   1.044   3.231   2.353
 9732SOL    HW230096   1.193   3.291   2.323
 9733SOL     OW30097   6.166   5.277   2.647
 9733SOL    HW130098   6.162   5.327   2.560
 9733SOL    HW230099   6.078   5.286   2.694
 9734SOL     OW30100   6.226   6.609   5.853
 9734SOL    HW130101   6.210   6.693   5.800
 9734SOL    HW230102   6.174   6.614   5.938
 9735SOL     OW30103   1.435   2.234   2.303
 9735SOL    HW130104   1.407   2.326   2.332
 9735SOL    HW230105   1.506   2.200   2.365
 9736SOL     OW30106   4.860   2.609   5.078
 9736SOL    HW130107   4.840   2.522   5.123
 9736SOL    HW230108   4.787   2.675   5.099
 9737SOL     OW30109   5.954   2.072   2.561
 9737SOL    HW130110   5.887   1.999   2.556
 9737SOL    HW230111   5.928   2.146   2.498
 9738SOL     OW30112   1.656   6.187   2.018
 9738SOL    HW130113   1.569   6.199   1.971
 9738SOL    HW230114   1.730   6.184   1.950
 9739SOL     OW30115   5.702   0.174   6.955
 9739SOL    HW130116   5.621   0.118   6.969
 9739SOL    HW230117   5.755   0.177   0.018
 9740SOL     OW30118   6.819   0.892   2.495
 9740SOL    HW130119   6.832   0.983   2.533
 9740SOL    HW230120   6.900   0.865   2.443
 9741SOL     OW30121   3.042   1.034   4.720
 9741SOL    HW130122   3.127   1.076   4.688
 9741SOL    HW230123   3.006   0.973   4.649
 9742SOL     OW30124   4.143   2.280   5.781
 9742SOL    HW130125   4.103   2.369   5.763
 9742SOL    HW230126   4.193   2.249   5.701
 9743SOL     OW30127   6.259   3.034   3.420
 9743SOL    HW130128   6.275   3.049   3.322
 9743SOL    HW230129   6.238   3.121   3.464
 9744SOL     OW30130   1.824   0.193   3.811
 9744SOL    HW130131   1.899   0.257   3.791
 9744SOL    HW230132   1.862   0.112   3.855
 9745SOL     OW30133   6.378   0.643   5.713
 9745SOL    HW130134   6.347   0.603   5.799
 9745SOL    HW230135   6.475   0.620   5.699
 9746SOL     OW30136   4.390   5.288   6.226
 9746SOL    HW130137   4.316   5.241   6.177
 9746SOL    HW230138   4.462   5.222   6.250
 9747SOL     OW30139   2.485   2.514   2.350
 9747SOL    HW130140   2.471   2.421   2.316
 9747SOL    HW230141   2.580   2.525   2.379
 9748SOL     OW30142   1.175   0.714   3.417
 9748SOL    HW130143   1.107   0.667   3.361
 9748SOL    HW230144   1.260   0.662   3.419
 9749SOL     OW30145   6.806   1.880   2.284
 9749SOL    HW130146   6.751   1.804   2.250
 9749SOL    HW230147   6.889   1.844   2.327
 9750SOL     OW30148   6.257   4.436   3.911
 9750SOL    HW130149   6.254   4.536   3.915
 9750SOL    HW230150   6.350   4.406   3.890
 9751SOL     OW30151   2.822   1.180   2.019
 9751SOL    HW130152   2.780   1.184   1.929
 9751SOL    HW230153   2.784   1.251   2.077
 9752SOL     OW30154   3.809   2.942   0.454
 9752SOL    HW130155   3.821   2.845   0.432
 9752SOL    HW230156   3.898   2.987   0.457
 9753SOL     OW30157   5.959   5.962   5.234
 9753SOL    HW130158   5.908   5.896   5.290
 9753SOL    HW230159   5.966   5.929   5.140
 9754SOL     OW30160   3.770   0.324   1.304
 9754SOL    HW130161   3.756   0.390   1.231
 9754SOL    HW230162   3.712   0.347   1.382
 9755SOL     OW30163   3.408   4.050   6.575
 9755SOL    HW130164   3.502   4.065   6.546
 9755SOL    HW230165   3.375   4.130   6.626
 9756SOL     OW30166   5.976   0.787   6.397
 9756SOL    HW130167   5.878   0.806   6.400
 9756SOL    HW230168   6.027   0.872   6.411
 9757SOL     OW30169   4.848   3.549   3.631
 9757SOL    HW130170   4.884   3.503   3.550
 9757SOL    HW230171   4.871   3.495   3.712
 9758SOL     OW30172   1.903   0.466   0.921
 9758SOL    HW130173   1.942   0.385   0.965
 9758SOL    HW230174   1.972   0.507   0.861
 9759SOL     OW30175   1.235   1.454   0.374
 9759SOL    HW130176   1.252   1.513   0.295
 9759SOL    HW230177   1.318   1.447   0.429
 9760SOL     OW30178   4.482   1.930   0.879
 9760SOL    HW130179   4.464   2.027   0.863
 9760SOL    HW230180   4.395   1.883   0.896
 9761SOL     OW30181   1.994   1.378   1.700
 9761SOL    HW130182   1.971   1.336   1.613
 9761SOL    HW230183   1.913   1.379   1.759
 9762SOL     OW30184   2.707   1.991   5.864
 9762SOL    HW130185   2.649   2.031   5.935
 9762SOL    HW230186   2.801   1.985   5.898
 9763SOL     OW30187   6.428   1.663   1.570
 9763SOL    HW130188   6.468   1.745   1.530
 9763SOL    HW230189   6.332   1.681   1.594
 9764SOL     OW30190   5.708   1.490   2.116
 9764SOL    HW130191   5.616   1.457   2.095
 9764SOL    HW230192   5.775   1.419   2.092
 9765SOL     OW30193   6.806   1.449   1.718
 9765SOL    HW130194   6.814   1.548   1.715
 9765SOL    HW230195   6.734   1.423   1.781
 9766SOL     OW30196   2.101   1.139   4.349
 9766SOL    HW130197   2.022   1.179   4.395
 9766SOL    HW230198   2.092   1.152   4.250
 9767SOL     OW30199   2.379   3.411   5.741
 9767SOL    HW130200   2.361   3.444   5.834
 9767SOL    HW230201   2.296   3.419   5.687
 9768SOL     OW30202   5.897   2.593   0.896
 9768SOL    HW130203   5.996   2.575   0.896
 9768SOL    HW230204   5.860   2.573   0.805
 9769SOL     OW30205   2.890   1.826   4.919
 9769SOL    HW130206   2.829   1.904   4.933
 9769SOL    HW230207   2.953   1.819   4.997
 9770SOL     OW30208   3.092   2.269   6.558
 9770SOL    HW130209   3.018   2.209   6.588
 9770SOL    HW230210   3.176   2.217   6.548
 9771SOL     OW30211   2.789   6.263   2.857
 9771SOL    HW130212   2.879   6.224   2.837
 9771SOL    HW230213   2.742   6.284   2.771
 9772SOL     OW30214   0.789   6.265   1.732
 9772SOL    HW130215   0.744   6.323   1.800
 9772SOL    HW230216   0.786   6.170   1.762
 9773SOL     OW30217   4.803   5.457   2.252
 9773SOL    HW130218   4.843   5.368   2.231
 9773SOL    HW230219   4.705   5.448   2.268
 9774SOL     OW30220   0.944   5.854   4.378
 9774SOL    HW130221   0.920   5.759   4.355
 9774SOL    HW230222   0.869   5.914   4.350
 9775SOL     OW30223   2.398   0.924   4.189
 9775SOL    HW130224   2.309   0.880   4.176
 9775SOL    HW230225   2.447   0.925   4.102
 9776SOL     OW30226   1.720   5.642   6.515
 9776SOL    HW130227   1.757   5.625   6.424
 9776SOL    HW230228   1.711   5.741   6.530
 9777SOL     OW30229   5.019   6.897   6.084
 9777SOL    HW130230   5.104   6.949   6.071
 9777SOL    HW230231   5.040   6.800   6.089
 9778SOL     OW30232   0.624   2.224   4.530
 9778SOL    HW130233   0.526   2.232   4.514
 9778SOL    HW230234   0.646   2.128   4.552
 9779SOL     OW30235   1.063   1.913   3.642
 9779SOL    HW130236   0.993   1.954   3.701
 9779SOL    HW230237   1.027   1.829   3.602
 9780SOL     OW30238   2.019   1.714   1.027
 9780SOL    HW130239   1.928   1.673   1.037
 9780SOL    HW230240   2.039   1.770   1.108
 9781SOL     OW30241   1.204   3.151   3.596
 9781SOL    HW130242   1.180   3.193   3.684
 9781SOL    HW230243   1.123   3.149   3.537
 9782SOL     OW30244   0.107   2.374   1.094
 9782SOL    HW130245   0.077   2.354   1.001
 9782SOL    HW230246   0.205   2.396   1.094
 9783SOL     OW30247   3.504   1.558   3.244
 9783SOL    HW130248   3.494   1.466   3.283
 9783SOL    HW230249   3.428   1.576   3.182
 9784SOL     OW30250   2.283   1.464   0.396
 9784SOL    HW130251   2.287   1.408   0.479
 9784SOL    HW230252   2.188   1.480   0.370
 9785SOL     OW30253   6.970   2.186   4.789
 9785SOL    HW130254   0.042   2.171   4.824
 9785SOL    HW230255   6.975   2.241   4.705
 9786SOL     OW30256   2.191   4.287   1.148
 9786SOL    HW130257   2.229   4.319   1.062
 9786SOL    HW230258   2.187   4.187   1.149
 9787SOL     OW30259   3.870   3.043   2.792
 9787SOL    HW130260   3.811   3.011   2.867
 9787SOL    HW230261   3.832   3.011   2.705
 9788SOL     OW30262   0.202   6.509   1.882
 9788SOL    HW130263   0.185   6.444   1.956
 9788SOL    HW230264   0.131   6.579   1.882
 9789SOL     OW30265   3.430   0.042   6.649
 9789SOL    HW130266   3.406   6.967   6.635
 9789SOL    HW230267   3.347   0.096   6.655
 9790SOL     OW30268   6.594   4.354   4.437
 9790SOL    HW130269   6.550   4.442   4.422
 9790SOL    HW230270   6.656   4.360   4.515
 9791SOL     OW30271   1.044   6.354   1.049
 9791SOL    HW130272   0.945   6.349   1.063
 9791SOL    HW230273   1.089   6.369   1.137
 9792SOL     OW30274   3.999   5.821   0.935
 9792SOL    HW130275   3.982   5.740   0.880
 9792SOL    HW230276   3.942   5.818   1.017
 9793SOL     OW30277   4.709   1.914   2.405
 9793SOL    HW130278   4.685   2.000   2.450
 9793SOL    HW230279   4.702   1.839   2.470
 9794SOL     OW30280   4.936   4.424   4.921
 9794SOL    HW130281   4.959   4.516   4.890
 9794SOL    HW230282   4.840   4.422   4.952
 9795SOL     OW30283   0.864   3.504   3.697
 9795SOL    HW130284   0.862   3.422   3.755
 9795SOL    HW230285   0.959   3.529   3.679
 9796SOL     OW30286   3.310   3.839   3.585
 9796SOL    HW130287   3.306   3.766   3.653
 9796SOL    HW230288   3.374   3.815   3.513
 9797SOL     OW30289   3.041   6.553   6.802
 9797SOL    HW130290   2.982   6.632   6.815
 9797SOL    HW230291   3.071   6.518   6.891
 9798SOL     OW30292   1.581   3.057   0.889
 9798SOL    HW130293   1.514   3.104   0.831
 9798SOL    HW230294   1.609   2.971   0.845
 9799SOL     OW30295   2.892   6.330   6.438
 9799SOL    HW130296   2.963   6.328   6.509
 9799SOL    HW230297   2.888   6.422   6.398
 9800SOL     OW30298   5.802   3.258   4.311
 9800SOL    HW130299   5.729   3.191   4.324
 9800SOL    HW230300   5.832   3.255   4.216
 9801SOL     OW30301   5.755   5.018   6.024
 9801SOL    HW130302   5.776   4.925   5.994
 9801SOL    HW230303   5.802   5.037   6.109
 9802SOL     OW30304   4.306   4.984   1.420
 9802SOL    HW130305   4.263   4.897   1.445
 9802SOL    HW230306   4.404   4.968   1.404
 9803SOL     OW30307   0.781   3.910   5.987
 9803SOL    HW130308   0.840   3.969   6.041
 9803SOL    HW230309   0.686   3.920   6.017
 9804SOL     OW30310   6.391   5.912   2.931
 9804SOL    HW130311   6.434   5.842   2.988
 9804SOL    HW230312   6.351   5.869   2.850
 9805SOL     OW30313   0.079   6.962   3.961
 9805SOL    HW130314   0.126   0.014   3.911
 9805SOL    HW230315   0.145   6.913   4.018
 9806SOL     OW30316   3.363   2.777   6.155
 9806SOL    HW130317   3.458   2.806   6.165
 9806SOL    HW230318   3.340   2.769   6.058
 9807SOL     OW30319   2.794   3.588   1.892
 9807SOL    HW130320   2.747   3.605   1.979
 9807SOL    HW230321   2.727   3.588   1.818
 9808SOL     OW30322   4.198   6.542   3.754
 9808SOL    HW130323   4.217   6.600   3.833
 9808SOL    HW230324   4.193   6.446   3.783
 9809SOL     OW30325   0.206   2.692   0.499
 9809SOL    HW130326   0.284   2.688   0.562
 9809SOL    HW230327   0.125   2.657   0.546
 9810SOL     OW30328   2.051   1.489   6.210
 9810SOL    HW130329   2.086   1.515   6.120
 9810SOL    HW230330   2.122   1.502   6.279
 9811SOL     OW30331   6.146   3.686   3.990
 9811SOL    HW130332   6.202   3.714   3.912
 9811SOL    HW230333   6.166   3.746   4.068
 9812SOL     OW30334   2.587   0.001   4.560
 9812SOL    HW130335   2.536   7.018   4.646
 9812SOL    HW230336   2.524   0.022   4.485
 9813SOL     OW30337   5.118   2.309   0.466
 9813SOL    HW130338   5.077   2.334   0.554
 9813SOL    HW230339   5.054   2.253   0.414
 9814SOL     OW30340   5.733   1.880   0.299
 9814SOL    HW130341   5.811   1.824   0.327
 9814SOL    HW230342   5.735   1.967   0.347
 9815SOL     OW30343   4.722   2.664   4.529
 9815SOL    HW130344   4.740   2.736   4.461
 9815SOL    HW230345   4.707   2.706   4.618
 9816SOL     OW30346   1.460   0.492   0.712
 9816SOL    HW130347   1.544   0.540   0.734
 9816SOL    HW230348   1.478   0.422   0.643
 9817SOL     OW30349   0.437   0.178   3.459
 9817SOL    HW130350   0.459   0.273   3.480
 9817SOL    HW230351   0.422   0.168   3.360
 9818SOL     OW30352   6.357   2.106   4.655
 9818SOL    HW130353   6.457   2.097   4.657
 9818SOL    HW230354   6.321   2.107   4.748
 9819SOL     OW30355   3.610   1.750   3.496
 9819SOL    HW130356   3.576   1.717   3.408
 9819SOL    HW230357   3.626   1.848   3.491
 9820SOL     OW30358   3.571   4.500   5.739
 9820SOL    HW130359   3.559   4.429   5.670
 9820SOL    HW230360   3.586   4.457   5.829
 9821SOL     OW30361   5.143   5.817   6.972
 9821SOL    HW130362   5.201   5.887   6.929
 9821SOL    HW230363   5.128   5.742   6.908
 9822SOL     OW30364   0.510   0.044   2.533
 9822SOL    HW130365   0.551   0.132   2.511
 9822SOL    HW230366   0.446   0.055   2.609
 9823SOL     OW30367   3.418   0.704   2.817
 9823SOL    HW130368   3.432   0.694   2.719
 9823SOL    HW230369   3.448   0.795   2.846
 9824SOL     OW30370   1.077   4.394   5.358
 9824SOL    HW130371   1.069   4.360   5.451
 9824SOL    HW230372   1.015   4.344   5.298
 9825SOL     OW30373   3.484   4.947   5.615
 9825SOL    HW130374   3.575   4.978   5.588
 9825SOL    HW230375   3.466   4.857   5.574
 9826SOL     OW30376   4.151   5.945   6.252
 9826SOL    HW130377   4.155   5.962   6.154
 9826SOL    HW230378   4.243   5.933   6.288
 9827SOL     OW30379   1.754   4.185   4.788
 9827SOL    HW130380   1.803   4.115   4.839
 9827SOL    HW230381   1.693   4.234   4.849
 9828SOL     OW30382   4.044   2.573   6.678
 9828SOL    HW130383   4.066   2.668   6.699
 9828SOL    HW230384   4.098   2.513   6.736
 9829SOL     OW30385   3.014   6.226   0.348
 9829SOL    HW130386   3.006   6.230   0.447
 9829SOL    HW230387   2.972   6.141   0.314
 9830SOL     OW30388   5.556   1.568   0.865
 9830SOL    HW130389   5.473   1.526   0.901
 9830SOL    HW230390   5.534   1.622   0.784
 9831SOL     OW30391   1.159   6.416   1.278
 9831SOL    HW130392   1.126   6.509   1.264
 9831SOL    HW230393   1.235   6.416   1.342
 9832SOL     OW30394   4.533   5.430   2.358
 9832SOL    HW130395   4.591   5.483   2.420
 9832SOL    HW230396   4.441   5.470   2.355
 9833SOL     OW30397   3.330   3.846   4.813
 9833SOL    HW130398   3.344   3.774   4.880
 9833SOL    HW230399   3.287   3.807   4.731
 9834SOL     OW30400   2.716   4.026   5.587
 9834SOL    HW130401   2.753   4.067   5.671
 9834SOL    HW230402   2.710   3.927   5.598
 9835SOL     OW30403   4.920   1.729   4.307
 9835SOL    HW130404   4.962   1.768   4.389
 9835SOL    HW230405   4.964   1.768   4.226
 9836SOL     OW30406   5.592   3.614   3.053
 9836SOL    HW130407   5.493   3.610   3.065
 9836SOL    HW230408   5.636   3.565   3.128
 9837SOL     OW30409   2.272   0.347   3.964
 9837SOL    HW130410   2.186   0.318   3.922
 9837SOL    HW230411   2.340   0.274   3.954
 9838SOL     OW30412   1.360   6.700   6.132
 9838SOL    HW130413   1.271   6.674   6.096
 9838SOL    HW230414   1.431   6.644   6.089
 9839SOL     OW30415   0.062   1.786   2.006
 9839SOL    HW130416   0.070   1.873   2.055
 9839SOL    HW230417   0.063   1.711   2.071
 9840SOL     OW30418   0.303   0.968   0.775
 9840SOL    HW130419   0.211   1.004   0.785
 9840SOL    HW230420   0.343   0.953   0.866
 9841SOL     OW30421   1.371   4.112   4.854
 9841SOL    HW130422   1.316   4.156   4.925
 9841SOL    HW230423   1.328   4.025   4.828
 9842SOL     OW30424   3.613   3.163   3.606
 9842SOL    HW130425   3.707   3.175   3.573
 9842SOL    HW230426   3.550   3.215   3.547
 9843SOL     OW30427   6.270   1.965   1.379
 9843SOL    HW130428   6.301   2.044   1.325
 9843SOL    HW230429   6.227   1.998   1.463
 9844SOL     OW30430   4.198   6.894   2.894
 9844SOL    HW130431   4.150   6.926   2.812
 9844SOL    HW230432   4.154   6.930   2.975
 9845SOL     OW30433   2.651   1.686   4.958
 9845SOL    HW130434   2.630   1.697   5.056
 9845SOL    HW230435   2.734   1.737   4.936
 9846SOL     OW30436   2.992   3.797   3.269
 9846SOL    HW130437   3.019   3.759   3.180
 9846SOL    HW230438   2.993   3.725   3.338
 9847SOL     OW30439   2.994   3.208   6.290
 9847SOL    HW130440   2.920   3.258   6.336
 9847SOL    HW230441   3.065   3.272   6.261
 9848SOL     OW30442   4.271   2.545   6.254
 9848SOL    HW130443   4.270   2.485   6.174
 9848SOL    HW230444   4.336   2.509   6.322
 9849SOL     OW30445   6.292   0.524   6.634
 9849SOL    HW130446   6.378   0.568   6.609
 9849SOL    HW230447   6.216   0.578   6.597
 9850SOL     OW30448   4.125   6.411   2.599
 9850SOL    HW130449   4.105   6.424   2.696
 9850SOL    HW230450   4.109   6.315   2.574
 9851SOL     OW30451   4.313   1.790   5.121
 9851SOL    HW130452   4.402   1.834   5.127
 9851SOL    HW230453   4.325   1.691   5.126
 9852SOL     OW30454   4.478   1.633   3.536
 9852SOL    HW130455   4.552   1.609   3.473
 9852SOL    HW230456   4.425   1.709   3.498
 9853SOL     OW30457   5.206   3.802   2.514
 9853SOL    HW130458   5.261   3.879   2.547
 9853SOL    HW230459   5.118   3.801   2.561
 9854SOL     OW30460   6.153   5.028   4.790
 9854SOL    HW130461   6.111   4.942   4.762
 9854SOL    HW230462   6.081   5.093   4.816
 9855SOL     OW30463   0.691   4.421   1.511
 9855SOL    HW130464   0.654   4.467   1.591
 9855SOL    HW230465   0.789   4.439   1.504
 9856SOL     OW30466   4.068   4.168   0.302
 9856SOL    HW130467   4.037   4.245   0.246
 9856SOL    HW230468   3.990   4.112   0.328
 9857SOL     OW30469   5.017   1.750   2.844
 9857SOL    HW130470   4.951   1.698   2.790
 9857SOL    HW230471   5.008   1.847   2.822
 9858SOL     OW30472   5.209   0.504   1.815
 9858SOL    HW130473   5.150   0.489   1.895
 9858SOL    HW230474   5.239   0.599   1.813
 9859SOL     OW30475   6.492   0.058   1.565
 9859SOL    HW130476   6.567   0.048   1.499
 9859SOL    HW230477   6.452   6.990   1.585
 9860SOL     OW30478   0.246   1.262   1.762
 9860SOL    HW130479   0.235   1.195   1.689
 9860SOL    HW230480   0.321   1.325   1.739
 9861SOL     OW30481   3.439   6.525   4.660
 9861SOL    HW130482   3.407   6.589   4.590
 9861SOL    HW230483   3.367   6.510   4.728
 9862SOL     OW30484   2.417   3.270   0.551
 9862SOL    HW130485   2.482   3.284   0.626
 9862SOL    HW230486   2.361   3.190   0.571
 9863SOL     OW30487   2.831   0.001   2.943
 9863SOL    HW130488   2.790   0.081   2.899
 9863SOL    HW230489   2.923   0.023   2.974
 9864SOL     OW30490   4.270   6.189   3.629
 9864SOL    HW130491   4.218   6.132   3.565
 9864SOL    HW230492   4.207   6.232   3.693
 9865SOL     OW30493   0.834   0.832   3.430
 9865SOL    HW130494   0.807   0.762   3.364
 9865SOL    HW230495   0.853   0.790   3.518
 9866SOL     OW30496   5.144   4.418   4.467
 9866SOL    HW130497   5.078   4.388   4.536
 9866SOL    HW230498   5.097   4.431   4.379
 9867SOL     OW30499   4.254   1.038   0.786
 9867SOL    HW130500   4.338   1.054   0.734
 9867SOL    HW230501   4.222   1.124   0.825
 9868SOL     OW30502   1.149   5.028   6.672
 9868SOL    HW130503   1.085   5.097   6.704
 9868SOL    HW230504   1.185   4.977   6.751
 9869SOL     OW30505   2.065   4.252   3.516
 9869SOL    HW130506   2.114   4.207   3.442
 9869SOL    HW230507   2.112   4.337   3.540
 9870SOL     OW30508   4.542   5.897   2.230
 9870SOL    HW130509   4.640   5.899   2.253
 9870SOL    HW230510   4.513   5.987   2.197
 9871SOL     OW30511   1.265   6.948   6.066
 9871SOL    HW130512   1.179   6.973   6.111
 9871SOL    HW230513   1.298   6.861   6.102
 9872SOL     OW30514   2.564   5.374   3.102
 9872SOL    HW130515   2.562   5.309   3.177
 9872SOL    HW230516   2.537   5.328   3.017
 9873SOL     OW30517   2.389   2.601   0.913
 9873SOL    HW130518   2.419   2.622   1.006
 9873SOL    HW230519   2.318   2.666   0.886
 9874SOL     OW30520   0.485   1.859   4.192
 9874SOL    HW130521   0.572   1.878   4.236
 9874SOL    HW230522   0.411   1.870   4.258
 9875SOL     OW30523   0.432   0.434   2.256
 9875SOL    HW130524   0.445   0.335   2.250
 9875SOL    HW230525   0.356   0.454   2.318
 9876SOL     OW30526   6.748   0.648   2.561
 9876SOL    HW130527   6.765   0.583   2.487
 9876SOL    HW230528   6.782   0.738   2.535
 9877SOL     OW30529   1.740   5.956   2.642
 9877SOL    HW130530   1.769   6.050   2.628
 9877SOL    HW230531   1.821   5.899   2.661
 9878SOL     OW30532   2.381   5.275   5.903
 9878SOL    HW130533   2.417   5.295   5.994
 9878SOL    HW230534   2.294   5.322   5.890
 9879SOL     OW30535   5.468   5.126   4.556
 9879SOL    HW130536   5.473   5.126   4.656
 9879SOL    HW230537   5.497   5.215   4.521
 9880SOL     OW30538   1.773   3.117   5.043
 9880SOL    HW130539   1.805   3.209   5.022
 9880SOL    HW230540   1.844   3.068   5.094
 9881SOL     OW30541   1.788   2.557   5.026
 9881SOL    HW130542   1.885   2.577   5.038
 9881SOL    HW230543   1.774   2.459   5.035
 9882SOL     OW30544   1.581   2.154   3.579
 9882SOL    HW130545   1.567   2.145   3.480
 9882SOL    HW230546   1.679   2.167   3.597
 9883SOL     OW30547   0.781   5.928   1.083
 9883SOL    HW130548   0.878   5.930   1.108
 9883SOL    HW230549   0.772   5.909   0.986
 9884SOL     OW30550   4.076   1.783   3.525
 9884SOL    HW130551   4.172   1.804   3.508
 9884SOL    HW230552   4.049   1.817   3.615
 9885SOL     OW30553   0.321   3.500   5.501
 9885SOL    HW130554   0.253   3.477   5.571
 9885SOL    HW230555   0.310   3.439   5.423
 9886SOL     OW30556   0.511   4.911   2.488
 9886SOL    HW130557   0.474   4.884   2.577
 9886SOL    HW230558   0.611   4.910   2.492
 9887SOL     OW30559   3.892   1.497   6.023
 9887SOL    HW130560   3.879   1.400   6.044
 9887SOL    HW230561   3.829   1.551   6.078
 9888SOL     OW30562   0.463   4.140   1.105
 9888SOL    HW130563   0.530   4.188   1.048
 9888SOL    HW230564   0.445   4.193   1.188
 9889SOL     OW30565   6.817   5.218   0.980
 9889SOL    HW130566   6.763   5.176   0.907
 9889SOL    HW230567   6.901   5.257   0.940
 9890SOL     OW30568   1.664   1.997   0.478
 9890SOL    HW130569   1.687   1.979   0.574
 9890SOL    HW230570   1.701   1.923   0.422
 9891SOL     OW30571   5.955   3.050   0.495
 9891SOL    HW130572   5.984   3.122   0.557
 9891SOL    HW230573   6.016   2.971   0.504
 9892SOL     OW30574   6.644   6.130   0.032
 9892SOL    HW130575   6.617   6.202   6.989
 9892SOL    HW230576   6.643   6.042   7.005
 9893SOL     OW30577   1.680   0.526   1.053
 9893SOL    HW130578   1.731   0.488   0.976
 9893SOL    HW230579   1.670   0.625   1.041
 9894SOL     OW30580   2.264   1.992   1.325
 9894SOL    HW130581   2.332   2.024   1.392
 9894SOL    HW230582   2.227   2.071   1.275
 9895SOL     OW30583   5.247   3.329   5.304
 9895SOL    HW130584   5.157   3.352   5.342
 9895SOL    HW230585   5.287   3.411   5.262
 9896SOL     OW30586   6.107   6.968   6.289
 9896SOL    HW130587   6.116   6.911   6.370
 9896SOL    HW230588   6.198   6.988   6.252
 9897SOL     OW30589   5.645   5.649   3.037
 9897SOL    HW130590   5.744   5.642   3.043
 9897SOL    HW230591   5.613   5.605   2.953
 9898SOL     OW30592   2.336   5.862   6.528
 9898SOL    HW130593   2.325   5.783   6.468
 9898SOL    HW230594   2.385   5.934   6.480
 9899SOL     OW30595   0.068   5.862   0.842
 9899SOL    HW130596   0.142   5.921   0.811
 9899SOL    HW230597   7.008   5.878   0.787
 9900SOL     OW30598   1.551   3.991   3.935
 9900SOL    HW130599   1.537   3.893   3.940
 9900SOL    HW230600   1.539   4.022   3.841
 9901SOL     OW30601   3.028   1.537   6.088
 9901SOL    HW130602   2.999   1.441   6.081
 9901SOL    HW230603   2.967   1.594   6.032
 9902SOL     OW30604   2.696   5.285   0.079
 9902SOL    HW130605   2.615   5.253   0.028
 9902SOL    HW230606   2.770   5.219   0.066
 9903SOL     OW30607   5.088   1.177   1.972
 9903SOL    HW130608   5.135   1.105   2.024
 9903SOL    HW230609   5.019   1.220   2.030
 9904SOL     OW30610   1.310   2.981   6.905
 9904SOL    HW130611   1.325   2.889   6.869
 9904SOL    HW230612   1.334   3.049   6.835
 9905SOL     OW30613   3.570   0.944   6.948
 9905SOL    HW130614   3.585   1.041   6.932
 9905SOL    HW230615   3.654   0.894   6.925
 9906SOL     OW30616   3.049   3.662   1.575
 9906SOL    HW130617   3.042   3.612   1.661
 9906SOL    HW230618   3.082   3.601   1.503
 9907SOL     OW30619   6.367   1.070   0.267
 9907SOL    HW130620   6.328   1.096   0.179
 9907SOL    HW230621   6.463   1.046   0.255
 9908SOL     OW30622   5.209   1.717   3.519
 9908SOL    HW130623   5.221   1.647   3.589
 9908SOL    HW230624   5.298   1.751   3.489
 9909SOL     OW30625   3.977   6.933   4.282
 9909SOL    HW130626   4.021   7.004   4.228
 9909SOL    HW230627   3.880   6.927   4.258
 9910SOL     OW30628   0.638   3.675   2.214
 9910SOL    HW130629   0.578   3.750   2.239
 9910SOL    HW230630   0.614   3.594   2.268
 9911SOL     OW30631   3.314   6.812   2.266
 9911SOL    HW130632   3.223   6.852   2.276
 9911SOL    HW230633   3.379   6.862   2.323
 9912SOL     OW30634   3.952   1.918   1.777
 9912SOL    HW130635   3.854   1.923   1.796
 9912SOL    HW230636   3.968   1.853   1.702
 9913SOL     OW30637   6.523   4.125   0.358
 9913SOL    HW130638   6.492   4.208   0.403
 9913SOL    HW230639   6.619   4.136   0.331
 9914SOL     OW30640   5.894   2.949   5.057
 9914SOL    HW130641   5.850   2.909   5.137
 9914SOL    HW230642   5.830   2.947   4.980
 9915SOL     OW30643   4.927   0.926   3.453
 9915SOL    HW130644   4.911   0.838   3.409
 9915SOL    HW230645   4.861   0.993   3.417
 9916SOL     OW30646   2.135   3.215   2.874
 9916SOL    HW130647   2.058   3.244   2.931
 9916SOL    HW230648   2.160   3.121   2.896
 9917SOL     OW30649   5.856   3.702   6.888
 9917SOL    HW130650   5.851   3.760   6.969
 9917SOL    HW230651   5.825   3.754   6.808
 9918SOL     OW30652   3.287   1.591   3.050
 9918SOL    HW130653   3.274   1.517   3.116
 9918SOL    HW230654   3.199   1.615   3.009
 9919SOL     OW30655   5.922   5.780   1.314
 9919SOL    HW130656   5.915   5.844   1.390
 9919SOL    HW230657   6.017   5.776   1.282
 9920SOL     OW30658   4.504   2.088   1.727
 9920SOL    HW130659   4.481   2.092   1.824
 9920SOL    HW230660   4.425   2.056   1.675
 9921SOL     OW30661   4.668   5.708   6.248
 9921SOL    HW130662   4.755   5.733   6.206
 9921SOL    HW230663   4.671   5.613   6.278
 9922SOL     OW30664   1.710   4.847   0.679
 9922SOL    HW130665   1.635   4.899   0.638
 9922SOL    HW230666   1.702   4.850   0.779
 9923SOL     OW30667   4.768   4.349   6.922
 9923SOL    HW130668   4.777   4.405   7.005
 9923SOL    HW230669   4.754   4.410   6.844
 9924SOL     OW30670   6.982   2.362   4.994
 9924SOL    HW130671   6.957   2.302   4.918
 9924SOL    HW230672   0.035   2.423   4.965
 9925SOL     OW30673   6.462   3.909   4.180
 9925SOL    HW130674   6.526   3.986   4.189
 9925SOL    HW230675   6.510   3.831   4.140
 9926SOL     OW30676   2.825   3.131   0.420
 9926SOL    HW130677   2.761   3.117   0.344
 9926SOL    HW230678   2.830   3.228   0.442
 9927SOL     OW30679   6.885   0.271   1.360
 9927SOL    HW130680   6.956   0.341   1.360
 9927SOL    HW230681   6.907   0.201   1.428
 9928SOL     OW30682   4.744   6.085   1.677
 9928SOL    HW130683   4.777   6.091   1.772
 9928SOL    HW230684   4.688   6.002   1.668
 9929SOL     OW30685   2.121   5.400   5.216
 9929SOL    HW130686   2.078   5.314   5.187
 9929SOL    HW230687   2.220   5.393   5.207
 9930SOL     OW30688   6.229   6.966   5.161
 9930SOL    HW130689   6.266   6.948   5.252
 9930SOL    HW230690   6.290   0.005   5.110
 9931SOL     OW30691   1.021   4.511   4.511
 9931SOL    HW130692   1.114   4.475   4.504
 9931SOL    HW230693   0.995   4.518   4.607
 9932SOL     OW30694   2.068   5.121   6.836
 9932SOL    HW130695   1.977   5.100   6.870
 9932SOL    HW230696   2.091   5.217   6.857
 9933SOL     OW30697   1.692   4.934   2.655
 9933SOL    HW130698   1.741   4.963   2.737
 9933SOL    HW230699   1.612   4.881   2.681
 9934SOL     OW30700   6.080   1.420   5.364
 9934SOL    HW130701   6.024   1.353   5.315
 9934SOL    HW230702   6.027   1.460   5.439
 9935SOL     OW30703   3.204   0.344   6.821
 9935SOL    HW130704   3.200   0.257   6.772
 9935SOL    HW230705   3.289   0.349   6.874
 9936SOL     OW30706   6.773   5.037   5.938
 9936SOL    HW130707   6.868   5.006   5.943
 9936SOL    HW230708   6.717   4.985   6.003
 9937SOL     OW30709   6.828   1.839   5.983
 9937SOL    HW130710   6.760   1.878   6.046
 9937SOL    HW230711   6.781   1.779   5.918
 9938SOL     OW30712   6.591   5.270   3.311
 9938SOL    HW130713   6.629   5.340   3.251
 9938SOL    HW230714   6.659   5.199   3.328
 9939SOL     OW30715   3.738   1.970   0.226
 9939SOL    HW130716   3.834   1.987   0.248
 9939SOL    HW230717   3.716   2.013   0.138
 9940SOL     OW30718   1.115   1.019   0.786
 9940SOL    HW130719   1.016   1.007   0.794
 9940SOL    HW230720   1.136   1.116   0.777
 9941SOL     OW30721   3.162   3.703   5.003
 9941SOL    HW130722   3.066   3.705   5.031
 9941SOL    HW230723   3.207   3.787   5.031
 9942SOL     OW30724   2.148   5.270   2.760
 9942SOL    HW130725   2.157   5.218   2.845
 9942SOL    HW230726   2.128   5.208   2.684
 9943SOL     OW30727   6.892   5.792   5.287
 9943SOL    HW130728   6.962   5.727   5.258
 9943SOL    HW230729   6.862   5.770   5.379
 9944SOL     OW30730   1.953   4.554   6.081
 9944SOL    HW130731   1.987   4.631   6.028
 9944SOL    HW230732   2.019   4.480   6.079
 9945SOL     OW30733   6.383   5.563   0.052
 9945SOL    HW130734   6.382   5.468   0.023
 9945SOL    HW230735   6.290   5.592   0.076
 9946SOL     OW30736   4.925   0.906   4.666
 9946SOL    HW130737   4.978   0.990   4.665
 9946SOL    HW230738   4.926   0.868   4.759
 9947SOL     OW30739   1.124   3.975   5.516
 9947SOL    HW130740   1.116   3.888   5.467
 9947SOL    HW230741   1.178   4.039   5.461
 9948SOL     OW30742   5.082   4.512   3.759
 9948SOL    HW130743   5.027   4.554   3.687
 9948SOL    HW230744   5.095   4.415   3.739
 9949SOL     OW30745   5.144   5.265   3.556
 9949SOL    HW130746   5.127   5.247   3.459
 9949SOL    HW230747   5.149   5.364   3.571
 9950SOL     OW30748   5.813   5.822   5.437
 9950SOL    HW130749   5.788   5.860   5.526
 9950SOL    HW230750   5.900   5.774   5.445
 9951SOL     OW30751   5.936   1.696   4.384
 9951SOL    HW130752   5.898   1.664   4.297
 9951SOL    HW230753   5.932   1.795   4.388
 9952SOL     OW30754   0.135   3.372   0.716
 9952SOL    HW130755   0.154   3.439   0.788
 9952SOL    HW230756   0.218   3.356   0.663
 9953SOL     OW30757   6.289   2.754   3.939
 9953SOL    HW130758   6.214   2.732   3.876
 9953SOL    HW230759   6.274   2.706   4.026
 9954SOL     OW30760   5.867   6.129   6.078
 9954SOL    HW130761   5.930   6.052   6.087
 9954SOL    HW230762   5.918   6.211   6.052
 9955SOL     OW30763   6.389   3.334   4.801
 9955SOL    HW130764   6.394   3.307   4.897
 9955SOL    HW230765   6.457   3.406   4.783
 9956SOL     OW30766   2.584   6.929   1.692
 9956SOL    HW130767   2.552   7.006   1.636
 9956SOL    HW230768   2.559   6.843   1.648
 9957SOL     OW30769   5.304   5.039   2.673
 9957SOL    HW130770   5.244   5.085   2.608
 9957SOL    HW230771   5.399   5.059   2.650
 9958SOL     OW30772   3.150   5.175   0.461
 9958SOL    HW130773   3.066   5.125   0.479
 9958SOL    HW230774   3.227   5.128   0.504
 9959SOL     OW30775   4.053   3.600   5.760
 9959SOL    HW130776   4.084   3.684   5.805
 9959SOL    HW230777   4.060   3.612   5.661
 9960SOL     OW30778   0.169   0.540   1.872
 9960SOL    HW130779   0.259   0.533   1.914
 9960SOL    HW230780   0.099   0.527   1.943
 9961SOL     OW30781   2.008   6.341   4.216
 9961SOL    HW130782   2.050   6.388   4.294
 9961SOL    HW230783   1.910   6.326   4.235
 9962SOL     OW30784   6.772   6.755   3.125
 9962SOL    HW130785   6.871   6.763   3.119
 9962SOL    HW230786   6.735   6.724   3.037
 9963SOL     OW30787   3.171   3.150   6.710
 9963SOL    HW130788   3.140   3.135   6.617
 9963SOL    HW230789   3.113   3.218   6.754
 9964SOL     OW30790   4.455   5.177   4.646
 9964SOL    HW130791   4.414   5.221   4.726
 9964SOL    HW230792   4.383   5.155   4.580
 9965SOL     OW30793   3.683   6.664   6.718
 9965SOL    HW130794   3.733   6.617   6.645
 9965SOL    HW230795   3.592   6.691   6.685
 9966SOL     OW30796   1.173   5.101   1.579
 9966SOL    HW130797   1.247   5.035   1.590
 9966SOL    HW230798   1.134   5.123   1.668
 9967SOL     OW30799   7.019   5.652   2.769
 9967SOL    HW130800   0.054   5.595   2.709
 9967SOL    HW230801   0.028   5.641   2.863
 9968SOL     OW30802   3.686   4.351   1.596
 9968SOL    HW130803   3.768   4.383   1.643
 9968SOL    HW230804   3.711   4.317   1.505
 9969SOL     OW30805   2.172   3.899   2.483
 9969SOL    HW130806   2.208   3.943   2.401
 9969SOL    HW230807   2.150   3.804   2.463
 9970SOL     OW30808   5.215   4.335   2.014
 9970SOL    HW130809   5.204   4.256   1.953
 9970SOL    HW230810   5.165   4.413   1.977
 9971SOL     OW30811   1.726   4.995   1.078
 9971SOL    HW130812   1.672   4.978   1.161
 9971SOL    HW230813   1.674   5.053   1.016
 9972SOL     OW30814   5.672   4.571   1.171
 9972SOL    HW130815   5.769   4.547   1.167
 9972SOL    HW230816   5.644   4.582   1.266
 9973SOL     OW30817   5.721   1.810   3.350
 9973SOL    HW130818   5.817   1.785   3.337
 9973SOL    HW230819   5.708   1.845   3.443
 9974SOL     OW30820   0.563   2.354   2.483
 9974SOL    HW130821   0.479   2.356   2.538
 9974SOL    HW230822   0.629   2.419   2.521
 9975SOL     OW30823   6.303   3.471   0.304
 9975SOL    HW130824   6.243   3.435   0.232
 9975SOL    HW230825   6.256   3.546   0.351
 9976SOL     OW30826   1.024   5.828   5.229
 9976SOL    HW130827   1.060   5.882   5.305
 9976SOL    HW230828   1.077   5.744   5.218
 9977SOL     OW30829   6.029   5.667   5.403
 9977SOL    HW130830   6.046   5.596   5.471
 9977SOL    HW230831   6.106   5.669   5.338
 9978SOL     OW30832   0.777   2.816   4.907
 9978SOL    HW130833   0.775   2.718   4.886
 9978SOL    HW230834   0.684   2.848   4.924
 9979SOL     OW30835   6.034   4.471   5.319
 9979SOL    HW130836   6.042   4.389   5.376
 9979SOL    HW230837   6.065   4.450   5.226
 9980SOL     OW30838   2.745   6.697   0.080
 9980SOL    HW130839   2.712   6.766   0.144
 9980SOL    HW230840   2.816   6.642   0.123
 9981SOL     OW30841   2.742   1.725   3.147
 9981SOL    HW130842   2.832   1.684   3.136
 9981SOL    HW230843   2.671   1.654   3.136
 9982SOL     OW30844   6.176   5.463   3.767
 9982SOL    HW130845   6.249   5.396   3.750
 9982SOL    HW230846   6.132   5.489   3.681
 9983SOL     OW30847   0.055   1.794   2.918
 9983SOL    HW130848   0.121   1.848   2.971
 9983SOL    HW230849   0.102   1.717   2.876
 9984SOL     OW30850   2.470   1.933   6.862
 9984SOL    HW130851   2.410   2.007   6.889
 9984SOL    HW230852   2.457   1.912   6.765
 9985SOL     OW30853   2.315   0.740   1.077
 9985SOL    HW130854   2.226   0.700   1.097
 9985SOL    HW230855   2.324   0.829   1.122
 9986SOL     OW30856   6.246   4.073   5.748
 9986SOL    HW130857   6.168   4.014   5.730
 9986SOL    HW230858   6.298   4.087   5.663
 9987SOL     OW30859   5.513   3.202   5.638
 9987SOL    HW130860   5.523   3.106   5.665
 9987SOL    HW230861   5.436   3.242   5.687
 9988SOL     OW30862   0.022   6.605   4.735
 9988SOL    HW130863   0.086   6.678   4.760
 9988SOL    HW230864   0.071   6.517   4.737
 9989SOL     OW30865   6.799   3.018   3.789
 9989SOL    HW130866   6.785   3.056   3.697
 9989SOL    HW230867   6.889   2.975   3.793
 9990SOL     OW30868   1.548   5.533   3.717
 9990SOL    HW130869   1.589   5.624   3.712
 9990SOL    HW230870   1.469   5.528   3.657
 9991SOL     OW30871   3.016   2.185   4.850
 9991SOL    HW130872   3.069   2.171   4.766
 9991SOL    HW230873   3.076   2.221   4.921
 9992SOL     OW30874   5.945   5.199   6.562
 9992SOL    HW130875   5.989   5.127   6.508
 9992SOL    HW230876   5.909   5.160   6.646
 9993SOL     OW30877   2.470   1.470   1.034
 9993SOL    HW130878   2.449   1.539   1.104
 9993SOL    HW230879   2.560   1.488   0.995
 9994SOL     OW30880   6.060   4.341   2.969
 9994SOL    HW130881   6.098   4.374   3.055
 9994SOL    HW230882   5.992   4.270   2.988
 9995SOL     OW30883   4.814   1.489   3.745
 9995SOL    HW130884   4.743   1.419   3.735
 9995SOL    HW230885   4.876   1.463   3.819
 9996SOL     OW30886   2.980   4.096   0.128
 9996SOL    HW130887   2.984   4.126   0.223
 9996SOL    HW230888   2.923   4.014   0.122
 9997SOL     OW30889   3.253   1.497   5.936
 9997SOL    HW130890   3.178   1.493   6.002
 9997SOL    HW230891   3.245   1.421   5.872
 9998SOL     OW30892   5.920   5.243   4.928
 9998SOL    HW130893   5.991   5.308   4.956
 9998SOL    HW230894   5.844   5.292   4.886
 9999SOL     OW30895   6.272   2.934   5.701
 9999SOL    HW130896   6.259   2.857   5.764
 9999SOL    HW230897   6.305   3.013   5.752
10000SOL     OW30898   6.374   3.174   0.127
10000SOL    HW130899   6.458   3.217   0.159
10000SOL    HW230900   6.374   3.077   0.152
10001SOL     OW30901   4.606   0.718   1.940
10001SOL    HW130902   4.585   0.621   1.930
10001SOL    HW230903   4.538   0.761   1.999
10002SOL     OW30904   1.208   6.794   2.159
10002SOL    HW130905   1.202   6.742   2.245
10002SOL    HW230906   1.130   6.771   2.101
10003SOL     OW30907   3.382   2.018   3.999
10003SOL    HW130908   3.350   2.058   3.913
10003SOL    HW230909   3.477   1.987   3.988
10004SOL     OW30910   6.662   2.542   3.699
10004SOL    HW130911   6.716   2.475   3.751
10004SOL    HW230912   6.565   2.530   3.719
10005SOL     OW30913   5.147   0.398   3.361
10005SOL    HW130914   5.205   0.330   3.407
10005SOL    HW230915   5.126   0.472   3.425
10006SOL     OW30916   4.084   0.127   4.158
10006SOL    HW130917   4.134   0.141   4.072
10006SOL    HW230918   4.139   0.162   4.234
10007SOL     OW30919   0.132   4.150   4.811
10007SOL    HW130920   0.076   4.224   4.776
10007SOL    HW230921   0.078   4.066   4.815
10008SOL     OW30922   3.647   0.780   4.463
10008SOL    HW130923   3.671   0.838   4.384
10008SOL    HW230924   3.730   0.755   4.512
10009SOL     OW30925   1.700   4.332   2.341
10009SOL    HW130926   1.722   4.259   2.276
10009SOL    HW230927   1.762   4.326   2.420
10010SOL     OW30928   2.352   1.083   6.806
10010SOL    HW130929   2.261   1.048   6.829
10010SOL    HW230930   2.410   1.080   6.888
10011SOL     OW30931   6.761   0.804   5.354
10011SOL    HW130932   6.698   0.855   5.295
10011SOL    HW230933   6.708   0.751   5.421
10012SOL     OW30934   6.084   1.004   3.315
10012SOL    HW130935   6.135   0.962   3.389
10012SOL    HW230936   6.095   1.104   3.319
10013SOL     OW30937   0.505   1.162   2.732
10013SOL    HW130938   0.484   1.080   2.678
10013SOL    HW230939   0.510   1.138   2.829
10014SOL     OW30940   0.814   4.238   6.312
10014SOL    HW130941   0.848   4.165   6.253
10014SOL    HW230942   0.728   4.210   6.354
10015SOL     OW30943   1.664   5.168   0.378
10015SOL    HW130944   1.620   5.123   0.456
10015SOL    HW230945   1.718   5.101   0.327
10016SOL     OW30946   1.657   1.086   6.493
10016SOL    HW130947   1.570   1.063   6.538
10016SOL    HW230948   1.730   1.028   6.531
10017SOL     OW30949   2.638   2.360   4.819
10017SOL    HW130950   2.589   2.422   4.759
10017SOL    HW230951   2.734   2.386   4.823
10018SOL     OW30952   5.478   6.913   6.461
10018SOL    HW130953   5.446   6.917   6.366
10018SOL    HW230954   5.416   6.965   6.520
10019SOL     OW30955   1.099   1.255   3.046
10019SOL    HW130956   1.197   1.265   3.030
10019SOL    HW230957   1.067   1.170   3.004
10020SOL     OW30958   1.611   2.693   1.763
10020SOL    HW130959   1.553   2.612   1.774
10020SOL    HW230960   1.672   2.701   1.842
10021SOL     OW30961   6.955   3.494   0.557
10021SOL    HW130962   6.996   3.447   0.635
10021SOL    HW230963   6.881   3.553   0.590
10022SOL     OW30964   2.064   1.122   6.359
10022SOL    HW130965   2.019   1.034   6.375
10022SOL    HW230966   2.120   1.147   6.438
10023SOL     OW30967   6.516   3.884   0.694
10023SOL    HW130968   6.539   3.815   0.763
10023SOL    HW230969   6.541   3.975   0.728
10024SOL     OW30970   1.400   5.405   3.958
10024SOL    HW130971   1.452   5.464   4.019
10024SOL    HW230972   1.425   5.425   3.863
10025SOL     OW30973   2.209   0.488   1.283
10025SOL    HW130974   2.224   0.389   1.287
10025SOL    HW230975   2.149   0.510   1.206
10026SOL     OW30976   5.941   0.330   3.168
10026SOL    HW130977   5.999   0.383   3.106
10026SOL    HW230978   5.852   0.315   3.126
10027SOL     OW30979   5.622   3.464   4.344
10027SOL    HW130980   5.698   3.400   4.330
10027SOL    HW230981   5.658   3.552   4.376
10028SOL     OW30982   2.012   0.666   0.347
10028SOL    HW130983   1.990   0.572   0.372
10028SOL    HW230984   1.943   0.728   0.385
10029SOL     OW30985   5.532   1.620   3.281
10029SOL    HW130986   5.536   1.543   3.345
10029SOL    HW230987   5.598   1.690   3.309
10030SOL     OW30988   2.189   0.761   4.034
10030SOL    HW130989   2.249   0.714   3.969
10030SOL    HW230990   2.109   0.796   3.985
10031SOL     OW30991   5.019   4.469   3.309
10031SOL    HW130992   5.095   4.511   3.260
10031SOL    HW230993   4.936   4.475   3.254
10032SOL     OW30994   2.647   1.993   5.282
10032SOL    HW130995   2.694   2.080   5.274
10032SOL    HW230996   2.653   1.960   5.376
10033SOL     OW30997   5.915   2.957   4.180
10033SOL    HW130998   5.821   2.991   4.178
10033SOL    HW230999   5.953   2.957   4.088
10034SOL     OW31000   3.716   0.338   5.369
10034SOL    HW131001   3.700   0.411   5.436
10034SOL    HW231002   3.636   0.329   5.310
10035SOL     OW31003   6.610   4.917   1.500
10035SOL    HW131004   6.674   4.863   1.554
10035SOL    HW231005   6.560   4.979   1.560
10036SOL     OW31006   6.679   1.699   0.106
10036SOL    HW131007   6.771   1.659   0.099
10036SOL    HW231008   6.686   1.799   0.099
10037SOL     OW31009   0.205   0.360   6.294
10037SOL    HW131010   0.255   0.279   6.324
10037SOL    HW231011   0.164   0.343   6.205
10038SOL     OW31012   6.293   6.681   1.379
10038SOL    HW131013   6.302   6.747   1.304
10038SOL    HW231014   6.360   6.608   1.367
10039SOL     OW31015   2.955   0.829   3.883
10039SOL    HW131016   2.889   0.819   3.809
10039SOL    HW231017   3.040   0.783   3.858
10040SOL     OW31018   6.694   3.044   0.784
10040SOL    HW131019   6.715   2.947   0.773
10040SOL    HW231020   6.744   3.096   0.715
10041SOL     OW31021   3.249   6.722   0.413
10041SOL    HW131022   3.334   6.719   0.359
10041SOL    HW231023   3.241   6.637   0.466
10042SOL     OW31024   6.861   2.269   2.475
10042SOL    HW131025   6.802   2.344   2.506
10042SOL    HW231026   6.814   2.182   2.486
10043SOL     OW31027   0.125   1.600   6.182
10043SOL    HW131028   0.087   1.555   6.101
10043SOL    HW231029   0.153   1.531   6.249
10044SOL     OW31030   2.494   2.391   5.449
10044SOL    HW131031   2.510   2.382   5.547
10044SOL    HW231032   2.572   2.355   5.399
10045SOL     OW31033   4.221   1.051   0.465
10045SOL    HW131034   4.204   0.986   0.539
10045SOL    HW231035   4.297   1.019   0.409
10046SOL     OW31036   1.305   5.171   1.117
10046SOL    HW131037   1.259   5.105   1.176
10046SOL    HW231038   1.321   5.255   1.168
10047SOL     OW31039   0.599   3.414   6.859
10047SOL    HW131040   0.589   3.320   6.826
10047SOL    HW231041   0.696   3.437   6.866
10048SOL     OW31042   6.020   6.615   2.457
10048SOL    HW131043   6.053   6.526   2.425
10048SOL    HW231044   6.009   6.612   2.557
10049SOL     OW31045   6.820   1.728   5.158
10049SOL    HW131046   6.793   1.707   5.064
10049SOL    HW231047   6.824   1.642   5.210
10050SOL     OW31048   5.663   3.513   5.465
10050SOL    HW131049   5.732   3.476   5.402
10050SOL    HW231050   5.669   3.463   5.552
10051SOL     OW31051   0.721   4.357   3.999
10051SOL    HW131052   0.815   4.341   3.969
10051SOL    HW231053   0.672   4.409   3.929
10052SOL     OW31054   1.338   0.197   3.466
10052SOL    HW131055   1.310   0.245   3.548
10052SOL    HW231056   1.410   0.249   3.420
10053SOL     OW31057   4.854   5.642   4.714
10053SOL    HW131058   4.873   5.597   4.627
10053SOL    HW231059   4.767   5.692   4.708
10054SOL     OW31060   5.408   4.009   4.269
10054SOL    HW131061   5.415   4.027   4.171
10054SOL    HW231062   5.323   4.049   4.304
10055SOL     OW31063   7.012   1.867   6.922
10055SOL    HW131064   0.065   1.917   6.967
10055SOL    HW231065   6.929   1.875   6.978
10056SOL     OW31066   5.316   3.046   3.229
10056SOL    HW131067   5.232   3.057   3.176
10056SOL    HW231068   5.390   3.015   3.169
10057SOL     OW31069   5.576   4.697   6.348
10057SOL    HW131070   5.611   4.727   6.259
10057SOL    HW231071   5.534   4.774   6.395
10058SOL     OW31072   6.417   3.649   5.032
10058SOL    HW131073   6.338   3.709   5.031
10058SOL    HW231074   6.387   3.554   5.030
10059SOL     OW31075   0.170   0.867   6.608
10059SOL    HW131076   0.123   0.829   6.528
10059SOL    HW231077   0.120   0.843   6.691
10060SOL     OW31078   2.602   2.148   2.830
10060SOL    HW131079   2.652   2.233   2.814
10060SOL    HW231080   2.666   2.071   2.829
10061SOL     OW31081   3.806   0.239   2.952
10061SOL    HW131082   3.757   0.156   2.928
10061SOL    HW231083   3.743   0.317   2.945
10062SOL     OW31084   6.836   0.287   4.138
10062SOL    HW131085   6.817   0.382   4.114
10062SOL    HW231086   6.882   0.284   4.226
10063SOL     OW31087   1.527   3.106   4.937
10063SOL    HW131088   1.616   3.101   4.982
10063SOL    HW231089   1.462   3.154   4.997
10064SOL     OW31090   2.997   6.334   0.608
10064SOL    HW131091   2.948   6.280   0.676
10064SOL    HW231092   2.931   6.382   0.550
10065SOL     OW31093   0.563   1.463   1.949
10065SOL    HW131094   0.546   1.519   2.030
10065SOL    HW231095   0.638   1.399   1.967
10066SOL     OW31096   6.571   3.658   4.067
10066SOL    HW131097   6.528   3.625   3.983
10066SOL    HW231098   6.570   3.585   4.136
10067SOL     OW31099   6.808   1.990   4.897
10067SOL    HW131100   6.896   1.987   4.943
10067SOL    HW231101   6.803   2.071   4.839
10068SOL     OW31102   2.316   2.265   2.852
10068SOL    HW131103   2.328   2.351   2.804
10068SOL    HW231104   2.403   2.216   2.857
10069SOL     OW31105   3.089   5.279   1.394
10069SOL    HW131106   3.040   5.360   1.362
10069SOL    HW231107   3.139   5.238   1.318
10070SOL     OW31108   3.578   5.525   5.551
10070SOL    HW131109   3.565   5.479   5.463
10070SOL    HW231110   3.633   5.607   5.538
10071SOL     OW31111   6.396   0.223   3.265
10071SOL    HW131112   6.479   0.196   3.315
10071SOL    HW231113   6.347   0.141   3.236
10072SOL     OW31114   6.649   2.191   2.039
10072SOL    HW131115   6.730   2.141   2.072
10072SOL    HW231116   6.671   2.288   2.028
10073SOL     OW31117   6.317   4.406   4.832
10073SOL    HW131118   6.402   4.455   4.851
10073SOL    HW231119   6.337   4.308   4.821
10074SOL     OW31120   1.090   4.787   0.501
10074SOL    HW131121   1.087   4.844   0.583
10074SOL    HW231122   1.036   4.829   0.429
10075SOL     OW31123   1.838   3.205   1.936
10075SOL    HW131124   1.849   3.149   2.018
10075SOL    HW231125   1.865   3.299   1.956
10076SOL     OW31126   5.200   5.792   4.137
10076SOL    HW131127   5.212   5.701   4.097
10076SOL    HW231128   5.115   5.832   4.103
10077SOL     OW31129   6.094   2.866   6.036
10077SOL    HW131130   6.017   2.918   5.998
10077SOL    HW231131   6.178   2.917   6.022
10078SOL     OW31132   6.674   6.484   4.884
10078SOL    HW131133   6.588   6.451   4.924
10078SOL    HW231134   6.740   6.410   4.880
10079SOL     OW31135   4.779   2.459   2.649
10079SOL    HW131136   4.751   2.392   2.718
10079SOL    HW231137   4.764   2.421   2.558
10080SOL     OW31138   5.271   0.236   6.347
10080SOL    HW131139   5.196   0.244   6.412
10080SOL    HW231140   5.343   0.302   6.371
10081SOL     OW31141   2.231   3.038   0.893
10081SOL    HW131142   2.240   2.998   0.984
10081SOL    HW231143   2.319   3.035   0.846
10082SOL     OW31144   1.457   4.263   1.111
10082SOL    HW131145   1.409   4.188   1.067
10082SOL    HW231146   1.393   4.336   1.134
10083SOL     OW31147   3.271   4.891   3.609
10083SOL    HW131148   3.295   4.986   3.631
10083SOL    HW231149   3.173   4.877   3.625
10084SOL     OW31150   1.019   0.790   4.614
10084SOL    HW131151   0.927   0.797   4.574
10084SOL    HW231152   1.069   0.875   4.598
10085SOL     OW31153   4.545   0.028   0.625
10085SOL    HW131154   4.463   6.999   0.651
10085SOL    HW231155   4.542   0.120   0.664
10086SOL     OW31156   0.297   6.626   2.503
10086SOL    HW131157   0.294   6.628   2.403
10086SOL    HW231158   0.278   6.717   2.540
10087SOL     OW31159   1.722   6.738   4.938
10087SOL    HW131160   1.738   6.739   5.037
10087SOL    HW231161   1.688   6.827   4.909
10088SOL     OW31162   0.057   2.492   0.165
10088SOL    HW131163   6.980   2.475   0.154
10088SOL    HW231164   0.079   2.582   0.128
10089SOL     OW31165   4.048   1.641   2.146
10089SOL    HW131166   3.978   1.639   2.217
10089SOL    HW231167   4.112   1.715   2.163
10090SOL     OW31168   2.291   6.031   2.273
10090SOL    HW131169   2.203   5.993   2.300
10090SOL    HW231170   2.354   6.028   2.350
10091SOL     OW31171   6.725   4.258   5.381
10091SOL    HW131172   6.808   4.241   5.327
10091SOL    HW231173   6.656   4.189   5.360
10092SOL     OW31174   0.516   1.549   4.224
10092SOL    HW131175   0.492   1.643   4.198
10092SOL    HW231176   0.441   1.508   4.275
10093SOL     OW31177   5.196   4.229   5.769
10093SOL    HW131178   5.107   4.198   5.804
10093SOL    HW231179   5.269   4.195   5.829
10094SOL     OW31180   3.392   1.272   0.915
10094SOL    HW131181   3.340   1.348   0.877
10094SOL    HW231182   3.385   1.273   1.015
10095SOL     OW31183   5.132   2.712   5.280
10095SOL    HW131184   5.160   2.661   5.198
10095SOL    HW231185   5.041   2.752   5.264
10096SOL     OW31186   5.239   1.631   3.008
10096SOL    HW131187   5.274   1.549   2.963
10096SOL    HW231188   5.162   1.668   2.956
10097SOL     OW31189   0.788   1.993   6.964
10097SOL    HW131190   0.793   1.905   6.915
10097SOL    HW231191   0.714   2.048   6.925
10098SOL     OW31192   3.275   5.712   3.725
10098SOL    HW131193   3.360   5.763   3.740
10098SOL    HW231194   3.238   5.735   3.635
10099SOL     OW31195   6.805   4.618   1.208
10099SOL    HW131196   6.731   4.561   1.243
10099SOL    HW231197   6.843   4.577   1.126
10100SOL     OW31198   4.597   4.893   4.237
10100SOL    HW131199   4.619   4.906   4.334
10100SOL    HW231200   4.534   4.964   4.207
10101SOL     OW31201   1.065   1.997   1.546
10101SOL    HW131202   1.129   1.920   1.547
10101SOL    HW231203   0.972   1.962   1.553
10102SOL     OW31204   6.718   6.495   2.434
10102SOL    HW131205   6.742   6.496   2.337
10102SOL    HW231206   6.788   6.544   2.486
10103SOL     OW31207   6.365   6.122   6.317
10103SOL    HW131208   6.304   6.142   6.394
10103SOL    HW231209   6.452   6.169   6.330
10104SOL     OW31210   2.171   0.359   4.780
10104SOL    HW131211   2.118   0.286   4.737
10104SOL    HW231212   2.116   0.406   4.849
10105SOL     OW31213   2.898   0.752   6.217
10105SOL    HW131214   2.823   0.702   6.261
10105SOL    HW231215   2.876   0.849   6.215
10106SOL     OW31216   5.246   5.768   1.572
10106SOL    HW131217   5.321   5.702   1.569
10106SOL    HW231218   5.195   5.756   1.657
10107SOL     OW31219   4.856   4.461   6.612
10107SOL    HW131220   4.756   4.454   6.610
10107SOL    HW231221   4.885   4.537   6.553
10108SOL     OW31222   1.969   2.810   6.659
10108SOL    HW131223   1.893   2.748   6.678
10108SOL    HW231224   1.936   2.891   6.610
10109SOL     OW31225   1.341   2.115   1.262
10109SOL    HW131226   1.364   2.167   1.344
10109SOL    HW231227   1.388   2.154   1.183
10110SOL     OW31228   5.175   6.362   2.548
10110SOL    HW131229   5.153   6.456   2.576
10110SOL    HW231230   5.185   6.305   2.630
10111SOL     OW31231   1.877   1.746   2.105
10111SOL    HW131232   1.925   1.660   2.128
10111SOL    HW231233   1.944   1.814   2.075
10112SOL     OW31234   6.822   2.216   3.439
10112SOL    HW131235   6.738   2.263   3.462
10112SOL    HW231236   6.844   2.149   3.510
10113SOL     OW31237   6.708   0.828   5.926
10113SOL    HW131238   6.689   0.923   5.900
10113SOL    HW231239   6.768   0.786   5.858
10114SOL     OW31240   4.555   1.860   2.056
10114SOL    HW131241   4.569   1.765   2.027
10114SOL    HW231242   4.456   1.878   2.063
10115SOL     OW31243   3.545   2.526   6.211
10115SOL    HW131244   3.454   2.567   6.216
10115SOL    HW231245   3.576   2.500   6.302
10116SOL     OW31246   6.571   0.735   4.889
10116SOL    HW131247   6.533   0.644   4.904
10116SOL    HW231248   6.593   0.747   4.793
10117SOL     OW31249   6.079   4.220   3.828
10117SOL    HW131250   6.116   4.187   3.741
10117SOL    HW231251   6.131   4.299   3.859
10118SOL     OW31252   4.336   5.748   4.456
10118SOL    HW131253   4.236   5.760   4.451
10118SOL    HW231254   4.377   5.829   4.498
10119SOL     OW31255   0.033   5.359   5.303
10119SOL    HW131256   6.975   5.297   5.306
10119SOL    HW231257   0.117   5.306   5.291
10120SOL     OW31258   2.102   3.210   2.459
10120SOL    HW131259   2.013   3.198   2.503
10120SOL    HW231260   2.104   3.298   2.412
10121SOL     OW31261   6.677   3.791   1.033
10121SOL    HW131262   6.754   3.833   0.985
10121SOL    HW231263   6.702   3.775   1.128
10122SOL     OW31264   1.065   0.380   3.880
10122SOL    HW131265   1.091   0.413   3.971
10122SOL    HW231266   0.969   0.352   3.881
10123SOL     OW31267   6.383   5.070   6.644
10123SOL    HW131268   6.370   4.971   6.648
10123SOL    HW231269   6.475   5.091   6.611
10124SOL     OW31270   1.245   5.281   3.023
10124SOL    HW131271   1.201   5.274   2.933
10124SOL    HW231272   1.242   5.376   3.054
10125SOL     OW31273   1.998   1.349   5.730
10125SOL    HW131274   1.921   1.394   5.775
10125SOL    HW231275   1.964   1.272   5.676
10126SOL     OW31276   6.428   6.910   0.011
10126SOL    HW131277   6.461   6.863   0.092
10126SOL    HW231278   6.328   6.904   0.008
10127SOL     OW31279   2.190   6.139   6.465
10127SOL    HW131280   2.124   6.079   6.421
10127SOL    HW231281   2.197   6.115   6.562
10128SOL     OW31282   2.660   1.897   6.509
10128SOL    HW131283   2.565   1.904   6.540
10128SOL    HW231284   2.721   1.909   6.587
10129SOL     OW31285   6.067   1.396   4.741
10129SOL    HW131286   6.116   1.477   4.775
10129SOL    HW231287   6.014   1.420   4.661
10130SOL     OW31288   1.155   1.698   2.567
10130SOL    HW131289   1.218   1.771   2.593
10130SOL    HW231290   1.139   1.637   2.645
10131SOL     OW31291   1.691   6.344   4.222
10131SOL    HW131292   1.676   6.286   4.141
10131SOL    HW231293   1.610   6.340   4.280
10132SOL     OW31294   6.797   1.022   1.595
10132SOL    HW131295   6.779   0.925   1.613
10132SOL    HW231296   6.881   1.049   1.640
10133SOL     OW31297   6.197   6.392   0.326
10133SOL    HW131298   6.192   6.479   0.374
10133SOL    HW231299   6.249   6.404   0.242
10134SOL     OW31300   6.326   6.707   2.203
10134SOL    HW131301   6.379   6.628   2.173
10134SOL    HW231302   6.246   6.718   2.143
10135SOL     OW31303   6.308   0.148   2.550
10135SOL    HW131304   6.248   0.213   2.503
10135SOL    HW231305   6.258   0.063   2.567
10136SOL     OW31306   5.284   1.382   2.250
10136SOL    HW131307   5.302   1.345   2.341
10136SOL    HW231308   5.218   1.457   2.257
10137SOL     OW31309   6.443   5.413   5.465
10137SOL    HW131310   6.373   5.484   5.454
10137SOL    HW231311   6.426   5.363   5.550
10138SOL     OW31312   0.528   1.942   0.459
10138SOL    HW131313   0.550   1.878   0.533
10138SOL    HW231314   0.545   2.036   0.490
10139SOL     OW31315   3.305   2.810   6.428
10139SOL    HW131316   3.211   2.844   6.433
10139SOL    HW231317   3.324   2.777   6.336
10140SOL     OW31318   0.925   6.506   5.406
10140SOL    HW131319   0.902   6.429   5.346
10140SOL    HW231320   0.848   6.571   5.407
10141SOL     OW31321   2.047   2.721   4.575
10141SOL    HW131322   2.132   2.675   4.548
10141SOL    HW231323   2.003   2.669   4.648
10142SOL     OW31324   3.876   6.546   4.045
10142SOL    HW131325   3.791   6.509   4.082
10142SOL    HW231326   3.859   6.635   4.003
10143SOL     OW31327   4.868   2.991   6.540
10143SOL    HW131328   4.849   3.005   6.443
10143SOL    HW231329   4.875   2.893   6.559
10144SOL     OW31330   3.660   6.907   6.445
10144SOL    HW131331   3.718   6.827   6.433
10144SOL    HW231332   3.665   6.938   6.540
10145SOL     OW31333   5.339   6.282   6.308
10145SOL    HW131334   5.375   6.270   6.401
10145SOL    HW231335   5.335   6.193   6.262
10146SOL     OW31336   0.251   2.812   4.473
10146SOL    HW131337   0.252   2.907   4.504
10146SOL    HW231338   0.337   2.791   4.427
10147SOL     OW31339   4.565   4.885   5.933
10147SOL    HW131340   4.577   4.909   5.837
10147SOL    HW231341   4.564   4.968   5.988
10148SOL     OW31342   0.726   4.530   0.834
10148SOL    HW131343   0.719   4.577   0.746
10148SOL    HW231344   0.823   4.519   0.858
10149SOL     OW31345   3.485   4.627   0.159
10149SOL    HW131346   3.504   4.692   0.233
10149SOL    HW231347   3.558   4.558   0.156
10150SOL     OW31348   4.250   4.496   0.842
10150SOL    HW131349   4.297   4.581   0.819
10150SOL    HW231350   4.163   4.492   0.793
10151SOL     OW31351   6.220   6.918   5.790
10151SOL    HW131352   6.312   6.927   5.828
10151SOL    HW231353   6.154   6.912   5.864
10152SOL     OW31354   3.984   6.633   2.506
10152SOL    HW131355   4.059   6.691   2.471
10152SOL    HW231356   4.020   6.571   2.576
10153SOL     OW31357   4.752   4.269   2.847
10153SOL    HW131358   4.743   4.174   2.876
10153SOL    HW231359   4.669   4.297   2.799
10154SOL     OW31360   4.707   5.156   5.419
10154SOL    HW131361   4.659   5.156   5.331
10154SOL    HW231362   4.751   5.244   5.433
10155SOL     OW31363   3.877   1.943   4.843
10155SOL    HW131364   3.959   1.903   4.883
10155SOL    HW231365   3.827   1.871   4.793
10156SOL     OW31366   5.082   2.010   0.121
10156SOL    HW131367   5.166   1.988   0.170
10156SOL    HW231368   5.095   2.092   0.066
10157SOL     OW31369   0.408   3.245   1.744
10157SOL    HW131370   0.425   3.179   1.670
10157SOL    HW231371   0.314   3.235   1.776
10158SOL     OW31372   6.145   4.926   0.239
10158SOL    HW131373   6.054   4.896   0.213
10158SOL    HW231374   6.201   4.936   0.157
10159SOL     OW31375   3.087   3.141   1.827
10159SOL    HW131376   3.076   3.199   1.746
10159SOL    HW231377   3.044   3.053   1.810
10160SOL     OW31378   1.257   4.928   2.529
10160SOL    HW131379   1.203   4.878   2.461
10160SOL    HW231380   1.334   4.973   2.484
10161SOL     OW31381   5.343   3.092   5.373
10161SOL    HW131382   5.326   3.178   5.325
10161SOL    HW231383   5.381   3.111   5.463
10162SOL     OW31384   1.520   2.967   2.365
10162SOL    HW131385   1.503   3.045   2.304
10162SOL    HW231386   1.468   2.888   2.332
10163SOL     OW31387   1.820   6.422   5.633
10163SOL    HW131388   1.890   6.491   5.614
10163SOL    HW231389   1.856   6.331   5.610
10164SOL     OW31390   1.215   2.681   3.167
10164SOL    HW131391   1.309   2.663   3.138
10164SOL    HW231392   1.152   2.639   3.102
10165SOL     OW31393   6.948   3.639   4.127
10165SOL    HW131394   6.908   3.554   4.160
10165SOL    HW231395   6.936   3.645   4.027
10166SOL     OW31396   2.708   0.517   1.768
10166SOL    HW131397   2.725   0.446   1.837
10166SOL    HW231398   2.789   0.528   1.710
10167SOL     OW31399   2.504   0.638   6.627
10167SOL    HW131400   2.559   0.644   6.710
10167SOL    HW231401   2.423   0.581   6.645
10168SOL     OW31402   6.985   0.776   6.787
10168SOL    HW131403   0.052   0.769   6.834
10168SOL    HW231404   6.933   0.853   6.825
10169SOL     OW31405   5.710   2.984   3.513
10169SOL    HW131406   5.733   2.913   3.580
10169SOL    HW231407   5.759   3.068   3.537
10170SOL     OW31408   5.818   5.387   6.418
10170SOL    HW131409   5.861   5.314   6.470
10170SOL    HW231410   5.880   5.465   6.412
10171SOL     OW31411   2.450   3.791   5.895
10171SOL    HW131412   2.505   3.736   5.957
10171SOL    HW231413   2.416   3.734   5.820
10172SOL     OW31414   6.204   0.401   2.895
10172SOL    HW131415   6.265   0.420   2.818
10172SOL    HW231416   6.168   0.308   2.886
10173SOL     OW31417   3.272   3.937   5.081
10173SOL    HW131418   3.307   3.999   5.151
10173SOL    HW231419   3.348   3.903   5.025
10174SOL     OW31420   4.035   5.617   3.246
10174SOL    HW131421   4.102   5.544   3.234
10174SOL    HW231422   3.970   5.615   3.170
10175SOL     OW31423   0.123   1.584   3.175
10175SOL    HW131424   0.186   1.554   3.104
10175SOL    HW231425   0.057   1.511   3.195
10176SOL     OW31426   6.466   1.340   5.776
10176SOL    HW131427   6.468   1.273   5.701
10176SOL    HW231428   6.487   1.431   5.739
10177SOL     OW31429   2.613   1.007   3.975
10177SOL    HW131430   2.534   1.009   3.915
10177SOL    HW231431   2.684   1.068   3.939
10178SOL     OW31432   1.221   2.211   0.777
10178SOL    HW131433   1.308   2.163   0.767
10178SOL    HW231434   1.148   2.145   0.795
10179SOL     OW31435   0.100   4.405   1.096
10179SOL    HW131436   0.051   4.317   1.092
10179SOL    HW231437   0.080   4.458   1.013
10180SOL     OW31438   4.580   6.819   5.422
10180SOL    HW131439   4.651   6.786   5.485
10180SOL    HW231440   4.605   6.795   5.329
10181SOL     OW31441   6.455   3.088   2.224
10181SOL    HW131442   6.454   3.029   2.144
10181SOL    HW231443   6.470   3.182   2.196
10182SOL     OW31444   5.492   2.271   0.206
10182SOL    HW131445   5.501   2.370   0.193
10182SOL    HW231446   5.453   2.252   0.296
10183SOL     OW31447   5.714   1.789   6.704
10183SOL    HW131448   5.748   1.769   6.795
10183SOL    HW231449   5.654   1.715   6.674
10184SOL     OW31450   5.724   2.347   5.891
10184SOL    HW131451   5.804   2.311   5.844
10184SOL    HW231452   5.702   2.290   5.970
10185SOL     OW31453   3.639   5.755   1.911
10185SOL    HW131454   3.606   5.764   1.817
10185SOL    HW231455   3.613   5.836   1.963
10186SOL     OW31456   3.493   3.760   5.893
10186SOL    HW131457   3.483   3.779   5.991
10186SOL    HW231458   3.437   3.825   5.841
10187SOL     OW31459   1.953   4.605   6.523
10187SOL    HW131460   1.866   4.556   6.527
10187SOL    HW231461   1.951   4.670   6.447
10188SOL     OW31462   3.370   0.628   6.334
10188SOL    HW131463   3.309   0.703   6.310
10188SOL    HW231464   3.367   0.612   6.433
10189SOL     OW31465   1.108   1.868   6.547
10189SOL    HW131466   1.138   1.907   6.460
10189SOL    HW231467   1.010   1.853   6.545
10190SOL     OW31468   4.118   5.721   1.980
10190SOL    HW131469   4.106   5.669   1.895
10190SOL    HW231470   4.163   5.663   2.048
10191SOL     OW31471   5.757   6.234   6.733
10191SOL    HW131472   5.756   6.333   6.746
10191SOL    HW231473   5.702   6.190   6.805
10192SOL     OW31474   1.922   1.866   4.489
10192SOL    HW131475   1.834   1.903   4.519
10192SOL    HW231476   1.996   1.920   4.528
10193SOL     OW31477   3.330   3.653   3.796
10193SOL    HW131478   3.393   3.596   3.849
10193SOL    HW231479   3.241   3.654   3.841
10194SOL     OW31480   2.843   0.539   3.300
10194SOL    HW131481   2.935   0.511   3.271
10194SOL    HW231482   2.850   0.618   3.361
10195SOL     OW31483   3.843   6.621   1.961
10195SOL    HW131484   3.820   6.677   2.041
10195SOL    HW231485   3.759   6.587   1.919
10196SOL     OW31486   5.952   2.021   3.454
10196SOL    HW131487   5.975   2.053   3.362
10196SOL    HW231488   5.887   2.084   3.496
10197SOL     OW31489   5.739   0.217   1.561
10197SOL    HW131490   5.755   0.309   1.598
10197SOL    HW231491   5.668   0.171   1.614
10198SOL     OW31492   2.706   0.038   0.880
10198SOL    HW131493   2.772   6.985   0.890
10198SOL    HW231494   2.740   0.120   0.925
10199SOL     OW31495   1.113   1.193   0.453
10199SOL    HW131496   1.170   1.273   0.470
10199SOL    HW231497   1.020   1.210   0.488
10200SOL     OW31498   4.908   4.190   4.293
10200SOL    HW131499   4.842   4.264   4.281
10200SOL    HW231500   4.860   4.105   4.313
10201SOL     OW31501   1.688   5.035   2.967
10201SOL    HW131502   1.748   5.004   3.040
10201SOL    HW231503   1.600   5.063   3.005
10202SOL     OW31504   0.860   3.263   2.362
10202SOL    HW131505   0.840   3.208   2.281
10202SOL    HW231506   0.842   3.210   2.445
10203SOL     OW31507   1.797   3.365   2.320
10203SOL    HW131508   1.871   3.369   2.387
10203SOL    HW231509   1.732   3.293   2.346
10204SOL     OW31510   3.158   4.822   5.184
10204SOL    HW131511   3.122   4.757   5.251
10204SOL    HW231512   3.082   4.864   5.135
10205SOL     OW31513   4.629   1.450   2.887
10205SOL    HW131514   4.727   1.432   2.875
10205SOL    HW231515   4.590   1.380   2.947
10206SOL     OW31516   5.178   6.718   6.631
10206SOL    HW131517   5.137   6.658   6.699
10206SOL    HW231518   5.108   6.778   6.592
10207SOL     OW31519   4.322   0.957   2.994
10207SOL    HW131520   4.256   1.023   3.030
10207SOL    HW231521   4.280   0.907   2.918
10208SOL     OW31522   5.702   4.069   5.052
10208SOL    HW131523   5.617   4.071   5.105
10208SOL    HW231524   5.727   3.974   5.033
10209SOL     OW31525   6.006   0.520   6.389
10209SOL    HW131526   5.994   0.613   6.355
10209SOL    HW231527   6.021   0.521   6.487
10210SOL     OW31528   4.822   5.643   2.030
10210SOL    HW131529   4.847   5.566   2.088
10210SOL    HW231530   4.903   5.676   1.981
10211SOL     OW31531   4.075   5.371   5.647
10211SOL    HW131532   4.046   5.293   5.591
10211SOL    HW231533   4.160   5.347   5.695
10212SOL     OW31534   0.004   0.448   5.200
10212SOL    HW131535   0.019   0.540   5.236
10212SOL    HW231536   6.933   0.441   5.162
10213SOL     OW31537   6.398   1.209   2.869
10213SOL    HW131538   6.441   1.186   2.782
10213SOL    HW231539   6.324   1.276   2.854
10214SOL     OW31540   0.074   0.875   1.848
10214SOL    HW131541   0.164   0.864   1.807
10214SOL    HW231542   0.018   0.794   1.828
10215SOL     OW31543   4.169   4.005   6.891
10215SOL    HW131544   4.101   4.074   6.918
10215SOL    HW231545   4.142   3.916   6.926
10216SOL     OW31546   5.221   0.106   1.344
10216SOL    HW131547   5.223   0.138   1.438
10216SOL    HW231548   5.162   0.166   1.290
10217SOL     OW31549   2.391   1.836   4.982
10217SOL    HW131550   2.402   1.918   5.038
10217SOL    HW231551   2.481   1.801   4.957
10218SOL     OW31552   2.722   1.625   0.442
10218SOL    HW131553   2.795   1.569   0.481
10218SOL    HW231554   2.717   1.713   0.489
10219SOL     OW31555   1.031   3.427   0.620
10219SOL    HW131556   1.076   3.360   0.678
10219SOL    HW231557   1.084   3.512   0.619
10220SOL     OW31558   4.410   2.268   1.069
10220SOL    HW131559   4.492   2.244   1.017
10220SOL    HW231560   4.430   2.262   1.167
10221SOL     OW31561   3.090   6.947   5.217
10221SOL    HW131562   3.114   6.964   5.121
10221SOL    HW231563   3.012   7.005   5.242
10222SOL     OW31564   1.716   5.371   5.752
10222SOL    HW131565   1.634   5.316   5.764
10222SOL    HW231566   1.796   5.312   5.746
10223SOL     OW31567   0.320   4.287   0.549
10223SOL    HW131568   0.318   4.236   0.635
10223SOL    HW231569   0.233   4.275   0.501
10224SOL     OW31570   1.426   0.186   4.053
10224SOL    HW131571   1.336   0.144   4.041
10224SOL    HW231572   1.433   0.227   4.144
10225SOL     OW31573   6.308   5.908   4.461
10225SOL    HW131574   6.357   5.916   4.548
10225SOL    HW231575   6.348   5.970   4.394
10226SOL     OW31576   1.599   1.332   0.240
10226SOL    HW131577   1.655   1.376   0.310
10226SOL    HW231578   1.652   1.324   0.155
10227SOL     OW31579   5.259   4.739   6.891
10227SOL    HW131580   5.239   4.716   6.987
10227SOL    HW231581   5.293   4.658   6.844
10228SOL     OW31582   0.748   5.418   2.891
10228SOL    HW131583   0.821   5.473   2.931
10228SOL    HW231584   0.777   5.382   2.802
10229SOL     OW31585   1.391   0.216   2.687
10229SOL    HW131586   1.463   0.165   2.640
10229SOL    HW231587   1.344   0.276   2.621
10230SOL     OW31588   6.515   0.922   3.496
10230SOL    HW131589   6.569   0.915   3.579
10230SOL    HW231590   6.561   0.873   3.421
10231SOL     OW31591   5.112   6.589   4.547
10231SOL    HW131592   5.165   6.517   4.503
10231SOL    HW231593   5.171   6.637   4.613
10232SOL     OW31594   3.281   1.977   5.009
10232SOL    HW131595   3.354   1.951   4.945
10232SOL    HW231596   3.251   2.071   4.989
10233SOL     OW31597   4.974   1.391   5.655
10233SOL    HW131598   5.039   1.357   5.724
10233SOL    HW231599   4.960   1.489   5.668
10234SOL     OW31600   4.899   6.316   1.661
10234SOL    HW131601   4.847   6.400   1.677
10234SOL    HW231602   4.837   6.237   1.667
10235SOL     OW31603   5.855   1.038   6.800
10235SOL    HW131604   5.837   1.043   6.898
10235SOL    HW231605   5.947   1.002   6.785
10236SOL     OW31606   2.264   5.457   1.931
10236SOL    HW131607   2.243   5.527   1.863
10236SOL    HW231608   2.363   5.449   1.940
10237SOL     OW31609   5.904   3.296   2.424
10237SOL    HW131610   5.861   3.212   2.389
10237SOL    HW231611   5.948   3.277   2.511
10238SOL     OW31612   5.048   4.841   4.778
10238SOL    HW131613   4.983   4.767   4.761
10238SOL    HW231614   5.037   4.911   4.708
10239SOL     OW31615   0.194   4.264   4.464
10239SOL    HW131616   0.163   4.210   4.385
10239SOL    HW231617   0.293   4.277   4.458
10240SOL     OW31618   6.838   4.266   4.302
10240SOL    HW131619   6.825   4.361   4.273
10240SOL    HW231620   6.827   4.259   4.401
10241SOL     OW31621   1.943   0.813   2.296
10241SOL    HW131622   2.040   0.793   2.306
10241SOL    HW231623   1.926   0.910   2.313
10242SOL     OW31624   6.903   6.888   5.972
10242SOL    HW131625   6.886   6.851   6.064
10242SOL    HW231626   6.897   6.813   5.905
10243SOL     OW31627   1.492   5.719   1.446
10243SOL    HW131628   1.550   5.775   1.386
10243SOL    HW231629   1.544   5.640   1.479
10244SOL     OW31630   1.947   6.161   0.208
10244SOL    HW131631   1.975   6.067   0.229
10244SOL    HW231632   1.873   6.159   0.141
10245SOL     OW31633   2.457   2.437   6.906
10245SOL    HW131634   2.493   2.529   6.923
10245SOL    HW231635   2.526   2.369   6.928
10246SOL     OW31636   3.244   4.057   4.434
10246SOL    HW131637   3.230   4.062   4.532
10246SOL    HW231638   3.333   4.098   4.410
10247SOL     OW31639   0.718   4.220   5.320
10247SOL    HW131640   0.622   4.234   5.347
10247SOL    HW231641   0.776   4.222   5.401
10248SOL     OW31642   3.659   0.262   1.944
10248SOL    HW131643   3.635   0.336   1.880
10248SOL    HW231644   3.662   0.175   1.894
10249SOL     OW31645   5.283   1.181   5.834
10249SOL    HW131646   5.303   1.106   5.897
10249SOL    HW231647   5.212   1.240   5.874
10250SOL     OW31648   6.168   0.853   0.001
10250SOL    HW131649   6.166   0.753   0.004
10250SOL    HW231650   6.251   0.887   0.045
10251SOL     OW31651   2.415   3.679   6.712
10251SOL    HW131652   2.343   3.616   6.742
10251SOL    HW231653   2.486   3.628   6.664
10252SOL     OW31654   6.517   5.376   1.843
10252SOL    HW131655   6.527   5.306   1.772
10252SOL    HW231656   6.424   5.374   1.878
10253SOL     OW31657   4.129   5.465   6.965
10253SOL    HW131658   4.132   5.478   6.866
10253SOL    HW231659   4.034   5.455   6.994
10254SOL     OW31660   2.036   2.308   5.242
10254SOL    HW131661   2.088   2.223   5.251
10254SOL    HW231662   2.040   2.339   5.147
10255SOL     OW31663   3.138   6.119   2.542
10255SOL    HW131664   3.107   6.149   2.452
10255SOL    HW231665   3.192   6.191   2.584
10256SOL     OW31666   6.081   6.937   6.731
10256SOL    HW131667   6.079   0.012   6.702
10256SOL    HW231668   6.034   6.881   6.662
10257SOL     OW31669   1.158   5.512   5.696
10257SOL    HW131670   1.177   5.560   5.782
10257SOL    HW231671   1.240   5.514   5.638
10258SOL     OW31672   4.235   0.128   3.240
10258SOL    HW131673   4.231   0.209   3.182
10258SOL    HW231674   4.329   0.111   3.268
10259SOL     OW31675   6.800   3.975   3.589
10259SOL    HW131676   6.786   4.045   3.519
10259SOL    HW231677   6.713   3.933   3.613
10260SOL     OW31678   1.225   0.181   1.957
10260SOL    HW131679   1.168   0.189   2.039
10260SOL    HW231680   1.309   0.233   1.969
10261SOL     OW31681   1.114   5.560   2.414
10261SOL    HW131682   1.195   5.590   2.465
10261SOL    HW231683   1.033   5.575   2.470
10262SOL     OW31684   1.943   4.647   4.817
10262SOL    HW131685   1.989   4.729   4.849
10262SOL    HW231686   2.001   4.567   4.834
10263SOL     OW31687   5.936   1.597   5.547
10263SOL    HW131688   5.982   1.646   5.621
10263SOL    HW231689   5.845   1.567   5.578
10264SOL     OW31690   0.040   0.502   5.899
10264SOL    HW131691   6.979   0.473   5.949
10264SOL    HW231692   0.046   0.602   5.900
10265SOL     OW31693   3.830   1.470   2.288
10265SOL    HW131694   3.768   1.444   2.214
10265SOL    HW231695   3.823   1.403   2.362
10266SOL     OW31696   2.873   4.283   6.503
10266SOL    HW131697   2.783   4.273   6.460
10266SOL    HW231698   2.913   4.371   6.475
10267SOL     OW31699   6.891   2.195   6.205
10267SOL    HW131700   6.945   2.112   6.220
10267SOL    HW231701   6.927   2.244   6.125
10268SOL     OW31702   5.332   6.050   1.567
10268SOL    HW131703   5.370   6.134   1.530
10268SOL    HW231704   5.263   6.014   1.505
10269SOL     OW31705   2.382   2.463   6.338
10269SOL    HW131706   2.445   2.394   6.373
10269SOL    HW231707   2.308   2.479   6.403
10270SOL     OW31708   1.511   5.858   0.540
10270SOL    HW131709   1.416   5.847   0.510
10270SOL    HW231710   1.516   5.929   0.611
10271SOL     OW31711   4.680   4.475   1.578
10271SOL    HW131712   4.713   4.489   1.484
10271SOL    HW231713   4.624   4.553   1.605
10272SOL     OW31714   0.843   1.085   5.860
10272SOL    HW131715   0.836   1.127   5.769
10272SOL    HW231716   0.752   1.069   5.896
10273SOL     OW31717   3.880   5.563   5.054
10273SOL    HW131718   3.977   5.558   5.077
10273SOL    HW231719   3.862   5.504   4.975
10274SOL     OW31720   0.813   5.001   5.690
10274SOL    HW131721   0.776   5.091   5.714
10274SOL    HW231722   0.912   5.001   5.703
10275SOL     OW31723   1.050   6.576   2.916
10275SOL    HW131724   1.101   6.575   2.830
10275SOL    HW231725   0.983   6.651   2.914
10276SOL     OW31726   6.192   5.618   5.873
10276SOL    HW131727   6.214   5.676   5.794
10276SOL    HW231728   6.255   5.639   5.948
10277SOL     OW31729   2.581   6.561   4.548
10277SOL    HW131730   2.628   6.531   4.631
10277SOL    HW231731   2.647   6.570   4.473
10278SOL     OW31732   6.351   0.523   6.022
10278SOL    HW131733   6.430   0.481   6.068
10278SOL    HW231734   6.286   0.452   5.996
10279SOL     OW31735   3.546   6.787   4.092
10279SOL    HW131736   3.542   6.718   4.019
10279SOL    HW231737   3.454   6.810   4.121
10280SOL     OW31738   1.678   4.557   0.065
10280SOL    HW131739   1.666   4.591   0.158
10280SOL    HW231740   1.693   4.458   0.067
10281SOL     OW31741   4.597   0.567   3.604
10281SOL    HW131742   4.586   0.655   3.560
10281SOL    HW231743   4.507   0.527   3.621
10282SOL     OW31744   1.038   1.872   4.353
10282SOL    HW131745   1.089   1.840   4.433
10282SOL    HW231746   1.078   1.957   4.320
10283SOL     OW31747   1.270   3.776   0.396
10283SOL    HW131748   1.364   3.750   0.417
10283SOL    HW231749   1.233   3.713   0.328
10284SOL     OW31750   5.805   2.859   5.292
10284SOL    HW131751   5.875   2.817   5.349
10284SOL    HW231752   5.720   2.805   5.299
10285SOL     OW31753   5.928   6.973   0.810
10285SOL    HW131754   5.843   7.014   0.843
10285SOL    HW231755   5.937   6.881   0.847
10286SOL     OW31756   4.073   0.168   3.472
10286SOL    HW131757   4.084   0.177   3.374
10286SOL    HW231758   4.150   0.117   3.510
10287SOL     OW31759   1.654   6.576   1.930
10287SOL    HW131760   1.565   6.530   1.923
10287SOL    HW231761   1.661   6.647   1.861
10288SOL     OW31762   6.125   6.384   3.446
10288SOL    HW131763   6.030   6.365   3.421
10288SOL    HW231764   6.166   6.447   3.380
10289SOL     OW31765   3.522   1.220   1.935
10289SOL    HW131766   3.594   1.279   1.973
10289SOL    HW231767   3.528   1.221   1.835
10290SOL     OW31768   4.137   3.601   2.562
10290SOL    HW131769   4.147   3.521   2.503
10290SOL    HW231770   4.139   3.571   2.658
10291SOL     OW31771   3.164   0.818   5.109
10291SOL    HW131772   3.078   0.842   5.064
10291SOL    HW231773   3.217   0.901   5.126
10292SOL     OW31774   0.809   0.956   4.418
10292SOL    HW131775   0.786   1.011   4.498
10292SOL    HW231776   0.805   1.013   4.336
10293SOL     OW31777   2.288   6.170   3.362
10293SOL    HW131778   2.337   6.147   3.278
10293SOL    HW231779   2.328   6.119   3.439
10294SOL     OW31780   5.560   1.487   3.547
10294SOL    HW131781   5.601   1.562   3.597
10294SOL    HW231782   5.591   1.400   3.585
10295SOL     OW31783   0.326   5.639   6.326
10295SOL    HW131784   0.250   5.628   6.262
10295SOL    HW231785   0.337   5.554   6.378
10296SOL     OW31786   6.793   3.226   0.600
10296SOL    HW131787   6.823   3.320   0.587
10296SOL    HW231788   6.735   3.199   0.524
10297SOL     OW31789   1.478   5.253   4.726
10297SOL    HW131790   1.385   5.222   4.747
10297SOL    HW231791   1.543   5.196   4.776
10298SOL     OW31792   4.884   3.357   3.848
10298SOL    HW131793   4.866   3.270   3.801
10298SOL    HW231794   4.848   3.353   3.941
10299SOL     OW31795   4.934   4.186   3.131
10299SOL    HW131796   4.977   4.165   3.219
10299SOL    HW231797   4.989   4.254   3.082
10300SOL     OW31798   1.012   4.272   2.871
10300SOL    HW131799   1.066   4.209   2.814
10300SOL    HW231800   1.073   4.317   2.937
10301SOL     OW31801   5.255   1.446   1.315
10301SOL    HW131802   5.177   1.509   1.320
10301SOL    HW231803   5.222   1.353   1.296
10302SOL     OW31804   1.427   5.887   3.160
10302SOL    HW131805   1.509   5.928   3.199
10302SOL    HW231806   1.450   5.798   3.119
10303SOL     OW31807   3.831   3.906   1.608
10303SOL    HW131808   3.838   3.999   1.573
10303SOL    HW231809   3.906   3.887   1.671
10304SOL     OW31810   6.930   6.830   2.585
10304SOL    HW131811   6.992   6.896   2.543
10304SOL    HW231812   6.835   6.859   2.570
10305SOL     OW31813   0.973   5.625   0.974
10305SOL    HW131814   1.061   5.601   1.014
10305SOL    HW231815   0.949   5.558   0.904
10306SOL     OW31816   4.779   6.350   0.652
10306SOL    HW131817   4.839   6.379   0.577
10306SOL    HW231818   4.771   6.424   0.718
10307SOL     OW31819   1.808   1.424   5.936
10307SOL    HW131820   1.858   1.350   5.981
10307SOL    HW231821   1.710   1.415   5.957
10308SOL     OW31822   3.241   6.092   3.181
10308SOL    HW131823   3.226   6.091   3.280
10308SOL    HW231824   3.197   6.173   3.141
10309SOL     OW31825   6.941   6.446   2.978
10309SOL    HW131826   6.880   6.367   2.972
10309SOL    HW231827   6.905   6.520   2.922
10310SOL     OW31828   3.437   4.164   3.342
10310SOL    HW131829   3.346   4.204   3.328
10310SOL    HW231830   3.462   4.111   3.261
10311SOL     OW31831   6.745   5.594   0.384
10311SOL    HW131832   6.834   5.629   0.355
10311SOL    HW231833   6.711   5.530   0.315
10312SOL     OW31834   2.375   4.540   0.492
10312SOL    HW131835   2.279   4.514   0.480
10312SOL    HW231836   2.423   4.466   0.539
10313SOL     OW31837   5.448   0.026   2.871
10313SOL    HW131838   5.497   0.014   2.957
10313SOL    HW231839   5.363   0.076   2.888
10314SOL     OW31840   6.621   6.413   1.052
10314SOL    HW131841   6.682   6.492   1.044
10314SOL    HW231842   6.646   6.344   0.984
10315SOL     OW31843   6.671   5.196   4.503
10315SOL    HW131844   6.596   5.132   4.520
10315SOL    HW231845   6.749   5.146   4.464
10316SOL     OW31846   0.093   4.400   3.603
10316SOL    HW131847   0.001   4.380   3.636
10316SOL    HW231848   0.156   4.405   3.681
10317SOL     OW31849   3.753   5.145   0.658
10317SOL    HW131850   3.705   5.211   0.598
10317SOL    HW231851   3.839   5.185   0.688
10318SOL     OW31852   5.416   5.325   2.143
10318SOL    HW131853   5.331   5.371   2.117
10318SOL    HW231854   5.419   5.234   2.102
10319SOL     OW31855   5.596   6.036   3.165
10319SOL    HW131856   5.503   6.045   3.127
10319SOL    HW231857   5.660   6.088   3.108
10320SOL     OW31858   6.989   6.614   1.226
10320SOL    HW131859   0.063   6.636   1.246
10320SOL    HW231860   6.978   6.515   1.221
10321SOL     OW31861   4.277   5.424   4.010
10321SOL    HW131862   4.226   5.377   3.937
10321SOL    HW231863   4.329   5.356   4.063
10322SOL     OW31864   6.435   3.584   0.652
10322SOL    HW131865   6.401   3.677   0.636
10322SOL    HW231866   6.490   3.582   0.735
10323SOL     OW31867   5.046   2.563   5.514
10323SOL    HW131868   5.111   2.593   5.444
10323SOL    HW231869   5.091   2.560   5.603
10324SOL     OW31870   3.318   2.878   3.626
10324SOL    HW131871   3.290   2.787   3.595
10324SOL    HW231872   3.259   2.907   3.701
10325SOL     OW31873   0.763   3.067   2.923
10325SOL    HW131874   0.669   3.087   2.894
10325SOL    HW231875   0.768   3.069   3.023
10326SOL     OW31876   5.762   1.755   0.964
10326SOL    HW131877   5.760   1.772   1.063
10326SOL    HW231878   5.673   1.722   0.934
10327SOL     OW31879   0.288   1.198   3.046
10327SOL    HW131880   0.386   1.190   3.025
10327SOL    HW231881   0.272   1.284   3.095
10328SOL     OW31882   5.832   2.457   2.121
10328SOL    HW131883   5.834   2.521   2.198
10328SOL    HW231884   5.919   2.407   2.116
10329SOL     OW31885   3.077   6.782   2.846
10329SOL    HW131886   3.079   6.819   2.754
10329SOL    HW231887   3.011   6.707   2.851
10330SOL     OW31888   3.568   5.176   1.645
10330SOL    HW131889   3.572   5.091   1.697
10330SOL    HW231890   3.477   5.217   1.654
10331SOL     OW31891   6.135   0.668   3.407
10331SOL    HW131892   6.165   0.692   3.315
10331SOL    HW231893   6.185   0.587   3.438
10332SOL     OW31894   6.935   2.669   6.085
10332SOL    HW131895   6.989   2.589   6.111
10332SOL    HW231896   6.939   2.737   6.159
10333SOL     OW31897   5.287   4.812   4.425
10333SOL    HW131898   5.228   4.767   4.357
10333SOL    HW231899   5.233   4.831   4.507
10334SOL     OW31900   2.004   4.878   4.263
10334SOL    HW131901   2.007   4.964   4.314
10334SOL    HW231902   1.910   4.854   4.241
10335SOL     OW31903   1.790   5.258   1.586
10335SOL    HW131904   1.844   5.272   1.502
10335SOL    HW231905   1.852   5.244   1.663
10336SOL     OW31906   3.790   6.815   2.647
10336SOL    HW131907   3.697   6.782   2.636
10336SOL    HW231908   3.854   6.749   2.606
10337SOL     OW31909   0.905   4.580   4.777
10337SOL    HW131910   0.805   4.584   4.779
10337SOL    HW231911   0.942   4.616   4.864
10338SOL     OW31912   3.042   6.146   2.862
10338SOL    HW131913   3.089   6.209   2.924
10338SOL    HW231914   3.041   6.186   2.770
10339SOL     OW31915   2.784   5.871   1.397
10339SOL    HW131916   2.831   5.869   1.309
10339SOL    HW231917   2.711   5.939   1.394
10340SOL     OW31918   2.018   0.036   0.791
10340SOL    HW131919   2.002   6.963   0.761
10340SOL    HW231920   2.107   0.041   0.838
10341SOL     OW31921   2.203   1.749   2.572
10341SOL    HW131922   2.290   1.706   2.595
10341SOL    HW231923   2.129   1.706   2.623
10342SOL     OW31924   2.467   6.788   4.890
10342SOL    HW131925   2.423   6.747   4.970
10342SOL    HW231926   2.566   6.792   4.905
10343SOL     OW31927   2.246   3.372   5.233
10343SOL    HW131928   2.206   3.457   5.268
10343SOL    HW231929   2.205   3.349   5.146
10344SOL     OW31930   3.844   4.657   5.308
10344SOL    HW131931   3.827   4.667   5.406
10344SOL    HW231932   3.900   4.733   5.276
10345SOL     OW31933   2.341   1.151   6.210
10345SOL    HW131934   2.249   1.148   6.251
10345SOL    HW231935   2.333   1.149   6.110
10346SOL     OW31936   5.340   5.771   0.168
10346SOL    HW131937   5.284   5.789   0.087
10346SOL    HW231938   5.306   5.826   0.244
10347SOL     OW31939   5.520   1.449   1.788
10347SOL    HW131940   5.481   1.391   1.717
10347SOL    HW231941   5.595   1.400   1.834
10348SOL     OW31942   0.700   6.332   5.488
10348SOL    HW131943   0.712   6.427   5.519
10348SOL    HW231944   0.721   6.327   5.390
10349SOL     OW31945   7.021   1.712   0.727
10349SOL    HW131946   0.062   1.726   0.804
10349SOL    HW231947   6.928   1.737   0.754
10350SOL     OW31948   2.620   5.054   5.031
10350SOL    HW131949   2.698   5.116   5.025
10350SOL    HW231950   2.589   5.032   4.939
10351SOL     OW31951   5.011   4.280   4.682
10351SOL    HW131952   5.016   4.182   4.698
10351SOL    HW231953   4.987   4.327   4.767
10352SOL     OW31954   5.824   2.165   0.208
10352SOL    HW131955   5.730   2.197   0.200
10352SOL    HW231956   5.839   2.129   0.301
10353SOL     OW31957   6.741   2.631   4.024
10353SOL    HW131958   6.807   2.655   3.954
10353SOL    HW231959   6.773   2.551   4.075
10354SOL     OW31960   0.666   3.500   0.644
10354SOL    HW131961   0.683   3.424   0.581
10354SOL    HW231962   0.712   3.582   0.609
10355SOL     OW31963   1.475   1.308   0.780
10355SOL    HW131964   1.418   1.234   0.746
10355SOL    HW231965   1.565   1.273   0.805
10356SOL     OW31966   6.085   3.700   6.288
10356SOL    HW131967   6.169   3.751   6.270
10356SOL    HW231968   6.089   3.662   6.381
10357SOL     OW31969   1.201   2.690   5.868
10357SOL    HW131970   1.156   2.773   5.836
10357SOL    HW231971   1.259   2.654   5.795
10358SOL     OW31972   0.751   2.510   2.267
10358SOL    HW131973   0.679   2.449   2.299
10358SOL    HW231974   0.796   2.552   2.346
10359SOL     OW31975   5.817   1.832   2.295
10359SOL    HW131976   5.840   1.738   2.272
10359SOL    HW231977   5.835   1.848   2.392
10360SOL     OW31978   6.241   4.029   1.836
10360SOL    HW131979   6.217   3.933   1.851
10360SOL    HW231980   6.169   4.074   1.784
10361SOL     OW31981   0.729   1.598   1.479
10361SOL    HW131982   0.739   1.511   1.527
10361SOL    HW231983   0.819   1.636   1.459
10362SOL     OW31984   1.388   5.185   2.006
10362SOL    HW131985   1.346   5.112   2.059
10362SOL    HW231986   1.416   5.150   1.916
10363SOL     OW31987   4.935   4.568   0.072
10363SOL    HW131988   4.966   4.477   0.100
10363SOL    HW231989   4.993   4.638   0.113
10364SOL     OW31990   6.085   4.373   2.513
10364SOL    HW131991   6.120   4.327   2.595
10364SOL    HW231992   6.149   4.444   2.485
10365SOL     OW31993   6.660   6.050   0.510
10365SOL    HW131994   6.573   6.096   0.529
10365SOL    HW231995   6.679   6.055   0.412
10366SOL     OW31996   2.647   6.252   3.447
10366SOL    HW131997   2.610   6.252   3.540
10366SOL    HW231998   2.620   6.168   3.400
10367SOL     OW31999   5.916   1.559   1.266
10367SOL    HW132000   5.817   1.566   1.251
10367SOL    HW232001   5.953   1.489   1.205
10368SOL     OW32002   2.045   5.943   2.392
10368SOL    HW132003   2.007   5.851   2.380
10368SOL    HW232004   1.982   6.010   2.353
10369SOL     OW32005   3.408   0.441   5.937
10369SOL    HW132006   3.397   0.533   5.900
10369SOL    HW232007   3.503   0.411   5.926
10370SOL     OW32008   0.979   1.254   5.361
10370SOL    HW132009   0.887   1.247   5.400
10370SOL    HW232010   1.036   1.180   5.398
10371SOL     OW32011   3.469   5.269   3.129
10371SOL    HW132012   3.406   5.329   3.079
10371SOL    HW232013   3.533   5.325   3.181
10372SOL     OW32014   2.866   6.437   1.568
10372SOL    HW132015   2.961   6.424   1.599
10372SOL    HW232016   2.816   6.351   1.580
10373SOL     OW32017   0.737   1.774   5.478
10373SOL    HW132018   0.720   1.870   5.499
10373SOL    HW232019   0.710   1.755   5.384
10374SOL     OW32020   3.432   6.161   4.762
10374SOL    HW132021   3.378   6.183   4.843
10374SOL    HW232022   3.386   6.090   4.709
10375SOL     OW32023   2.434   3.712   0.339
10375SOL    HW132024   2.393   3.629   0.375
10375SOL    HW232025   2.374   3.752   0.269
10376SOL     OW32026   1.847   4.681   2.819
10376SOL    HW132027   1.799   4.743   2.881
10376SOL    HW232028   1.942   4.709   2.810
10377SOL     OW32029   1.249   0.923   3.243
10377SOL    HW132030   1.225   0.851   3.309
10377SOL    HW232031   1.346   0.914   3.219
10378SOL     OW32032   0.176   4.482   4.278
10378SOL    HW132033   0.177   4.422   4.358
10378SOL    HW232034   0.081   4.498   4.250
10379SOL     OW32035   1.799   6.277   4.575
10379SOL    HW132036   1.835   6.237   4.491
10379SOL    HW232037   1.700   6.283   4.569
10380SOL     OW32038   2.277   2.903   4.675
10380SOL    HW132039   2.266   2.976   4.607
10380SOL    HW232040   2.225   2.823   4.646
10381SOL     OW32041   4.344   4.624   2.189
10381SOL    HW132042   4.367   4.649   2.095
10381SOL    HW232043   4.377   4.532   2.208
10382SOL     OW32044   3.388   5.709   1.714
10382SOL    HW132045   3.288   5.702   1.724
10382SOL    HW232046   3.423   5.625   1.674
10383SOL     OW32047   2.126   4.447   0.499
10383SOL    HW132048   2.036   4.467   0.537
10383SOL    HW232049   2.131   4.350   0.474
10384SOL     OW32050   5.881   6.450   1.723
10384SOL    HW132051   5.783   6.470   1.726
10384SOL    HW232052   5.898   6.376   1.658
10385SOL     OW32053   3.802   4.434   6.947
10385SOL    HW132054   3.826   4.375   6.870
10385SOL    HW232055   3.706   4.420   6.971
10386SOL     OW32056   0.092   0.865   0.460
10386SOL    HW132057   0.013   0.804   0.461
10386SOL    HW232058   0.103   0.908   0.550
10387SOL     OW32059   4.985   2.998   2.201
10387SOL    HW132060   4.891   3.032   2.202
10387SOL    HW232061   4.996   2.931   2.128
10388SOL     OW32062   2.895   0.499   5.837
10388SOL    HW132063   2.838   0.568   5.882
10388SOL    HW232064   2.940   0.443   5.906
10389SOL     OW32065   0.931   3.162   1.028
10389SOL    HW132066   0.959   3.245   1.076
10389SOL    HW232067   0.832   3.161   1.018
10390SOL     OW32068   3.272   2.644   1.253
10390SOL    HW132069   3.279   2.567   1.188
10390SOL    HW232070   3.177   2.672   1.261
10391SOL     OW32071   5.815   6.495   4.237
10391SOL    HW132072   5.731   6.506   4.184
10391SOL    HW232073   5.858   6.409   4.214
10392SOL     OW32074   6.645   5.096   3.819
10392SOL    HW132075   6.587   5.115   3.898
10392SOL    HW232076   6.629   5.003   3.788
10393SOL     OW32077   1.906   4.109   3.761
10393SOL    HW132078   1.856   4.043   3.816
10393SOL    HW232079   1.907   4.078   3.665
10394SOL     OW32080   2.891   5.935   4.233
10394SOL    HW132081   2.983   5.929   4.194
10394SOL    HW232082   2.827   5.884   4.177
10395SOL     OW32083   0.326   6.919   0.407
10395SOL    HW132084   0.331   6.834   0.459
10395SOL    HW232085   0.256   6.978   0.446
10396SOL     OW32086   2.726   1.644   4.559
10396SOL    HW132087   2.701   1.683   4.471
10396SOL    HW232088   2.822   1.615   4.556
10397SOL     OW32089   3.215   2.176   2.713
10397SOL    HW132090   3.270   2.171   2.630
10397SOL    HW232091   3.119   2.190   2.689
10398SOL     OW32092   0.169   3.018   2.049
10398SOL    HW132093   0.158   3.090   1.981
10398SOL    HW232094   0.198   2.933   2.004
10399SOL     OW32095   6.543   3.134   1.927
10399SOL    HW132096   6.511   3.221   1.962
10399SOL    HW232097   6.640   3.123   1.948
10400SOL     OW32098   3.971   6.662   0.491
10400SOL    HW132099   3.975   6.563   0.481
10400SOL    HW232100   4.020   6.705   0.415
10401SOL     OW32101   6.636   0.807   4.278
10401SOL    HW132102   6.719   0.784   4.330
10401SOL    HW232103   6.561   0.824   4.341
10402SOL     OW32104   6.546   2.674   4.569
10402SOL    HW132105   6.524   2.771   4.553
10402SOL    HW232106   6.473   2.617   4.531
10403SOL     OW32107   2.772   0.806   3.647
10403SOL    HW132108   2.828   0.778   3.569
10403SOL    HW232109   2.707   0.734   3.670
10404SOL     OW32110   0.029   0.086   6.091
10404SOL    HW132111   7.008   0.023   6.026
10404SOL    HW232112   0.083   0.155   6.042
10405SOL     OW32113   0.712   1.519   5.619
10405SOL    HW132114   0.727   1.606   5.571
10405SOL    HW232115   0.656   1.536   5.700
10406SOL     OW32116   3.085   4.860   1.584
10406SOL    HW132117   3.052   4.794   1.651
10406SOL    HW232118   3.097   4.815   1.495
10407SOL     OW32119   3.483   6.387   6.307
10407SOL    HW132120   3.521   6.388   6.399
10407SOL    HW232121   3.398   6.334   6.306
10408SOL     OW32122   5.164   0.911   0.427
10408SOL    HW132123   5.095   0.895   0.355
10408SOL    HW232124   5.255   0.904   0.387
10409SOL     OW32125   6.633   4.854   0.449
10409SOL    HW132126   6.611   4.922   0.379
10409SOL    HW232127   6.716   4.881   0.497
10410SOL     OW32128   5.487   1.761   0.338
10410SOL    HW132129   5.425   1.760   0.259
10410SOL    HW232130   5.563   1.824   0.320
10411SOL     OW32131   3.006   5.672   2.928
10411SOL    HW132132   2.969   5.749   2.980
10411SOL    HW232133   3.000   5.589   2.983
10412SOL     OW32134   6.166   1.173   0.519
10412SOL    HW132135   6.233   1.120   0.466
10412SOL    HW232136   6.208   1.203   0.605
10413SOL     OW32137   0.012   1.858   1.604
10413SOL    HW132138   0.090   1.804   1.572
10413SOL    HW232139   6.964   1.798   1.643
10414SOL     OW32140   4.920   3.631   5.565
10414SOL    HW132141   4.961   3.545   5.535
10414SOL    HW232142   4.935   3.643   5.663
10415SOL     OW32143   0.311   5.556   6.009
10415SOL    HW132144   0.272   5.638   6.051
10415SOL    HW232145   0.407   5.572   5.988
10416SOL     OW32146   5.893   2.118   3.901
10416SOL    HW132147   5.895   2.190   3.832
10416SOL    HW232148   5.947   2.146   3.981
10417SOL     OW32149   3.333   5.092   4.530
10417SOL    HW132150   3.304   5.176   4.484
10417SOL    HW232151   3.295   5.091   4.623
10418SOL     OW32152   6.986   4.665   5.610
10418SOL    HW132153   6.939   4.747   5.577
10418SOL    HW232154   6.957   4.586   5.556
10419SOL     OW32155   1.239   0.635   6.679
10419SOL    HW132156   1.242   0.681   6.768
10419SOL    HW232157   1.283   0.546   6.686
10420SOL     OW32158   0.376   3.204   2.621
10420SOL    HW132159   0.289   3.254   2.621
10420SOL    HW232160   0.414   3.205   2.529
10421SOL     OW32161   1.631   1.185   3.186
10421SOL    HW132162   1.594   1.262   3.239
10421SOL    HW232163   1.729   1.179   3.201
10422SOL     OW32164   6.656   2.292   5.520
10422SOL    HW132165   6.745   2.268   5.481
10422SOL    HW232166   6.591   2.219   5.501
10423SOL     OW32167   5.007   4.992   4.491
10423SOL    HW132168   5.016   4.919   4.424
10423SOL    HW232169   5.034   5.079   4.450
10424SOL     OW32170   5.307   1.872   6.939
10424SOL    HW132171   5.230   1.861   6.875
10424SOL    HW232172   5.379   1.924   6.894
10425SOL     OW32173   1.655   0.095   2.593
10425SOL    HW132174   1.679   0.188   2.567
10425SOL    HW232175   1.691   0.075   2.684
10426SOL     OW32176   6.874   3.930   0.867
10426SOL    HW132177   6.841   3.971   0.782
10426SOL    HW232178   6.955   3.875   0.848
10427SOL     OW32179   4.596   1.863   0.056
10427SOL    HW132180   4.678   1.826   0.014
10427SOL    HW232181   4.525   1.793   0.059
10428SOL     OW32182   3.588   1.006   4.738
10428SOL    HW132183   3.685   1.024   4.722
10428SOL    HW232184   3.542   1.091   4.763
10429SOL     OW32185   6.809   5.489   1.490
10429SOL    HW132186   6.865   5.499   1.408
10429SOL    HW232187   6.735   5.424   1.472
10430SOL     OW32188   4.745   0.424   3.120
10430SOL    HW132189   4.838   0.393   3.099
10430SOL    HW232190   4.683   0.395   3.047
10431SOL     OW32191   3.308   0.173   5.849
10431SOL    HW132192   3.224   0.211   5.888
10431SOL    HW232193   3.384   0.236   5.866
10432SOL     OW32194   6.298   0.836   3.864
10432SOL    HW132195   6.294   0.935   3.858
10432SOL    HW232196   6.262   0.796   3.780
10433SOL     OW32197   1.983   6.594   1.642
10433SOL    HW132198   2.050   6.668   1.656
10433SOL    HW232199   1.910   6.603   1.709
10434SOL     OW32200   3.367   0.042   3.362
10434SOL    HW132201   3.425   0.047   3.281
10434SOL    HW232202   3.279   0.086   3.343
10435SOL     OW32203   6.462   6.707   4.915
10435SOL    HW132204   6.518   6.763   4.976
10435SOL    HW232205   6.461   6.612   4.948
10436SOL     OW32206   0.647   5.207   4.633
10436SOL    HW132207   0.702   5.157   4.700
10436SOL    HW232208   0.704   5.226   4.552
10437SOL     OW32209   6.431   5.049   5.560
10437SOL    HW132210   6.471   4.991   5.630
10437SOL    HW232211   6.409   4.994   5.479
10438SOL     OW32212   5.150   6.521   0.125
10438SOL    HW132213   5.248   6.543   0.119
10438SOL    HW232214   5.129   6.447   0.062
10439SOL     OW32215   3.576   1.365   5.769
10439SOL    HW132216   3.652   1.425   5.796
10439SOL    HW232217   3.591   1.333   5.675
10440SOL     OW32218   0.605   6.652   1.113
10440SOL    HW132219   0.611   6.672   1.015
10440SOL    HW232220   0.528   6.592   1.130
10441SOL     OW32221   5.259   1.494   6.646
10441SOL    HW132222   5.293   1.582   6.613
10441SOL    HW232223   5.212   1.507   6.733
10442SOL     OW32224   3.351   5.375   6.024
10442SOL    HW132225   3.323   5.319   6.102
10442SOL    HW232226   3.408   5.451   6.056
10443SOL     OW32227   5.412   3.439   4.547
10443SOL    HW132228   5.480   3.393   4.489
10443SOL    HW232229   5.400   3.533   4.515
10444SOL     OW32230   3.884   5.417   4.825
10444SOL    HW132231   3.862   5.466   4.740
10444SOL    HW232232   3.926   5.329   4.803
10445SOL     OW32233   0.374   4.889   4.184
10445SOL    HW132234   0.456   4.856   4.139
10445SOL    HW232235   0.398   4.932   4.272
10446SOL     OW32236   0.477   4.436   6.500
10446SOL    HW132237   0.467   4.535   6.489
10446SOL    HW232238   0.553   4.417   6.563
10447SOL     OW32239   6.836   1.715   1.755
10447SOL    HW132240   6.741   1.711   1.787
10447SOL    HW232241   6.897   1.733   1.832
10448SOL     OW32242   4.286   3.548   1.238
10448SOL    HW132243   4.311   3.629   1.291
10448SOL    HW232244   4.347   3.472   1.262
10449SOL     OW32245   2.668   5.566   4.335
10449SOL    HW132246   2.761   5.590   4.307
10449SOL    HW232247   2.610   5.554   4.254
10450SOL     OW32248   6.954   2.649   6.897
10450SOL    HW132249   6.966   2.663   6.799
10450SOL    HW232250   6.977   2.733   6.946
10451SOL     OW32251   2.593   4.820   2.855
10451SOL    HW132252   2.685   4.811   2.891
10451SOL    HW232253   2.531   4.760   2.906
10452SOL     OW32254   0.395   3.594   3.523
10452SOL    HW132255   0.444   3.680   3.534
10452SOL    HW232256   0.460   3.519   3.516
10453SOL     OW32257   5.846   5.972   1.502
10453SOL    HW132258   5.825   6.031   1.580
10453SOL    HW232259   5.784   5.994   1.426
10454SOL     OW32260   5.357   3.221   1.622
10454SOL    HW132261   5.433   3.163   1.592
10454SOL    HW232262   5.282   3.163   1.654
10455SOL     OW32263   0.601   5.308   3.604
10455SOL    HW132264   0.624   5.280   3.511
10455SOL    HW232265   0.511   5.351   3.605
10456SOL     OW32266   3.059   5.883   1.599
10456SOL    HW132267   3.058   5.884   1.499
10456SOL    HW232268   3.103   5.799   1.630
10457SOL     OW32269   3.925   4.038   3.774
10457SOL    HW132270   4.008   4.070   3.820
10457SOL    HW232271   3.928   3.938   3.766
10458SOL     OW32272   0.859   0.463   0.209
10458SOL    HW132273   0.764   0.466   0.241
10458SOL    HW232274   0.864   0.500   0.116
10459SOL     OW32275   5.642   5.434   2.321
10459SOL    HW132276   5.733   5.393   2.313
10459SOL    HW232277   5.579   5.391   2.257
10460SOL     OW32278   2.627   5.772   1.957
10460SOL    HW132279   2.595   5.681   1.985
10460SOL    HW232280   2.693   5.762   1.883
10461SOL     OW32281   1.980   6.711   6.728
10461SOL    HW132282   1.948   6.706   6.633
10461SOL    HW232283   1.976   6.806   6.760
10462SOL     OW32284   5.848   0.414   0.949
10462SOL    HW132285   5.773   0.452   0.894
10462SOL    HW232286   5.862   0.472   1.030
10463SOL     OW32287   2.836   4.613   6.687
10463SOL    HW132288   2.766   4.685   6.683
10463SOL    HW232289   2.825   4.561   6.771
10464SOL     OW32290   4.491   0.500   1.387
10464SOL    HW132291   4.402   0.469   1.420
10464SOL    HW232292   4.480   0.587   1.339
10465SOL     OW32293   0.434   5.909   5.756
10465SOL    HW132294   0.361   5.963   5.798
10465SOL    HW232295   0.394   5.848   5.687
10466SOL     OW32296   4.836   5.374   4.913
10466SOL    HW132297   4.863   5.281   4.888
10466SOL    HW232298   4.858   5.436   4.838
10467SOL     OW32299   1.845   1.676   5.931
10467SOL    HW132300   1.915   1.702   5.865
10467SOL    HW232301   1.832   1.577   5.929
10468SOL     OW32302   3.496   6.430   4.412
10468SOL    HW132303   3.546   6.511   4.382
10468SOL    HW232304   3.485   6.433   4.512
10469SOL     OW32305   2.250   3.777   0.965
10469SOL    HW132306   2.217   3.740   0.878
10469SOL    HW232307   2.254   3.703   1.033
10470SOL     OW32308   2.357   1.611   4.335
10470SOL    HW132309   2.312   1.615   4.424
10470SOL    HW232310   2.291   1.584   4.265
10471SOL     OW32311   2.658   4.031   1.632
10471SOL    HW132312   2.703   4.101   1.576
10471SOL    HW232313   2.590   4.074   1.692
10472SOL     OW32314   3.803   7.015   2.467
10472SOL    HW132315   3.783   6.947   2.537
10472SOL    HW232316   3.867   6.976   2.400
10473SOL     OW32317   5.960   6.441   6.975
10473SOL    HW132318   5.896   6.493   6.918
10473SOL    HW232319   5.993   6.500   0.029
10474SOL     OW32320   3.975   0.941   4.484
10474SOL    HW132321   3.923   0.961   4.401
10474SOL    HW232322   3.931   0.865   4.533
10475SOL     OW32323   4.155   6.814   1.454
10475SOL    HW132324   4.112   6.736   1.500
10475SOL    HW232325   4.103   6.836   1.371
10476SOL     OW32326   6.517   5.109   6.313
10476SOL    HW132327   6.566   5.087   6.397
10476SOL    HW232328   6.441   5.171   6.333
10477SOL     OW32329   5.445   4.054   4.658
10477SOL    HW132330   5.364   4.004   4.626
10477SOL    HW232331   5.525   3.994   4.652
10478SOL     OW32332   0.619   6.649   0.636
10478SOL    HW132333   0.626   6.725   0.571
10478SOL    HW232334   0.694   6.585   0.620
10479SOL     OW32335   1.875   3.655   2.279
10479SOL    HW132336   1.847   3.559   2.289
10479SOL    HW232337   1.798   3.715   2.301
10480SOL     OW32338   5.432   6.913   1.968
10480SOL    HW132339   5.362   6.951   2.029
10480SOL    HW232340   5.409   6.818   1.947
10481SOL     OW32341   2.412   1.062   5.287
10481SOL    HW132342   2.342   1.059   5.358
10481SOL    HW232343   2.500   1.036   5.327
10482SOL     OW32344   0.722   6.019   4.717
10482SOL    HW132345   0.656   5.946   4.736
10482SOL    HW232346   0.750   6.013   4.621
10483SOL     OW32347   6.421   5.852   6.825
10483SOL    HW132348   6.437   5.863   6.924
10483SOL    HW232349   6.414   5.942   6.783
10484SOL     OW32350   0.094   1.078   1.461
10484SOL    HW132351   0.073   0.985   1.430
10484SOL    HW232352   0.132   1.130   1.384
10485SOL     OW32353   3.226   3.401   3.025
10485SOL    HW132354   3.323   3.412   3.044
10485SOL    HW232355   3.202   3.451   2.942
10486SOL     OW32356   6.819   6.528   5.412
10486SOL    HW132357   6.750   6.599   5.404
10486SOL    HW232358   6.909   6.566   5.389
10487SOL     OW32359   4.421   2.141   1.975
10487SOL    HW132360   4.352   2.075   2.004
10487SOL    HW232361   4.460   2.186   2.056
10488SOL     OW32362   0.364   2.118   5.824
10488SOL    HW132363   0.327   2.110   5.916
10488SOL    HW232364   0.355   2.212   5.792
10489SOL     OW32365   5.534   4.899   3.417
10489SOL    HW132366   5.558   4.918   3.512
10489SOL    HW232367   5.500   4.983   3.375
10490SOL     OW32368   6.140   0.246   0.554
10490SOL    HW132369   6.186   0.273   0.470
10490SOL    HW232370   6.088   0.323   0.590
10491SOL     OW32371   1.066   3.092   6.553
10491SOL    HW132372   1.148   3.108   6.498
10491SOL    HW232373   1.040   2.996   6.547
10492SOL     OW32374   4.461   0.449   0.733
10492SOL    HW132375   4.486   0.428   0.638
10492SOL    HW232376   4.540   0.432   0.792
10493SOL     OW32377   4.466   5.514   0.961
10493SOL    HW132378   4.552   5.539   1.005
10493SOL    HW232379   4.485   5.461   0.878
10494SOL     OW32380   0.530   4.482   5.562
10494SOL    HW132381   0.532   4.396   5.612
10494SOL    HW232382   0.445   4.531   5.584
10495SOL     OW32383   1.060   6.283   5.817
10495SOL    HW132384   1.091   6.347   5.746
10495SOL    HW232385   0.964   6.302   5.839
10496SOL     OW32386   6.954   3.689   5.405
10496SOL    HW132387   6.915   3.597   5.401
10496SOL    HW232388   6.980   3.719   5.313
10497SOL     OW32389   2.496   0.129   1.542
10497SOL    HW132390   2.486   0.201   1.473
10497SOL    HW232391   2.406   0.102   1.576
10498SOL     OW32392   4.763   5.406   0.838
10498SOL    HW132393   4.787   5.450   0.925
10498SOL    HW232394   4.777   5.471   0.763
10499SOL     OW32395   5.475   5.517   1.810
10499SOL    HW132396   5.492   5.487   1.716
10499SOL    HW232397   5.527   5.461   1.874
10500SOL     OW32398   6.798   3.924   5.155
10500SOL    HW132399   6.733   3.974   5.098
10500SOL    HW232400   6.757   3.837   5.184
10501SOL     OW32401   2.731   5.640   2.636
10501SOL    HW132402   2.813   5.592   2.667
10501SOL    HW232403   2.757   5.723   2.587
10502SOL     OW32404   3.003   3.262   2.796
10502SOL    HW132405   3.050   3.294   2.713
10502SOL    HW232406   2.905   3.277   2.787
10503SOL     OW32407   6.582   3.129   6.526
10503SOL    HW132408   6.540   3.054   6.577
10503SOL    HW232409   6.515   3.203   6.513
10504SOL     OW32410   1.571   2.746   6.262
10504SOL    HW132411   1.648   2.702   6.215
10504SOL    HW232412   1.485   2.716   6.221
10505SOL     OW32413   6.195   6.328   1.625
10505SOL    HW132414   6.280   6.277   1.623
10505SOL    HW232415   6.126   6.282   1.570
10506SOL     OW32416   1.074   2.593   0.288
10506SOL    HW132417   1.029   2.671   0.332
10506SOL    HW232418   1.067   2.512   0.347
10507SOL     OW32419   1.833   5.033   6.947
10507SOL    HW132420   1.816   4.941   6.912
10507SOL    HW232421   1.802   5.039   0.021
10508SOL     OW32422   1.219   5.165   4.824
10508SOL    HW132423   1.145   5.231   4.830
10508SOL    HW232424   1.199   5.099   4.751
10509SOL     OW32425   5.151   3.103   3.420
10509SOL    HW132426   5.140   3.200   3.441
10509SOL    HW232427   5.218   3.093   3.346
10510SOL     OW32428   4.631   5.396   4.639
10510SOL    HW132429   4.571   5.316   4.641
10510SOL    HW232430   4.579   5.476   4.668
10511SOL     OW32431   3.402   2.082   2.516
10511SOL    HW132432   3.454   2.082   2.431
10511SOL    HW232433   3.457   2.041   2.589
10512SOL     OW32434   4.721   0.688   5.043
10512SOL    HW132435   4.708   0.590   5.028
10512SOL    HW232436   4.640   0.725   5.088
10513SOL     OW32437   5.424   3.487   1.637
10513SOL    HW132438   5.347   3.548   1.619
10513SOL    HW232439   5.393   3.392   1.634
10514SOL     OW32440   1.111   3.000   1.775
10514SOL    HW132441   1.182   2.943   1.735
10514SOL    HW232442   1.091   3.077   1.714
10515SOL     OW32443   1.917   3.150   4.453
10515SOL    HW132444   1.932   3.236   4.503
10515SOL    HW232445   1.833   3.107   4.486
10516SOL     OW32446   3.854   2.658   0.445
10516SOL    HW132447   3.879   2.655   0.542
10516SOL    HW232448   3.776   2.597   0.428
10517SOL     OW32449   0.930   3.181   3.482
10517SOL    HW132450   0.833   3.171   3.508
10517SOL    HW232451   0.941   3.261   3.424
10518SOL     OW32452   0.762   5.267   2.388
10518SOL    HW132453   0.798   5.328   2.317
10518SOL    HW232454   0.673   5.231   2.359
10519SOL     OW32455   2.217   6.585   0.996
10519SOL    HW132456   2.120   6.567   1.012
10519SOL    HW232457   2.260   6.615   1.081
10520SOL     OW32458   7.012   1.830   5.617
10520SOL    HW132459   0.010   1.928   5.626
10520SOL    HW232460   6.940   1.804   5.681
10521SOL     OW32461   6.167   3.468   0.743
10521SOL    HW132462   6.266   3.485   0.743
10521SOL    HW232463   6.119   3.555   0.758
10522SOL     OW32464   5.302   2.733   3.205
10522SOL    HW132465   5.263   2.778   3.125
10522SOL    HW232466   5.381   2.785   3.238
10523SOL     OW32467   6.840   4.737   3.588
10523SOL    HW132468   6.772   4.765   3.520
10523SOL    HW232469   6.794   4.713   3.674
10524SOL     OW32470   6.413   6.528   3.883
10524SOL    HW132471   6.507   6.564   3.884
10524SOL    HW232472   6.385   6.510   3.789
10525SOL     OW32473   4.535   1.316   5.155
10525SOL    HW132474   4.621   1.364   5.173
10525SOL    HW232475   4.554   1.231   5.106
10526SOL     OW32476   1.071   5.302   0.509
10526SOL    HW132477   0.973   5.292   0.488
10526SOL    HW232478   1.117   5.348   0.432
10527SOL     OW32479   0.743   0.999   4.920
10527SOL    HW132480   0.754   0.913   4.971
10527SOL    HW232481   0.752   1.076   4.982
10528SOL     OW32482   0.737   4.525   6.246
10528SOL    HW132483   0.673   4.584   6.294
10528SOL    HW232484   0.784   4.466   6.312
10529SOL     OW32485   1.378   6.531   6.543
10529SOL    HW132486   1.315   6.609   6.547
10529SOL    HW232487   1.391   6.493   6.634
10530SOL     OW32488   0.770   6.545   0.352
10530SOL    HW132489   0.846   6.610   0.361
10530SOL    HW232490   0.799   6.455   0.382
10531SOL     OW32491   2.899   2.832   5.559
10531SOL    HW132492   2.815   2.841   5.506
10531SOL    HW232493   2.900   2.742   5.604
10532SOL     OW32494   5.667   5.989   6.628
10532SOL    HW132495   5.645   5.944   6.715
10532SOL    HW232496   5.739   6.057   6.643
10533SOL     OW32497   2.943   5.867   3.147
10533SOL    HW132498   3.036   5.830   3.143
10533SOL    HW232499   2.923   5.896   3.241
10534SOL     OW32500   1.560   5.944   2.854
10534SOL    HW132501   1.594   5.908   2.941
10534SOL    HW232502   1.632   5.939   2.785
10535SOL     OW32503   3.007   1.956   3.340
10535SOL    HW132504   2.937   1.916   3.398
10535SOL    HW232505   3.037   2.043   3.379
10536SOL     OW32506   5.559   1.253   4.207
10536SOL    HW132507   5.646   1.206   4.195
10536SOL    HW232508   5.488   1.206   4.155
10537SOL     OW32509   4.713   0.051   2.804
10537SOL    HW132510   4.615   0.054   2.820
10537SOL    HW232511   4.762   0.070   2.889
10538SOL     OW32512   6.528   2.798   2.477
10538SOL    HW132513   6.495   2.892   2.476
10538SOL    HW232514   6.485   2.749   2.553
10539SOL     OW32515   6.513   6.937   2.934
10539SOL    HW132516   6.493   6.923   2.837
10539SOL    HW232517   6.570   7.018   2.945
10540SOL     OW32518   2.743   3.746   5.909
10540SOL    HW132519   2.713   3.733   5.815
10540SOL    HW232520   2.701   3.676   5.967
10541SOL     OW32521   2.926   3.138   5.142
10541SOL    HW132522   2.991   3.076   5.187
10541SOL    HW232523   2.835   3.125   5.181
10542SOL     OW32524   5.781   6.902   4.208
10542SOL    HW132525   5.867   6.866   4.171
10542SOL    HW232526   5.707   6.883   4.144
10543SOL     OW32527   6.986   2.895   5.454
10543SOL    HW132528   0.013   2.828   5.511
10543SOL    HW232529   0.029   2.969   5.429
10544SOL     OW32530   1.236   1.272   3.875
10544SOL    HW132531   1.258   1.281   3.778
10544SOL    HW232532   1.320   1.265   3.928
10545SOL     OW32533   2.042   2.259   2.856
10545SOL    HW132534   2.029   2.236   2.759
10545SOL    HW232535   2.135   2.294   2.869
10546SOL     OW32536   3.145   6.970   1.226
10546SOL    HW132537   3.170   7.003   1.317
10546SOL    HW232538   3.050   6.996   1.207
10547SOL     OW32539   4.280   6.730   4.965
10547SOL    HW132540   4.195   6.726   4.912
10547SOL    HW232541   4.321   6.821   4.955
10548SOL     OW32542   1.333   4.473   3.903
10548SOL    HW132543   1.331   4.397   3.837
10548SOL    HW232544   1.421   4.520   3.896
10549SOL     OW32545   0.058   1.331   0.760
10549SOL    HW132546   0.023   1.347   0.852
10549SOL    HW232547   7.017   1.372   0.693
10550SOL     OW32548   3.661   6.127   3.158
10550SOL    HW132549   3.755   6.159   3.165
10550SOL    HW232550   3.625   6.149   3.067
10551SOL     OW32551   3.187   1.990   6.088
10551SOL    HW132552   3.228   1.915   6.140
10551SOL    HW232553   3.254   2.029   6.025
10552SOL     OW32554   3.376   0.912   4.554
10552SOL    HW132555   3.463   0.886   4.597
10552SOL    HW232556   3.347   1.001   4.589
10553SOL     OW32557   0.040   5.060   0.735
10553SOL    HW132558   0.061   4.984   0.797
10553SOL    HW232559   0.107   5.062   0.661
10554SOL     OW32560   5.844   4.996   2.822
10554SOL    HW132561   5.804   4.956   2.739
10554SOL    HW232562   5.843   4.928   2.895
10555SOL     OW32563   3.491   2.095   0.336
10555SOL    HW132564   3.549   2.033   0.282
10555SOL    HW232565   3.446   2.160   0.274
10556SOL     OW32566   1.942   2.047   3.037
10556SOL    HW132567   2.012   2.103   2.994
10556SOL    HW232568   1.887   2.104   3.098
10557SOL     OW32569   2.517   4.518   3.690
10557SOL    HW132570   2.461   4.600   3.682
10557SOL    HW232571   2.486   4.450   3.624
10558SOL     OW32572   2.870   5.613   5.909
10558SOL    HW132573   2.857   5.655   5.819
10558SOL    HW232574   2.781   5.599   5.953
10559SOL     OW32575   3.867   7.004   6.208
10559SOL    HW132576   3.845   7.001   6.111
10559SOL    HW232577   3.805   0.046   6.255
10560SOL     OW32578   5.179   6.593   1.735
10560SOL    HW132579   5.147   6.646   1.656
10560SOL    HW232580   5.154   6.497   1.723
10561SOL     OW32581   5.705   4.167   0.245
10561SOL    HW132582   5.631   4.136   0.305
10561SOL    HW232583   5.668   4.195   0.157
10562SOL     OW32584   3.090   6.194   1.675
10562SOL    HW132585   3.122   6.281   1.638
10562SOL    HW232586   3.079   6.127   1.601
10563SOL     OW32587   0.493   0.699   0.375
10563SOL    HW132588   0.535   0.740   0.456
10563SOL    HW232589   0.504   0.760   0.297
10564SOL     OW32590   5.835   5.875   3.957
10564SOL    HW132591   5.781   5.795   3.932
10564SOL    HW232592   5.904   5.893   3.888
10565SOL     OW32593   7.009   0.123   5.227
10565SOL    HW132594   0.062   0.163   5.174
10565SOL    HW232595   6.996   0.028   5.199
10566SOL     OW32596   2.562   2.659   0.215
10566SOL    HW132597   2.640   2.720   0.227
10566SOL    HW232598   2.553   2.601   0.296
10567SOL     OW32599   1.204   1.871   6.276
10567SOL    HW132600   1.259   1.792   6.302
10567SOL    HW232601   1.109   1.843   6.264
10568SOL     OW32602   5.432   2.371   6.127
10568SOL    HW132603   5.503   2.301   6.131
10568SOL    HW232604   5.342   2.327   6.133
10569SOL     OW32605   5.297   6.844   1.366
10569SOL    HW132606   5.286   6.812   1.272
10569SOL    HW232607   5.236   6.921   1.382
10570SOL     OW32608   0.870   5.105   4.215
10570SOL    HW132609   0.946   5.118   4.279
10570SOL    HW232610   0.825   5.018   4.235
10571SOL     OW32611   0.198   4.167   5.706
10571SOL    HW132612   0.266   4.149   5.777
10571SOL    HW232613   0.212   4.103   5.630
10572SOL     OW32614   6.327   4.428   1.398
10572SOL    HW132615   6.303   4.364   1.325
10572SOL    HW232616   6.425   4.445   1.396
10573SOL     OW32617   5.469   0.755   3.501
10573SOL    HW132618   5.476   0.702   3.586
10573SOL    HW232619   5.426   0.843   3.520
10574SOL     OW32620   0.196   1.692   3.838
10574SOL    HW132621   0.116   1.734   3.881
10574SOL    HW232622   0.272   1.756   3.839
10575SOL     OW32623   6.055   0.895   1.639
10575SOL    HW132624   6.034   0.863   1.547
10575SOL    HW232625   6.109   0.825   1.686
10576SOL     OW32626   2.273   5.019   3.740
10576SOL    HW132627   2.275   5.007   3.840
10576SOL    HW232628   2.353   5.071   3.711
10577SOL     OW32629   4.092   6.367   0.578
10577SOL    HW132630   4.184   6.387   0.614
10577SOL    HW232631   4.094   6.283   0.524
10578SOL     OW32632   0.097   2.499   3.929
10578SOL    HW132633   0.044   2.426   3.887
10578SOL    HW232634   0.073   2.506   4.026
10579SOL     OW32635   1.996   3.671   1.436
10579SOL    HW132636   1.911   3.711   1.403
10579SOL    HW232637   2.073   3.729   1.410
10580SOL     OW32638   6.664   6.716   6.129
10580SOL    HW132639   6.721   6.634   6.133
10580SOL    HW232640   6.583   6.698   6.074
10581SOL     OW32641   5.558   6.938   2.650
10581SOL    HW132642   5.503   6.993   2.713
10581SOL    HW232643   5.512   6.932   2.562
10582SOL     OW32644   5.654   4.402   6.615
10582SOL    HW132645   5.752   4.386   6.624
10582SOL    HW232646   5.604   4.331   6.665
10583SOL     OW32647   2.725   0.723   4.592
10583SOL    HW132648   2.753   0.707   4.687
10583SOL    HW232649   2.727   0.636   4.543
10584SOL     OW32650   0.273   0.002   5.198
10584SOL    HW132651   0.322   0.089   5.198
10584SOL    HW232652   0.262   6.991   5.292
10585SOL     OW32653   0.562   0.673   5.672
10585SOL    HW132654   0.598   0.662   5.579
10585SOL    HW232655   0.488   0.607   5.687
10586SOL     OW32656   4.420   4.606   5.450
10586SOL    HW132657   4.479   4.557   5.514
10586SOL    HW232658   4.346   4.545   5.419
10587SOL     OW32659   0.984   5.708   5.600
10587SOL    HW132660   1.050   5.637   5.623
10587SOL    HW232661   1.029   5.797   5.599
10588SOL     OW32662   1.309   4.454   4.469
10588SOL    HW132663   1.305   4.544   4.427
10588SOL    HW232664   1.399   4.439   4.508
10589SOL     OW32665   5.379   6.398   3.297
10589SOL    HW132666   5.307   6.328   3.305
10589SOL    HW232667   5.468   6.356   3.315
10590SOL     OW32668   0.468   5.464   2.725
10590SOL    HW132669   0.525   5.481   2.645
10590SOL    HW232670   0.452   5.549   2.775
10591SOL     OW32671   1.460   1.799   1.927
10591SOL    HW132672   1.408   1.881   1.950
10591SOL    HW232673   1.516   1.816   1.847
10592SOL     OW32674   5.991   2.372   5.578
10592SOL    HW132675   5.949   2.445   5.633
10592SOL    HW232676   5.980   2.393   5.481
10593SOL     OW32677   2.898   6.119   1.969
10593SOL    HW132678   2.884   6.212   1.936
10593SOL    HW232679   2.992   6.110   2.002
10594SOL     OW32680   3.123   0.271   3.637
10594SOL    HW132681   3.026   0.244   3.634
10594SOL    HW232682   3.156   0.285   3.543
10595SOL     OW32683   6.320   0.030   0.993
10595SOL    HW132684   6.342   6.969   1.047
10595SOL    HW232685   6.331   0.111   1.050
10596SOL     OW32686   4.978   1.463   6.838
10596SOL    HW132687   4.895   1.409   6.851
10596SOL    HW232688   4.975   1.509   6.749
10597SOL     OW32689   2.563   0.395   6.017
10597SOL    HW132690   2.475   0.368   6.056
10597SOL    HW232691   2.553   0.483   5.970
10598SOL     OW32692   2.536   1.605   6.022
10598SOL    HW132693   2.588   1.678   6.066
10598SOL    HW232694   2.470   1.567   6.087
10599SOL     OW32695   6.685   3.606   6.298
10599SOL    HW132696   6.746   3.528   6.284
10599SOL    HW232697   6.608   3.600   6.235
10600SOL     OW32698   2.854   2.102   1.464
10600SOL    HW132699   2.898   2.137   1.546
10600SOL    HW232700   2.873   2.004   1.455
10601SOL     OW32701   0.381   6.423   5.699
10601SOL    HW132702   0.449   6.355   5.727
10601SOL    HW232703   0.417   6.515   5.717
10602SOL     OW32704   0.588   0.454   0.214
10602SOL    HW132705   0.549   0.365   0.238
10602SOL    HW232706   0.514   0.521   0.204
10603SOL     OW32707   4.774   6.534   1.906
10603SOL    HW132708   4.857   6.557   1.957
10603SOL    HW232709   4.714   6.477   1.963
10604SOL     OW32710   6.991   0.361   4.587
10604SOL    HW132711   0.021   0.379   4.672
10604SOL    HW232712   0.020   0.295   4.532
10605SOL     OW32713   2.464   1.213   1.073
10605SOL    HW132714   2.484   1.311   1.064
10605SOL    HW232715   2.527   1.173   1.139
10606SOL     OW32716   6.670   0.859   1.127
10606SOL    HW132717   6.586   0.909   1.108
10606SOL    HW232718   6.697   0.807   1.046
10607SOL     OW32719   3.978   4.376   6.252
10607SOL    HW132720   4.015   4.467   6.270
10607SOL    HW232721   3.888   4.367   6.296
10608SOL     OW32722   6.020   3.330   2.904
10608SOL    HW132723   6.027   3.421   2.864
10608SOL    HW232724   5.934   3.322   2.955
10609SOL     OW32725   4.658   0.905   0.124
10609SOL    HW132726   4.604   0.843   0.067
10609SOL    HW232727   4.741   0.931   0.075
10610SOL     OW32728   0.630   1.326   4.071
10610SOL    HW132729   0.573   1.406   4.090
10610SOL    HW232730   0.661   1.330   3.976
10611SOL     OW32731   2.779   5.468   5.423
10611SOL    HW132732   2.839   5.388   5.431
10611SOL    HW232733   2.683   5.437   5.425
10612SOL     OW32734   5.380   1.593   3.752
10612SOL    HW132735   5.364   1.503   3.790
10612SOL    HW232736   5.394   1.586   3.653
10613SOL     OW32737   6.169   6.907   4.175
10613SOL    HW132738   6.098   6.839   4.157
10613SOL    HW232739   6.214   6.888   4.262
10614SOL     OW32740   5.102   0.224   6.537
10614SOL    HW132741   5.110   0.251   6.633
10614SOL    HW232742   5.005   0.209   6.515
10615SOL     OW32743   2.200   2.215   6.411
10615SOL    HW132744   2.107   2.180   6.424
10615SOL    HW232745   2.197   2.295   6.351
10616SOL     OW32746   2.470   6.502   6.498
10616SOL    HW132747   2.391   6.500   6.437
10616SOL    HW232748   2.509   6.411   6.505
10617SOL     OW32749   2.555   3.334   1.422
10617SOL    HW132750   2.515   3.424   1.438
10617SOL    HW232751   2.513   3.293   1.341
10618SOL     OW32752   0.661   5.387   4.865
10618SOL    HW132753   0.578   5.402   4.810
10618SOL    HW232754   0.690   5.474   4.906
10619SOL     OW32755   1.298   1.607   3.072
10619SOL    HW132756   1.313   1.705   3.084
10619SOL    HW232757   1.221   1.577   3.129
10620SOL     OW32758   2.889   0.361   6.569
10620SOL    HW132759   2.866   0.451   6.533
10620SOL    HW232760   2.932   0.306   6.497
10621SOL     OW32761   1.108   3.732   3.293
10621SOL    HW132762   1.010   3.714   3.302
10621SOL    HW232763   1.122   3.828   3.268
10622SOL     OW32764   4.289   3.328   0.284
10622SOL    HW132765   4.313   3.425   0.288
10622SOL    HW232766   4.225   3.306   0.358
10623SOL     OW32767   5.655   5.997   6.929
10623SOL    HW132768   5.714   6.039   6.998
10623SOL    HW232769   5.568   5.972   6.970
10624SOL     OW32770   0.306   2.363   5.338
10624SOL    HW132771   0.322   2.337   5.433
10624SOL    HW232772   0.357   2.302   5.277
10625SOL     OW32773   6.471   4.063   6.520
10625SOL    HW132774   6.515   4.030   6.437
10625SOL    HW232775   6.374   4.035   6.520
10626SOL     OW32776   4.674   3.515   1.178
10626SOL    HW132777   4.701   3.512   1.082
10626SOL    HW232778   4.624   3.432   1.201
10627SOL     OW32779   5.526   6.293   5.770
10627SOL    HW132780   5.623   6.310   5.756
10627SOL    HW232781   5.507   6.196   5.756
10628SOL     OW32782   4.754   0.733   0.814
10628SOL    HW132783   4.788   0.759   0.904
10628SOL    HW232784   4.813   0.662   0.775
10629SOL     OW32785   3.579   5.486   4.890
10629SOL    HW132786   3.515   5.483   4.813
10629SOL    HW232787   3.654   5.549   4.868
10630SOL     OW32788   4.483   0.198   2.981
10630SOL    HW132789   4.423   0.276   2.997
10630SOL    HW232790   4.519   0.164   3.068
10631SOL     OW32791   4.777   5.948   0.268
10631SOL    HW132792   4.793   5.961   0.366
10631SOL    HW232793   4.749   5.853   0.252
10632SOL     OW32794   4.683   5.431   3.107
10632SOL    HW132795   4.609   5.364   3.098
10632SOL    HW232796   4.755   5.394   3.166
10633SOL     OW32797   1.985   2.818   2.182
10633SOL    HW132798   1.987   2.718   2.186
10633SOL    HW232799   2.075   2.854   2.209
10634SOL     OW32800   0.499   4.457   6.900
10634SOL    HW132801   0.573   4.525   6.902
10634SOL    HW232802   0.423   4.494   6.847
10635SOL     OW32803   2.404   3.323   7.006
10635SOL    HW132804   2.409   3.325   0.085
10635SOL    HW232805   2.484   3.369   6.968
10636SOL     OW32806   6.660   1.952   6.173
10636SOL    HW132807   6.662   1.927   6.270
10636SOL    HW232808   6.628   2.046   6.164
10637SOL     OW32809   3.404   6.744   6.717
10637SOL    HW132810   3.323   6.697   6.680
10637SOL    HW232811   3.388   6.765   6.813
10638SOL     OW32812   0.218   5.179   1.798
10638SOL    HW132813   0.264   5.109   1.743
10638SOL    HW232814   0.208   5.263   1.744
10639SOL     OW32815   1.912   3.845   1.657
10639SOL    HW132816   1.983   3.822   1.724
10639SOL    HW232817   1.926   3.791   1.574
10640SOL     OW32818   4.538   6.905   3.346
10640SOL    HW132819   4.517   6.860   3.259
10640SOL    HW232820   4.499   6.853   3.421
10641SOL     OW32821   0.660   0.400   3.394
10641SOL    HW132822   0.701   0.369   3.308
10641SOL    HW232823   0.566   0.430   3.377
10642SOL     OW32824   5.689   2.159   6.659
10642SOL    HW132825   5.711   2.190   6.752
10642SOL    HW232826   5.667   2.237   6.602
10643SOL     OW32827   1.930   5.048   5.420
10643SOL    HW132828   2.019   5.004   5.405
10643SOL    HW232829   1.894   5.020   5.509
10644SOL     OW32830   0.094   2.333   2.517
10644SOL    HW132831   0.119   2.385   2.436
10644SOL    HW232832   0.006   2.288   2.503
10645SOL     OW32833   2.230   2.958   2.903
10645SOL    HW132834   2.175   2.882   2.869
10645SOL    HW232835   2.239   2.951   3.002
10646SOL     OW32836   5.121   1.026   4.075
10646SOL    HW132837   5.084   0.979   4.155
10646SOL    HW232838   5.046   1.050   4.013
10647SOL     OW32839   3.905   4.937   4.898
10647SOL    HW132840   3.951   4.912   4.814
10647SOL    HW232841   3.807   4.948   4.881
10648SOL     OW32842   5.876   5.005   4.994
10648SOL    HW132843   5.960   4.951   4.987
10648SOL    HW232844   5.897   5.101   4.973
10649SOL     OW32845   0.263   3.102   2.947
10649SOL    HW132846   0.212   3.022   2.978
10649SOL    HW232847   0.306   3.146   3.026
10650SOL     OW32848   6.541   0.566   4.172
10650SOL    HW132849   6.545   0.504   4.251
10650SOL    HW232850   6.590   0.650   4.194
10651SOL     OW32851   5.185   6.054   5.921
10651SOL    HW132852   5.253   6.050   5.848
10651SOL    HW232853   5.121   5.978   5.911
10652SOL     OW32854   1.706   6.926   6.411
10652SOL    HW132855   1.631   6.861   6.425
10652SOL    HW232856   1.700   6.965   6.320
10653SOL     OW32857   3.633   6.211   4.340
10653SOL    HW132858   3.687   6.166   4.410
10653SOL    HW232859   3.589   6.293   4.378
10654SOL     OW32860   5.541   1.092   4.694
10654SOL    HW132861   5.443   1.089   4.673
10654SOL    HW232862   5.592   1.043   4.623
10655SOL     OW32863   1.338   4.460   1.488
10655SOL    HW132864   1.298   4.545   1.522
10655SOL    HW232865   1.344   4.464   1.388
10656SOL     OW32866   6.569   1.658   1.816
10656SOL    HW132867   6.523   1.638   1.729
10656SOL    HW232868   6.571   1.575   1.872
10657SOL     OW32869   5.789   0.449   3.961
10657SOL    HW132870   5.802   0.460   3.862
10657SOL    HW232871   5.693   0.465   3.984
10658SOL     OW32872   6.030   3.814   4.579
10658SOL    HW132873   6.129   3.806   4.580
10658SOL    HW232874   6.004   3.907   4.551
10659SOL     OW32875   0.936   4.867   1.262
10659SOL    HW132876   0.909   4.790   1.205
10659SOL    HW232877   0.864   4.936   1.262
10660SOL     OW32878   6.382   3.392   5.402
10660SOL    HW132879   6.376   3.293   5.411
10660SOL    HW232880   6.366   3.435   5.491
10661SOL     OW32881   1.235   4.055   6.810
10661SOL    HW132882   1.216   4.087   6.903
10661SOL    HW232883   1.321   4.004   6.809
10662SOL     OW32884   2.871   1.509   3.319
10662SOL    HW132885   2.962   1.547   3.338
10662SOL    HW232886   2.803   1.558   3.374
10663SOL     OW32887   1.980   1.208   3.653
10663SOL    HW132888   1.900   1.268   3.645
10663SOL    HW232889   1.952   1.119   3.689
10664SOL     OW32890   1.251   5.589   4.584
10664SOL    HW132891   1.185   5.664   4.592
10664SOL    HW232892   1.316   5.610   4.511
10665SOL     OW32893   1.979   3.332   6.195
10665SOL    HW132894   2.004   3.282   6.113
10665SOL    HW232895   1.942   3.268   6.263
10666SOL     OW32896   3.814   3.436   2.150
10666SOL    HW132897   3.861   3.505   2.094
10666SOL    HW232898   3.754   3.381   2.093
10667SOL     OW32899   5.663   2.206   2.816
10667SOL    HW132900   5.627   2.116   2.794
10667SOL    HW232901   5.605   2.276   2.775
10668SOL     OW32902   3.124   2.177   5.344
10668SOL    HW132903   3.116   2.229   5.429
10668SOL    HW232904   3.165   2.235   5.274
10669SOL     OW32905   5.496   0.995   1.173
10669SOL    HW132906   5.486   0.918   1.111
10669SOL    HW232907   5.586   1.036   1.160
10670SOL     OW32908   4.919   3.602   4.242
10670SOL    HW132909   4.958   3.589   4.151
10670SOL    HW232910   4.884   3.514   4.275
10671SOL     OW32911   1.000   1.898   4.014
10671SOL    HW132912   1.081   1.839   4.020
10671SOL    HW232913   0.999   1.961   4.091
10672SOL     OW32914   6.127   4.007   1.215
10672SOL    HW132915   6.054   3.966   1.161
10672SOL    HW232916   6.099   4.013   1.311
10673SOL     OW32917   1.756   0.849   1.280
10673SOL    HW132918   1.732   0.787   1.354
10673SOL    HW232919   1.741   0.804   1.192
10674SOL     OW32920   3.986   3.202   4.428
10674SOL    HW132921   4.062   3.223   4.490
10674SOL    HW232922   4.022   3.165   4.342
10675SOL     OW32923   3.569   1.347   6.273
10675SOL    HW132924   3.494   1.300   6.320
10675SOL    HW232925   3.542   1.442   6.255
10676SOL     OW32926   1.102   5.936   5.466
10676SOL    HW132927   1.049   6.021   5.472
10676SOL    HW232928   1.167   5.932   5.542
10677SOL     OW32929   0.808   1.978   0.557
10677SOL    HW132930   0.884   1.913   0.564
10677SOL    HW232931   0.730   1.933   0.513
10678SOL     OW32932   4.181   5.285   3.786
10678SOL    HW132933   4.267   5.234   3.783
10678SOL    HW232934   4.143   5.294   3.694
10679SOL     OW32935   3.783   4.632   0.244
10679SOL    HW132936   3.805   4.688   0.163
10679SOL    HW232937   3.731   4.688   0.309
10680SOL     OW32938   3.429   1.703   4.304
10680SOL    HW132939   3.451   1.611   4.271
10680SOL    HW232940   3.460   1.713   4.399
10681SOL     OW32941   6.294   3.247   6.369
10681SOL    HW132942   6.264   3.337   6.338
10681SOL    HW232943   6.243   3.176   6.320
10682SOL     OW32944   5.978   3.107   4.729
10682SOL    HW132945   5.924   3.181   4.768
10682SOL    HW232946   6.002   3.130   4.635
10683SOL     OW32947   4.281   0.041   3.633
10683SOL    HW132948   4.272   0.055   3.731
10683SOL    HW232949   4.352   6.994   3.615
10684SOL     OW32950   5.323   4.745   0.957
10684SOL    HW132951   5.331   4.754   1.056
10684SOL    HW232952   5.388   4.677   0.924
10685SOL     OW32953   0.226   5.344   2.063
10685SOL    HW132954   0.204   5.277   2.133
10685SOL    HW232955   0.194   5.311   1.974
10686SOL     OW32956   2.106   3.899   6.940
10686SOL    HW132957   2.172   3.955   6.889
10686SOL    HW232958   2.027   3.955   6.965
10687SOL     OW32959   6.678   4.428   3.044
10687SOL    HW132960   6.754   4.448   3.107
10687SOL    HW232961   6.708   4.365   2.973
10688SOL     OW32962   5.486   1.100   1.800
10688SOL    HW132963   5.520   1.060   1.885
10688SOL    HW232964   5.501   1.036   1.724
10689SOL     OW32965   0.522   0.467   1.776
10689SOL    HW132966   0.615   0.503   1.763
10689SOL    HW232967   0.481   0.507   1.857
10690SOL     OW32968   6.721   5.533   3.586
10690SOL    HW132969   6.653   5.541   3.659
10690SOL    HW232970   6.678   5.553   3.498
10691SOL     OW32971   3.158   1.950   2.437
10691SOL    HW132972   3.252   1.976   2.418
10691SOL    HW232973   3.096   2.024   2.409
10692SOL     OW32974   2.865   0.676   4.811
10692SOL    HW132975   2.908   0.737   4.877
10692SOL    HW232976   2.917   0.591   4.805
10693SOL     OW32977   0.709   6.131   1.412
10693SOL    HW132978   0.793   6.182   1.393
10693SOL    HW232979   0.725   6.068   1.488
10694SOL     OW32980   4.917   6.202   6.020
10694SOL    HW132981   4.826   6.184   5.983
10694SOL    HW232982   4.983   6.138   5.981
10695SOL     OW32983   1.392   3.030   1.418
10695SOL    HW132984   1.424   3.097   1.484
10695SOL    HW232985   1.425   3.055   1.327
10696SOL     OW32986   6.215   3.835   5.012
10696SOL    HW132987   6.195   3.840   4.914
10696SOL    HW232988   6.225   3.928   5.048
10697SOL     OW32989   0.789   6.328   5.240
10697SOL    HW132990   0.773   6.386   5.159
10697SOL    HW232991   0.818   6.237   5.211
10698SOL     OW32992   4.662   4.118   7.014
10698SOL    HW132993   4.738   4.053   7.016
10698SOL    HW232994   4.693   4.204   6.972
10699SOL     OW32995   3.633   4.600   0.692
10699SOL    HW132996   3.669   4.547   0.768
10699SOL    HW232997   3.672   4.566   0.606
10700SOL     OW32998   6.176   6.685   0.718
10700SOL    HW132999   6.226   6.748   0.659
10700SOL    HW233000   6.205   6.697   0.813
10701SOL     OW33001   3.175   0.373   6.500
10701SOL    HW133002   3.183   0.443   6.572
10701SOL    HW233003   3.133   0.414   6.419
10702SOL     OW33004   5.109   3.051   2.745
10702SOL    HW133005   5.024   3.101   2.732
10702SOL    HW233006   5.136   3.006   2.660
10703SOL     OW33007   2.215   2.871   5.417
10703SOL    HW133008   2.119   2.844   5.425
10703SOL    HW233009   2.222   2.954   5.361
10704SOL     OW33010   6.638   5.406   2.874
10704SOL    HW133011   6.674   5.329   2.821
10704SOL    HW233012   6.639   5.488   2.818
10705SOL     OW33013   5.956   4.592   0.897
10705SOL    HW133014   5.913   4.665   0.845
10705SOL    HW233015   6.042   4.565   0.852
10706SOL     OW33016   4.771   6.975   1.710
10706SOL    HW133017   4.700   6.995   1.643
10706SOL    HW233018   4.856   6.951   1.663
10707SOL     OW33019   6.535   6.666   4.170
10707SOL    HW133020   6.613   6.707   4.122
10707SOL    HW233021   6.487   6.738   4.220
10708SOL     OW33022   4.973   1.455   2.027
10708SOL    HW133023   4.918   1.484   2.105
10708SOL    HW233024   4.913   1.413   1.958
10709SOL     OW33025   5.736   5.387   3.775
10709SOL    HW133026   5.792   5.470   3.777
10709SOL    HW233027   5.654   5.404   3.719
10710SOL     OW33028   5.728   0.217   3.537
10710SOL    HW133029   5.819   0.194   3.502
10710SOL    HW233030   5.688   0.136   3.580
10711SOL     OW33031   2.537   0.098   3.502
10711SOL    HW133032   2.540   0.027   3.573
10711SOL    HW233033   2.629   0.134   3.487
10712SOL     OW33034   4.209   0.618   3.005
10712SOL    HW133035   4.144   0.594   2.932
10712SOL    HW233036   4.302   0.608   2.971
10713SOL     OW33037   1.193   2.718   0.621
10713SOL    HW133038   1.175   2.810   0.585
10713SOL    HW233039   1.107   2.676   0.650
10714SOL     OW33040   4.379   3.156   5.358
10714SOL    HW133041   4.343   3.131   5.447
10714SOL    HW233042   4.376   3.256   5.347
10715SOL     OW33043   4.618   0.111   2.390
10715SOL    HW133044   4.591   0.045   2.461
10715SOL    HW233045   4.714   0.136   2.403
10716SOL     OW33046   6.565   2.474   3.108
10716SOL    HW133047   6.608   2.464   3.197
10716SOL    HW233048   6.617   2.539   3.052
10717SOL     OW33049   1.898   2.923   1.036
10717SOL    HW133050   1.824   2.868   1.074
10717SOL    HW233051   1.863   2.977   0.959
10718SOL     OW33052   0.929   4.458   6.448
10718SOL    HW133053   0.901   4.371   6.406
10718SOL    HW233054   1.028   4.467   6.443
10719SOL     OW33055   6.036   5.997   3.400
10719SOL    HW133056   6.002   5.977   3.307
10719SOL    HW233057   5.968   6.051   3.449
10720SOL     OW33058   5.895   5.108   4.019
10720SOL    HW133059   5.843   5.099   3.934
10720SOL    HW233060   5.976   5.165   4.002
10721SOL     OW33061   5.229   4.171   5.237
10721SOL    HW133062   5.228   4.218   5.325
10721SOL    HW233063   5.234   4.238   5.163
10722SOL     OW33064   6.105   4.233   0.138
10722SOL    HW133065   6.182   4.297   0.133
10722SOL    HW233066   6.054   4.248   0.223
10723SOL     OW33067   6.695   1.903   6.780
10723SOL    HW133068   6.794   1.918   6.786
10723SOL    HW233069   6.649   1.953   6.854
10724SOL     OW33070   0.274   6.572   6.279
10724SOL    HW133071   0.369   6.539   6.273
10724SOL    HW233072   0.212   6.494   6.279
10725SOL     OW33073   2.331   6.074   5.285
10725SOL    HW133074   2.288   6.163   5.269
10725SOL    HW233075   2.261   6.003   5.287
10726SOL     OW33076   4.744   0.500   4.212
10726SOL    HW133077   4.672   0.560   4.247
10726SOL    HW233078   4.797   0.463   4.288
10727SOL     OW33079   0.138   5.354   5.902
10727SOL    HW133080   0.184   5.267   5.915
10727SOL    HW233081   0.189   5.426   5.948
10728SOL     OW33082   0.655   5.179   6.841
10728SOL    HW133083   0.559   5.150   6.837
10728SOL    HW233084   0.664   5.259   6.900
10729SOL     OW33085   6.453   1.363   2.293
10729SOL    HW133086   6.538   1.311   2.289
10729SOL    HW233087   6.402   1.349   2.208
10730SOL     OW33088   3.193   6.935   0.953
10730SOL    HW133089   3.278   6.885   0.934
10730SOL    HW233090   3.170   6.925   1.050
10731SOL     OW33091   3.517   0.625   0.840
10731SOL    HW133092   3.466   0.583   0.764
10731SOL    HW233093   3.465   0.613   0.925
10732SOL     OW33094   0.616   4.786   5.739
10732SOL    HW133095   0.678   4.863   5.754
10732SOL    HW233096   0.668   4.710   5.700
10733SOL     OW33097   6.142   1.655   6.665
10733SOL    HW133098   6.233   1.667   6.628
10733SOL    HW233099   6.148   1.622   6.759
10734SOL     OW33100   1.647   1.085   0.421
10734SOL    HW133101   1.584   1.161   0.406
10734SOL    HW233102   1.723   1.091   0.356
10735SOL     OW33103   0.961   2.797   2.643
10735SOL    HW133104   1.023   2.856   2.592
10735SOL    HW233105   0.965   2.820   2.741
10736SOL     OW33106   1.424   0.589   3.392
10736SOL    HW133107   1.418   0.547   3.483
10736SOL    HW233108   1.518   0.585   3.359
10737SOL     OW33109   1.143   1.908   1.058
10737SOL    HW133110   1.128   1.983   1.124
10737SOL    HW233111   1.113   1.937   0.967
10738SOL     OW33112   2.941   6.473   2.285
10738SOL    HW133113   2.871   6.408   2.312
10738SOL    HW233114   2.902   6.565   2.284
10739SOL     OW33115   2.007   1.233   1.461
10739SOL    HW133116   2.103   1.247   1.435
10739SOL    HW233117   1.949   1.248   1.381
10740SOL     OW33118   0.042   5.059   5.474
10740SOL    HW133119   0.123   5.002   5.483
10740SOL    HW233120   0.032   5.116   5.555
10741SOL     OW33121   4.268   1.098   1.653
10741SOL    HW133122   4.309   1.080   1.742
10741SOL    HW233123   4.172   1.124   1.666
10742SOL     OW33124   6.236   0.080   1.304
10742SOL    HW133125   6.279   0.164   1.270
10742SOL    HW233126   6.159   0.103   1.363
10743SOL     OW33127   1.616   2.517   5.792
10743SOL    HW133128   1.700   2.501   5.741
10743SOL    HW233129   1.545   2.456   5.758
10744SOL     OW33130   3.438   1.209   0.492
10744SOL    HW133131   3.451   1.135   0.558
10744SOL    HW233132   3.493   1.191   0.411
10745SOL     OW33133   6.775   5.751   5.860
10745SOL    HW133134   6.798   5.830   5.917
10745SOL    HW233135   6.824   5.671   5.892
10746SOL     OW33136   1.391   4.176   0.561
10746SOL    HW133137   1.421   4.120   0.484
10746SOL    HW233138   1.293   4.162   0.575
10747SOL     OW33139   3.578   1.440   4.958
10747SOL    HW133140   3.678   1.437   4.948
10747SOL    HW233141   3.548   1.535   4.968
10748SOL     OW33142   5.369   0.727   1.233
10748SOL    HW133143   5.436   0.742   1.305
10748SOL    HW233144   5.285   0.778   1.254
10749SOL     OW33145   0.076   5.954   3.916
10749SOL    HW133146   0.069   6.033   3.855
10749SOL    HW233147   7.012   5.901   3.914
10750SOL     OW33148   3.805   6.778   4.921
10750SOL    HW133149   3.843   6.688   4.898
10750SOL    HW233150   3.760   6.817   4.841
10751SOL     OW33151   1.783   4.656   4.014
10751SOL    HW133152   1.784   4.707   3.928
10751SOL    HW233153   1.865   4.599   4.020
10752SOL     OW33154   6.059   4.729   4.911
10752SOL    HW133155   6.010   4.652   4.952
10752SOL    HW233156   6.000   4.774   4.844
10753SOL     OW33157   6.232   4.647   4.242
10753SOL    HW133158   6.181   4.681   4.322
10753SOL    HW233159   6.223   4.548   4.238
10754SOL     OW33160   0.796   6.805   3.417
10754SOL    HW133161   0.887   6.766   3.400
10754SOL    HW233162   0.805   6.900   3.446
10755SOL     OW33163   6.823   0.294   0.782
10755SOL    HW133164   6.799   0.238   0.861
10755SOL    HW233165   6.885   0.367   0.811
10756SOL     OW33166   6.864   5.312   5.782
10756SOL    HW133167   6.931   5.276   5.718
10756SOL    HW233168   6.895   5.402   5.815
10757SOL     OW33169   1.632   2.508   6.965
10757SOL    HW133170   1.549   2.459   6.941
10757SOL    HW233171   1.697   2.445   7.007
10758SOL     OW33172   0.983   6.261   4.088
10758SOL    HW133173   1.036   6.286   4.170
10758SOL    HW233174   0.899   6.315   4.085
10759SOL     OW33175   2.090   3.787   0.692
10759SOL    HW133176   2.118   3.875   0.652
10759SOL    HW233177   2.074   3.721   0.618
10760SOL     OW33178   5.885   0.529   3.396
10760SOL    HW133179   5.900   0.456   3.330
10760SOL    HW233180   5.969   0.582   3.407
10761SOL     OW33181   0.288   5.541   5.650
10761SOL    HW133182   0.304   5.446   5.620
10761SOL    HW233183   0.276   5.599   5.569
10762SOL     OW33184   2.818   1.189   4.765
10762SOL    HW133185   2.895   1.125   4.766
10762SOL    HW233186   2.748   1.154   4.703
10763SOL     OW33187   3.549   6.668   2.573
10763SOL    HW133188   3.509   6.748   2.617
10763SOL    HW233189   3.512   6.658   2.481
10764SOL     OW33190   5.120   1.807   5.318
10764SOL    HW133191   5.091   1.758   5.400
10764SOL    HW233192   5.193   1.872   5.342
10765SOL     OW33193   4.531   3.045   0.372
10765SOL    HW133194   4.587   2.968   0.399
10765SOL    HW233195   4.438   3.014   0.353
10766SOL     OW33196   4.361   4.788   0.852
10766SOL    HW133197   4.398   4.772   0.761
10766SOL    HW233198   4.400   4.872   0.889
10767SOL     OW33199   2.975   0.813   1.361
10767SOL    HW133200   2.895   0.758   1.339
10767SOL    HW233201   2.957   0.866   1.444
10768SOL     OW33202   5.343   5.160   1.313
10768SOL    HW133203   5.369   5.118   1.401
10768SOL    HW233204   5.390   5.112   1.239
10769SOL     OW33205   1.820   3.966   6.023
10769SOL    HW133206   1.919   3.970   6.034
10769SOL    HW233207   1.785   4.057   6.001
10770SOL     OW33208   4.740   6.263   3.718
10770SOL    HW133209   4.694   6.266   3.629
10770SOL    HW233210   4.839   6.271   3.705
10771SOL     OW33211   4.274   0.648   3.903
10771SOL    HW133212   4.352   0.603   3.947
10771SOL    HW233213   4.202   0.665   3.970
10772SOL     OW33214   6.218   6.587   4.749
10772SOL    HW133215   6.232   6.650   4.825
10772SOL    HW233216   6.144   6.621   4.691
10773SOL     OW33217   5.924   4.684   6.472
10773SOL    HW133218   5.923   4.702   6.571
10773SOL    HW233219   5.831   4.664   6.442
10774SOL     OW33220   1.995   1.127   5.292
10774SOL    HW133221   1.960   1.034   5.280
10774SOL    HW233222   1.920   1.192   5.286
10775SOL     OW33223   0.374   4.654   2.652
10775SOL    HW133224   0.466   4.616   2.648
10775SOL    HW233225   0.331   4.628   2.739
10776SOL     OW33226   0.805   1.139   0.067
10776SOL    HW133227   0.758   1.215   0.111
10776SOL    HW233228   0.853   1.085   0.137
10777SOL     OW33229   3.662   5.426   1.326
10777SOL    HW133230   3.728   5.501   1.314
10777SOL    HW233231   3.626   5.399   1.237
10778SOL     OW33232   5.121   6.912   3.537
10778SOL    HW133233   5.129   7.011   3.548
10778SOL    HW233234   5.026   6.885   3.552
10779SOL     OW33235   5.518   2.822   2.908
10779SOL    HW133236   5.586   2.755   2.879
10779SOL    HW233237   5.430   2.803   2.863
10780SOL     OW33238   1.416   0.547   4.252
10780SOL    HW133239   1.454   0.610   4.321
10780SOL    HW233240   1.473   0.549   4.170
10781SOL     OW33241   3.880   0.815   3.592
10781SOL    HW133242   3.800   0.850   3.544
10781SOL    HW233243   3.858   0.804   3.689
10782SOL     OW33244   0.131   1.011   3.160
10782SOL    HW133245   0.203   1.062   3.112
10782SOL    HW233246   0.044   1.059   3.150
10783SOL     OW33247   0.423   2.368   2.949
10783SOL    HW133248   0.392   2.358   3.043
10783SOL    HW233249   0.522   2.384   2.948
10784SOL     OW33250   3.696   1.006   3.821
10784SOL    HW133251   3.612   1.032   3.869
10784SOL    HW233252   3.747   1.089   3.797
10785SOL     OW33253   0.912   3.822   0.966
10785SOL    HW133254   0.966   3.795   0.886
10785SOL    HW233255   0.923   3.920   0.982
10786SOL     OW33256   5.855   4.843   3.052
10786SOL    HW133257   5.824   4.888   3.136
10786SOL    HW233258   5.828   4.747   3.054
10787SOL     OW33259   0.976   0.881   5.562
10787SOL    HW133260   1.005   0.817   5.490
10787SOL    HW233261   0.977   0.833   5.650
10788SOL     OW33262   0.574   4.072   0.766
10788SOL    HW133263   0.557   3.974   0.777
10788SOL    HW233264   0.631   4.087   0.685
10789SOL     OW33265   6.530   3.450   6.630
10789SOL    HW133266   6.609   3.388   6.623
10789SOL    HW233267   6.554   3.539   6.589
10790SOL     OW33268   0.605   6.871   1.968
10790SOL    HW133269   0.684   6.912   1.921
10790SOL    HW233270   0.560   6.807   1.907
10791SOL     OW33271   0.278   5.780   2.117
10791SOL    HW133272   0.312   5.782   2.024
10791SOL    HW233273   0.219   5.700   2.130
10792SOL     OW33274   3.238   3.053   5.027
10792SOL    HW133275   3.307   3.125   5.039
10792SOL    HW233276   3.186   3.042   5.112
10793SOL     OW33277   6.135   4.118   6.019
10793SOL    HW133278   6.079   4.200   6.021
10793SOL    HW233279   6.153   4.092   5.924
10794SOL     OW33280   4.019   3.838   4.220
10794SOL    HW133281   4.103   3.790   4.197
10794SOL    HW233282   3.984   3.886   4.139
10795SOL     OW33283   6.959   5.273   2.793
10795SOL    HW133284   6.921   5.334   2.724
10795SOL    HW233285   0.038   5.273   2.786
10796SOL     OW33286   6.360   0.154   4.984
10796SOL    HW133287   6.435   0.182   4.925
10796SOL    HW233288   6.301   0.233   5.002
10797SOL     OW33289   3.522   3.098   1.530
10797SOL    HW133290   3.449   3.121   1.595
10797SOL    HW233291   3.557   3.007   1.551
10798SOL     OW33292   2.747   1.179   0.337
10798SOL    HW133293   2.771   1.205   0.431
10798SOL    HW233294   2.763   1.256   0.276
10799SOL     OW33295   4.302   0.656   2.141
10799SOL    HW133296   4.332   0.747   2.114
10799SOL    HW233297   4.224   0.664   2.204
10800SOL     OW33298   1.144   6.130   6.027
10800SOL    HW133299   1.126   6.182   5.943
10800SOL    HW233300   1.066   6.138   6.088
10801SOL     OW33301   1.326   0.010   0.198
10801SOL    HW133302   1.410   6.999   0.241
10801SOL    HW233303   1.260   0.036   0.268
10802SOL     OW33304   0.244   0.077   2.646
10802SOL    HW133305   0.226   0.029   2.560
10802SOL    HW233306   0.199   0.166   2.645
10803SOL     OW33307   1.527   5.360   6.492
10803SOL    HW133308   1.586   5.427   6.537
10803SOL    HW233309   1.545   5.361   6.394
10804SOL     OW33310   6.675   2.501   3.381
10804SOL    HW133311   6.746   2.568   3.358
10804SOL    HW233312   6.662   2.499   3.480
10805SOL     OW33313   5.541   0.733   5.290
10805SOL    HW133314   5.442   0.744   5.300
10805SOL    HW233315   5.560   0.662   5.222
10806SOL     OW33316   3.879   4.716   6.652
10806SOL    HW133317   3.930   4.633   6.671
10806SOL    HW233318   3.826   4.704   6.568
10807SOL     OW33319   1.352   5.920   3.572
10807SOL    HW133320   1.296   5.940   3.491
10807SOL    HW233321   1.348   5.821   3.591
10808SOL     OW33322   0.262   2.619   6.050
10808SOL    HW133323   0.230   2.524   6.056
10808SOL    HW233324   0.343   2.623   5.992
10809SOL     OW33325   2.373   4.345   4.244
10809SOL    HW133326   2.307   4.383   4.309
10809SOL    HW233327   2.325   4.318   4.160
10810SOL     OW33328   6.873   0.252   3.644
10810SOL    HW133329   6.951   0.311   3.621
10810SOL    HW233330   6.881   0.222   3.739
10811SOL     OW33331   4.447   5.054   5.198
10811SOL    HW133332   4.533   5.095   5.166
10811SOL    HW233333   4.399   5.119   5.257
10812SOL     OW33334   6.542   3.957   6.252
10812SOL    HW133335   6.466   4.003   6.206
10812SOL    HW233336   6.617   3.943   6.187
10813SOL     OW33337   0.726   3.410   6.257
10813SOL    HW133338   0.743   3.508   6.267
10813SOL    HW233339   0.763   3.361   6.335
10814SOL     OW33340   2.246   6.935   0.111
10814SOL    HW133341   2.221   6.860   0.171
10814SOL    HW233342   2.346   6.937   0.100
10815SOL     OW33343   5.207   2.147   2.820
10815SOL    HW133344   5.216   2.197   2.906
10815SOL    HW233345   5.265   2.066   2.822
10816SOL     OW33346   3.545   3.377   2.714
10816SOL    HW133347   3.587   3.308   2.655
10816SOL    HW233348   3.615   3.443   2.742
10817SOL     OW33349   3.199   0.819   3.502
10817SOL    HW133350   3.289   0.775   3.497
10817SOL    HW233351   3.175   0.856   3.412
10818SOL     OW33352   4.834   4.966   5.545
10818SOL    HW133353   4.856   4.912   5.463
10818SOL    HW233354   4.771   5.040   5.520
10819SOL     OW33355   5.916   5.213   5.883
10819SOL    HW133356   5.841   5.160   5.924
10819SOL    HW233357   5.926   5.187   5.787
10820SOL     OW33358   0.406   5.671   4.358
10820SOL    HW133359   0.331   5.711   4.305
10820SOL    HW233360   0.493   5.694   4.314
10821SOL     OW33361   4.255   6.252   2.970
10821SOL    HW133362   4.248   6.222   3.066
10821SOL    HW233363   4.219   6.345   2.962
10822SOL     OW33364   5.933   1.843   1.332
10822SOL    HW133365   6.006   1.775   1.328
10822SOL    HW233366   5.845   1.798   1.322
10823SOL     OW33367   0.383   0.482   3.470
10823SOL    HW133368   0.412   0.578   3.469
10823SOL    HW233369   0.285   0.477   3.483
10824SOL     OW33370   0.968   1.708   2.193
10824SOL    HW133371   1.055   1.707   2.242
10824SOL    HW233372   0.984   1.718   2.095
10825SOL     OW33373   1.324   2.222   0.340
10825SOL    HW133374   1.330   2.258   0.433
10825SOL    HW233375   1.414   2.193   0.309
10826SOL     OW33376   0.808   2.104   2.387
10826SOL    HW133377   0.820   2.006   2.400
10826SOL    HW233378   0.773   2.145   2.470
10827SOL     OW33379   6.648   3.101   4.597
10827SOL    HW133380   6.743   3.125   4.578
10827SOL    HW233381   6.639   3.071   4.692
10828SOL     OW33382   0.053   3.938   0.096
10828SOL    HW133383   7.007   3.983   0.037
10828SOL    HW233384   0.105   4.007   0.147
10829SOL     OW33385   4.207   3.859   0.148
10829SOL    HW133386   4.276   3.901   0.088
10829SOL    HW233387   4.147   3.801   0.093
10830SOL     OW33388   4.855   1.761   3.834
10830SOL    HW133389   4.820   1.672   3.804
10830SOL    HW233390   4.922   1.794   3.768
10831SOL     OW33391   3.400   0.013   1.958
10831SOL    HW133392   3.411   0.083   1.888
10831SOL    HW233393   3.467   6.961   1.943
10832SOL     OW33394   6.324   3.535   6.451
10832SOL    HW133395   6.387   3.472   6.497
10832SOL    HW233396   6.376   3.604   6.402
10833SOL     OW33397   0.415   2.528   0.750
10833SOL    HW133398   0.420   2.628   0.759
10833SOL    HW233399   0.488   2.497   0.688
10834SOL     OW33400   6.701   1.360   0.268
10834SOL    HW133401   6.628   1.354   0.200
10834SOL    HW233402   6.699   1.450   0.312
10835SOL     OW33403   5.118   3.568   7.018
10835SOL    HW133404   5.153   3.486   6.974
10835SOL    HW233405   5.051   3.612   6.958
10836SOL     OW33406   1.156   1.138   2.731
10836SOL    HW133407   1.247   1.180   2.729
10836SOL    HW233408   1.156   1.061   2.795
10837SOL     OW33409   6.297   4.530   2.413
10837SOL    HW133410   6.335   4.596   2.477
10837SOL    HW233411   6.363   4.514   2.339
10838SOL     OW33412   5.527   6.250   3.863
10838SOL    HW133413   5.560   6.299   3.944
10838SOL    HW233414   5.428   6.246   3.865
10839SOL     OW33415   4.507   3.343   1.011
10839SOL    HW133416   4.544   3.312   0.923
10839SOL    HW233417   4.409   3.326   1.014
10840SOL     OW33418   3.600   0.425   2.955
10840SOL    HW133419   3.664   0.501   2.962
10840SOL    HW233420   3.509   0.455   2.985
10841SOL     OW33421   6.373   4.789   4.874
10841SOL    HW133422   6.417   4.730   4.942
10841SOL    HW233423   6.305   4.847   4.919
10842SOL     OW33424   4.664   2.652   1.347
10842SOL    HW133425   4.597   2.727   1.347
10842SOL    HW233426   4.699   2.638   1.439
10843SOL     OW33427   1.974   1.309   0.984
10843SOL    HW133428   2.071   1.321   1.006
10843SOL    HW233429   1.962   1.307   0.885
10844SOL     OW33430   0.084   4.850   3.531
10844SOL    HW133431   0.126   4.907   3.601
10844SOL    HW233432   7.011   4.827   3.558
10845SOL     OW33433   4.540   6.173   4.921
10845SOL    HW133434   4.605   6.103   4.953
10845SOL    HW233435   4.454   6.130   4.896
10846SOL     OW33436   5.760   6.766   6.872
10846SOL    HW133437   5.759   6.827   6.793
10846SOL    HW233438   5.812   6.808   6.946
10847SOL     OW33439   2.820   2.133   0.137
10847SOL    HW133440   2.787   2.056   0.083
10847SOL    HW233441   2.787   2.126   0.231
10848SOL     OW33442   0.611   3.831   0.881
10848SOL    HW133443   0.683   3.822   0.950
10848SOL    HW233444   0.522   3.815   0.924
10849SOL     OW33445   2.936   4.803   4.160
10849SOL    HW133446   2.867   4.767   4.097
10849SOL    HW233447   2.894   4.819   4.249
10850SOL     OW33448   4.161   6.374   0.093
10850SOL    HW133449   4.242   6.403   0.145
10850SOL    HW233450   4.080   6.418   0.131
10851SOL     OW33451   3.271   4.104   1.203
10851SOL    HW133452   3.202   4.060   1.262
10851SOL    HW233453   3.325   4.168   1.257
10852SOL     OW33454   2.158   1.515   0.031
10852SOL    HW133455   2.123   1.428   7.020
10852SOL    HW233456   2.247   1.501   0.076
10853SOL     OW33457   2.860   3.473   5.976
10853SOL    HW133458   2.794   3.439   5.908
10853SOL    HW233459   2.935   3.408   5.985
10854SOL     OW33460   4.690   5.169   5.148
10854SOL    HW133461   4.677   5.173   5.049
10854SOL    HW233462   4.785   5.191   5.170
10855SOL     OW33463   3.758   0.547   0.713
10855SOL    HW133464   3.689   0.565   0.784
10855SOL    HW233465   3.739   0.605   0.634
10856SOL     OW33466   0.260   1.254   6.668
10856SOL    HW133467   0.270   1.196   6.748
10856SOL    HW233468   0.297   1.207   6.588
10857SOL     OW33469   0.236   1.846   2.671
10857SOL    HW133470   0.140   1.875   2.673
10857SOL    HW233471   0.295   1.925   2.651
10858SOL     OW33472   2.073   6.864   1.088
10858SOL    HW133473   1.993   6.898   1.138
10858SOL    HW233474   2.156   6.883   1.141
10859SOL     OW33475   6.961   4.636   4.282
10859SOL    HW133476   6.879   4.689   4.304
10859SOL    HW233477   0.021   4.690   4.304
10860SOL     OW33478   6.987   3.647   3.841
10860SOL    HW133479   0.015   3.659   3.755
10860SOL    HW233480   6.954   3.552   3.847
10861SOL     OW33481   3.021   3.179   3.496
10861SOL    HW133482   3.004   3.241   3.419
10861SOL    HW233483   2.956   3.198   3.569
10862SOL     OW33484   2.423   1.070   5.722
10862SOL    HW133485   2.448   1.166   5.728
10862SOL    HW233486   2.376   1.052   5.635
10863SOL     OW33487   2.386   0.513   4.677
10863SOL    HW133488   2.468   0.494   4.730
10863SOL    HW233489   2.307   0.467   4.718
10864SOL     OW33490   2.460   6.386   1.132
10864SOL    HW133491   2.452   6.356   1.227
10864SOL    HW233492   2.369   6.405   1.096
10865SOL     OW33493   6.468   1.362   0.111
10865SOL    HW133494   6.453   1.436   0.177
10865SOL    HW233495   6.380   1.319   0.089
10866SOL     OW33496   5.445   5.067   0.246
10866SOL    HW133497   5.530   5.033   0.206
10866SOL    HW233498   5.375   5.075   0.175
10867SOL     OW33499   3.080   3.958   0.640
10867SOL    HW133500   3.023   3.957   0.723
10867SOL    HW233501   3.131   4.044   0.636
10868SOL     OW33502   5.049   1.931   3.607
10868SOL    HW133503   5.101   1.854   3.572
10868SOL    HW233504   5.093   1.966   3.690
10869NA      NA33505   6.537   2.503   5.499
10870NA      NA33506   4.471   4.593   5.189
10871NA      NA33507   1.864   3.082   1.727
10872NA      NA33508   5.149   3.952   5.285
10873NA      NA33509   4.189   2.323   4.868
10874NA      NA33510   3.803   4.886   1.826
10875NA      NA33511   6.663   5.242   5.882
10876NA      NA33512   3.368   3.389   4.441
10877NA      NA33513   4.842   6.094   0.089
10878NA      NA33514   3.645   6.487   5.416
10879NA      NA33515   6.285   5.129   2.771
10880NA      NA33516   2.604   0.534   3.883
10881NA      NA33517   3.693   5.349   1.550
10882NA      NA33518   3.771   3.499   2.371
   7.02105   7.02105   7.02105
