Generated by trjconv : CNT in water t= 542.00000
33518
    1C        C    1   2.839   2.770   4.747
    1C        C    2   2.894   2.717   4.866
    1C        C    3   2.841   2.775   4.982
    1C        C    4   2.849   2.774   4.263
    1C        C    5   2.902   2.729   4.387
    1C        C    6   2.842   2.773   4.507
    1C        C    7   3.012   2.643   4.628
    1C        C    8   2.894   2.720   4.627
    1C        C    9   3.076   2.603   4.748
    1C        C   10   3.005   2.631   4.867
    1C        C   11   3.186   2.502   4.981
    1C        C   12   3.060   2.565   4.978
    1C        C   13   2.849   2.768   3.775
    1C        C   14   2.901   2.720   3.897
    1C        C   15   2.851   2.771   4.019
    1C        C   16   3.016   2.639   4.141
    1C        C   17   2.906   2.727   4.142
    1C        C   18   3.082   2.612   4.263
    1C        C   19   3.018   2.649   4.384
    1C        C   20   3.209   2.561   4.506
    1C        C   21   3.077   2.612   4.507
    1C        C   22   3.281   2.537   4.625
    1C        C   23   3.209   2.553   4.745
    1C        C   24   3.412   2.486   4.867
    1C        C   25   3.270   2.506   4.865
    1C        C   26   3.487   2.483   4.985
    1C        C   27   2.853   2.765   3.284
    1C        C   28   2.906   2.723   3.408
    1C        C   29   2.855   2.772   3.530
    1C        C   30   3.016   2.638   3.653
    1C        C   31   2.903   2.722   3.653
    1C        C   32   3.077   2.604   3.776
    1C        C   33   3.014   2.635   3.898
    1C        C   34   3.210   2.554   4.020
    1C        C   35   3.077   2.601   4.020
    1C        C   36   3.280   2.534   4.141
    1C        C   37   3.215   2.566   4.263
    1C        C   38   3.419   2.512   4.383
    1C        C   39   3.281   2.544   4.386
    1C        C   40   3.492   2.508   4.504
    1C        C   41   3.420   2.510   4.625
    1C        C   42   3.630   2.486   4.745
    1C        C   43   3.487   2.487   4.747
    1C        C   44   3.703   2.491   4.865
    1C        C   45   3.626   2.487   4.982
    1C        C   46   2.836   2.750   2.797
    1C        C   47   2.890   2.705   2.919
    1C        C   48   2.841   2.758   3.040
    1C        C   49   3.018   2.637   3.163
    1C        C   50   2.901   2.716   3.161
    1C        C   51   3.081   2.603   3.285
    1C        C   52   3.020   2.639   3.408
    1C        C   53   3.211   2.552   3.530
    1C        C   54   3.081   2.606   3.531
    1C        C   55   3.277   2.529   3.654
    1C        C   56   3.208   2.552   3.775
    1C        C   57   3.416   2.508   3.896
    1C        C   58   3.278   2.538   3.897
    1C        C   59   3.489   2.509   4.017
    1C        C   60   3.420   2.514   4.140
    1C        C   61   3.632   2.500   4.261
    1C        C   62   3.491   2.501   4.262
    1C        C   63   3.705   2.510   4.382
    1C        C   64   3.633   2.506   4.503
    1C        C   65   3.839   2.546   4.626
    1C        C   66   3.703   2.509   4.626
    1C        C   67   3.907   2.568   4.748
    1C        C   68   3.839   2.530   4.865
    1C        C   69   4.048   2.591   4.982
    1C        C   70   3.922   2.530   4.977
    1C        C   71   2.821   2.729   2.311
    1C        C   72   2.881   2.687   2.431
    1C        C   73   2.829   2.741   2.551
    1C        C   74   3.010   2.632   2.676
    1C        C   75   2.888   2.703   2.674
    1C        C   76   3.074   2.596   2.797
    1C        C   77   3.011   2.631   2.918
    1C        C   78   3.211   2.555   3.040
    1C        C   79   3.078   2.604   3.040
    1C        C   80   3.281   2.539   3.161
    1C        C   81   3.212   2.551   3.284
    1C        C   82   3.417   2.508   3.405
    1C        C   83   3.278   2.530   3.407
    1C        C   84   3.487   2.503   3.528
    1C        C   85   3.417   2.510   3.651
    1C        C   86   3.627   2.509   3.772
    1C        C   87   3.486   2.500   3.773
    1C        C   88   3.699   2.518   3.894
    1C        C   89   3.630   2.509   4.017
    1C        C   90   3.838   2.552   4.138
    1C        C   91   3.701   2.516   4.139
    1C        C   92   3.906   2.575   4.260
    1C        C   93   3.841   2.546   4.382
    1C        C   94   4.030   2.640   4.502
    1C        C   95   3.909   2.568   4.505
    1C        C   96   4.092   2.675   4.625
    1C        C   97   4.036   2.627   4.746
    1C        C   98   4.193   2.769   4.866
    1C        C   99   4.102   2.659   4.868
    1C        C  100   4.217   2.847   4.980
    1C        C  101   2.820   2.727   2.070
    1C        C  102   2.990   2.595   2.190
    1C        C  103   2.875   2.680   2.189
    1C        C  104   3.066   2.581   2.310
    1C        C  105   3.003   2.616   2.431
    1C        C  106   3.199   2.539   2.552
    1C        C  107   3.069   2.593   2.554
    1C        C  108   3.272   2.528   2.673
    1C        C  109   3.206   2.547   2.796
    1C        C  110   3.415   2.501   2.917
    1C        C  111   3.276   2.528   2.917
    1C        C  112   3.487   2.497   3.038
    1C        C  113   3.418   2.504   3.160
    1C        C  114   3.629   2.506   3.284
    1C        C  115   3.488   2.499   3.283
    1C        C  116   3.698   2.516   3.406
    1C        C  117   3.628   2.505   3.528
    1C        C  118   3.835   2.551   3.650
    1C        C  119   3.698   2.517   3.650
    1C        C  120   3.903   2.572   3.772
    1C        C  121   3.836   2.550   3.894
    1C        C  122   4.030   2.639   4.014
    1C        C  123   3.903   2.579   4.016
    1C        C  124   4.091   2.677   4.136
    1C        C  125   4.032   2.638   4.258
    1C        C  126   4.205   2.760   4.378
    1C        C  127   4.094   2.673   4.381
    1C        C  128   4.251   2.813   4.500
    1C        C  129   4.198   2.767   4.623
    1C        C  130   4.330   2.935   4.743
    1C        C  131   4.246   2.821   4.745
    1C        C  132   4.363   3.000   4.863
    1C        C  133   4.295   2.963   4.979
    1C        C  134   3.173   2.476   2.080
    1C        C  135   3.038   2.513   2.083
    1C        C  136   3.260   2.482   2.190
    1C        C  137   3.195   2.520   2.309
    1C        C  138   3.404   2.489   2.430
    1C        C  139   3.264   2.504   2.432
    1C        C  140   3.479   2.494   2.549
    1C        C  141   3.413   2.509   2.672
    1C        C  142   3.625   2.498   2.797
    1C        C  143   3.484   2.497   2.794
    1C        C  144   3.698   2.503   2.917
    1C        C  145   3.629   2.496   3.040
    1C        C  146   3.836   2.544   3.158
    1C        C  147   3.700   2.505   3.162
    1C        C  148   3.903   2.566   3.281
    1C        C  149   3.836   2.547   3.404
    1C        C  150   4.029   2.632   3.524
    1C        C  151   3.902   2.571   3.527
    1C        C  152   4.089   2.670   3.646
    1C        C  153   4.029   2.637   3.770
    1C        C  154   4.200   2.765   3.888
    1C        C  155   4.088   2.680   3.891
    1C        C  156   4.250   2.813   4.011
    1C        C  157   4.202   2.764   4.135
    1C        C  158   4.346   2.920   4.254
    1C        C  159   4.257   2.810   4.257
    1C        C  160   4.378   2.980   4.378
    1C        C  161   4.337   2.926   4.502
    1C        C  162   4.444   3.114   4.617
    1C        C  163   4.378   2.989   4.621
    1C        C  164   4.472   3.183   4.737
    1C        C  165   4.438   3.120   4.859
    1C        C  166   4.519   3.322   4.973
    1C        C  167   4.491   3.186   4.971
    1C        C  168   3.474   2.443   2.076
    1C        C  169   3.400   2.465   2.193
    1C        C  170   3.620   2.475   2.309
    1C        C  171   3.478   2.477   2.310
    1C        C  172   3.694   2.489   2.429
    1C        C  173   3.621   2.495   2.550
    1C        C  174   3.827   2.546   2.668
    1C        C  175   3.690   2.510   2.672
    1C        C  176   3.897   2.567   2.789
    1C        C  177   3.833   2.545   2.913
    1C        C  178   4.028   2.630   3.034
    1C        C  179   3.900   2.570   3.035
    1C        C  180   4.087   2.666   3.157
    1C        C  181   4.030   2.628   3.280
    1C        C  182   4.205   2.750   3.400
    1C        C  183   4.093   2.663   3.402
    1C        C  184   4.254   2.803   3.521
    1C        C  185   4.201   2.756   3.643
    1C        C  186   4.341   2.917   3.764
    1C        C  187   4.255   2.805   3.764
    1C        C  188   4.384   2.974   3.886
    1C        C  189   4.343   2.919   4.010
    1C        C  190   4.448   3.106   4.131
    1C        C  191   4.383   2.980   4.132
    1C        C  192   4.469   3.172   4.254
    1C        C  193   4.438   3.108   4.376
    1C        C  194   4.507   3.316   4.494
    1C        C  195   4.468   3.180   4.494
    1C        C  196   4.517   3.389   4.614
    1C        C  197   4.513   3.319   4.737
    1C        C  198   4.551   3.538   4.853
    1C        C  199   4.533   3.396   4.855
    1C        C  200   4.581   3.623   4.964
    1C        C  201   3.612   2.418   2.076
    1C        C  202   3.825   2.512   2.185
    1C        C  203   3.692   2.460   2.187
    1C        C  204   3.899   2.543   2.303
    1C        C  205   3.831   2.522   2.425
    1C        C  206   4.023   2.621   2.542
    1C        C  207   3.895   2.561   2.545
    1C        C  208   4.085   2.659   2.663
    1C        C  209   4.027   2.623   2.788
    1C        C  210   4.203   2.742   2.908
    1C        C  211   4.088   2.660   2.910
    1C        C  212   4.254   2.792   3.030
    1C        C  213   4.201   2.749   3.155
    1C        C  214   4.344   2.906   3.274
    1C        C  215   4.255   2.797   3.277
    1C        C  216   4.378   2.970   3.396
    1C        C  217   4.343   2.914   3.520
    1C        C  218   4.438   3.105   3.641
    1C        C  219   4.380   2.976   3.641
    1C        C  220   4.467   3.169   3.764
    1C        C  221   4.444   3.102   3.886
    1C        C  222   4.498   3.308   4.007
    1C        C  223   4.469   3.169   4.007
    1C        C  224   4.509   3.380   4.129
    1C        C  225   4.504   3.309   4.251
    1C        C  226   4.521   3.524   4.369
    1C        C  227   4.518   3.383   4.370
    1C        C  228   4.512   3.596   4.490
    1C        C  229   4.527   3.530   4.614
    1C        C  230   4.501   3.746   4.726
    1C        C  231   4.538   3.609   4.730
    1C        C  232   4.498   3.825   4.843
    1C        C  233   4.547   3.759   4.956
    1C        C  234   4.016   2.612   2.064
    1C        C  235   3.893   2.547   2.068
    1C        C  236   4.089   2.645   2.180
    1C        C  237   4.028   2.602   2.300
    1C        C  238   4.205   2.727   2.421
    1C        C  239   4.091   2.641   2.420
    1C        C  240   4.253   2.783   2.542
    1C        C  241   4.201   2.740   2.666
    1C        C  242   4.341   2.903   2.786
    1C        C  243   4.252   2.793   2.786
    1C        C  244   4.385   2.959   2.908
    1C        C  245   4.340   2.904   3.030
    1C        C  246   4.439   3.093   3.149
    1C        C  247   4.380   2.965   3.151
    1C        C  248   4.458   3.164   3.270
    1C        C  249   4.430   3.102   3.393
    1C        C  250   4.499   3.302   3.514
    1C        C  251   4.458   3.166   3.516
    1C        C  252   4.506   3.372   3.637
    1C        C  253   4.500   3.307   3.762
    1C        C  254   4.517   3.517   3.880
    1C        C  255   4.515   3.376   3.885
    1C        C  256   4.510   3.589   4.001
    1C        C  257   4.514   3.521   4.125
    1C        C  258   4.487   3.733   4.243
    1C        C  259   4.515   3.594   4.246
    1C        C  260   4.468   3.804   4.363
    1C        C  261   4.485   3.735   4.486
    1C        C  262   4.419   3.943   4.603
    1C        C  263   4.467   3.810   4.604
    1C        C  264   4.399   4.015   4.722
    1C        C  265   4.437   3.952   4.843
    1C        C  266   4.321   4.133   4.963
    1C        C  267   4.392   4.014   4.960
    1C        C  268   4.265   2.774   2.066
    1C        C  269   4.199   2.733   2.182
    1C        C  270   4.348   2.890   2.301
    1C        C  271   4.259   2.779   2.302
    1C        C  272   4.384   2.954   2.422
    1C        C  273   4.341   2.893   2.542
    1C        C  274   4.439   3.086   2.662
    1C        C  275   4.379   2.958   2.662
    1C        C  276   4.467   3.153   2.783
    1C        C  277   4.445   3.087   2.906
    1C        C  278   4.505   3.294   3.026
    1C        C  279   4.468   3.157   3.026
    1C        C  280   4.516   3.366   3.147
    1C        C  281   4.493   3.301   3.270
    1C        C  282   4.510   3.512   3.390
    1C        C  283   4.507   3.371   3.392
    1C        C  284   4.507   3.582   3.513
    1C        C  285   4.512   3.513   3.636
    1C        C  286   4.489   3.726   3.755
    1C        C  287   4.512   3.586   3.757
    1C        C  288   4.468   3.794   3.877
    1C        C  289   4.479   3.727   4.001
    1C        C  290   4.423   3.935   4.115
    1C        C  291   4.466   3.800   4.121
    1C        C  292   4.396   4.000   4.238
    1C        C  293   4.421   3.937   4.361
    1C        C  294   4.331   4.135   4.478
    1C        C  295   4.394   4.008   4.480
    1C        C  296   4.290   4.195   4.599
    1C        C  297   4.324   4.136   4.723
    1C        C  298   4.202   4.315   4.838
    1C        C  299   4.285   4.199   4.844
    1C        C  300   4.169   4.403   4.946
    1C        C  301   4.350   2.884   2.063
    1C        C  302   4.473   3.065   2.179
    1C        C  303   4.404   2.939   2.180
    1C        C  304   4.484   3.143   2.297
    1C        C  305   4.449   3.079   2.418
    1C        C  306   4.505   3.285   2.537
    1C        C  307   4.472   3.148   2.539
    1C        C  308   4.511   3.358   2.657
    1C        C  309   4.503   3.289   2.781
    1C        C  310   4.521   3.501   2.897
    1C        C  311   4.518   3.360   2.902
    1C        C  312   4.523   3.573   3.019
    1C        C  313   4.520   3.508   3.144
    1C        C  314   4.485   3.718   3.264
    1C        C  315   4.506   3.579   3.265
    1C        C  316   4.475   3.788   3.386
    1C        C  317   4.488   3.722   3.511
    1C        C  318   4.419   3.923   3.628
    1C        C  319   4.471   3.792   3.632
    1C        C  320   4.391   3.989   3.750
    1C        C  321   4.422   3.928   3.874
    1C        C  322   4.322   4.121   3.991
    1C        C  323   4.390   3.997   3.993
    1C        C  324   4.282   4.180   4.113
    1C        C  325   4.323   4.121   4.235
    1C        C  326   4.190   4.290   4.352
    1C        C  327   4.284   4.184   4.355
    1C        C  328   4.141   4.343   4.473
    1C        C  329   4.197   4.301   4.596
    1C        C  330   4.031   4.443   4.713
    1C        C  331   4.144   4.356   4.715
    1C        C  332   3.974   4.502   4.828
    1C        C  333   4.052   4.480   4.943
    1C        C  334   4.548   3.268   2.060
    1C        C  335   4.533   3.129   2.066
    1C        C  336   4.537   3.349   2.173
    1C        C  337   4.517   3.282   2.296
    1C        C  338   4.520   3.498   2.411
    1C        C  339   4.519   3.356   2.415
    1C        C  340   4.522   3.570   2.532
    1C        C  341   4.519   3.499   2.654
    1C        C  342   4.489   3.711   2.778
    1C        C  343   4.514   3.572   2.775
    1C        C  344   4.471   3.782   2.899
    1C        C  345   4.496   3.712   3.019
    1C        C  346   4.424   3.916   3.140
    1C        C  347   4.469   3.783   3.139
    1C        C  348   4.389   3.981   3.261
    1C        C  349   4.421   3.918   3.383
    1C        C  350   4.322   4.108   3.502
    1C        C  351   4.396   3.987   3.504
    1C        C  352   4.280   4.167   3.623
    1C        C  353   4.323   4.113   3.746
    1C        C  354   4.179   4.270   3.866
    1C        C  355   4.283   4.175   3.866
    1C        C  356   4.126   4.323   3.986
    1C        C  357   4.182   4.279   4.108
    1C        C  358   4.019   4.415   4.231
    1C        C  359   4.133   4.332   4.229
    1C        C  360   3.958   4.452   4.353
    1C        C  361   4.023   4.420   4.474
    1C        C  362   3.830   4.519   4.595
    1C        C  363   3.960   4.465   4.593
    1C        C  364   3.760   4.549   4.714
    1C        C  365   3.840   4.547   4.830
    1C        C  366   3.632   4.598   4.949
    1C        C  367   3.770   4.580   4.947
    1C        C  368   4.507   3.565   2.054
    1C        C  369   4.526   3.490   2.170
    1C        C  370   4.502   3.707   2.289
    1C        C  371   4.520   3.567   2.289
    1C        C  372   4.481   3.777   2.410
    1C        C  373   4.498   3.710   2.533
    1C        C  374   4.421   3.908   2.651
    1C        C  375   4.472   3.777   2.654
    1C        C  376   4.394   3.977   2.771
    1C        C  377   4.431   3.917   2.894
    1C        C  378   4.321   4.097   3.013
    1C        C  379   4.399   3.980   3.016
    1C        C  380   4.275   4.155   3.134
    1C        C  381   4.315   4.102   3.259
    1C        C  382   4.181   4.267   3.380
    1C        C  383   4.276   4.162   3.380
    1C        C  384   4.129   4.318   3.501
    1C        C  385   4.182   4.269   3.622
    1C        C  386   4.015   4.403   3.744
    1C        C  387   4.126   4.316   3.743
    1C        C  388   3.951   4.444   3.863
    1C        C  389   4.012   4.407   3.985
    1C        C  390   3.822   4.494   4.112
    1C        C  391   3.953   4.443   4.109
    1C        C  392   3.754   4.524   4.233
    1C        C  393   3.828   4.507   4.352
    1C        C  394   3.621   4.553   4.477
    1C        C  395   3.762   4.537   4.473
    1C        C  396   3.547   4.569   4.596
    1C        C  397   3.620   4.564   4.716
    1C        C  398   3.410   4.556   4.842
    1C        C  399   3.549   4.579   4.838
    1C        C  400   3.343   4.519   4.959
    1C        C  401   4.495   3.704   2.050
    1C        C  402   4.455   3.916   2.167
    1C        C  403   4.489   3.779   2.168
    1C        C  404   4.414   3.979   2.287
    1C        C  405   4.441   3.913   2.409
    1C        C  406   4.324   4.095   2.527
    1C        C  407   4.401   3.976   2.528
    1C        C  408   4.279   4.152   2.648
    1C        C  409   4.319   4.097   2.771
    1C        C  410   4.173   4.252   2.890
    1C        C  411   4.273   4.153   2.892
    1C        C  412   4.122   4.301   3.012
    1C        C  413   4.177   4.256   3.134
    1C        C  414   4.004   4.379   3.254
    1C        C  415   4.124   4.304   3.256
    1C        C  416   3.947   4.421   3.377
    1C        C  417   4.009   4.394   3.501
    1C        C  418   3.816   4.482   3.622
    1C        C  419   3.948   4.431   3.622
    1C        C  420   3.750   4.507   3.744
    1C        C  421   3.819   4.493   3.867
    1C        C  422   3.613   4.531   3.991
    1C        C  423   3.752   4.510   3.990
    1C        C  424   3.542   4.544   4.113
    1C        C  425   3.614   4.544   4.234
    1C        C  426   3.404   4.545   4.360
    1C        C  427   3.546   4.549   4.358
    1C        C  428   3.333   4.540   4.482
    1C        C  429   3.406   4.557   4.601
    1C        C  430   3.194   4.525   4.726
    1C        C  431   3.334   4.548   4.723
    1C        C  432   3.126   4.496   4.847
    1C        C  433   3.206   4.498   4.962
    1C        C  434   4.383   4.122   2.053
    1C        C  435   4.446   3.997   2.053
    1C        C  436   4.306   4.165   2.165
    1C        C  437   4.338   4.099   2.287
    1C        C  438   4.182   4.251   2.402
    1C        C  439   4.285   4.154   2.405
    1C        C  440   4.123   4.294   2.524
    1C        C  441   4.179   4.253   2.647
    1C        C  442   4.005   4.379   2.764
    1C        C  443   4.122   4.300   2.767
    1C        C  444   3.943   4.413   2.887
    1C        C  445   4.004   4.379   3.009
    1C        C  446   3.814   4.472   3.129
    1C        C  447   3.944   4.417   3.132
    1C        C  448   3.750   4.492   3.253
    1C        C  449   3.817   4.477   3.377
    1C        C  450   3.612   4.525   3.501
    1C        C  451   3.751   4.503   3.499
    1C        C  452   3.541   4.536   3.623
    1C        C  453   3.612   4.535   3.745
    1C        C  454   3.402   4.541   3.868
    1C        C  455   3.543   4.536   3.869
    1C        C  456   3.332   4.534   3.991
    1C        C  457   3.401   4.539   4.114
    1C        C  458   3.196   4.501   4.238
    1C        C  459   3.333   4.535   4.239
    1C        C  460   3.128   4.487   4.361
    1C        C  461   3.193   4.519   4.482
    1C        C  462   3.001   4.432   4.605
    1C        C  463   3.127   4.495   4.605
    1C        C  464   2.933   4.397   4.724
    1C        C  465   2.994   4.441   4.845
    1C        C  466   2.804   4.341   4.964
    1C        C  467   2.908   4.435   4.959
    1C        C  468   4.125   4.284   2.041
    1C        C  469   4.191   4.250   2.160
    1C        C  470   4.007   4.370   2.278
    1C        C  471   4.129   4.296   2.280
    1C        C  472   3.943   4.406   2.399
    1C        C  473   4.003   4.369   2.521
    1C        C  474   3.810   4.458   2.645
    1C        C  475   3.942   4.409   2.641
    1C        C  476   3.743   4.489   2.765
    1C        C  477   3.815   4.471   2.886
    1C        C  478   3.607   4.520   3.012
    1C        C  479   3.746   4.495   3.008
    1C        C  480   3.539   4.528   3.135
    1C        C  481   3.612   4.523   3.257
    1C        C  482   3.400   4.538   3.378
    1C        C  483   3.541   4.536   3.378
    1C        C  484   3.330   4.531   3.500
    1C        C  485   3.400   4.540   3.622
    1C        C  486   3.194   4.497   3.746
    1C        C  487   3.332   4.531   3.746
    1C        C  488   3.130   4.478   3.870
    1C        C  489   3.195   4.501   3.994
    1C        C  490   3.005   4.411   4.116
    1C        C  491   3.128   4.480   4.116
    1C        C  492   2.945   4.379   4.240
    1C        C  493   3.000   4.427   4.361
    1C        C  494   2.829   4.304   4.487
    1C        C  495   2.939   4.393   4.484
    1C        C  496   2.772   4.258   4.607
    1C        C  497   2.817   4.314   4.729
    1C        C  498   2.663   4.169   4.845
    1C        C  499   2.756   4.276   4.849
    1C        C  500   2.604   4.115   4.960
    1C        C  501   4.007   4.357   2.043
    1C        C  502   3.815   4.466   2.154
    1C        C  503   3.938   4.397   2.158
    1C        C  504   3.747   4.487   2.276
    1C        C  505   3.812   4.458   2.398
    1C        C  506   3.609   4.515   2.520
    1C        C  507   3.745   4.480   2.521
    1C        C  508   3.538   4.519   2.642
    1C        C  509   3.605   4.517   2.766
    1C        C  510   3.396   4.528   2.887
    1C        C  511   3.537   4.528   2.890
    1C        C  512   3.326   4.528   3.010
    1C        C  513   3.398   4.530   3.131
    1C        C  514   3.193   4.491   3.257
    1C        C  515   3.331   4.524   3.255
    1C        C  516   3.126   4.471   3.379
    1C        C  517   3.194   4.492   3.501
    1C        C  518   2.998   4.416   3.626
    1C        C  519   3.126   4.476   3.624
    1C        C  520   2.944   4.377   3.750
    1C        C  521   3.005   4.412   3.873
    1C        C  522   2.835   4.282   3.997
    1C        C  523   2.945   4.372   3.994
    1C        C  524   2.789   4.236   4.122
    1C        C  525   2.835   4.291   4.244
    1C        C  526   2.693   4.139   4.366
    1C        C  527   2.777   4.252   4.366
    1C        C  528   2.652   4.079   4.488
    1C        C  529   2.685   4.147   4.607
    1C        C  530   2.579   3.964   4.732
    1C        C  531   2.635   4.094   4.729
    1C        C  532   2.539   3.902   4.853
    1C        C  533   2.531   3.995   4.962
    1C        C  534   3.619   4.560   2.040
    1C        C  535   3.749   4.508   2.038
    1C        C  536   3.537   4.540   2.156
    1C        C  537   3.608   4.515   2.277
    1C        C  538   3.395   4.516   2.401
    1C        C  539   3.536   4.522   2.398
    1C        C  540   3.324   4.507   2.522
    1C        C  541   3.397   4.514   2.643
    1C        C  542   3.188   4.484   2.768
    1C        C  543   3.325   4.515   2.765
    1C        C  544   3.122   4.463   2.891
    1C        C  545   3.190   4.488   3.013
    1C        C  546   2.998   4.403   3.135
    1C        C  547   3.125   4.465   3.136
    1C        C  548   2.942   4.366   3.259
    1C        C  549   2.998   4.412   3.381
    1C        C  550   2.831   4.285   3.505
    1C        C  551   2.938   4.377   3.504
    1C        C  552   2.786   4.233   3.628
    1C        C  553   2.838   4.283   3.750
    1C        C  554   2.696   4.129   3.875
    1C        C  555   2.787   4.237   3.873
    1C        C  556   2.658   4.070   3.998
    1C        C  557   2.699   4.127   4.121
    1C        C  558   2.597   3.946   4.246
    1C        C  559   2.660   4.073   4.246
    1C        C  560   2.568   3.882   4.369
    1C        C  561   2.591   3.952   4.489
    1C        C  562   2.533   3.751   4.616
    1C        C  563   2.565   3.888   4.613
    1C        C  564   2.517   3.683   4.739
    1C        C  565   2.524   3.760   4.859
    1C        C  566   2.537   3.548   4.981
    1C        C  567   2.530   3.687   4.978
    1C        C  568   3.330   4.474   2.044
    1C        C  569   3.397   4.516   2.159
    1C        C  570   3.183   4.482   2.283
    1C        C  571   3.322   4.512   2.280
    1C        C  572   3.114   4.462   2.404
    1C        C  573   3.185   4.482   2.524
    1C        C  574   2.988   4.408   2.648
    1C        C  575   3.118   4.463   2.647
    1C        C  576   2.929   4.367   2.770
    1C        C  577   2.997   4.397   2.890
    1C        C  578   2.827   4.274   3.017
    1C        C  579   2.939   4.361   3.014
    1C        C  580   2.782   4.222   3.141
    1C        C  581   2.835   4.274   3.261
    1C        C  582   2.700   4.115   3.386
    1C        C  583   2.783   4.229   3.384
    1C        C  584   2.664   4.058   3.510
    1C        C  585   2.702   4.119   3.632
    1C        C  586   2.593   3.939   3.756
    1C        C  587   2.662   4.062   3.755
    1C        C  588   2.568   3.877   3.880
    1C        C  589   2.602   3.941   4.001
    1C        C  590   2.541   3.740   4.128
    1C        C  591   2.575   3.877   4.125
    1C        C  592   2.530   3.672   4.251
    1C        C  593   2.533   3.745   4.372
    1C        C  594   2.516   3.538   4.498
    1C        C  595   2.517   3.679   4.495
    1C        C  596   2.524   3.469   4.621
    1C        C  597   2.519   3.541   4.742
    1C        C  598   2.529   3.330   4.864
    1C        C  599   2.531   3.471   4.864
    1C        C  600   2.530   3.250   4.979
    1C        C  601   3.196   4.441   2.044
    1C        C  602   2.986   4.397   2.158
    1C        C  603   3.118   4.451   2.160
    1C        C  604   2.930   4.357   2.282
    1C        C  605   2.988   4.398   2.404
    1C        C  606   2.821   4.272   2.530
    1C        C  607   2.929   4.363   2.528
    1C        C  608   2.776   4.220   2.653
    1C        C  609   2.824   4.274   2.774
    1C        C  610   2.690   4.109   2.896
    1C        C  611   2.776   4.221   2.897
    1C        C  612   2.656   4.053   3.021
    1C        C  613   2.694   4.111   3.143
    1C        C  614   2.590   3.928   3.265
    1C        C  615   2.656   4.053   3.266
    1C        C  616   2.567   3.868   3.391
    1C        C  617   2.598   3.934   3.512
    1C        C  618   2.528   3.735   3.640
    1C        C  619   2.570   3.869   3.635
    1C        C  620   2.522   3.667   3.764
    1C        C  621   2.535   3.739   3.885
    1C        C  622   2.515   3.528   4.008
    1C        C  623   2.525   3.669   4.007
    1C        C  624   2.519   3.460   4.132
    1C        C  625   2.518   3.531   4.254
    1C        C  626   2.543   3.324   4.380
    1C        C  627   2.519   3.463   4.378
    1C        C  628   2.557   3.256   4.504
    1C        C  629   2.541   3.329   4.624
    1C        C  630   2.598   3.123   4.744
    1C        C  631   2.552   3.257   4.745
    1C        C  632   2.615   3.051   4.865
    1C        C  633   2.561   3.114   4.982
    1C        C  634   2.781   4.307   2.057
    1C        C  635   2.888   4.398   2.053
    1C        C  636   2.751   4.232   2.171
    1C        C  637   2.812   4.277   2.290
    1C        C  638   2.676   4.112   2.412
    1C        C  639   2.764   4.222   2.411
    1C        C  640   2.637   4.051   2.534
    1C        C  641   2.688   4.109   2.653
    1C        C  642   2.591   3.920   2.780
    1C        C  643   2.650   4.049   2.774
    1C        C  644   2.567   3.855   2.903
    1C        C  645   2.594   3.926   3.022
    1C        C  646   2.531   3.723   3.150
    1C        C  647   2.564   3.860   3.144
    1C        C  648   2.521   3.658   3.275
    1C        C  649   2.535   3.730   3.395
    1C        C  650   2.512   3.522   3.519
    1C        C  651   2.517   3.664   3.519
    1C        C  652   2.518   3.455   3.643
    1C        C  653   2.513   3.526   3.766
    1C        C  654   2.538   3.316   3.889
    1C        C  655   2.512   3.455   3.888
    1C        C  656   2.552   3.250   4.014
    1C        C  657   2.537   3.320   4.136
    1C        C  658   2.609   3.122   4.257
    1C        C  659   2.554   3.252   4.259
    1C        C  660   2.635   3.058   4.380
    1C        C  661   2.601   3.122   4.502
    1C        C  662   2.707   2.938   4.624
    1C        C  663   2.629   3.056   4.623
    1C        C  664   2.743   2.875   4.745
    1C        C  665   2.695   2.932   4.866
    1C        C  666   2.743   2.873   4.984
    1C        C  667   2.677   4.031   2.053
    1C        C  668   2.685   4.107   2.170
    1C        C  669   2.596   3.913   2.294
    1C        C  670   2.646   4.045   2.291
    1C        C  671   2.567   3.848   2.416
    1C        C  672   2.584   3.921   2.536
    1C        C  673   2.523   3.718   2.661
    1C        C  674   2.563   3.853   2.659
    1C        C  675   2.505   3.651   2.784
    1C        C  676   2.525   3.720   2.906
    1C        C  677   2.499   3.512   3.032
    1C        C  678   2.513   3.652   3.029
    1C        C  679   2.509   3.443   3.155
    1C        C  680   2.513   3.516   3.275
    1C        C  681   2.535   3.309   3.402
    1C        C  682   2.512   3.448   3.399
    1C        C  683   2.559   3.245   3.526
    1C        C  684   2.542   3.316   3.647
    1C        C  685   2.612   3.115   3.772
    1C        C  686   2.558   3.246   3.769
    1C        C  687   2.640   3.052   3.896
    1C        C  688   2.600   3.117   4.015
    1C        C  689   2.718   2.939   4.139
    1C        C  690   2.640   3.056   4.136
    1C        C  691   2.756   2.880   4.261
    1C        C  692   2.709   2.938   4.381
    1C        C  693   2.748   2.878   4.503
    1C        C  694   2.624   3.902   2.059
    1C        C  695   2.533   3.704   2.176
    1C        C  696   2.583   3.836   2.176
    1C        C  697   2.510   3.639   2.299
    1C        C  698   2.525   3.713   2.419
    1C        C  699   2.497   3.504   2.545
    1C        C  700   2.510   3.645   2.541
    1C        C  701   2.508   3.435   2.668
    1C        C  702   2.506   3.509   2.788
    1C        C  703   2.526   3.300   2.914
    1C        C  704   2.503   3.439   2.910
    1C        C  705   2.546   3.232   3.036
    1C        C  706   2.532   3.303   3.158
    1C        C  707   2.602   3.106   3.283
    1C        C  708   2.551   3.237   3.281
    1C        C  709   2.637   3.045   3.405
    1C        C  710   2.609   3.113   3.526
    1C        C  711   2.713   2.931   3.651
    1C        C  712   2.640   3.051   3.650
    1C        C  713   2.759   2.878   3.773
    1C        C  714   2.716   2.933   3.896
    1C        C  715   2.757   2.876   4.018
    1C        C  716   2.452   3.501   2.066
    1C        C  717   2.497   3.633   2.061
    1C        C  718   2.464   3.424   2.186
    1C        C  719   2.485   3.499   2.305
    1C        C  720   2.520   3.289   2.426
    1C        C  721   2.492   3.428   2.426
    1C        C  722   2.543   3.224   2.549
    1C        C  723   2.528   3.295   2.670
    1C        C  724   2.595   3.097   2.792
    1C        C  725   2.544   3.228   2.794
    1C        C  726   2.629   3.037   2.916
    1C        C  727   2.603   3.103   3.038
    1C        C  728   2.709   2.923   3.162
    1C        C  729   2.627   3.038   3.161
    1C        C  730   2.757   2.868   3.283
    1C        C  731   2.715   2.927   3.405
    1C        C  732   2.758   2.875   3.529
    1C        C  733   2.492   3.198   2.074
    1C        C  734   2.492   3.283   2.185
    1C        C  735   2.585   3.086   2.306
    1C        C  736   2.526   3.215   2.305
    1C        C  737   2.616   3.022   2.428
    1C        C  738   2.599   3.094   2.548
    1C        C  739   2.701   2.910   2.671
    1C        C  740   2.629   3.032   2.671
    1C        C  741   2.742   2.856   2.795
    1C        C  742   2.705   2.918   2.916
    1C        C  743   2.753   2.869   3.039
    1C        C  744   2.551   3.073   2.075
    1C        C  745   2.682   2.892   2.188
    1C        C  746   2.612   3.015   2.187
    1C        C  747   2.726   2.836   2.309
    1C        C  748   2.687   2.900   2.429
    1C        C  749   2.732   2.844   2.550
    1C        C  750   2.738   2.840   2.071
    1C        C  751   3.654   2.330   1.964
    1C        O  752   3.680   2.209   1.986
    1C        O  753   3.704   2.382   1.844
    1C        C  754   4.622   3.060   1.970
    1C        O  755   4.590   3.050   1.848
    1C        O  756   4.721   2.969   2.008
    1C        C  757   4.452   4.225   1.971
    1C        O  758   4.484   4.341   2.008
    1C        O  759   4.440   4.221   1.832
    1C        C  760   3.600   4.680   1.955
    1C        O  761   3.661   4.789   1.969
    1C        O  762   3.545   4.662   1.827
    1C        C  763   2.857   4.523   1.980
    1C        O  764   2.872   4.524   1.855
    1C        O  765   2.855   4.652   2.036
    1C        C  766   2.357   3.470   1.957
    1C        O  767   2.384   3.448   1.836
    1C        O  768   2.218   3.481   1.970
    1C        C  769   4.696   3.603   5.055
    1C        O  770   4.693   3.583   5.179
    1C        O  771   4.821   3.665   5.037
    1C        C  772   4.259   4.437   5.058
    1C        O  773   4.211   4.474   5.168
    1C        O  774   4.379   4.504   5.031
    1C        C  775   4.134   2.538   5.090
    1C        O  776   4.217   2.450   5.054
    1C        O  777   4.098   2.513   5.223
    1C        C  778   2.889   4.550   5.050
    1C        O  779   2.797   4.628   5.012
    1C        O  780   2.926   4.556   5.185
    1C        C  781   2.475   3.045   5.081
    1C        O  782   2.358   3.009   5.052
    1C        O  783   2.504   3.062   5.216
    1C        C  784   2.412   4.000   5.050
    1C        O  785   2.292   4.006   5.010
    1C        O  786   2.414   3.946   5.179
    1C        C  787   2.946   2.450   1.986
    1C        O  788   2.945   2.486   1.866
    1C        O  789   2.882   2.329   2.014
    1C        C  790   3.190   2.383   5.069
    1C        O  791   3.203   2.268   5.020
    1C        O  792   3.153   2.387   5.204
    1C        H  793   4.284   3.029   5.063
    1C        H  794   4.170   2.824   5.073
    1C        H  795   4.504   3.132   5.063
    1C        H  796   4.492   3.379   5.059
    1C        H  797   4.580   3.823   5.036
    1C        H  798   4.375   3.951   5.045
    1C        H  799   4.358   4.199   5.038
    1C        H  800   4.010   4.508   5.037
    1C        H  801   3.826   4.639   5.017
    1C        H  802   3.599   4.665   5.026
    1C        H  803   3.400   4.485   5.043
    1C        H  804   3.165   4.472   5.057
    1C        H  805   3.895   2.461   5.054
    1C        H  806   3.673   2.508   5.076
    1C        H  807   2.991   2.538   5.055
    1C        H  808   3.436   2.509   5.075
    1C        H  809   2.865   2.737   5.079
    1C        H  810   2.699   2.897   5.079
    1C        H  811   2.502   3.296   5.072
    1C        H  812   2.519   3.504   5.077
    1C        H  813   2.538   3.734   5.074
    1C        H  814   2.622   4.156   5.057
    1C        H  815   2.741   4.345   5.050
    1C        H  816   2.683   2.852   1.980
    1C        H  817   2.866   2.701   1.977
    1C        H  818   3.185   2.393   2.014
    1C        H  819   3.431   2.456   1.978
    1C        H  820   3.840   2.549   1.975
    1C        H  821   4.044   2.654   1.970
    1C        H  822   4.254   2.719   1.974
    1C        H  823   4.395   2.914   1.971
    1C        H  824   4.575   3.314   1.967
    1C        H  825   4.506   3.513   1.960
    1C        H  826   4.459   3.746   1.959
    1C        H  827   3.769   4.458   1.945
    1C        H  828   3.979   4.401   1.950
    1C        H  829   4.186   4.294   1.954
    1C        H  830   4.513   3.970   1.974
    1C        H  831   2.583   3.865   1.967
    1C        H  832   2.696   4.074   1.956
    1C        H  833   2.702   4.316   1.986
    1C        H  834   3.375   4.497   1.949
    1C        H  835   3.149   4.437   1.947
    1C        H  836   2.582   3.047   1.976
    1C        H  837   2.434   3.230   1.989
    1C        H  838   2.482   3.684   1.968
    2V3OU   H29  839   2.800   3.558   5.970
    2V3OU   C27  840   2.780   3.508   6.069
    2V3OU   H27  841   2.722   3.570   6.141
    2V3OU   H28  842   2.736   3.407   6.046
    2V3OU   O11  843   2.909   3.483   6.126
    2V3OU   C15  844   2.924   3.392   6.229
    2V3OU   C13  845   3.054   3.376   6.281
    2V3OU   C14  846   3.078   3.262   6.358
    2V3OU   C16  847   2.973   3.185   6.408
    2V3OU    H6  848   2.991   3.106   6.481
    2V3OU   C12  849   3.216   3.225   6.399
    2V3OU    O2  850   3.243   3.127   6.472
    2V3OU   C10  851   3.324   3.315   6.358
    2V3OU    C8  852   3.457   3.277   6.371
    2V3OU   O10  853   3.493   3.157   6.422
    2V3OU   H26  854   3.413   3.122   6.465
    2V3OU    C6  855   3.567   3.355   6.322
    2V3OU    C5  856   3.538   3.467   6.243
    2V3OU    C4  857   3.703   3.296   6.314
    2V3OU    H4  858   3.720   3.228   6.403
    2V3OU    H5  859   3.710   3.230   6.223
    2V3OU    C2  860   3.815   3.400   6.308
    2V3OU    O6  861   3.810   3.477   6.429
    2V3OU   H21  862   3.768   3.559   6.400
    2V3OU    C3  863   3.784   3.497   6.194
    2V3OU    H2  864   3.866   3.571   6.182
    2V3OU    H3  865   3.786   3.436   6.100
    2V3OU   C25  866   3.952   3.333   6.293
    2V3OU    O7  867   3.994   3.302   6.182
    2V3OU   C26  868   4.028   3.286   6.416
    2V3OU   H22  869   4.077   3.378   6.458
    2V3OU   H23  870   4.115   3.224   6.385
    2V3OU    O8  871   3.960   3.206   6.511
    2V3OU   H24  872   3.928   3.263   6.583
    2V3OU    C1  873   3.648   3.563   6.207
    2V3OU    H1  874   3.625   3.612   6.108
    2V3OU    O3  875   3.660   3.660   6.312
    2V3OU   C19  876   3.618   3.794   6.283
    2V3OU    H9  877   3.521   3.804   6.226
    2V3OU    O4  878   3.718   3.841   6.194
    2V3OU   C20  879   3.846   3.871   6.249
    2V3OU   H10  880   3.896   3.771   6.266
    2V3OU   C24  881   3.615   3.858   6.421
    2V3OU   H16  882   3.545   3.794   6.482
    2V3OU   H17  883   3.571   3.961   6.418
    2V3OU   C23  884   3.754   3.876   6.483
    2V3OU   H15  885   3.796   3.772   6.498
    2V3OU    N1  886   3.737   3.961   6.600
    2V3OU   H19  887   3.810   3.924   6.658
    2V3OU   H20  888   3.654   3.938   6.650
    2V3OU   C21  889   3.850   3.946   6.383
    2V3OU   H11  890   3.953   3.929   6.424
    2V3OU    O5  891   3.834   4.087   6.372
    2V3OU   H18  892   3.778   4.105   6.448
    2V3OU   C22  893   3.913   3.951   6.138
    2V3OU   H12  894   3.862   4.048   6.114
    2V3OU   H13  895   3.905   3.890   6.044
    2V3OU   H14  896   4.022   3.963   6.156
    2V3OU   C11  897   3.161   3.473   6.254
    2V3OU    O1  898   3.140   3.583   6.199
    2V3OU    C9  899   3.300   3.433   6.282
    2V3OU    C7  900   3.402   3.504   6.220
    2V3OU    O9  901   3.384   3.608   6.131
    2V3OU   H25  902   3.289   3.625   6.130
    2V3OU   C17  903   2.821   3.309   6.280
    2V3OU    H7  904   2.719   3.338   6.257
    2V3OU   C18  905   2.840   3.209   6.374
    2V3OU    H8  906   2.755   3.149   6.410
    3SOL     OW  907   3.435   3.006   4.447
    3SOL    HW1  908   3.462   3.090   4.494
    3SOL    HW2  909   3.352   3.022   4.394
    4SOL     OW  910   0.201   6.473   0.940
    4SOL    HW1  911   0.204   6.392   0.998
    4SOL    HW2  912   0.143   6.455   0.861
    5SOL     OW  913   4.416   2.350   0.786
    5SOL    HW1  914   4.430   2.371   0.883
    5SOL    HW2  915   4.359   2.268   0.778
    6SOL     OW  916   3.821   1.718   2.493
    6SOL    HW1  917   3.869   1.717   2.581
    6SOL    HW2  918   3.848   1.799   2.441
    7SOL     OW  919   2.505   2.546   4.366
    7SOL    HW1  920   2.486   2.607   4.289
    7SOL    HW2  921   2.428   2.483   4.379
    8SOL     OW  922   1.026   2.480   5.430
    8SOL    HW1  923   0.989   2.528   5.509
    8SOL    HW2  924   0.974   2.505   5.348
    9SOL     OW  925   1.419   2.200   6.565
    9SOL    HW1  926   1.363   2.276   6.597
    9SOL    HW2  927   1.385   2.114   6.604
   10SOL     OW  928   5.452   5.290   1.459
   10SOL    HW1  929   5.361   5.272   1.497
   10SOL    HW2  930   5.482   5.381   1.487
   11SOL     OW  931   3.171   2.057   0.390
   11SOL    HW1  932   3.148   1.960   0.402
   11SOL    HW2  933   3.184   2.076   0.293
   12SOL     OW  934   5.016   5.628   2.043
   12SOL    HW1  935   4.958   5.556   2.006
   12SOL    HW2  936   5.041   5.692   1.971
   13SOL     OW  937   5.522   6.210   2.356
   13SOL    HW1  938   5.478   6.135   2.407
   13SOL    HW2  939   5.560   6.174   2.271
   14SOL     OW  940   4.278   6.337   0.572
   14SOL    HW1  941   4.230   6.312   0.488
   14SOL    HW2  942   4.374   6.356   0.552
   15SOL     OW  943   0.439   5.984   6.718
   15SOL    HW1  944   0.479   5.934   6.642
   15SOL    HW2  945   0.499   5.975   6.798
   16SOL     OW  946   2.177   5.779   4.595
   16SOL    HW1  947   2.212   5.709   4.532
   16SOL    HW2  948   2.093   5.818   4.557
   17SOL     OW  949   0.014   1.531   4.093
   17SOL    HW1  950   0.100   1.535   4.043
   17SOL    HW2  951   0.007   1.612   4.153
   18SOL     OW  952   2.910   0.922   5.371
   18SOL    HW1  953   2.859   1.005   5.347
   18SOL    HW2  954   3.003   0.929   5.335
   19SOL     OW  955   2.888   6.234   2.877
   19SOL    HW1  956   2.855   6.205   2.787
   19SOL    HW2  957   2.811   6.241   2.940
   20SOL     OW  958   6.929   2.046   5.740
   20SOL    HW1  959   6.992   2.100   5.685
   20SOL    HW2  960   6.880   1.982   5.681
   21SOL     OW  961   2.054   3.930   1.991
   21SOL    HW1  962   1.988   3.997   1.959
   21SOL    HW2  963   2.141   3.944   1.944
   22SOL     OW  964   0.707   1.206   7.004
   22SOL    HW1  965   0.783   1.171   0.032
   22SOL    HW2  966   0.625   1.214   0.035
   23SOL     OW  967   6.768   5.295   0.098
   23SOL    HW1  968   6.683   5.334   0.060
   23SOL    HW2  969   6.749   5.204   0.135
   24SOL     OW  970   5.123   1.477   0.258
   24SOL    HW1  971   5.156   1.454   0.350
   24SOL    HW2  972   5.199   1.474   0.193
   25SOL     OW  973   1.237   1.200   4.548
   25SOL    HW1  974   1.325   1.163   4.575
   25SOL    HW2  975   1.228   1.196   4.448
   26SOL     OW  976   1.980   0.367   6.513
   26SOL    HW1  977   1.883   0.387   6.507
   26SOL    HW2  978   1.995   0.291   6.577
   27SOL     OW  979   0.056   0.095   2.416
   27SOL    HW1  980   0.120   0.068   2.488
   27SOL    HW2  981   0.009   0.015   2.380
   28SOL     OW  982   1.663   0.758   5.571
   28SOL    HW1  983   1.719   0.680   5.598
   28SOL    HW2  984   1.642   0.753   5.473
   29SOL     OW  985   5.723   1.228   1.640
   29SOL    HW1  986   5.746   1.246   1.544
   29SOL    HW2  987   5.660   1.150   1.644
   30SOL     OW  988   4.950   0.303   5.185
   30SOL    HW1  989   4.887   0.286   5.261
   30SOL    HW2  990   4.899   0.335   5.106
   31SOL     OW  991   6.546   4.627   4.360
   31SOL    HW1  992   6.455   4.638   4.398
   31SOL    HW2  993   6.584   4.717   4.338
   32SOL     OW  994   2.716   1.238   1.174
   32SOL    HW1  995   2.796   1.234   1.233
   32SOL    HW2  996   2.689   1.145   1.147
   33SOL     OW  997   1.723   5.164   5.753
   33SOL    HW1  998   1.798   5.230   5.746
   33SOL    HW2  999   1.756   5.082   5.800
   34SOL     OW 1000   1.868   6.163   5.483
   34SOL    HW1 1001   1.801   6.236   5.474
   34SOL    HW2 1002   1.852   6.093   5.413
   35SOL     OW 1003   1.549   3.170   4.660
   35SOL    HW1 1004   1.574   3.253   4.611
   35SOL    HW2 1005   1.559   3.186   4.758
   36SOL     OW 1006   5.733   1.338   3.963
   36SOL    HW1 1007   5.722   1.353   3.865
   36SOL    HW2 1008   5.830   1.320   3.983
   37SOL     OW 1009   1.505   6.631   4.233
   37SOL    HW1 1010   1.408   6.621   4.255
   37SOL    HW2 1011   1.549   6.541   4.232
   38SOL     OW 1012   0.859   3.893   2.001
   38SOL    HW1 1013   0.875   3.804   2.045
   38SOL    HW2 1014   0.943   3.924   1.958
   39SOL     OW 1015   6.212   4.913   1.161
   39SOL    HW1 1016   6.288   4.969   1.195
   39SOL    HW2 1017   6.139   4.912   1.229
   40SOL     OW 1018   3.733   0.863   6.490
   40SOL    HW1 1019   3.721   0.764   6.498
   40SOL    HW2 1020   3.796   0.884   6.416
   41SOL     OW 1021   5.148   4.098   1.850
   41SOL    HW1 1022   5.125   4.001   1.842
   41SOL    HW2 1023   5.108   4.148   1.772
   42SOL     OW 1024   2.885   3.926   6.586
   42SOL    HW1 1025   2.867   3.848   6.645
   42SOL    HW2 1026   2.926   4.000   6.640
   43SOL     OW 1027   5.347   6.704   5.108
   43SOL    HW1 1028   5.336   6.802   5.124
   43SOL    HW2 1029   5.361   6.688   5.010
   44SOL     OW 1030   6.246   0.861   6.287
   44SOL    HW1 1031   6.190   0.848   6.370
   44SOL    HW2 1032   6.218   0.945   6.241
   45SOL     OW 1033   2.967   4.403   5.811
   45SOL    HW1 1034   2.978   4.321   5.867
   45SOL    HW2 1035   2.869   4.418   5.793
   46SOL     OW 1036   0.814   4.758   4.383
   46SOL    HW1 1037   0.855   4.688   4.441
   46SOL    HW2 1038   0.745   4.717   4.324
   47SOL     OW 1039   6.164   4.117   0.100
   47SOL    HW1 1040   6.175   4.136   0.003
   47SOL    HW2 1041   6.132   4.200   0.147
   48SOL     OW 1042   0.238   4.328   0.245
   48SOL    HW1 1043   0.294   4.246   0.238
   48SOL    HW2 1044   0.271   4.398   0.182
   49SOL     OW 1045   3.137   2.596   6.655
   49SOL    HW1 1046   3.201   2.575   6.581
   49SOL    HW2 1047   3.110   2.692   6.649
   50SOL     OW 1048   5.262   2.129   0.356
   50SOL    HW1 1049   5.185   2.124   0.292
   50SOL    HW2 1050   5.319   2.207   0.333
   51SOL     OW 1051   0.841   6.356   2.214
   51SOL    HW1 1052   0.832   6.446   2.259
   51SOL    HW2 1053   0.929   6.316   2.239
   52SOL     OW 1054   5.537   1.736   2.373
   52SOL    HW1 1055   5.490   1.656   2.411
   52SOL    HW2 1056   5.548   1.806   2.443
   53SOL     OW 1057   4.523   0.552   0.852
   53SOL    HW1 1058   4.505   0.571   0.948
   53SOL    HW2 1059   4.553   0.636   0.807
   54SOL     OW 1060   6.213   0.123   6.666
   54SOL    HW1 1061   6.182   0.209   6.707
   54SOL    HW2 1062   6.221   0.134   6.567
   55SOL     OW 1063   1.823   3.685   5.657
   55SOL    HW1 1064   1.817   3.774   5.612
   55SOL    HW2 1065   1.903   3.683   5.717
   56SOL     OW 1066   0.393   2.328   6.707
   56SOL    HW1 1067   0.406   2.421   6.742
   56SOL    HW2 1068   0.439   2.263   6.767
   57SOL     OW 1069   3.953   5.870   1.463
   57SOL    HW1 1070   4.036   5.847   1.513
   57SOL    HW2 1071   3.873   5.841   1.515
   58SOL     OW 1072   0.930   0.580   6.764
   58SOL    HW1 1073   0.935   0.679   6.778
   58SOL    HW2 1074   0.971   0.534   6.843
   59SOL     OW 1075   4.170   2.993   6.931
   59SOL    HW1 1076   4.081   3.038   6.937
   59SOL    HW2 1077   4.242   3.061   6.926
   60SOL     OW 1078   6.819   3.169   2.480
   60SOL    HW1 1079   6.815   3.240   2.410
   60SOL    HW2 1080   6.790   3.207   2.568
   61SOL     OW 1081   1.668   5.795   3.022
   61SOL    HW1 1082   1.644   5.706   2.984
   61SOL    HW2 1083   1.636   5.868   2.961
   62SOL     OW 1084   5.401   2.626   2.890
   62SOL    HW1 1085   5.473   2.610   2.821
   62SOL    HW2 1086   5.421   2.572   2.971
   63SOL     OW 1087   3.845   0.351   6.336
   63SOL    HW1 1088   3.926   0.373   6.391
   63SOL    HW2 1089   3.859   0.383   6.242
   64SOL     OW 1090   1.667   2.194   6.645
   64SOL    HW1 1091   1.573   2.222   6.627
   64SOL    HW2 1092   1.711   2.167   6.559
   65SOL     OW 1093   1.124   5.078   5.403
   65SOL    HW1 1094   1.190   5.127   5.460
   65SOL    HW2 1095   1.135   5.106   5.307
   66SOL     OW 1096   4.739   1.150   1.251
   66SOL    HW1 1097   4.664   1.179   1.192
   66SOL    HW2 1098   4.795   1.229   1.276
   67SOL     OW 1099   0.282   3.552   1.047
   67SOL    HW1 1100   0.359   3.615   1.059
   67SOL    HW2 1101   0.313   3.458   1.063
   68SOL     OW 1102   0.518   1.000   6.138
   68SOL    HW1 1103   0.572   1.079   6.112
   68SOL    HW2 1104   0.491   1.008   6.234
   69SOL     OW 1105   1.417   6.859   6.579
   69SOL    HW1 1106   1.389   6.909   6.661
   69SOL    HW2 1107   1.439   6.923   6.506
   70SOL     OW 1108   5.002   4.514   3.021
   70SOL    HW1 1109   5.067   4.485   2.952
   70SOL    HW2 1110   4.915   4.466   3.009
   71SOL     OW 1111   4.595   2.075   5.333
   71SOL    HW1 1112   4.621   1.980   5.318
   71SOL    HW2 1113   4.669   2.135   5.300
   72SOL     OW 1114   6.739   1.323   2.288
   72SOL    HW1 1115   6.723   1.268   2.206
   72SOL    HW2 1116   6.738   1.263   2.368
   73SOL     OW 1117   2.467   1.004   1.424
   73SOL    HW1 1118   2.436   1.078   1.364
   73SOL    HW2 1119   2.552   0.966   1.389
   74SOL     OW 1120   2.534   1.072   6.982
   74SOL    HW1 1121   2.483   1.087   0.040
   74SOL    HW2 1122   2.493   1.126   6.909
   75SOL     OW 1123   2.773   2.826   1.306
   75SOL    HW1 1124   2.744   2.883   1.230
   75SOL    HW2 1125   2.824   2.747   1.271
   76SOL     OW 1126   3.727   5.370   6.362
   76SOL    HW1 1127   3.823   5.389   6.383
   76SOL    HW2 1128   3.719   5.348   6.265
   77SOL     OW 1129   6.823   5.347   4.509
   77SOL    HW1 1130   6.915   5.310   4.498
   77SOL    HW2 1131   6.772   5.290   4.575
   78SOL     OW 1132   5.470   1.460   1.387
   78SOL    HW1 1133   5.507   1.500   1.471
   78SOL    HW2 1134   5.542   1.409   1.340
   79SOL     OW 1135   1.215   4.263   4.333
   79SOL    HW1 1136   1.242   4.358   4.350
   79SOL    HW2 1137   1.284   4.202   4.372
   80SOL     OW 1138   3.726   2.230   5.437
   80SOL    HW1 1139   3.646   2.218   5.379
   80SOL    HW2 1140   3.809   2.218   5.382
   81SOL     OW 1141   3.485   4.927   2.827
   81SOL    HW1 1142   3.497   5.024   2.809
   81SOL    HW2 1143   3.574   4.882   2.834
   82SOL     OW 1144   3.092   0.477   1.913
   82SOL    HW1 1145   3.185   0.484   1.949
   82SOL    HW2 1146   3.029   0.529   1.971
   83SOL     OW 1147   5.322   1.499   3.995
   83SOL    HW1 1148   5.352   1.463   3.906
   83SOL    HW2 1149   5.263   1.433   4.040
   84SOL     OW 1150   6.065   2.580   2.784
   84SOL    HW1 1151   6.005   2.515   2.738
   84SOL    HW2 1152   6.136   2.530   2.833
   85SOL     OW 1153   2.239   5.559   3.523
   85SOL    HW1 1154   2.307   5.508   3.576
   85SOL    HW2 1155   2.260   5.656   3.526
   86SOL     OW 1156   4.900   0.669   0.374
   86SOL    HW1 1157   4.912   0.595   0.439
   86SOL    HW2 1158   4.984   0.723   0.369
   87SOL     OW 1159   2.870   3.131   6.929
   87SOL    HW1 1160   2.826   3.155   7.016
   87SOL    HW2 1161   2.913   3.212   6.891
   88SOL     OW 1162   1.571   2.458   1.404
   88SOL    HW1 1163   1.639   2.463   1.477
   88SOL    HW2 1164   1.616   2.434   1.318
   89SOL     OW 1165   3.210   4.073   5.067
   89SOL    HW1 1166   3.124   4.043   5.025
   89SOL    HW2 1167   3.277   3.998   5.063
   90SOL     OW 1168   6.591   4.206   1.979
   90SOL    HW1 1169   6.595   4.109   2.001
   90SOL    HW2 1170   6.599   4.218   1.880
   91SOL     OW 1171   4.448   6.043   1.200
   91SOL    HW1 1172   4.501   5.970   1.243
   91SOL    HW2 1173   4.383   6.003   1.135
   92SOL     OW 1174   5.513   4.997   0.238
   92SOL    HW1 1175   5.518   4.972   0.141
   92SOL    HW2 1176   5.494   4.915   0.292
   93SOL     OW 1177   3.061   3.867   1.853
   93SOL    HW1 1178   3.127   3.794   1.869
   93SOL    HW2 1179   3.080   3.942   1.917
   94SOL     OW 1180   3.000   1.516   4.320
   94SOL    HW1 1181   2.943   1.519   4.402
   94SOL    HW2 1182   2.963   1.579   4.251
   95SOL     OW 1183   0.734   6.423   3.813
   95SOL    HW1 1184   0.662   6.366   3.853
   95SOL    HW2 1185   0.694   6.488   3.748
   96SOL     OW 1186   0.120   5.942   0.188
   96SOL    HW1 1187   0.203   5.979   0.147
   96SOL    HW2 1188   0.124   5.842   0.187
   97SOL     OW 1189   3.717   4.562   5.303
   97SOL    HW1 1190   3.619   4.584   5.304
   97SOL    HW2 1191   3.768   4.635   5.258
   98SOL     OW 1192   0.975   3.050   4.722
   98SOL    HW1 1193   0.950   3.145   4.702
   98SOL    HW2 1194   1.024   3.012   4.645
   99SOL     OW 1195   4.315   4.728   4.899
   99SOL    HW1 1196   4.322   4.646   4.955
   99SOL    HW2 1197   4.226   4.771   4.914
  100SOL     OW 1198   1.511   1.001   5.119
  100SOL    HW1 1199   1.494   0.989   5.021
  100SOL    HW2 1200   1.532   0.912   5.160
  101SOL     OW 1201   5.416   2.921   2.645
  101SOL    HW1 1202   5.401   2.957   2.737
  101SOL    HW2 1203   5.507   2.949   2.613
  102SOL     OW 1204   3.698   0.173   0.008
  102SOL    HW1 1205   3.624   0.212   6.980
  102SOL    HW2 1206   3.777   0.233   0.004
  103SOL     OW 1207   1.302   2.181   1.524
  103SOL    HW1 1208   1.395   2.189   1.560
  103SOL    HW2 1209   1.258   2.101   1.563
  104SOL     OW 1210   0.274   4.856   1.360
  104SOL    HW1 1211   0.320   4.778   1.402
  104SOL    HW2 1212   0.299   4.861   1.263
  105SOL     OW 1213   6.807   0.955   5.316
  105SOL    HW1 1214   6.864   0.976   5.237
  105SOL    HW2 1215   6.865   0.928   5.393
  106SOL     OW 1216   4.386   3.130   1.718
  106SOL    HW1 1217   4.385   3.226   1.693
  106SOL    HW2 1218   4.471   3.108   1.765
  107SOL     OW 1219   4.420   6.758   2.396
  107SOL    HW1 1220   4.322   6.768   2.411
  107SOL    HW2 1221   4.467   6.746   2.484
  108SOL     OW 1222   3.891   1.445   4.747
  108SOL    HW1 1223   3.844   1.407   4.667
  108SOL    HW2 1224   3.871   1.543   4.754
  109SOL     OW 1225   2.069   1.350   5.338
  109SOL    HW1 1226   2.044   1.394   5.424
  109SOL    HW2 1227   2.111   1.418   5.277
  110SOL     OW 1228   4.198   4.747   5.495
  110SOL    HW1 1229   4.158   4.661   5.465
  110SOL    HW2 1230   4.138   4.790   5.563
  111SOL     OW 1231   5.960   3.266   1.750
  111SOL    HW1 1232   5.997   3.332   1.816
  111SOL    HW2 1233   5.872   3.300   1.716
  112SOL     OW 1234   4.596   6.742   4.964
  112SOL    HW1 1235   4.535   6.799   5.018
  112SOL    HW2 1236   4.611   6.655   5.011
  113SOL     OW 1237   0.740   5.082   2.389
  113SOL    HW1 1238   0.701   5.019   2.322
  113SOL    HW2 1239   0.769   5.166   2.342
  114SOL     OW 1240   0.059   1.720   2.357
  114SOL    HW1 1241   0.017   1.808   2.382
  114SOL    HW2 1242   0.138   1.703   2.415
  115SOL     OW 1243   4.094   1.059   2.930
  115SOL    HW1 1244   4.165   1.125   2.957
  115SOL    HW2 1245   4.114   1.024   2.839
  116SOL     OW 1246   6.179   5.800   0.922
  116SOL    HW1 1247   6.145   5.768   0.834
  116SOL    HW2 1248   6.153   5.895   0.936
  117SOL     OW 1249   2.535   1.880   0.365
  117SOL    HW1 1250   2.630   1.906   0.351
  117SOL    HW2 1251   2.530   1.799   0.423
  118SOL     OW 1252   0.026   2.352   2.356
  118SOL    HW1 1253   0.012   2.423   2.425
  118SOL    HW2 1254   7.010   2.381   2.270
  119SOL     OW 1255   6.064   6.213   5.000
  119SOL    HW1 1256   6.152   6.228   5.045
  119SOL    HW2 1257   5.990   6.219   5.067
  120SOL     OW 1258   4.234   1.527   4.842
  120SOL    HW1 1259   4.182   1.600   4.887
  120SOL    HW2 1260   4.190   1.439   4.859
  121SOL     OW 1261   0.186   5.554   6.178
  121SOL    HW1 1262   0.208   5.485   6.109
  121SOL    HW2 1263   0.166   5.641   6.133
  122SOL     OW 1264   0.082   4.939   5.820
  122SOL    HW1 1265   0.044   4.949   5.728
  122SOL    HW2 1266   0.009   4.945   5.888
  123SOL     OW 1267   0.831   2.877   1.091
  123SOL    HW1 1268   0.883   2.897   1.174
  123SOL    HW2 1269   0.840   2.952   1.027
  124SOL     OW 1270   2.168   3.579   6.707
  124SOL    HW1 1271   2.215   3.667   6.712
  124SOL    HW2 1272   2.220   3.517   6.649
  125SOL     OW 1273   4.342   2.283   0.479
  125SOL    HW1 1274   4.402   2.212   0.516
  125SOL    HW2 1275   4.356   2.368   0.530
  126SOL     OW 1276   3.967   3.692   4.771
  126SOL    HW1 1277   3.900   3.657   4.705
  126SOL    HW2 1278   4.042   3.627   4.780
  127SOL     OW 1279   6.883   5.157   6.263
  127SOL    HW1 1280   6.845   5.215   6.191
  127SOL    HW2 1281   6.836   5.069   6.262
  128SOL     OW 1282   4.499   4.177   6.064
  128SOL    HW1 1283   4.517   4.222   6.151
  128SOL    HW2 1284   4.526   4.081   6.070
  129SOL     OW 1285   1.014   4.676   1.269
  129SOL    HW1 1286   1.018   4.576   1.267
  129SOL    HW2 1287   0.924   4.706   1.237
  130SOL     OW 1288   6.262   3.789   4.757
  130SOL    HW1 1289   6.223   3.798   4.849
  130SOL    HW2 1290   6.207   3.723   4.705
  131SOL     OW 1291   1.303   3.836   2.874
  131SOL    HW1 1292   1.392   3.866   2.910
  131SOL    HW2 1293   1.316   3.754   2.818
  132SOL     OW 1294   4.552   2.748   1.413
  132SOL    HW1 1295   4.456   2.774   1.427
  132SOL    HW2 1296   4.593   2.807   1.344
  133SOL     OW 1297   4.347   4.720   6.305
  133SOL    HW1 1298   4.365   4.626   6.333
  133SOL    HW2 1299   4.258   4.749   6.341
  134SOL     OW 1300   6.753   1.859   0.053
  134SOL    HW1 1301   6.769   1.764   0.079
  134SOL    HW2 1302   6.690   1.901   0.118
  135SOL     OW 1303   4.551   4.547   3.638
  135SOL    HW1 1304   4.560   4.550   3.738
  135SOL    HW2 1305   4.455   4.559   3.613
  136SOL     OW 1306   4.066   6.723   6.328
  136SOL    HW1 1307   4.004   6.750   6.402
  136SOL    HW2 1308   4.071   6.623   6.323
  137SOL     OW 1309   1.943   4.247   6.806
  137SOL    HW1 1310   2.038   4.234   6.836
  137SOL    HW2 1311   1.941   4.253   6.706
  138SOL     OW 1312   0.950   5.948   0.273
  138SOL    HW1 1313   0.881   5.877   0.287
  138SOL    HW2 1314   0.911   6.038   0.294
  139SOL     OW 1315   0.550   1.080   0.922
  139SOL    HW1 1316   0.502   1.058   1.008
  139SOL    HW2 1317   0.633   1.025   0.916
  140SOL     OW 1318   3.823   0.176   1.716
  140SOL    HW1 1319   3.913   0.140   1.690
  140SOL    HW2 1320   3.812   0.268   1.681
  141SOL     OW 1321   1.050   1.311   6.839
  141SOL    HW1 1322   1.083   1.332   6.930
  141SOL    HW2 1323   0.955   1.341   6.830
  142SOL     OW 1324   2.021   3.951   6.776
  142SOL    HW1 1325   1.977   3.872   6.734
  142SOL    HW2 1326   1.977   4.035   6.742
  143SOL     OW 1327   5.352   5.869   1.795
  143SOL    HW1 1328   5.288   5.931   1.750
  143SOL    HW2 1329   5.444   5.882   1.756
  144SOL     OW 1330   3.214   5.589   3.254
  144SOL    HW1 1331   3.130   5.542   3.281
  144SOL    HW2 1332   3.223   5.673   3.307
  145SOL     OW 1333   0.307   5.392   3.242
  145SOL    HW1 1334   0.396   5.434   3.225
  145SOL    HW2 1335   0.292   5.384   3.340
  146SOL     OW 1336   0.141   1.020   5.834
  146SOL    HW1 1337   0.171   1.113   5.855
  146SOL    HW2 1338   0.160   0.960   5.911
  147SOL     OW 1339   5.806   0.953   4.876
  147SOL    HW1 1340   5.861   1.021   4.925
  147SOL    HW2 1341   5.729   0.925   4.933
  148SOL     OW 1342   2.136   6.579   1.792
  148SOL    HW1 1343   2.097   6.525   1.717
  148SOL    HW2 1344   2.219   6.625   1.760
  149SOL     OW 1345   1.870   2.972   4.822
  149SOL    HW1 1346   1.940   2.903   4.842
  149SOL    HW2 1347   1.851   3.025   4.905
  150SOL     OW 1348   4.859   2.751   5.766
  150SOL    HW1 1349   4.872   2.698   5.682
  150SOL    HW2 1350   4.785   2.817   5.753
  151SOL     OW 1351   6.384   2.706   1.521
  151SOL    HW1 1352   6.305   2.729   1.579
  151SOL    HW2 1353   6.375   2.752   1.433
  152SOL     OW 1354   6.995   2.752   0.189
  152SOL    HW1 1355   0.024   2.817   0.241
  152SOL    HW2 1356   7.001   2.773   0.092
  153SOL     OW 1357   1.576   2.021   3.736
  153SOL    HW1 1358   1.562   2.118   3.757
  153SOL    HW2 1359   1.609   2.012   3.642
  154SOL     OW 1360   0.035   1.391   3.699
  154SOL    HW1 1361   0.011   1.382   3.603
  154SOL    HW2 1362   0.086   1.476   3.713
  155SOL     OW 1363   5.421   4.577   3.457
  155SOL    HW1 1364   5.409   4.564   3.359
  155SOL    HW2 1365   5.509   4.538   3.485
  156SOL     OW 1366   4.376   0.420   1.870
  156SOL    HW1 1367   4.435   0.339   1.867
  156SOL    HW2 1368   4.428   0.498   1.903
  157SOL     OW 1369   5.182   6.975   1.421
  157SOL    HW1 1370   5.133   6.965   1.334
  157SOL    HW2 1371   5.119   6.957   1.497
  158SOL     OW 1372   0.970   3.460   3.922
  158SOL    HW1 1373   1.005   3.370   3.896
  158SOL    HW2 1374   0.873   3.466   3.900
  159SOL     OW 1375   6.618   5.086   6.778
  159SOL    HW1 1376   6.665   5.069   6.691
  159SOL    HW2 1377   6.668   5.042   6.852
  160SOL     OW 1378   4.104   0.469   1.242
  160SOL    HW1 1379   4.075   0.554   1.199
  160SOL    HW2 1380   4.191   0.439   1.202
  161SOL     OW 1381   6.995   0.048   0.453
  161SOL    HW1 1382   6.932   7.022   0.511
  161SOL    HW2 1383   6.959   0.140   0.441
  162SOL     OW 1384   4.468   6.975   5.579
  162SOL    HW1 1385   4.489   6.930   5.492
  162SOL    HW2 1386   4.452   6.905   5.649
  163SOL     OW 1387   0.888   3.848   2.610
  163SOL    HW1 1388   0.948   3.876   2.684
  163SOL    HW2 1389   0.935   3.860   2.522
  164SOL     OW 1390   2.127   2.170   2.288
  164SOL    HW1 1391   2.071   2.252   2.292
  164SOL    HW2 1392   2.166   2.152   2.378
  165SOL     OW 1393   0.252   6.161   4.350
  165SOL    HW1 1394   0.154   6.173   4.336
  165SOL    HW2 1395   0.291   6.110   4.274
  166SOL     OW 1396   0.428   4.793   3.846
  166SOL    HW1 1397   0.471   4.852   3.914
  166SOL    HW2 1398   0.345   4.753   3.884
  167SOL     OW 1399   0.959   1.260   2.949
  167SOL    HW1 1400   0.913   1.308   3.023
  167SOL    HW2 1401   1.058   1.267   2.962
  168SOL     OW 1402   3.114   3.488   3.179
  168SOL    HW1 1403   3.046   3.553   3.213
  168SOL    HW2 1404   3.191   3.484   3.242
  169SOL     OW 1405   5.449   2.386   6.873
  169SOL    HW1 1406   5.418   2.345   6.959
  169SOL    HW2 1407   5.374   2.437   6.831
  170SOL     OW 1408   6.740   5.315   1.930
  170SOL    HW1 1409   6.689   5.401   1.939
  170SOL    HW2 1410   6.699   5.246   1.989
  171SOL     OW 1411   2.980   2.311   0.743
  171SOL    HW1 1412   3.052   2.349   0.802
  171SOL    HW2 1413   2.934   2.237   0.790
  172SOL     OW 1414   1.667   1.326   0.097
  172SOL    HW1 1415   1.684   1.245   0.153
  172SOL    HW2 1416   1.736   1.332   0.025
  173SOL     OW 1417   5.723   0.448   4.926
  173SOL    HW1 1418   5.741   0.415   5.018
  173SOL    HW2 1419   5.781   0.528   4.907
  174SOL     OW 1420   6.395   4.063   5.333
  174SOL    HW1 1421   6.425   4.101   5.420
  174SOL    HW2 1422   6.397   3.963   5.337
  175SOL     OW 1423   0.616   6.424   2.866
  175SOL    HW1 1424   0.587   6.497   2.804
  175SOL    HW2 1425   0.594   6.448   2.960
  176SOL     OW 1426   6.794   3.872   0.762
  176SOL    HW1 1427   6.790   3.902   0.667
  176SOL    HW2 1428   6.887   3.882   0.797
  177SOL     OW 1429   6.732   2.534   3.504
  177SOL    HW1 1430   6.704   2.497   3.416
  177SOL    HW2 1431   6.652   2.542   3.564
  178SOL     OW 1432   2.085   5.877   4.837
  178SOL    HW1 1433   2.123   5.960   4.879
  178SOL    HW2 1434   2.144   5.846   4.763
  179SOL     OW 1435   3.586   4.133   2.090
  179SOL    HW1 1436   3.575   4.224   2.131
  179SOL    HW2 1437   3.578   4.064   2.162
  180SOL     OW 1438   4.787   1.396   6.663
  180SOL    HW1 1439   4.715   1.465   6.661
  180SOL    HW2 1440   4.848   1.410   6.585
  181SOL     OW 1441   3.847   0.361   5.345
  181SOL    HW1 1442   3.817   0.396   5.433
  181SOL    HW2 1443   3.768   0.351   5.284
  182SOL     OW 1444   3.124   3.164   5.673
  182SOL    HW1 1445   3.147   3.070   5.650
  182SOL    HW2 1446   3.031   3.184   5.642
  183SOL     OW 1447   2.879   1.270   3.503
  183SOL    HW1 1448   2.928   1.316   3.429
  183SOL    HW2 1449   2.928   1.187   3.530
  184SOL     OW 1450   4.712   5.550   3.421
  184SOL    HW1 1451   4.763   5.465   3.418
  184SOL    HW2 1452   4.681   5.574   3.329
  185SOL     OW 1453   0.091   6.775   4.836
  185SOL    HW1 1454   0.043   6.706   4.891
  185SOL    HW2 1455   0.132   6.730   4.756
  186SOL     OW 1456   2.495   6.072   5.752
  186SOL    HW1 1457   2.569   6.076   5.819
  186SOL    HW2 1458   2.408   6.092   5.797
  187SOL     OW 1459   3.704   5.644   0.805
  187SOL    HW1 1460   3.632   5.674   0.742
  187SOL    HW2 1461   3.745   5.724   0.849
  188SOL     OW 1462   1.451   3.870   3.304
  188SOL    HW1 1463   1.474   3.792   3.363
  188SOL    HW2 1464   1.510   3.868   3.223
  189SOL     OW 1465   5.276   4.544   5.894
  189SOL    HW1 1466   5.317   4.632   5.919
  189SOL    HW2 1467   5.348   4.476   5.882
  190SOL     OW 1468   5.887   6.594   0.667
  190SOL    HW1 1469   5.910   6.689   0.690
  190SOL    HW2 1470   5.811   6.563   0.724
  191SOL     OW 1471   2.202   2.767   5.383
  191SOL    HW1 1472   2.141   2.702   5.430
  191SOL    HW2 1473   2.152   2.812   5.310
  192SOL     OW 1474   0.234   6.635   1.364
  192SOL    HW1 1475   0.245   6.646   1.463
  192SOL    HW2 1476   0.220   6.538   1.344
  193SOL     OW 1477   3.136   0.637   1.531
  193SOL    HW1 1478   3.163   0.610   1.439
  193SOL    HW2 1479   3.079   0.565   1.571
  194SOL     OW 1480   4.252   6.077   3.233
  194SOL    HW1 1481   4.313   6.096   3.157
  194SOL    HW2 1482   4.190   6.155   3.247
  195SOL     OW 1483   2.892   0.803   1.054
  195SOL    HW1 1484   2.854   0.837   0.968
  195SOL    HW2 1485   2.864   0.708   1.068
  196SOL     OW 1486   4.304   2.701   1.621
  196SOL    HW1 1487   4.205   2.689   1.629
  196SOL    HW2 1488   4.342   2.628   1.565
  197SOL     OW 1489   1.600   6.209   0.755
  197SOL    HW1 1490   1.641   6.276   0.693
  197SOL    HW2 1491   1.530   6.157   0.706
  198SOL     OW 1492   5.238   6.573   6.232
  198SOL    HW1 1493   5.232   6.528   6.321
  198SOL    HW2 1494   5.248   6.503   6.161
  199SOL     OW 1495   2.234   0.776   3.344
  199SOL    HW1 1496   2.177   0.737   3.273
  199SOL    HW2 1497   2.318   0.813   3.304
  200SOL     OW 1498   1.332   3.670   4.012
  200SOL    HW1 1499   1.270   3.626   3.946
  200SOL    HW2 1500   1.278   3.713   4.084
  201SOL     OW 1501   4.774   1.564   0.017
  201SOL    HW1 1502   4.681   1.527   0.013
  201SOL    HW2 1503   4.791   1.601   0.109
  202SOL     OW 1504   4.275   0.283   3.210
  202SOL    HW1 1505   4.242   0.375   3.228
  202SOL    HW2 1506   4.369   0.287   3.174
  203SOL     OW 1507   5.841   2.864   0.233
  203SOL    HW1 1508   5.907   2.795   0.260
  203SOL    HW2 1509   5.788   2.831   0.154
  204SOL     OW 1510   1.837   6.143   1.228
  204SOL    HW1 1511   1.885   6.103   1.306
  204SOL    HW2 1512   1.749   6.097   1.216
  205SOL     OW 1513   5.160   0.632   1.304
  205SOL    HW1 1514   5.226   0.559   1.284
  205SOL    HW2 1515   5.196   0.689   1.378
  206SOL     OW 1516   6.979   6.386   1.166
  206SOL    HW1 1517   7.011   6.393   1.261
  206SOL    HW2 1518   0.013   6.326   1.115
  207SOL     OW 1519   6.409   2.204   5.817
  207SOL    HW1 1520   6.504   2.210   5.787
  207SOL    HW2 1521   6.397   2.122   5.873
  208SOL     OW 1522   4.132   4.303   6.890
  208SOL    HW1 1523   4.112   4.261   6.801
  208SOL    HW2 1524   4.047   4.317   6.940
  209SOL     OW 1525   0.221   6.221   4.012
  209SOL    HW1 1526   0.251   6.127   4.027
  209SOL    HW2 1527   0.135   6.221   3.961
  210SOL     OW 1528   3.866   2.228   0.748
  210SOL    HW1 1529   3.941   2.214   0.683
  210SOL    HW2 1530   3.823   2.140   0.769
  211SOL     OW 1531   1.015   3.068   1.715
  211SOL    HW1 1532   1.024   3.153   1.662
  211SOL    HW2 1533   0.937   3.016   1.682
  212SOL     OW 1534   1.140   5.401   5.180
  212SOL    HW1 1535   1.148   5.302   5.179
  212SOL    HW2 1536   1.215   5.441   5.234
  213SOL     OW 1537   3.952   2.460   0.269
  213SOL    HW1 1538   3.853   2.451   0.263
  213SOL    HW2 1539   3.975   2.523   0.343
  214SOL     OW 1540   1.564   6.142   3.097
  214SOL    HW1 1541   1.493   6.140   3.026
  214SOL    HW2 1542   1.651   6.170   3.056
  215SOL     OW 1543   3.028   3.852   2.991
  215SOL    HW1 1544   2.994   3.880   2.901
  215SOL    HW2 1545   3.089   3.773   2.981
  216SOL     OW 1546   3.149   0.568   5.510
  216SOL    HW1 1547   3.190   0.649   5.551
  216SOL    HW2 1548   3.077   0.595   5.446
  217SOL     OW 1549   6.863   2.188   5.386
  217SOL    HW1 1550   6.818   2.259   5.332
  217SOL    HW2 1551   6.940   2.150   5.334
  218SOL     OW 1552   2.602   3.859   5.663
  218SOL    HW1 1553   2.679   3.905   5.706
  218SOL    HW2 1554   2.562   3.919   5.593
  219SOL     OW 1555   2.861   5.415   0.041
  219SOL    HW1 1556   2.824   5.509   0.044
  219SOL    HW2 1557   2.898   5.392   0.131
  220SOL     OW 1558   1.687   4.703   0.111
  220SOL    HW1 1559   1.653   4.622   0.064
  220SOL    HW2 1560   1.617   4.775   0.109
  221SOL     OW 1561   5.881   2.387   4.843
  221SOL    HW1 1562   5.867   2.289   4.849
  221SOL    HW2 1563   5.831   2.424   4.765
  222SOL     OW 1564   2.192   6.753   4.734
  222SOL    HW1 1565   2.279   6.796   4.709
  222SOL    HW2 1566   2.149   6.806   4.807
  223SOL     OW 1567   5.426   4.653   2.644
  223SOL    HW1 1568   5.334   4.692   2.644
  223SOL    HW2 1569   5.461   4.650   2.550
  224SOL     OW 1570   4.807   2.305   2.501
  224SOL    HW1 1571   4.773   2.391   2.541
  224SOL    HW2 1572   4.816   2.315   2.402
  225SOL     OW 1573   4.934   6.382   1.172
  225SOL    HW1 1574   4.876   6.425   1.241
  225SOL    HW2 1575   4.884   6.375   1.086
  226SOL     OW 1576   0.577   5.628   2.461
  226SOL    HW1 1577   0.545   5.687   2.387
  226SOL    HW2 1578   0.525   5.649   2.544
  227SOL     OW 1579   1.145   3.512   3.339
  227SOL    HW1 1580   1.181   3.485   3.250
  227SOL    HW2 1581   1.091   3.436   3.377
  228SOL     OW 1582   4.051   6.482   2.713
  228SOL    HW1 1583   3.980   6.482   2.643
  228SOL    HW2 1584   4.084   6.575   2.727
  229SOL     OW 1585   6.697   5.183   2.993
  229SOL    HW1 1586   6.602   5.199   3.021
  229SOL    HW2 1587   6.752   5.264   3.011
  230SOL     OW 1588   0.783   4.685   5.962
  230SOL    HW1 1589   0.702   4.670   5.906
  230SOL    HW2 1590   0.827   4.597   5.981
  231SOL     OW 1591   0.326   2.194   6.193
  231SOL    HW1 1592   0.301   2.245   6.275
  231SOL    HW2 1593   0.425   2.176   6.194
  232SOL     OW 1594   1.526   4.113   6.406
  232SOL    HW1 1595   1.548   4.177   6.332
  232SOL    HW2 1596   1.433   4.079   6.394
  233SOL     OW 1597   3.321   7.022   6.726
  233SOL    HW1 1598   3.364   7.018   6.816
  233SOL    HW2 1599   3.247   0.061   6.727
  234SOL     OW 1600   2.358   4.663   6.433
  234SOL    HW1 1601   2.443   4.638   6.480
  234SOL    HW2 1602   2.287   4.596   6.455
  235SOL     OW 1603   3.498   3.104   5.657
  235SOL    HW1 1604   3.548   3.024   5.623
  235SOL    HW2 1605   3.485   3.169   5.582
  236SOL     OW 1606   0.074   1.876   5.878
  236SOL    HW1 1607   0.008   1.928   5.825
  236SOL    HW2 1608   0.159   1.864   5.826
  237SOL     OW 1609   6.594   6.451   1.956
  237SOL    HW1 1610   6.519   6.482   1.897
  237SOL    HW2 1611   6.643   6.531   1.991
  238SOL     OW 1612   0.273   1.761   2.788
  238SOL    HW1 1613   0.261   1.852   2.748
  238SOL    HW2 1614   0.343   1.766   2.859
  239SOL     OW 1615   6.301   5.142   0.496
  239SOL    HW1 1616   6.273   5.235   0.523
  239SOL    HW2 1617   6.352   5.147   0.411
  240SOL     OW 1618   6.982   2.401   5.203
  240SOL    HW1 1619   0.011   2.320   5.219
  240SOL    HW2 1620   6.962   2.446   5.290
  241SOL     OW 1621   5.306   2.168   4.831
  241SOL    HW1 1622   5.264   2.172   4.740
  241SOL    HW2 1623   5.391   2.220   4.831
  242SOL     OW 1624   2.637   2.281   4.369
  242SOL    HW1 1625   2.667   2.373   4.394
  242SOL    HW2 1626   2.654   2.265   4.272
  243SOL     OW 1627   5.016   0.954   6.878
  243SOL    HW1 1628   4.934   0.898   6.870
  243SOL    HW2 1629   5.025   1.013   6.797
  244SOL     OW 1630   0.602   1.792   5.619
  244SOL    HW1 1631   0.595   1.859   5.545
  244SOL    HW2 1632   0.657   1.831   5.693
  245SOL     OW 1633   4.744   2.805   3.594
  245SOL    HW1 1634   4.759   2.739   3.667
  245SOL    HW2 1635   4.833   2.833   3.556
  246SOL     OW 1636   4.912   3.042   4.279
  246SOL    HW1 1637   4.923   3.135   4.246
  246SOL    HW2 1638   4.932   3.039   4.377
  247SOL     OW 1639   2.927   0.597   2.799
  247SOL    HW1 1640   3.000   0.571   2.737
  247SOL    HW2 1641   2.950   0.568   2.892
  248SOL     OW 1642   0.277   2.007   2.673
  248SOL    HW1 1643   0.197   2.061   2.697
  248SOL    HW2 1644   0.298   2.018   2.576
  249SOL     OW 1645   2.052   5.725   5.162
  249SOL    HW1 1646   2.080   5.821   5.166
  249SOL    HW2 1647   2.131   5.666   5.182
  250SOL     OW 1648   5.376   2.473   0.522
  250SOL    HW1 1649   5.371   2.426   0.433
  250SOL    HW2 1650   5.384   2.571   0.507
  251SOL     OW 1651   1.840   1.062   0.832
  251SOL    HW1 1652   1.907   1.075   0.759
  251SOL    HW2 1653   1.875   1.103   0.916
  252SOL     OW 1654   0.360   1.910   7.008
  252SOL    HW1 1655   0.394   1.862   0.061
  252SOL    HW2 1656   0.426   1.903   6.934
  253SOL     OW 1657   1.708   4.402   6.511
  253SOL    HW1 1658   1.762   4.341   6.454
  253SOL    HW2 1659   1.666   4.350   6.586
  254SOL     OW 1660   5.023   3.966   6.372
  254SOL    HW1 1661   5.020   4.066   6.382
  254SOL    HW2 1662   5.104   3.931   6.420
  255SOL     OW 1663   4.222   2.231   2.109
  255SOL    HW1 1664   4.189   2.264   2.197
  255SOL    HW2 1665   4.157   2.165   2.071
  256SOL     OW 1666   6.501   5.981   1.172
  256SOL    HW1 1667   6.465   6.069   1.202
  256SOL    HW2 1668   6.561   5.995   1.093
  257SOL     OW 1669   2.790   5.737   5.670
  257SOL    HW1 1670   2.712   5.698   5.719
  257SOL    HW2 1671   2.841   5.664   5.624
  258SOL     OW 1672   4.293   5.160   3.961
  258SOL    HW1 1673   4.326   5.078   3.914
  258SOL    HW2 1674   4.204   5.185   3.925
  259SOL     OW 1675   0.843   1.804   3.039
  259SOL    HW1 1676   0.939   1.813   3.014
  259SOL    HW2 1677   0.787   1.789   2.957
  260SOL     OW 1678   6.401   6.754   5.442
  260SOL    HW1 1679   6.378   6.726   5.349
  260SOL    HW2 1680   6.417   6.853   5.444
  261SOL     OW 1681   0.446   0.915   4.074
  261SOL    HW1 1682   0.537   0.902   4.113
  261SOL    HW2 1683   0.377   0.902   4.145
  262SOL     OW 1684   1.337   4.964   1.673
  262SOL    HW1 1685   1.277   5.017   1.613
  262SOL    HW2 1686   1.307   4.974   1.768
  263SOL     OW 1687   0.699   4.410   3.910
  263SOL    HW1 1688   0.723   4.313   3.918
  263SOL    HW2 1689   0.599   4.420   3.917
  264SOL     OW 1690   3.345   4.059   0.467
  264SOL    HW1 1691   3.425   4.118   0.477
  264SOL    HW2 1692   3.279   4.079   0.540
  265SOL     OW 1693   4.104   5.434   3.574
  265SOL    HW1 1694   4.203   5.446   3.582
  265SOL    HW2 1695   4.058   5.514   3.614
  266SOL     OW 1696   4.738   3.622   6.918
  266SOL    HW1 1697   4.723   3.679   6.999
  266SOL    HW2 1698   4.820   3.565   6.932
  267SOL     OW 1699   2.396   2.478   6.001
  267SOL    HW1 1700   2.334   2.427   5.941
  267SOL    HW2 1701   2.419   2.566   5.958
  268SOL     OW 1702   2.050   4.462   3.547
  268SOL    HW1 1703   2.120   4.392   3.555
  268SOL    HW2 1704   1.995   4.465   3.630
  269SOL     OW 1705   2.925   2.077   5.644
  269SOL    HW1 1706   2.997   2.043   5.704
  269SOL    HW2 1707   2.942   2.173   5.622
  270SOL     OW 1708   4.920   5.998   4.863
  270SOL    HW1 1709   4.844   6.057   4.839
  270SOL    HW2 1710   4.958   5.956   4.781
  271SOL     OW 1711   2.288   1.897   0.239
  271SOL    HW1 1712   2.372   1.887   0.292
  271SOL    HW2 1713   2.309   1.937   0.150
  272SOL     OW 1714   4.237   5.611   0.090
  272SOL    HW1 1715   4.180   5.607   0.007
  272SOL    HW2 1716   4.186   5.570   0.166
  273SOL     OW 1717   1.951   5.903   4.201
  273SOL    HW1 1718   1.895   5.861   4.130
  273SOL    HW2 1719   2.027   5.951   4.159
  274SOL     OW 1720   5.936   2.286   2.112
  274SOL    HW1 1721   5.929   2.205   2.053
  274SOL    HW2 1722   5.895   2.364   2.066
  275SOL     OW 1723   6.105   5.669   5.896
  275SOL    HW1 1724   6.096   5.769   5.899
  275SOL    HW2 1725   6.140   5.642   5.806
  276SOL     OW 1726   0.728   0.209   4.203
  276SOL    HW1 1727   0.774   0.163   4.128
  276SOL    HW2 1728   0.640   0.245   4.171
  277SOL     OW 1729   3.984   2.943   5.262
  277SOL    HW1 1730   3.920   3.003   5.310
  277SOL    HW2 1731   3.952   2.849   5.267
  278SOL     OW 1732   5.785   3.827   2.972
  278SOL    HW1 1733   5.857   3.759   2.988
  278SOL    HW2 1734   5.695   3.784   2.985
  279SOL     OW 1735   6.847   3.985   3.527
  279SOL    HW1 1736   6.784   3.992   3.605
  279SOL    HW2 1737   6.807   4.031   3.448
  280SOL     OW 1738   4.291   2.321   3.842
  280SOL    HW1 1739   4.353   2.267   3.899
  280SOL    HW2 1740   4.197   2.290   3.857
  281SOL     OW 1741   5.074   5.756   5.257
  281SOL    HW1 1742   5.133   5.696   5.203
  281SOL    HW2 1743   5.003   5.701   5.302
  282SOL     OW 1744   0.978   2.404   0.125
  282SOL    HW1 1745   0.889   2.409   0.078
  282SOL    HW2 1746   0.968   2.351   0.209
  283SOL     OW 1747   6.050   3.675   3.588
  283SOL    HW1 1748   5.978   3.620   3.546
  283SOL    HW2 1749   6.035   3.772   3.568
  284SOL     OW 1750   5.464   6.526   2.912
  284SOL    HW1 1751   5.505   6.467   2.842
  284SOL    HW2 1752   5.365   6.529   2.900
  285SOL     OW 1753   3.990   6.115   6.269
  285SOL    HW1 1754   4.032   6.107   6.360
  285SOL    HW2 1755   4.027   6.195   6.223
  286SOL     OW 1756   2.330   5.318   5.361
  286SOL    HW1 1757   2.409   5.316   5.423
  286SOL    HW2 1758   2.332   5.236   5.303
  287SOL     OW 1759   3.499   5.435   0.572
  287SOL    HW1 1760   3.442   5.453   0.492
  287SOL    HW2 1761   3.562   5.360   0.552
  288SOL     OW 1762   4.508   1.395   0.235
  288SOL    HW1 1763   4.606   1.378   0.238
  288SOL    HW2 1764   4.463   1.343   0.308
  289SOL     OW 1765   5.482   5.077   4.730
  289SOL    HW1 1766   5.519   5.010   4.795
  289SOL    HW2 1767   5.389   5.051   4.703
  290SOL     OW 1768   3.928   0.579   5.222
  290SOL    HW1 1769   3.898   0.510   5.288
  290SOL    HW2 1770   3.848   0.624   5.183
  291SOL     OW 1771   5.577   0.888   5.022
  291SOL    HW1 1772   5.513   0.964   5.021
  291SOL    HW2 1773   5.541   0.812   4.968
  292SOL     OW 1774   3.473   0.586   3.491
  292SOL    HW1 1775   3.390   0.540   3.522
  292SOL    HW2 1776   3.472   0.681   3.523
  293SOL     OW 1777   5.468   0.450   2.735
  293SOL    HW1 1778   5.404   0.527   2.741
  293SOL    HW2 1779   5.542   0.463   2.800
  294SOL     OW 1780   6.950   1.990   6.126
  294SOL    HW1 1781   6.953   2.085   6.158
  294SOL    HW2 1782   6.988   1.985   6.033
  295SOL     OW 1783   0.563   0.317   4.706
  295SOL    HW1 1784   0.469   0.345   4.683
  295SOL    HW2 1785   0.595   0.253   4.636
  296SOL     OW 1786   0.969   1.835   1.753
  296SOL    HW1 1787   0.888   1.788   1.788
  296SOL    HW2 1788   1.036   1.769   1.722
  297SOL     OW 1789   5.162   3.110   3.431
  297SOL    HW1 1790   5.145   3.162   3.348
  297SOL    HW2 1791   5.220   3.031   3.410
  298SOL     OW 1792   4.624   1.025   5.661
  298SOL    HW1 1793   4.618   1.124   5.651
  298SOL    HW2 1794   4.598   0.982   5.574
  299SOL     OW 1795   0.726   1.365   5.791
  299SOL    HW1 1796   0.791   1.374   5.866
  299SOL    HW2 1797   0.652   1.304   5.817
  300SOL     OW 1798   4.684   6.299   4.023
  300SOL    HW1 1799   4.761   6.353   3.992
  300SOL    HW2 1800   4.698   6.273   4.119
  301SOL     OW 1801   0.340   6.487   5.779
  301SOL    HW1 1802   0.322   6.411   5.716
  301SOL    HW2 1803   0.291   6.472   5.864
  302SOL     OW 1804   6.808   6.619   2.099
  302SOL    HW1 1805   6.867   6.682   2.149
  302SOL    HW2 1806   6.845   6.527   2.104
  303SOL     OW 1807   5.605   5.829   2.533
  303SOL    HW1 1808   5.567   5.864   2.618
  303SOL    HW2 1809   5.593   5.730   2.528
  304SOL     OW 1810   2.093   6.924   4.167
  304SOL    HW1 1811   2.079   6.842   4.110
  304SOL    HW2 1812   2.015   6.935   4.229
  305SOL     OW 1813   1.590   1.815   1.455
  305SOL    HW1 1814   1.650   1.889   1.485
  305SOL    HW2 1815   1.525   1.793   1.528
  306SOL     OW 1816   6.844   6.989   2.356
  306SOL    HW1 1817   6.796   6.972   2.271
  306SOL    HW2 1818   6.799   0.036   2.406
  307SOL     OW 1819   3.311   3.290   4.232
  307SOL    HW1 1820   3.218   3.254   4.223
  307SOL    HW2 1821   3.318   3.376   4.181
  308SOL     OW 1822   6.123   1.387   2.146
  308SOL    HW1 1823   6.143   1.293   2.173
  308SOL    HW2 1824   6.145   1.448   2.222
  309SOL     OW 1825   1.866   4.821   0.294
  309SOL    HW1 1826   1.805   4.770   0.234
  309SOL    HW2 1827   1.855   4.919   0.278
  310SOL     OW 1828   4.675   6.454   5.045
  310SOL    HW1 1829   4.755   6.400   5.073
  310SOL    HW2 1830   4.616   6.469   5.124
  311SOL     OW 1831   1.350   6.824   2.086
  311SOL    HW1 1832   1.434   6.874   2.067
  311SOL    HW2 1833   1.350   6.794   2.182
  312SOL     OW 1834   3.708   0.548   4.464
  312SOL    HW1 1835   3.808   0.545   4.468
  312SOL    HW2 1836   3.672   0.583   4.550
  313SOL     OW 1837   2.957   3.183   2.889
  313SOL    HW1 1838   2.941   3.162   2.792
  313SOL    HW2 1839   3.035   3.130   2.922
  314SOL     OW 1840   2.765   5.181   6.679
  314SOL    HW1 1841   2.689   5.207   6.619
  314SOL    HW2 1842   2.757   5.084   6.702
  315SOL     OW 1843   6.056   0.587   4.235
  315SOL    HW1 1844   6.010   0.632   4.159
  315SOL    HW2 1845   6.047   0.643   4.318
  316SOL     OW 1846   3.615   1.328   6.037
  316SOL    HW1 1847   3.628   1.427   6.028
  316SOL    HW2 1848   3.698   1.287   6.074
  317SOL     OW 1849   0.753   2.042   1.167
  317SOL    HW1 1850   0.807   1.982   1.226
  317SOL    HW2 1851   0.700   1.987   1.103
  318SOL     OW 1852   0.604   0.651   3.130
  318SOL    HW1 1853   0.680   0.663   3.067
  318SOL    HW2 1854   0.520   0.687   3.089
  319SOL     OW 1855   0.669   0.573   2.275
  319SOL    HW1 1856   0.617   0.494   2.308
  319SOL    HW2 1857   0.619   0.618   2.201
  320SOL     OW 1858   4.897   1.657   0.284
  320SOL    HW1 1859   4.960   1.589   0.247
  320SOL    HW2 1860   4.855   1.622   0.368
  321SOL     OW 1861   4.553   3.115   0.868
  321SOL    HW1 1862   4.587   3.197   0.915
  321SOL    HW2 1863   4.628   3.073   0.817
  322SOL     OW 1864   3.251   2.785   7.001
  322SOL    HW1 1865   3.255   2.685   7.004
  322SOL    HW2 1866   3.315   2.823   0.041
  323SOL     OW 1867   1.491   3.365   2.134
  323SOL    HW1 1868   1.485   3.342   2.037
  323SOL    HW2 1869   1.548   3.298   2.181
  324SOL     OW 1870   0.196   0.506   3.285
  324SOL    HW1 1871   0.190   0.406   3.282
  324SOL    HW2 1872   0.105   0.545   3.267
  325SOL     OW 1873   6.254   3.324   0.822
  325SOL    HW1 1874   6.310   3.352   0.900
  325SOL    HW2 1875   6.234   3.404   0.766
  326SOL     OW 1876   0.123   5.659   0.163
  326SOL    HW1 1877   0.049   5.613   0.211
  326SOL    HW2 1878   0.096   5.676   0.068
  327SOL     OW 1879   3.961   6.347   6.510
  327SOL    HW1 1880   4.037   6.355   6.445
  327SOL    HW2 1881   3.969   6.261   6.560
  328SOL     OW 1882   1.196   5.130   3.699
  328SOL    HW1 1883   1.250   5.178   3.630
  328SOL    HW2 1884   1.217   5.168   3.790
  329SOL     OW 1885   3.629   3.022   1.977
  329SOL    HW1 1886   3.540   2.985   1.948
  329SOL    HW2 1887   3.683   3.044   1.897
  330SOL     OW 1888   2.662   3.378   6.841
  330SOL    HW1 1889   2.737   3.361   6.905
  330SOL    HW2 1890   2.648   3.298   6.783
  331SOL     OW 1891   5.128   4.822   4.511
  331SOL    HW1 1892   5.033   4.831   4.479
  331SOL    HW2 1893   5.187   4.800   4.433
  332SOL     OW 1894   5.667   1.946   3.022
  332SOL    HW1 1895   5.626   1.982   2.938
  332SOL    HW2 1896   5.668   2.017   3.092
  333SOL     OW 1897   4.223   6.667   3.751
  333SOL    HW1 1898   4.260   6.575   3.760
  333SOL    HW2 1899   4.272   6.715   3.678
  334SOL     OW 1900   3.578   3.597   4.446
  334SOL    HW1 1901   3.548   3.693   4.441
  334SOL    HW2 1902   3.515   3.545   4.503
  335SOL     OW 1903   3.703   0.945   0.996
  335SOL    HW1 1904   3.656   1.000   1.065
  335SOL    HW2 1905   3.727   0.856   1.035
  336SOL     OW 1906   4.342   1.973   4.966
  336SOL    HW1 1907   4.335   1.879   5.000
  336SOL    HW2 1908   4.261   2.025   4.993
  337SOL     OW 1909   0.276   1.013   5.132
  337SOL    HW1 1910   0.236   1.040   5.219
  337SOL    HW2 1911   0.236   1.067   5.058
  338SOL     OW 1912   4.672   1.179   1.842
  338SOL    HW1 1913   4.772   1.183   1.833
  338SOL    HW2 1914   4.634   1.123   1.768
  339SOL     OW 1915   4.325   5.263   5.962
  339SOL    HW1 1916   4.239   5.306   5.936
  339SOL    HW2 1917   4.329   5.170   5.926
  340SOL     OW 1918   4.833   3.154   5.180
  340SOL    HW1 1919   4.839   3.100   5.096
  340SOL    HW2 1920   4.883   3.108   5.254
  341SOL     OW 1921   6.768   0.034   1.863
  341SOL    HW1 1922   6.769   7.022   1.771
  341SOL    HW2 1923   6.849   0.091   1.875
  342SOL     OW 1924   4.476   1.447   2.097
  342SOL    HW1 1925   4.423   1.461   2.013
  342SOL    HW2 1926   4.573   1.457   2.077
  343SOL     OW 1927   5.177   0.323   1.043
  343SOL    HW1 1928   5.173   0.418   1.011
  343SOL    HW2 1929   5.085   0.285   1.043
  344SOL     OW 1930   6.603   3.127   1.322
  344SOL    HW1 1931   6.638   3.180   1.245
  344SOL    HW2 1932   6.539   3.182   1.375
  345SOL     OW 1933   7.024   2.309   4.155
  345SOL    HW1 1934   7.002   2.406   4.169
  345SOL    HW2 1935   0.051   2.299   4.071
  346SOL     OW 1936   2.245   5.718   2.903
  346SOL    HW1 1937   2.195   5.794   2.862
  346SOL    HW2 1938   2.183   5.664   2.960
  347SOL     OW 1939   2.574   4.823   0.976
  347SOL    HW1 1940   2.617   4.832   0.886
  347SOL    HW2 1941   2.646   4.820   1.046
  348SOL     OW 1942   4.824   5.105   1.657
  348SOL    HW1 1943   4.898   5.062   1.606
  348SOL    HW2 1944   4.755   5.036   1.681
  349SOL     OW 1945   5.846   4.764   0.799
  349SOL    HW1 1946   5.827   4.680   0.749
  349SOL    HW2 1947   5.878   4.743   0.891
  350SOL     OW 1948   2.483   2.154   0.430
  350SOL    HW1 1949   2.485   2.059   0.399
  350SOL    HW2 1950   2.388   2.181   0.449
  351SOL     OW 1951   3.730   4.282   1.288
  351SOL    HW1 1952   3.782   4.356   1.246
  351SOL    HW2 1953   3.632   4.304   1.286
  352SOL     OW 1954   4.260   6.287   2.638
  352SOL    HW1 1955   4.274   6.342   2.556
  352SOL    HW2 1956   4.187   6.328   2.693
  353SOL     OW 1957   2.155   0.059   0.568
  353SOL    HW1 1958   2.199   6.999   0.593
  353SOL    HW2 1959   2.071   0.040   0.517
  354SOL     OW 1960   1.640   2.285   0.858
  354SOL    HW1 1961   1.720   2.341   0.838
  354SOL    HW2 1962   1.591   2.324   0.937
  355SOL     OW 1963   0.409   2.704   3.381
  355SOL    HW1 1964   0.381   2.610   3.362
  355SOL    HW2 1965   0.502   2.719   3.345
  356SOL     OW 1966   2.644   0.746   5.393
  356SOL    HW1 1967   2.699   0.828   5.379
  356SOL    HW2 1968   2.654   0.685   5.314
  357SOL     OW 1969   5.732   6.232   4.324
  357SOL    HW1 1970   5.635   6.221   4.303
  357SOL    HW2 1971   5.747   6.210   4.421
  358SOL     OW 1972   3.210   5.842   6.924
  358SOL    HW1 1973   3.243   5.877   7.012
  358SOL    HW2 1974   3.153   5.911   6.880
  359SOL     OW 1975   1.410   2.126   1.971
  359SOL    HW1 1976   1.327   2.124   2.027
  359SOL    HW2 1977   1.402   2.198   1.902
  360SOL     OW 1978   1.972   3.776   3.520
  360SOL    HW1 1979   1.969   3.858   3.462
  360SOL    HW2 1980   2.044   3.785   3.588
  361SOL     OW 1981   7.006   1.728   2.083
  361SOL    HW1 1982   0.019   1.704   2.171
  361SOL    HW2 1983   0.016   1.816   2.052
  362SOL     OW 1984   3.711   3.985   2.584
  362SOL    HW1 1985   3.760   3.995   2.671
  362SOL    HW2 1986   3.624   4.034   2.590
  363SOL     OW 1987   4.540   5.584   0.831
  363SOL    HW1 1988   4.460   5.596   0.773
  363SOL    HW2 1989   4.596   5.668   0.829
  364SOL     OW 1990   1.190   0.529   0.170
  364SOL    HW1 1991   1.236   0.607   0.214
  364SOL    HW2 1992   1.231   0.444   0.202
  365SOL     OW 1993   6.239   0.866   3.984
  365SOL    HW1 1994   6.159   0.807   3.976
  365SOL    HW2 1995   6.263   0.877   4.081
  366SOL     OW 1996   5.256   1.727   6.986
  366SOL    HW1 1997   5.195   1.710   6.909
  366SOL    HW2 1998   5.351   1.734   6.954
  367SOL     OW 1999   5.451   0.848   0.043
  367SOL    HW1 2000   5.462   0.785   6.993
  367SOL    HW2 2001   5.476   0.941   0.015
  368SOL     OW 2002   2.379   1.932   5.810
  368SOL    HW1 2003   2.459   1.910   5.866
  368SOL    HW2 2004   2.311   1.979   5.865
  369SOL     OW 2005   5.815   4.462   0.377
  369SOL    HW1 2006   5.861   4.527   0.316
  369SOL    HW2 2007   5.732   4.428   0.333
  370SOL     OW 2008   2.344   2.611   3.137
  370SOL    HW1 2009   2.325   2.709   3.146
  370SOL    HW2 2010   2.315   2.564   3.219
  371SOL     OW 2011   2.170   5.729   0.442
  371SOL    HW1 2012   2.137   5.768   0.527
  371SOL    HW2 2013   2.103   5.663   0.407
  372SOL     OW 2014   2.236   5.673   5.828
  372SOL    HW1 2015   2.246   5.578   5.800
  372SOL    HW2 2016   2.272   5.733   5.757
  373SOL     OW 2017   6.601   4.276   2.769
  373SOL    HW1 2018   6.513   4.236   2.793
  373SOL    HW2 2019   6.600   4.306   2.674
  374SOL     OW 2020   2.812   2.063   2.112
  374SOL    HW1 2021   2.770   2.010   2.038
  374SOL    HW2 2022   2.828   2.156   2.081
  375SOL     OW 2023   0.979   6.245   4.371
  375SOL    HW1 2024   0.979   6.290   4.460
  375SOL    HW2 2025   1.060   6.186   4.364
  376SOL     OW 2026   4.232   0.534   3.361
  376SOL    HW1 2027   4.165   0.602   3.391
  376SOL    HW2 2028   4.315   0.541   3.417
  377SOL     OW 2029   2.867   2.488   6.615
  377SOL    HW1 2030   2.878   2.446   6.525
  377SOL    HW2 2031   2.950   2.539   6.638
  378SOL     OW 2032   3.885   1.314   2.150
  378SOL    HW1 2033   3.787   1.314   2.129
  378SOL    HW2 2034   3.932   1.246   2.093
  379SOL     OW 2035   4.032   2.781   6.817
  379SOL    HW1 2036   4.091   2.839   6.872
  379SOL    HW2 2037   4.038   2.808   6.721
  380SOL     OW 2038   4.584   2.062   0.879
  380SOL    HW1 2039   4.569   2.131   0.949
  380SOL    HW2 2040   4.683   2.048   0.866
  381SOL     OW 2041   2.044   4.304   2.925
  381SOL    HW1 2042   2.059   4.327   2.829
  381SOL    HW2 2043   1.994   4.218   2.931
  382SOL     OW 2044   6.024   6.898   0.070
  382SOL    HW1 2045   6.055   6.947   0.151
  382SOL    HW2 2046   6.036   6.956   7.016
  383SOL     OW 2047   4.421   3.574   0.209
  383SOL    HW1 2048   4.376   3.606   0.126
  383SOL    HW2 2049   4.356   3.574   0.285
  384SOL     OW 2050   0.365   3.233   5.002
  384SOL    HW1 2051   0.384   3.292   4.924
  384SOL    HW2 2052   0.419   3.149   4.993
  385SOL     OW 2053   4.718   2.253   0.442
  385SOL    HW1 2054   4.705   2.191   0.520
  385SOL    HW2 2055   4.681   2.343   0.465
  386SOL     OW 2056   4.311   6.342   5.109
  386SOL    HW1 2057   4.329   6.440   5.098
  386SOL    HW2 2058   4.217   6.329   5.140
  387SOL     OW 2059   3.335   5.994   4.476
  387SOL    HW1 2060   3.339   5.903   4.518
  387SOL    HW2 2061   3.361   5.987   4.380
  388SOL     OW 2062   1.198   5.125   5.967
  388SOL    HW1 2063   1.282   5.074   5.984
  388SOL    HW2 2064   1.156   5.150   6.054
  389SOL     OW 2065   3.032   3.457   1.372
  389SOL    HW1 2066   3.024   3.361   1.401
  389SOL    HW2 2067   3.117   3.468   1.321
  390SOL     OW 2068   2.790   0.703   4.780
  390SOL    HW1 2069   2.695   0.685   4.758
  390SOL    HW2 2070   2.827   0.773   4.719
  391SOL     OW 2071   1.423   2.198   6.908
  391SOL    HW1 2072   1.436   2.290   6.869
  391SOL    HW2 2073   1.427   2.204   7.008
  392SOL     OW 2074   3.345   5.655   4.892
  392SOL    HW1 2075   3.423   5.615   4.939
  392SOL    HW2 2076   3.269   5.665   4.957
  393SOL     OW 2077   5.815   4.031   5.607
  393SOL    HW1 2078   5.866   4.091   5.669
  393SOL    HW2 2079   5.859   3.941   5.605
  394SOL     OW 2080   2.052   0.998   6.156
  394SOL    HW1 2081   2.023   0.959   6.243
  394SOL    HW2 2082   1.996   0.960   6.082
  395SOL     OW 2083   0.019   3.211   0.821
  395SOL    HW1 2084   0.070   3.167   0.896
  395SOL    HW2 2085   0.001   3.144   0.750
  396SOL     OW 2086   3.644   3.236   5.183
  396SOL    HW1 2087   3.546   3.228   5.164
  396SOL    HW2 2088   3.660   3.228   5.282
  397SOL     OW 2089   4.375   1.603   0.001
  397SOL    HW1 2090   4.284   1.568   7.006
  397SOL    HW2 2091   4.377   1.629   0.098
  398SOL     OW 2092   0.889   4.601   2.408
  398SOL    HW1 2093   0.885   4.503   2.426
  398SOL    HW2 2094   0.817   4.647   2.461
  399SOL     OW 2095   5.066   4.923   2.158
  399SOL    HW1 2096   5.135   4.882   2.218
  399SOL    HW2 2097   4.978   4.878   2.173
  400SOL     OW 2098   2.345   4.952   4.480
  400SOL    HW1 2099   2.345   4.905   4.392
  400SOL    HW2 2100   2.280   4.908   4.541
  401SOL     OW 2101   5.864   1.479   0.523
  401SOL    HW1 2102   5.933   1.407   0.532
  401SOL    HW2 2103   5.797   1.471   0.597
  402SOL     OW 2104   6.782   4.517   0.794
  402SOL    HW1 2105   6.843   4.587   0.758
  402SOL    HW2 2106   6.693   4.523   0.748
  403SOL     OW 2107   4.689   4.651   0.771
  403SOL    HW1 2108   4.777   4.608   0.751
  403SOL    HW2 2109   4.699   4.751   0.769
  404SOL     OW 2110   0.684   6.295   4.514
  404SOL    HW1 2111   0.732   6.381   4.500
  404SOL    HW2 2112   0.674   6.248   4.426
  405SOL     OW 2113   0.714   2.632   1.219
  405SOL    HW1 2114   0.756   2.689   1.289
  405SOL    HW2 2115   0.697   2.540   1.256
  406SOL     OW 2116   1.061   2.176   3.427
  406SOL    HW1 2117   1.077   2.097   3.367
  406SOL    HW2 2118   1.113   2.254   3.393
  407SOL     OW 2119   3.162   1.764   4.115
  407SOL    HW1 2120   3.235   1.818   4.074
  407SOL    HW2 2121   3.175   1.668   4.093
  408SOL     OW 2122   2.525   0.514   3.993
  408SOL    HW1 2123   2.608   0.568   3.979
  408SOL    HW2 2124   2.469   0.556   4.064
  409SOL     OW 2125   6.784   3.067   4.248
  409SOL    HW1 2126   6.827   3.131   4.185
  409SOL    HW2 2127   6.690   3.049   4.219
  410SOL     OW 2128   2.970   6.860   6.268
  410SOL    HW1 2129   3.065   6.884   6.290
  410SOL    HW2 2130   2.911   6.939   6.284
  411SOL     OW 2131   0.585   3.194   4.721
  411SOL    HW1 2132   0.612   3.183   4.816
  411SOL    HW2 2133   0.485   3.189   4.714
  412SOL     OW 2134   4.420   0.082   2.296
  412SOL    HW1 2135   4.376   0.154   2.348
  412SOL    HW2 2136   4.516   0.074   2.324
  413SOL     OW 2137   2.354   0.282   2.735
  413SOL    HW1 2138   2.309   0.220   2.799
  413SOL    HW2 2139   2.447   0.251   2.718
  414SOL     OW 2140   4.507   4.495   0.874
  414SOL    HW1 2141   4.563   4.565   0.829
  414SOL    HW2 2142   4.491   4.522   0.969
  415SOL     OW 2143   3.802   6.703   2.573
  415SOL    HW1 2144   3.900   6.721   2.562
  415SOL    HW2 2145   3.753   6.735   2.493
  416SOL     OW 2146   3.393   5.318   0.230
  416SOL    HW1 2147   3.493   5.313   0.220
  416SOL    HW2 2148   3.369   5.398   0.284
  417SOL     OW 2149   5.207   5.194   1.574
  417SOL    HW1 2150   5.134   5.133   1.543
  417SOL    HW2 2151   5.207   5.198   1.674
  418SOL     OW 2152   6.273   5.166   7.010
  418SOL    HW1 2153   6.297   5.179   6.914
  418SOL    HW2 2154   6.185   5.208   0.002
  419SOL     OW 2155   5.426   6.039   0.959
  419SOL    HW1 2156   5.468   6.120   0.917
  419SOL    HW2 2157   5.481   6.011   1.038
  420SOL     OW 2158   5.099   4.325   6.927
  420SOL    HW1 2159   5.119   4.282   6.838
  420SOL    HW2 2160   5.058   4.257   6.987
  421SOL     OW 2161   1.401   6.586   6.650
  421SOL    HW1 2162   1.398   6.676   6.606
  421SOL    HW2 2163   1.318   6.574   6.705
  422SOL     OW 2164   5.349   4.679   6.558
  422SOL    HW1 2165   5.346   4.779   6.564
  422SOL    HW2 2166   5.315   4.639   6.643
  423SOL     OW 2167   1.322   3.297   5.924
  423SOL    HW1 2168   1.233   3.342   5.920
  423SOL    HW2 2169   1.339   3.250   5.837
  424SOL     OW 2170   2.199   3.922   6.976
  424SOL    HW1 2171   2.123   3.955   6.920
  424SOL    HW2 2172   2.222   3.992   0.017
  425SOL     OW 2173   2.854   6.799   0.118
  425SOL    HW1 2174   2.798   6.733   0.168
  425SOL    HW2 2175   2.815   6.815   0.027
  426SOL     OW 2176   6.403   4.134   5.885
  426SOL    HW1 2177   6.377   4.067   5.815
  426SOL    HW2 2178   6.340   4.212   5.881
  427SOL     OW 2179   4.597   3.255   0.589
  427SOL    HW1 2180   4.540   3.299   0.658
  427SOL    HW2 2181   4.619   3.162   0.619
  428SOL     OW 2182   3.583   1.841   5.804
  428SOL    HW1 2183   3.641   1.916   5.772
  428SOL    HW2 2184   3.610   1.756   5.759
  429SOL     OW 2185   3.243   5.807   0.463
  429SOL    HW1 2186   3.296   5.870   0.408
  429SOL    HW2 2187   3.147   5.813   0.438
  430SOL     OW 2188   2.710   0.253   4.482
  430SOL    HW1 2189   2.625   0.215   4.445
  430SOL    HW2 2190   2.785   0.190   4.462
  431SOL     OW 2191   3.267   1.400   6.736
  431SOL    HW1 2192   3.365   1.420   6.747
  431SOL    HW2 2193   3.251   1.303   6.754
  432SOL     OW 2194   6.934   1.582   1.156
  432SOL    HW1 2195   6.971   1.617   1.243
  432SOL    HW2 2196   6.850   1.531   1.174
  433SOL     OW 2197   2.936   6.006   4.692
  433SOL    HW1 2198   2.997   6.046   4.760
  433SOL    HW2 2199   2.990   5.974   4.614
  434SOL     OW 2200   6.432   3.352   1.059
  434SOL    HW1 2201   6.381   3.395   1.135
  434SOL    HW2 2202   6.527   3.337   1.088
  435SOL     OW 2203   3.912   3.231   0.981
  435SOL    HW1 2204   3.852   3.293   0.930
  435SOL    HW2 2205   3.878   3.137   0.973
  436SOL     OW 2206   2.558   0.475   0.306
  436SOL    HW1 2207   2.632   0.530   0.267
  436SOL    HW2 2208   2.584   0.379   0.304
  437SOL     OW 2209   6.351   0.588   5.374
  437SOL    HW1 2210   6.416   0.576   5.299
  437SOL    HW2 2211   6.364   0.679   5.415
  438SOL     OW 2212   1.835   3.123   1.407
  438SOL    HW1 2213   1.909   3.120   1.340
  438SOL    HW2 2214   1.767   3.054   1.386
  439SOL     OW 2215   6.331   4.233   2.058
  439SOL    HW1 2216   6.287   4.150   2.023
  439SOL    HW2 2217   6.431   4.221   2.055
  440SOL     OW 2218   1.428   3.098   3.060
  440SOL    HW1 2219   1.334   3.129   3.075
  440SOL    HW2 2220   1.482   3.112   3.142
  441SOL     OW 2221   0.795   1.012   3.109
  441SOL    HW1 2222   0.887   0.976   3.122
  441SOL    HW2 2223   0.783   1.039   3.014
  442SOL     OW 2224   0.094   4.670   6.593
  442SOL    HW1 2225   0.055   4.587   6.634
  442SOL    HW2 2226   0.032   4.747   6.608
  443SOL     OW 2227   0.812   4.477   5.192
  443SOL    HW1 2228   0.899   4.485   5.242
  443SOL    HW2 2229   0.823   4.513   5.100
  444SOL     OW 2230   5.099   3.424   6.597
  444SOL    HW1 2231   5.148   3.462   6.519
  444SOL    HW2 2232   5.158   3.430   6.678
  445SOL     OW 2233   1.721   4.577   3.108
  445SOL    HW1 2234   1.806   4.574   3.057
  445SOL    HW2 2235   1.728   4.646   3.181
  446SOL     OW 2236   3.383   4.909   3.982
  446SOL    HW1 2237   3.416   4.975   4.049
  446SOL    HW2 2238   3.458   4.884   3.919
  447SOL     OW 2239   0.415   5.838   0.346
  447SOL    HW1 2240   0.417   5.835   0.246
  447SOL    HW2 2241   0.375   5.753   0.381
  448SOL     OW 2242   4.743   0.784   6.151
  448SOL    HW1 2243   4.672   0.824   6.091
  448SOL    HW2 2244   4.803   0.725   6.097
  449SOL     OW 2245   5.606   6.919   4.210
  449SOL    HW1 2246   5.625   6.872   4.124
  449SOL    HW2 2247   5.513   6.897   4.241
  450SOL     OW 2248   6.965   5.797   3.561
  450SOL    HW1 2249   7.008   5.760   3.479
  450SOL    HW2 2250   6.870   5.767   3.566
  451SOL     OW 2251   6.139   2.549   3.889
  451SOL    HW1 2252   6.147   2.477   3.958
  451SOL    HW2 2253   6.045   2.551   3.855
  452SOL     OW 2254   6.416   5.307   6.536
  452SOL    HW1 2255   6.484   5.379   6.532
  452SOL    HW2 2256   6.403   5.267   6.445
  453SOL     OW 2257   2.997   0.928   5.633
  453SOL    HW1 2258   2.947   0.905   5.549
  453SOL    HW2 2259   3.088   0.963   5.609
  454SOL     OW 2260   0.990   6.297   0.445
  454SOL    HW1 2261   0.932   6.373   0.473
  454SOL    HW2 2262   0.955   6.212   0.483
  455SOL     OW 2263   4.694   0.479   5.075
  455SOL    HW1 2264   4.735   0.551   5.131
  455SOL    HW2 2265   4.676   0.515   4.983
  456SOL     OW 2266   4.739   5.432   7.005
  456SOL    HW1 2267   4.695   5.342   7.010
  456SOL    HW2 2268   4.758   5.455   6.910
  457SOL     OW 2269   0.836   4.494   1.892
  457SOL    HW1 2270   0.911   4.532   1.837
  457SOL    HW2 2271   0.820   4.399   1.864
  458SOL     OW 2272   6.780   6.452   5.899
  458SOL    HW1 2273   6.740   6.402   5.823
  458SOL    HW2 2274   6.709   6.473   5.967
  459SOL     OW 2275   1.661   0.487   3.669
  459SOL    HW1 2276   1.617   0.542   3.598
  459SOL    HW2 2277   1.604   0.486   3.751
  460SOL     OW 2278   6.543   1.641   3.987
  460SOL    HW1 2279   6.529   1.710   3.916
  460SOL    HW2 2280   6.514   1.551   3.953
  461SOL     OW 2281   5.128   6.087   5.428
  461SOL    HW1 2282   5.204   6.052   5.372
  461SOL    HW2 2283   5.043   6.079   5.377
  462SOL     OW 2284   3.180   2.501   0.041
  462SOL    HW1 2285   3.203   2.440   6.992
  462SOL    HW2 2286   3.098   2.467   0.087
  463SOL     OW 2287   0.238   5.980   1.665
  463SOL    HW1 2288   0.213   5.917   1.738
  463SOL    HW2 2289   0.165   6.048   1.654
  464SOL     OW 2290   2.227   1.455   5.730
  464SOL    HW1 2291   2.268   1.537   5.690
  464SOL    HW2 2292   2.271   1.435   5.817
  465SOL     OW 2293   6.968   3.007   5.181
  465SOL    HW1 2294   6.903   3.081   5.164
  465SOL    HW2 2295   0.008   3.003   5.108
  466SOL     OW 2296   2.547   0.669   3.112
  466SOL    HW1 2297   2.495   0.750   3.141
  466SOL    HW2 2298   2.489   0.588   3.120
  467SOL     OW 2299   1.813   1.620   5.139
  467SOL    HW1 2300   1.754   1.593   5.215
  467SOL    HW2 2301   1.820   1.545   5.074
  468SOL     OW 2302   3.422   3.998   1.879
  468SOL    HW1 2303   3.464   4.037   1.961
  468SOL    HW2 2304   3.331   4.036   1.866
  469SOL     OW 2305   3.183   4.789   0.094
  469SOL    HW1 2306   3.228   4.877   0.077
  469SOL    HW2 2307   3.205   4.726   0.020
  470SOL     OW 2308   3.861   0.417   2.909
  470SOL    HW1 2309   3.859   0.392   3.005
  470SOL    HW2 2310   3.956   0.431   2.880
  471SOL     OW 2311   3.042   1.858   4.695
  471SOL    HW1 2312   3.042   1.799   4.615
  471SOL    HW2 2313   3.104   1.935   4.681
  472SOL     OW 2314   4.331   4.300   5.359
  472SOL    HW1 2315   4.408   4.349   5.401
  472SOL    HW2 2316   4.272   4.366   5.312
  473SOL     OW 2317   0.959   3.976   4.007
  473SOL    HW1 2318   0.970   3.893   4.061
  473SOL    HW2 2319   1.047   4.021   3.996
  474SOL     OW 2320   4.716   4.606   4.683
  474SOL    HW1 2321   4.663   4.681   4.646
  474SOL    HW2 2322   4.732   4.621   4.781
  475SOL     OW 2323   0.965   0.090   6.708
  475SOL    HW1 2324   0.952   0.036   6.791
  475SOL    HW2 2325   1.006   0.032   6.636
  476SOL     OW 2326   0.421   5.295   2.180
  476SOL    HW1 2327   0.354   5.221   2.192
  476SOL    HW2 2328   0.439   5.337   2.269
  477SOL     OW 2329   1.788   5.311   3.926
  477SOL    HW1 2330   1.826   5.267   3.844
  477SOL    HW2 2331   1.807   5.409   3.923
  478SOL     OW 2332   1.496   5.075   3.134
  478SOL    HW1 2333   1.588   5.103   3.164
  478SOL    HW2 2334   1.497   4.977   3.114
  479SOL     OW 2335   3.354   1.200   1.410
  479SOL    HW1 2336   3.331   1.142   1.488
  479SOL    HW2 2337   3.299   1.174   1.331
  480SOL     OW 2338   1.682   6.256   2.671
  480SOL    HW1 2339   1.623   6.336   2.661
  480SOL    HW2 2340   1.634   6.186   2.723
  481SOL     OW 2341   2.859   6.772   1.788
  481SOL    HW1 2342   2.889   6.764   1.693
  481SOL    HW2 2343   2.794   6.698   1.809
  482SOL     OW 2344   5.657   5.153   1.376
  482SOL    HW1 2345   5.640   5.172   1.279
  482SOL    HW2 2346   5.583   5.193   1.430
  483SOL     OW 2347   5.626   1.678   1.040
  483SOL    HW1 2348   5.621   1.713   1.133
  483SOL    HW2 2349   5.717   1.695   1.002
  484SOL     OW 2350   6.693   2.853   5.032
  484SOL    HW1 2351   6.680   2.928   4.967
  484SOL    HW2 2352   6.719   2.770   4.982
  485SOL     OW 2353   3.644   5.519   2.117
  485SOL    HW1 2354   3.737   5.540   2.088
  485SOL    HW2 2355   3.643   5.433   2.169
  486SOL     OW 2356   0.310   0.390   6.464
  486SOL    HW1 2357   0.262   0.465   6.419
  486SOL    HW2 2358   0.244   0.333   6.514
  487SOL     OW 2359   6.590   3.154   6.440
  487SOL    HW1 2360   6.521   3.227   6.440
  487SOL    HW2 2361   6.545   3.066   6.455
  488SOL     OW 2362   0.576   3.129   2.325
  488SOL    HW1 2363   0.550   3.186   2.247
  488SOL    HW2 2364   0.568   3.182   2.409
  489SOL     OW 2365   3.388   6.096   6.113
  489SOL    HW1 2366   3.341   6.164   6.055
  489SOL    HW2 2367   3.338   6.010   6.110
  490SOL     OW 2368   5.519   6.084   4.143
  490SOL    HW1 2369   5.593   6.067   4.078
  490SOL    HW2 2370   5.466   6.164   4.112
  491SOL     OW 2371   6.991   2.044   3.269
  491SOL    HW1 2372   0.050   1.993   3.271
  491SOL    HW2 2373   6.920   1.991   3.315
  492SOL     OW 2374   2.000   1.137   4.917
  492SOL    HW1 2375   2.076   1.140   4.981
  492SOL    HW2 2376   1.914   1.150   4.967
  493SOL     OW 2377   6.203   3.926   4.003
  493SOL    HW1 2378   6.147   3.976   4.069
  493SOL    HW2 2379   6.159   3.840   3.979
  494SOL     OW 2380   6.298   1.923   0.293
  494SOL    HW1 2381   6.334   1.960   0.207
  494SOL    HW2 2382   6.271   1.827   0.279
  495SOL     OW 2383   4.267   4.709   1.074
  495SOL    HW1 2384   4.275   4.805   1.098
  495SOL    HW2 2385   4.172   4.688   1.051
  496SOL     OW 2386   6.185   2.649   3.153
  496SOL    HW1 2387   6.133   2.632   3.069
  496SOL    HW2 2388   6.185   2.565   3.209
  497SOL     OW 2389   4.208   0.299   4.351
  497SOL    HW1 2390   4.267   0.297   4.431
  497SOL    HW2 2391   4.263   0.286   4.268
  498SOL     OW 2392   1.055   3.309   2.793
  498SOL    HW1 2393   0.990   3.385   2.793
  498SOL    HW2 2394   1.125   3.326   2.724
  499SOL     OW 2395   3.385   1.286   5.320
  499SOL    HW1 2396   3.343   1.276   5.410
  499SOL    HW2 2397   3.314   1.289   5.250
  500SOL     OW 2398   1.447   4.057   2.476
  500SOL    HW1 2399   1.504   4.121   2.529
  500SOL    HW2 2400   1.506   3.990   2.430
  501SOL     OW 2401   1.086   5.255   6.660
  501SOL    HW1 2402   0.994   5.247   6.623
  501SOL    HW2 2403   1.134   5.168   6.650
  502SOL     OW 2404   3.012   5.170   6.566
  502SOL    HW1 2405   2.941   5.166   6.636
  502SOL    HW2 2406   2.984   5.233   6.494
  503SOL     OW 2407   5.681   6.033   5.211
  503SOL    HW1 2408   5.702   5.937   5.228
  503SOL    HW2 2409   5.661   6.047   5.114
  504SOL     OW 2410   2.032   5.194   4.203
  504SOL    HW1 2411   2.071   5.102   4.204
  504SOL    HW2 2412   1.933   5.188   4.194
  505SOL     OW 2413   4.402   6.886   5.233
  505SOL    HW1 2414   4.473   6.835   5.281
  505SOL    HW2 2415   4.325   6.901   5.295
  506SOL     OW 2416   2.340   3.764   6.774
  506SOL    HW1 2417   2.399   3.696   6.819
  506SOL    HW2 2418   2.294   3.819   6.843
  507SOL     OW 2419   3.595   1.727   4.054
  507SOL    HW1 2420   3.627   1.816   4.089
  507SOL    HW2 2421   3.644   1.705   3.970
  508SOL     OW 2422   6.190   4.314   3.986
  508SOL    HW1 2423   6.256   4.370   3.936
  508SOL    HW2 2424   6.237   4.262   4.057
  509SOL     OW 2425   4.663   2.322   1.697
  509SOL    HW1 2426   4.672   2.402   1.637
  509SOL    HW2 2427   4.674   2.350   1.792
  510SOL     OW 2428   0.391   3.438   4.413
  510SOL    HW1 2429   0.473   3.398   4.453
  510SOL    HW2 2430   0.377   3.403   4.321
  511SOL     OW 2431   0.590   6.569   1.324
  511SOL    HW1 2432   0.527   6.552   1.248
  511SOL    HW2 2433   0.655   6.493   1.330
  512SOL     OW 2434   0.689   3.577   6.277
  512SOL    HW1 2435   0.647   3.494   6.314
  512SOL    HW2 2436   0.724   3.632   6.353
  513SOL     OW 2437   0.253   5.378   4.558
  513SOL    HW1 2438   0.328   5.319   4.586
  513SOL    HW2 2439   0.219   5.349   4.468
  514SOL     OW 2440   6.086   1.372   3.328
  514SOL    HW1 2441   6.163   1.437   3.324
  514SOL    HW2 2442   6.019   1.395   3.258
  515SOL     OW 2443   2.154   6.096   0.136
  515SOL    HW1 2444   2.171   6.140   0.048
  515SOL    HW2 2445   2.196   6.005   0.137
  516SOL     OW 2446   1.066   5.229   2.400
  516SOL    HW1 2447   1.007   5.194   2.473
  516SOL    HW2 2448   1.134   5.159   2.376
  517SOL     OW 2449   4.813   0.264   6.867
  517SOL    HW1 2450   4.810   0.311   6.779
  517SOL    HW2 2451   4.903   0.274   6.908
  518SOL     OW 2452   2.714   1.992   0.664
  518SOL    HW1 2453   2.661   1.959   0.742
  518SOL    HW2 2454   2.796   2.038   0.697
  519SOL     OW 2455   0.673   6.691   1.020
  519SOL    HW1 2456   0.675   6.711   1.118
  519SOL    HW2 2457   0.721   6.763   0.970
  520SOL     OW 2458   6.690   4.480   4.769
  520SOL    HW1 2459   6.661   4.501   4.676
  520SOL    HW2 2460   6.747   4.397   4.769
  521SOL     OW 2461   6.458   0.475   1.277
  521SOL    HW1 2462   6.550   0.488   1.316
  521SOL    HW2 2463   6.394   0.536   1.324
  522SOL     OW 2464   3.459   3.632   5.278
  522SOL    HW1 2465   3.558   3.617   5.277
  522SOL    HW2 2466   3.439   3.723   5.241
  523SOL     OW 2467   6.655   6.678   5.013
  523SOL    HW1 2468   6.629   6.772   5.033
  523SOL    HW2 2469   6.696   6.674   4.921
  524SOL     OW 2470   4.265   1.803   6.090
  524SOL    HW1 2471   4.262   1.736   6.164
  524SOL    HW2 2472   4.359   1.810   6.056
  525SOL     OW 2473   2.810   2.922   6.720
  525SOL    HW1 2474   2.839   2.992   6.786
  525SOL    HW2 2475   2.743   2.862   6.763
  526SOL     OW 2476   4.501   5.712   4.750
  526SOL    HW1 2477   4.444   5.747   4.824
  526SOL    HW2 2478   4.522   5.786   4.686
  527SOL     OW 2479   1.386   1.828   7.007
  527SOL    HW1 2480   1.483   1.848   6.993
  527SOL    HW2 2481   1.334   1.860   6.927
  528SOL     OW 2482   2.065   0.193   5.513
  528SOL    HW1 2483   2.078   0.200   5.612
  528SOL    HW2 2484   2.148   0.156   5.472
  529SOL     OW 2485   6.843   4.275   4.366
  529SOL    HW1 2486   6.855   4.268   4.465
  529SOL    HW2 2487   6.750   4.246   4.342
  530SOL     OW 2488   1.369   2.575   5.033
  530SOL    HW1 2489   1.327   2.569   5.123
  530SOL    HW2 2490   1.443   2.508   5.026
  531SOL     OW 2491   7.003   0.913   0.133
  531SOL    HW1 2492   0.003   0.856   0.055
  531SOL    HW2 2493   6.941   0.862   0.192
  532SOL     OW 2494   1.582   0.262   5.929
  532SOL    HW1 2495   1.572   0.338   5.866
  532SOL    HW2 2496   1.679   0.246   5.948
  533SOL     OW 2497   5.554   0.306   4.461
  533SOL    HW1 2498   5.613   0.362   4.520
  533SOL    HW2 2499   5.584   0.314   4.366
  534SOL     OW 2500   3.636   5.492   2.669
  534SOL    HW1 2501   3.550   5.519   2.627
  534SOL    HW2 2502   3.627   5.495   2.769
  535SOL     OW 2503   6.622   4.019   3.027
  535SOL    HW1 2504   6.708   4.001   3.074
  535SOL    HW2 2505   6.574   3.932   3.012
  536SOL     OW 2506   1.063   6.139   0.771
  536SOL    HW1 2507   0.965   6.126   0.781
  536SOL    HW2 2508   1.112   6.077   0.833
  537SOL     OW 2509   2.155   0.549   3.481
  537SOL    HW1 2510   2.166   0.460   3.435
  537SOL    HW2 2511   2.216   0.616   3.437
  538SOL     OW 2512   1.244   4.373   3.695
  538SOL    HW1 2513   1.182   4.446   3.724
  538SOL    HW2 2514   1.322   4.369   3.757
  539SOL     OW 2515   1.146   5.443   1.381
  539SOL    HW1 2516   1.160   5.454   1.283
  539SOL    HW2 2517   1.054   5.410   1.398
  540SOL     OW 2518   1.264   2.810   1.300
  540SOL    HW1 2519   1.351   2.775   1.265
  540SOL    HW2 2520   1.195   2.738   1.296
  541SOL     OW 2521   3.761   4.812   5.225
  541SOL    HW1 2522   3.699   4.885   5.253
  541SOL    HW2 2523   3.856   4.846   5.229
  542SOL     OW 2524   5.820   6.230   6.722
  542SOL    HW1 2525   5.890   6.175   6.676
  542SOL    HW2 2526   5.782   6.296   6.657
  543SOL     OW 2527   6.879   5.919   0.229
  543SOL    HW1 2528   6.974   5.935   0.202
  543SOL    HW2 2529   6.864   5.951   0.322
  544SOL     OW 2530   1.041   6.222   0.001
  544SOL    HW1 2531   0.957   6.172   7.006
  544SOL    HW2 2532   1.081   6.259   6.944
  545SOL     OW 2533   3.270   1.802   3.644
  545SOL    HW1 2534   3.231   1.778   3.555
  545SOL    HW2 2535   3.369   1.785   3.641
  546SOL     OW 2536   1.452   3.211   0.024
  546SOL    HW1 2537   1.356   3.237   0.016
  546SOL    HW2 2538   1.509   3.287   7.020
  547SOL     OW 2539   2.526   2.519   6.908
  547SOL    HW1 2540   2.601   2.482   6.853
  547SOL    HW2 2541   2.499   2.452   6.976
  548SOL     OW 2542   3.351   3.219   5.101
  548SOL    HW1 2543   3.302   3.226   5.188
  548SOL    HW2 2544   3.339   3.127   5.064
  549SOL     OW 2545   0.998   3.904   1.641
  549SOL    HW1 2546   1.013   3.876   1.547
  549SOL    HW2 2547   1.082   3.943   1.678
  550SOL     OW 2548   6.842   3.719   1.188
  550SOL    HW1 2549   6.880   3.656   1.121
  550SOL    HW2 2550   6.853   3.681   1.280
  551SOL     OW 2551   6.893   1.791   6.316
  551SOL    HW1 2552   6.810   1.810   6.368
  551SOL    HW2 2553   6.900   1.854   6.238
  552SOL     OW 2554   4.565   5.029   0.329
  552SOL    HW1 2555   4.573   4.963   0.404
  552SOL    HW2 2556   4.544   5.120   0.367
  553SOL     OW 2557   1.572   2.184   1.270
  553SOL    HW1 2558   1.535   2.198   1.361
  553SOL    HW2 2559   1.558   2.089   1.242
  554SOL     OW 2560   4.852   5.342   4.606
  554SOL    HW1 2561   4.929   5.344   4.542
  554SOL    HW2 2562   4.823   5.435   4.627
  555SOL     OW 2563   1.892   4.087   4.580
  555SOL    HW1 2564   1.860   4.178   4.551
  555SOL    HW2 2565   1.832   4.053   4.652
  556SOL     OW 2566   6.184   3.360   2.536
  556SOL    HW1 2567   6.149   3.395   2.450
  556SOL    HW2 2568   6.116   3.301   2.579
  557SOL     OW 2569   0.249   5.615   6.748
  557SOL    HW1 2570   0.321   5.675   6.713
  557SOL    HW2 2571   0.225   5.548   6.677
  558SOL     OW 2572   4.372   3.566   5.790
  558SOL    HW1 2573   4.279   3.601   5.775
  558SOL    HW2 2574   4.428   3.583   5.709
  559SOL     OW 2575   6.333   5.642   6.082
  559SOL    HW1 2576   6.237   5.640   6.054
  559SOL    HW2 2577   6.374   5.552   6.069
  560SOL     OW 2578   3.869   6.703   6.833
  560SOL    HW1 2579   3.861   6.793   6.877
  560SOL    HW2 2580   3.962   6.669   6.846
  561SOL     OW 2581   5.596   6.630   1.369
  561SOL    HW1 2582   5.500   6.656   1.355
  561SOL    HW2 2583   5.645   6.705   1.414
  562SOL     OW 2584   6.799   0.615   6.901
  562SOL    HW1 2585   6.793   0.526   6.856
  562SOL    HW2 2586   6.759   0.609   6.993
  563SOL     OW 2587   3.162   0.295   4.769
  563SOL    HW1 2588   3.202   0.308   4.679
  563SOL    HW2 2589   3.118   0.380   4.798
  564SOL     OW 2590   0.465   1.888   6.277
  564SOL    HW1 2591   0.388   1.932   6.232
  564SOL    HW2 2592   0.452   1.789   6.275
  565SOL     OW 2593   4.569   4.308   5.191
  565SOL    HW1 2594   4.609   4.217   5.197
  565SOL    HW2 2595   4.472   4.304   5.216
  566SOL     OW 2596   5.740   5.072   2.265
  566SOL    HW1 2597   5.751   4.995   2.328
  566SOL    HW2 2598   5.693   5.041   2.182
  567SOL     OW 2599   3.713   4.038   4.221
  567SOL    HW1 2600   3.778   3.962   4.212
  567SOL    HW2 2601   3.715   4.072   4.315
  568SOL     OW 2602   1.992   1.326   6.104
  568SOL    HW1 2603   2.015   1.386   6.028
  568SOL    HW2 2604   2.075   1.304   6.155
  569SOL     OW 2605   2.506   3.584   6.925
  569SOL    HW1 2606   2.455   3.542   7.000
  569SOL    HW2 2607   2.560   3.515   6.878
  570SOL     OW 2608   0.376   6.325   1.260
  570SOL    HW1 2609   0.297   6.316   1.199
  570SOL    HW2 2610   0.454   6.359   1.209
  571SOL     OW 2611   4.080   5.377   3.145
  571SOL    HW1 2612   4.163   5.426   3.120
  571SOL    HW2 2613   4.032   5.349   3.062
  572SOL     OW 2614   2.176   4.093   4.587
  572SOL    HW1 2615   2.213   4.031   4.656
  572SOL    HW2 2616   2.077   4.102   4.599
  573SOL     OW 2617   3.589   2.447   6.739
  573SOL    HW1 2618   3.611   2.503   6.659
  573SOL    HW2 2619   3.621   2.493   6.822
  574SOL     OW 2620   2.678   1.328   4.361
  574SOL    HW1 2621   2.707   1.423   4.351
  574SOL    HW2 2622   2.582   1.319   4.338
  575SOL     OW 2623   5.668   2.582   6.317
  575SOL    HW1 2624   5.763   2.553   6.308
  575SOL    HW2 2625   5.615   2.547   6.239
  576SOL     OW 2626   0.928   2.634   2.655
  576SOL    HW1 2627   1.025   2.623   2.677
  576SOL    HW2 2628   0.918   2.652   2.558
  577SOL     OW 2629   3.429   2.083   4.344
  577SOL    HW1 2630   3.499   2.061   4.411
  577SOL    HW2 2631   3.342   2.102   4.391
  578SOL     OW 2632   0.254   3.547   4.608
  578SOL    HW1 2633   0.179   3.481   4.617
  578SOL    HW2 2634   0.307   3.526   4.525
  579SOL     OW 2635   3.816   3.621   0.578
  579SOL    HW1 2636   3.874   3.563   0.635
  579SOL    HW2 2637   3.871   3.666   0.508
  580SOL     OW 2638   0.691   6.070   6.901
  580SOL    HW1 2639   0.770   6.023   6.859
  580SOL    HW2 2640   0.712   6.166   6.913
  581SOL     OW 2641   4.157   3.535   2.617
  581SOL    HW1 2642   4.111   3.619   2.645
  581SOL    HW2 2643   4.200   3.549   2.528
  582SOL     OW 2644   6.599   4.300   1.678
  582SOL    HW1 2645   6.569   4.213   1.640
  582SOL    HW2 2646   6.663   4.343   1.615
  583SOL     OW 2647   2.495   5.992   6.756
  583SOL    HW1 2648   2.471   6.028   6.846
  583SOL    HW2 2649   2.593   6.001   6.741
  584SOL     OW 2650   0.886   5.464   5.117
  584SOL    HW1 2651   0.815   5.393   5.112
  584SOL    HW2 2652   0.970   5.424   5.153
  585SOL     OW 2653   6.228   1.129   5.637
  585SOL    HW1 2654   6.162   1.062   5.605
  585SOL    HW2 2655   6.300   1.083   5.690
  586SOL     OW 2656   2.470   5.867   1.595
  586SOL    HW1 2657   2.448   5.779   1.638
  586SOL    HW2 2658   2.459   5.859   1.496
  587SOL     OW 2659   1.235   3.847   5.853
  587SOL    HW1 2660   1.290   3.765   5.872
  587SOL    HW2 2661   1.146   3.819   5.818
  588SOL     OW 2662   2.099   0.163   1.677
  588SOL    HW1 2663   2.123   0.115   1.593
  588SOL    HW2 2664   2.003   0.192   1.672
  589SOL     OW 2665   4.628   5.270   2.527
  589SOL    HW1 2666   4.699   5.277   2.597
  589SOL    HW2 2667   4.551   5.328   2.552
  590SOL     OW 2668   6.647   2.351   1.811
  590SOL    HW1 2669   6.622   2.445   1.787
  590SOL    HW2 2670   6.744   2.337   1.789
  591SOL     OW 2671   2.911   6.712   3.005
  591SOL    HW1 2672   2.985   6.756   3.057
  591SOL    HW2 2673   2.933   6.615   2.991
  592SOL     OW 2674   5.680   0.191   0.017
  592SOL    HW1 2675   5.716   0.164   6.955
  592SOL    HW2 2676   5.739   0.155   0.089
  593SOL     OW 2677   6.073   1.476   4.739
  593SOL    HW1 2678   6.124   1.430   4.811
  593SOL    HW2 2679   6.062   1.573   4.763
  594SOL     OW 2680   5.415   2.829   1.430
  594SOL    HW1 2681   5.421   2.750   1.491
  594SOL    HW2 2682   5.329   2.826   1.379
  595SOL     OW 2683   4.696   6.859   3.784
  595SOL    HW1 2684   4.635   6.856   3.863
  595SOL    HW2 2685   4.791   6.848   3.814
  596SOL     OW 2686   0.934   3.937   2.323
  596SOL    HW1 2687   0.838   3.916   2.304
  596SOL    HW2 2688   0.955   4.029   2.289
  597SOL     OW 2689   4.212   2.605   6.133
  597SOL    HW1 2690   4.197   2.608   6.034
  597SOL    HW2 2691   4.294   2.552   6.153
  598SOL     OW 2692   3.148   4.274   1.455
  598SOL    HW1 2693   3.129   4.280   1.553
  598SOL    HW2 2694   3.066   4.300   1.404
  599SOL     OW 2695   6.739   6.362   3.471
  599SOL    HW1 2696   6.816   6.380   3.533
  599SOL    HW2 2697   6.769   6.300   3.398
  600SOL     OW 2698   2.654   1.539   1.342
  600SOL    HW1 2699   2.663   1.457   1.285
  600SOL    HW2 2700   2.736   1.595   1.332
  601SOL     OW 2701   2.384   4.965   3.233
  601SOL    HW1 2702   2.479   4.950   3.261
  601SOL    HW2 2703   2.382   5.030   3.156
  602SOL     OW 2704   6.870   0.595   1.888
  602SOL    HW1 2705   6.806   0.545   1.947
  602SOL    HW2 2706   6.964   0.577   1.918
  603SOL     OW 2707   3.643   1.652   3.427
  603SOL    HW1 2708   3.626   1.651   3.328
  603SOL    HW2 2709   3.735   1.688   3.444
  604SOL     OW 2710   0.963   4.145   5.593
  604SOL    HW1 2711   0.935   4.162   5.687
  604SOL    HW2 2712   0.891   4.175   5.531
  605SOL     OW 2713   6.008   6.978   4.895
  605SOL    HW1 2714   5.926   0.008   4.894
  605SOL    HW2 2715   5.981   6.881   4.894
  606SOL     OW 2716   3.355   0.212   2.591
  606SOL    HW1 2717   3.263   0.173   2.586
  606SOL    HW2 2718   3.368   0.258   2.679
  607SOL     OW 2719   4.251   0.795   4.137
  607SOL    HW1 2720   4.290   0.872   4.187
  607SOL    HW2 2721   4.157   0.779   4.168
  608SOL     OW 2722   5.409   2.405   1.861
  608SOL    HW1 2723   5.467   2.360   1.929
  608SOL    HW2 2724   5.331   2.345   1.839
  609SOL     OW 2725   2.986   3.655   4.555
  609SOL    HW1 2726   2.990   3.705   4.642
  609SOL    HW2 2727   2.961   3.560   4.573
  610SOL     OW 2728   5.856   1.573   4.393
  610SOL    HW1 2729   5.905   1.508   4.452
  610SOL    HW2 2730   5.910   1.589   4.310
  611SOL     OW 2731   6.257   6.645   0.294
  611SOL    HW1 2732   6.222   6.731   0.333
  611SOL    HW2 2733   6.222   6.635   0.201
  612SOL     OW 2734   2.249   5.457   5.676
  612SOL    HW1 2735   2.260   5.522   5.601
  612SOL    HW2 2736   2.183   5.387   5.650
  613SOL     OW 2737   3.815   1.638   7.003
  613SOL    HW1 2738   3.732   1.615   0.028
  613SOL    HW2 2739   3.808   1.600   6.910
  614SOL     OW 2740   5.503   3.047   1.290
  614SOL    HW1 2741   5.471   2.960   1.327
  614SOL    HW2 2742   5.532   3.035   1.195
  615SOL     OW 2743   5.083   6.803   0.602
  615SOL    HW1 2744   5.113   6.857   0.524
  615SOL    HW2 2745   5.152   6.809   0.675
  616SOL     OW 2746   5.194   0.298   4.829
  616SOL    HW1 2747   5.257   0.239   4.778
  616SOL    HW2 2748   5.231   0.390   4.834
  617SOL     OW 2749   0.315   6.275   5.590
  617SOL    HW1 2750   0.235   6.321   5.551
  617SOL    HW2 2751   0.368   6.233   5.516
  618SOL     OW 2752   5.535   4.696   0.342
  618SOL    HW1 2753   5.604   4.705   0.270
  618SOL    HW2 2754   5.502   4.602   0.345
  619SOL     OW 2755   2.341   6.639   6.050
  619SOL    HW1 2756   2.438   6.659   6.049
  619SOL    HW2 2757   2.304   6.655   6.142
  620SOL     OW 2758   4.347   1.863   2.228
  620SOL    HW1 2759   4.272   1.848   2.163
  620SOL    HW2 2760   4.401   1.779   2.235
  621SOL     OW 2761   3.138   0.516   6.686
  621SOL    HW1 2762   3.165   0.421   6.703
  621SOL    HW2 2763   3.144   0.567   6.772
  622SOL     OW 2764   0.053   3.358   5.601
  622SOL    HW1 2765   7.007   3.324   5.541
  622SOL    HW2 2766   0.014   3.380   5.690
  623SOL     OW 2767   6.860   0.262   2.969
  623SOL    HW1 2768   6.866   0.343   2.911
  623SOL    HW2 2769   6.826   0.288   3.060
  624SOL     OW 2770   6.620   1.732   5.909
  624SOL    HW1 2771   6.548   1.689   5.855
  624SOL    HW2 2772   6.638   1.678   5.991
  625SOL     OW 2773   3.600   0.867   1.333
  625SOL    HW1 2774   3.583   0.901   1.240
  625SOL    HW2 2775   3.683   0.910   1.369
  626SOL     OW 2776   0.710   5.988   3.540
  626SOL    HW1 2777   0.796   6.025   3.506
  626SOL    HW2 2778   0.693   6.024   3.632
  627SOL     OW 2779   6.333   5.453   0.272
  627SOL    HW1 2780   6.338   5.477   0.369
  627SOL    HW2 2781   6.380   5.523   0.219
  628SOL     OW 2782   3.470   5.066   6.299
  628SOL    HW1 2783   3.447   5.153   6.256
  628SOL    HW2 2784   3.439   4.990   6.242
  629SOL     OW 2785   1.259   6.897   6.909
  629SOL    HW1 2786   1.250   6.799   6.894
  629SOL    HW2 2787   1.356   6.921   6.914
  630SOL     OW 2788   6.899   1.981   1.309
  630SOL    HW1 2789   6.976   1.919   1.296
  630SOL    HW2 2790   6.861   2.007   1.220
  631SOL     OW 2791   1.765   2.811   3.558
  631SOL    HW1 2792   1.844   2.858   3.596
  631SOL    HW2 2793   1.796   2.734   3.502
  632SOL     OW 2794   3.041   4.284   1.130
  632SOL    HW1 2795   2.959   4.254   1.180
  632SOL    HW2 2796   3.103   4.330   1.193
  633SOL     OW 2797   1.428   5.974   0.679
  633SOL    HW1 2798   1.523   5.961   0.650
  633SOL    HW2 2799   1.374   6.007   0.601
  634SOL     OW 2800   3.004   3.320   5.132
  634SOL    HW1 2801   3.052   3.345   5.216
  634SOL    HW2 2802   2.950   3.238   5.148
  635SOL     OW 2803   5.692   6.781   6.294
  635SOL    HW1 2804   5.669   6.875   6.270
  635SOL    HW2 2805   5.618   6.741   6.348
  636SOL     OW 2806   2.825   1.066   4.881
  636SOL    HW1 2807   2.789   1.037   4.970
  636SOL    HW2 2808   2.751   1.065   4.814
  637SOL     OW 2809   0.097   1.156   2.811
  637SOL    HW1 2810   0.172   1.129   2.749
  637SOL    HW2 2811   0.101   1.101   2.894
  638SOL     OW 2812   6.777   3.200   5.097
  638SOL    HW1 2813   6.700   3.255   5.127
  638SOL    HW2 2814   6.753   3.152   5.012
  639SOL     OW 2815   5.747   3.686   1.813
  639SOL    HW1 2816   5.669   3.690   1.750
  639SOL    HW2 2817   5.728   3.744   1.892
  640SOL     OW 2818   0.162   3.330   2.475
  640SOL    HW1 2819   0.241   3.360   2.422
  640SOL    HW2 2820   0.169   3.232   2.493
  641SOL     OW 2821   2.424   5.372   4.433
  641SOL    HW1 2822   2.416   5.295   4.369
  641SOL    HW2 2823   2.486   5.348   4.507
  642SOL     OW 2824   0.491   5.272   4.621
  642SOL    HW1 2825   0.586   5.285   4.649
  642SOL    HW2 2826   0.435   5.251   4.701
  643SOL     OW 2827   4.348   5.661   0.585
  643SOL    HW1 2828   4.254   5.626   0.588
  643SOL    HW2 2829   4.386   5.646   0.494
  644SOL     OW 2830   6.856   6.319   4.933
  644SOL    HW1 2831   6.952   6.318   4.962
  644SOL    HW2 2832   6.828   6.412   4.911
  645SOL     OW 2833   4.432   5.862   2.430
  645SOL    HW1 2834   4.359   5.822   2.376
  645SOL    HW2 2835   4.452   5.954   2.397
  646SOL     OW 2836   3.594   1.945   5.048
  646SOL    HW1 2837   3.586   1.847   5.062
  646SOL    HW2 2838   3.505   1.988   5.064
  647SOL     OW 2839   3.417   2.590   0.148
  647SOL    HW1 2840   3.328   2.548   0.166
  647SOL    HW2 2841   3.415   2.686   0.175
  648SOL     OW 2842   6.012   1.304   3.971
  648SOL    HW1 2843   6.037   1.237   3.900
  648SOL    HW2 2844   6.067   1.386   3.960
  649SOL     OW 2845   2.658   5.604   0.840
  649SOL    HW1 2846   2.643   5.505   0.834
  649SOL    HW2 2847   2.748   5.627   0.803
  650SOL     OW 2848   0.575   3.269   0.992
  650SOL    HW1 2849   0.554   3.358   0.950
  650SOL    HW2 2850   0.673   3.250   0.981
  651SOL     OW 2851   0.111   0.523   4.000
  651SOL    HW1 2852   0.055   0.453   4.044
  651SOL    HW2 2853   0.153   0.581   4.069
  652SOL     OW 2854   4.001   5.581   1.015
  652SOL    HW1 2855   3.989   5.632   1.100
  652SOL    HW2 2856   4.055   5.635   0.951
  653SOL     OW 2857   1.608   6.514   2.504
  653SOL    HW1 2858   1.667   6.506   2.423
  653SOL    HW2 2859   1.532   6.450   2.495
  654SOL     OW 2860   0.785   6.909   5.443
  654SOL    HW1 2861   0.815   7.005   5.443
  654SOL    HW2 2862   0.695   6.902   5.486
  655SOL     OW 2863   0.993   3.434   1.149
  655SOL    HW1 2864   1.023   3.498   1.219
  655SOL    HW2 2865   1.035   3.344   1.166
  656SOL     OW 2866   2.887   6.298   6.691
  656SOL    HW1 2867   2.817   6.281   6.622
  656SOL    HW2 2868   2.851   6.278   6.782
  657SOL     OW 2869   3.689   3.308   3.493
  657SOL    HW1 2870   3.591   3.289   3.495
  657SOL    HW2 2871   3.705   3.395   3.447
  658SOL     OW 2872   1.299   0.959   4.171
  658SOL    HW1 2873   1.207   0.997   4.174
  658SOL    HW2 2874   1.297   0.864   4.204
  659SOL     OW 2875   1.692   5.599   6.534
  659SOL    HW1 2876   1.727   5.628   6.623
  659SOL    HW2 2877   1.738   5.650   6.461
  660SOL     OW 2878   5.842   4.608   2.743
  660SOL    HW1 2879   5.866   4.700   2.712
  660SOL    HW2 2880   5.903   4.581   2.818
  661SOL     OW 2881   4.335   4.897   3.883
  661SOL    HW1 2882   4.387   4.826   3.931
  661SOL    HW2 2883   4.270   4.853   3.820
  662SOL     OW 2884   4.999   3.912   0.271
  662SOL    HW1 2885   4.995   3.815   0.249
  662SOL    HW2 2886   5.041   3.924   0.361
  663SOL     OW 2887   0.152   4.658   6.892
  663SOL    HW1 2888   0.202   4.575   6.869
  663SOL    HW2 2889   0.186   4.734   6.837
  664SOL     OW 2890   1.225   6.991   6.316
  664SOL    HW1 2891   1.315   7.003   6.357
  664SOL    HW2 2892   1.235   6.951   6.224
  665SOL     OW 2893   2.671   4.674   2.934
  665SOL    HW1 2894   2.611   4.625   2.870
  665SOL    HW2 2895   2.758   4.696   2.888
  666SOL     OW 2896   3.164   1.148   6.776
  666SOL    HW1 2897   3.104   1.175   6.701
  666SOL    HW2 2898   3.110   1.103   6.848
  667SOL     OW 2899   1.600   3.184   2.291
  667SOL    HW1 2900   1.556   3.204   2.379
  667SOL    HW2 2901   1.656   3.102   2.300
  668SOL     OW 2902   4.940   0.190   0.994
  668SOL    HW1 2903   4.994   0.174   0.911
  668SOL    HW2 2904   4.844   0.170   0.975
  669SOL     OW 2905   0.636   5.741   2.843
  669SOL    HW1 2906   0.546   5.706   2.816
  669SOL    HW2 2907   0.637   5.840   2.832
  670SOL     OW 2908   3.895   3.489   2.881
  670SOL    HW1 2909   3.917   3.546   2.959
  670SOL    HW2 2910   3.978   3.447   2.845
  671SOL     OW 2911   1.631   0.764   6.678
  671SOL    HW1 2912   1.666   0.857   6.667
  671SOL    HW2 2913   1.532   0.768   6.694
  672SOL     OW 2914   1.107   2.094   3.023
  672SOL    HW1 2915   1.098   2.095   2.924
  672SOL    HW2 2916   1.188   2.146   3.050
  673SOL     OW 2917   4.988   0.221   0.294
  673SOL    HW1 2918   5.039   0.281   0.355
  673SOL    HW2 2919   5.006   0.246   0.199
  674SOL     OW 2920   0.117   2.334   4.860
  674SOL    HW1 2921   0.025   2.325   4.898
  674SOL    HW2 2922   0.111   2.364   4.765
  675SOL     OW 2923   6.439   6.446   3.792
  675SOL    HW1 2924   6.408   6.497   3.873
  675SOL    HW2 2925   6.455   6.510   3.717
  676SOL     OW 2926   3.007   5.630   4.370
  676SOL    HW1 2927   3.042   5.708   4.319
  676SOL    HW2 2928   2.917   5.653   4.408
  677SOL     OW 2929   4.228   6.755   0.567
  677SOL    HW1 2930   4.227   6.679   0.631
  677SOL    HW2 2931   4.315   6.755   0.516
  678SOL     OW 2932   2.387   1.054   5.304
  678SOL    HW1 2933   2.357   0.974   5.252
  678SOL    HW2 2934   2.389   1.031   5.401
  679SOL     OW 2935   5.787   0.953   2.246
  679SOL    HW1 2936   5.831   0.977   2.333
  679SOL    HW2 2937   5.815   0.861   2.219
  680SOL     OW 2938   5.639   4.187   4.197
  680SOL    HW1 2939   5.698   4.229   4.266
  680SOL    HW2 2940   5.554   4.157   4.240
  681SOL     OW 2941   1.207   6.616   2.037
  681SOL    HW1 2942   1.227   6.548   2.107
  681SOL    HW2 2943   1.269   6.693   2.045
  682SOL     OW 2944   0.388   0.394   6.157
  682SOL    HW1 2945   0.390   0.323   6.227
  682SOL    HW2 2946   0.334   0.472   6.190
  683SOL     OW 2947   4.939   1.331   1.290
  683SOL    HW1 2948   5.006   1.261   1.266
  683SOL    HW2 2949   4.980   1.396   1.354
  684SOL     OW 2950   0.163   5.973   6.455
  684SOL    HW1 2951   0.222   5.892   6.464
  684SOL    HW2 2952   0.209   6.052   6.496
  685SOL     OW 2953   6.428   0.692   6.798
  685SOL    HW1 2954   6.523   0.718   6.777
  685SOL    HW2 2955   6.384   0.660   6.714
  686SOL     OW 2956   6.001   4.866   2.777
  686SOL    HW1 2957   5.993   4.836   2.872
  686SOL    HW2 2958   6.086   4.831   2.737
  687SOL     OW 2959   5.662   2.196   5.331
  687SOL    HW1 2960   5.735   2.133   5.358
  687SOL    HW2 2961   5.641   2.257   5.407
  688SOL     OW 2962   6.492   3.463   4.845
  688SOL    HW1 2963   6.544   3.483   4.928
  688SOL    HW2 2964   6.398   3.495   4.855
  689SOL     OW 2965   5.770   4.254   4.460
  689SOL    HW1 2966   5.738   4.217   4.547
  689SOL    HW2 2967   5.782   4.353   4.468
  690SOL     OW 2968   0.246   3.403   3.830
  690SOL    HW1 2969   0.311   3.362   3.767
  690SOL    HW2 2970   0.237   3.500   3.809
  691SOL     OW 2971   0.250   3.199   6.648
  691SOL    HW1 2972   0.291   3.151   6.570
  691SOL    HW2 2973   0.169   3.248   6.618
  692SOL     OW 2974   2.726   0.369   3.400
  692SOL    HW1 2975   2.783   0.363   3.482
  692SOL    HW2 2976   2.647   0.426   3.418
  693SOL     OW 2977   6.464   1.245   2.884
  693SOL    HW1 2978   6.485   1.150   2.865
  693SOL    HW2 2979   6.365   1.258   2.886
  694SOL     OW 2980   1.510   0.336   2.185
  694SOL    HW1 2981   1.420   0.354   2.145
  694SOL    HW2 2982   1.569   0.416   2.174
  695SOL     OW 2983   4.908   5.449   6.767
  695SOL    HW1 2984   4.855   5.456   6.682
  695SOL    HW2 2985   4.984   5.514   6.764
  696SOL     OW 2986   5.103   6.564   2.671
  696SOL    HW1 2987   5.165   6.595   2.743
  696SOL    HW2 2988   5.031   6.507   2.712
  697SOL     OW 2989   1.502   4.001   3.795
  697SOL    HW1 2990   1.470   4.028   3.886
  697SOL    HW2 2991   1.497   4.079   3.733
  698SOL     OW 2992   5.732   5.989   3.965
  698SOL    HW1 2993   5.796   5.930   4.017
  698SOL    HW2 2994   5.677   5.932   3.904
  699SOL     OW 2995   0.885   4.627   6.344
  699SOL    HW1 2996   0.914   4.532   6.336
  699SOL    HW2 2997   0.821   4.649   6.271
  700SOL     OW 2998   1.738   1.798   4.662
  700SOL    HW1 2999   1.673   1.823   4.734
  700SOL    HW2 3000   1.725   1.858   4.583
  701SOL     OW 3001   0.859   4.907   5.661
  701SOL    HW1 3002   0.825   4.823   5.704
  701SOL    HW2 3003   0.887   4.972   5.731
  702SOL     OW 3004   5.250   5.729   4.795
  702SOL    HW1 3005   5.270   5.825   4.814
  702SOL    HW2 3006   5.332   5.684   4.760
  703SOL     OW 3007   4.915   4.255   6.431
  703SOL    HW1 3008   4.846   4.260   6.503
  703SOL    HW2 3009   5.003   4.285   6.467
  704SOL     OW 3010   2.365   0.021   1.752
  704SOL    HW1 3011   2.288   7.013   1.698
  704SOL    HW2 3012   2.336   0.102   1.803
  705SOL     OW 3013   0.281   1.980   3.634
  705SOL    HW1 3014   0.381   1.971   3.631
  705SOL    HW2 3015   0.249   1.964   3.728
  706SOL     OW 3016   5.059   2.697   4.068
  706SOL    HW1 3017   4.966   2.702   4.107
  706SOL    HW2 3018   5.104   2.785   4.077
  707SOL     OW 3019   4.919   2.054   2.575
  707SOL    HW1 3020   4.986   2.027   2.505
  707SOL    HW2 3021   4.888   2.147   2.556
  708SOL     OW 3022   3.993   0.414   2.337
  708SOL    HW1 3023   4.027   0.455   2.422
  708SOL    HW2 3024   4.041   0.454   2.259
  709SOL     OW 3025   0.772   5.269   0.131
  709SOL    HW1 3026   0.857   5.310   0.165
  709SOL    HW2 3027   0.740   5.320   0.051
  710SOL     OW 3028   3.076   3.081   2.655
  710SOL    HW1 3029   3.153   3.077   2.718
  710SOL    HW2 3030   3.103   3.041   2.567
  711SOL     OW 3031   0.501   1.180   4.844
  711SOL    HW1 3032   0.578   1.232   4.882
  711SOL    HW2 3033   0.483   1.212   4.751
  712SOL     OW 3034   1.118   3.748   2.330
  712SOL    HW1 3035   1.182   3.784   2.399
  712SOL    HW2 3036   1.047   3.816   2.312
  713SOL     OW 3037   2.996   3.891   4.033
  713SOL    HW1 3038   2.933   3.856   4.102
  713SOL    HW2 3039   3.020   3.986   4.054
  714SOL     OW 3040   5.197   4.832   5.482
  714SOL    HW1 3041   5.147   4.829   5.395
  714SOL    HW2 3042   5.142   4.880   5.550
  715SOL     OW 3043   5.426   0.282   6.414
  715SOL    HW1 3044   5.449   0.354   6.348
  715SOL    HW2 3045   5.405   0.323   6.502
  716SOL     OW 3046   6.727   5.221   1.689
  716SOL    HW1 3047   6.711   5.277   1.770
  716SOL    HW2 3048   6.814   5.172   1.699
  717SOL     OW 3049   6.230   3.036   6.768
  717SOL    HW1 3050   6.318   3.021   6.721
  717SOL    HW2 3051   6.242   3.106   6.839
  718SOL     OW 3052   2.638   3.156   6.700
  718SOL    HW1 3053   2.574   3.095   6.653
  718SOL    HW2 3054   2.730   3.116   6.698
  719SOL     OW 3055   4.628   4.922   0.588
  719SOL    HW1 3056   4.686   4.938   0.668
  719SOL    HW2 3057   4.532   4.935   0.613
  720SOL     OW 3058   3.067   0.947   6.150
  720SOL    HW1 3059   3.150   0.894   6.170
  720SOL    HW2 3060   3.088   1.017   6.082
  721SOL     OW 3061   1.229   6.792   5.617
  721SOL    HW1 3062   1.272   6.880   5.596
  721SOL    HW2 3063   1.293   6.718   5.598
  722SOL     OW 3064   4.521   6.548   5.232
  722SOL    HW1 3065   4.482   6.504   5.313
  722SOL    HW2 3066   4.460   6.620   5.201
  723SOL     OW 3067   1.691   3.418   1.873
  723SOL    HW1 3068   1.652   3.372   1.793
  723SOL    HW2 3069   1.642   3.504   1.889
  724SOL     OW 3070   6.907   0.637   4.763
  724SOL    HW1 3071   6.945   0.631   4.855
  724SOL    HW2 3072   6.809   0.658   4.768
  725SOL     OW 3073   2.693   4.772   1.567
  725SOL    HW1 3074   2.788   4.778   1.536
  725SOL    HW2 3075   2.692   4.739   1.662
  726SOL     OW 3076   4.705   6.618   5.590
  726SOL    HW1 3077   4.620   6.566   5.583
  726SOL    HW2 3078   4.741   6.611   5.682
  727SOL     OW 3079   2.021   4.113   3.605
  727SOL    HW1 3080   1.969   4.115   3.691
  727SOL    HW2 3081   1.960   4.095   3.529
  728SOL     OW 3082   6.854   3.276   5.467
  728SOL    HW1 3083   6.821   3.183   5.481
  728SOL    HW2 3084   6.777   3.335   5.442
  729SOL     OW 3085   3.721   1.150   0.659
  729SOL    HW1 3086   3.727   1.057   0.695
  729SOL    HW2 3087   3.682   1.210   0.729
  730SOL     OW 3088   5.154   1.263   5.205
  730SOL    HW1 3089   5.137   1.322   5.125
  730SOL    HW2 3090   5.154   1.168   5.176
  731SOL     OW 3091   6.931   2.696   3.915
  731SOL    HW1 3092   6.932   2.781   3.968
  731SOL    HW2 3093   6.950   2.716   3.819
  732SOL     OW 3094   0.039   3.361   3.413
  732SOL    HW1 3095   0.063   3.284   3.472
  732SOL    HW2 3096   0.122   3.395   3.368
  733SOL     OW 3097   4.701   5.099   4.475
  733SOL    HW1 3098   4.759   5.028   4.434
  733SOL    HW2 3099   4.754   5.150   4.543
  734SOL     OW 3100   0.713   5.369   6.916
  734SOL    HW1 3101   0.667   5.336   6.834
  734SOL    HW2 3102   0.797   5.417   6.890
  735SOL     OW 3103   3.138   4.358   0.256
  735SOL    HW1 3104   3.180   4.419   0.323
  735SOL    HW2 3105   3.042   4.383   0.244
  736SOL     OW 3106   5.718   0.874   2.754
  736SOL    HW1 3107   5.677   0.963   2.737
  736SOL    HW2 3108   5.790   0.882   2.823
  737SOL     OW 3109   5.541   4.141   0.662
  737SOL    HW1 3110   5.522   4.046   0.635
  737SOL    HW2 3111   5.525   4.151   0.760
  738SOL     OW 3112   0.619   4.558   2.970
  738SOL    HW1 3113   0.556   4.481   2.973
  738SOL    HW2 3114   0.708   4.530   3.006
  739SOL     OW 3115   4.553   6.320   6.190
  739SOL    HW1 3116   4.555   6.302   6.092
  739SOL    HW2 3117   4.641   6.357   6.219
  740SOL     OW 3118   5.161   0.418   0.395
  740SOL    HW1 3119   5.234   0.408   0.326
  740SOL    HW2 3120   5.180   0.358   0.472
  741SOL     OW 3121   2.969   0.247   3.920
  741SOL    HW1 3122   2.879   0.265   3.960
  741SOL    HW2 3123   3.003   0.159   3.954
  742SOL     OW 3124   1.342   6.717   2.321
  742SOL    HW1 3125   1.341   6.620   2.295
  742SOL    HW2 3126   1.365   6.725   2.418
  743SOL     OW 3127   1.889   2.902   4.335
  743SOL    HW1 3128   1.841   2.833   4.280
  743SOL    HW2 3129   1.908   2.864   4.426
  744SOL     OW 3130   0.069   5.317   0.819
  744SOL    HW1 3131   0.057   5.367   0.905
  744SOL    HW2 3132   0.065   5.218   0.837
  745SOL     OW 3133   1.966   5.798   3.534
  745SOL    HW1 3134   2.001   5.788   3.441
  745SOL    HW2 3135   1.933   5.710   3.568
  746SOL     OW 3136   3.249   0.563   3.731
  746SOL    HW1 3137   3.189   0.627   3.681
  746SOL    HW2 3138   3.321   0.615   3.777
  747SOL     OW 3139   6.072   3.968   1.273
  747SOL    HW1 3140   6.158   4.003   1.310
  747SOL    HW2 3141   6.033   4.034   1.209
  748SOL     OW 3142   3.917   3.034   2.440
  748SOL    HW1 3143   3.838   3.047   2.380
  748SOL    HW2 3144   3.952   3.123   2.469
  749SOL     OW 3145   6.236   2.125   5.394
  749SOL    HW1 3146   6.180   2.179   5.331
  749SOL    HW2 3147   6.323   2.103   5.350
  750SOL     OW 3148   3.224   3.501   1.728
  750SOL    HW1 3149   3.234   3.565   1.651
  750SOL    HW2 3150   3.313   3.460   1.748
  751SOL     OW 3151   5.587   1.224   0.523
  751SOL    HW1 3152   5.547   1.241   0.613
  751SOL    HW2 3153   5.648   1.145   0.528
  752SOL     OW 3154   4.406   1.007   1.674
  752SOL    HW1 3155   4.459   1.019   1.590
  752SOL    HW2 3156   4.446   0.932   1.728
  753SOL     OW 3157   2.596   1.149   2.843
  753SOL    HW1 3158   2.645   1.067   2.873
  753SOL    HW2 3159   2.544   1.188   2.919
  754SOL     OW 3160   5.101   5.789   0.274
  754SOL    HW1 3161   5.174   5.724   0.294
  754SOL    HW2 3162   5.059   5.765   0.186
  755SOL     OW 3163   6.802   5.595   2.964
  755SOL    HW1 3164   6.840   5.535   2.894
  755SOL    HW2 3165   6.859   5.592   3.046
  756SOL     OW 3166   3.638   6.381   3.912
  756SOL    HW1 3167   3.656   6.460   3.853
  756SOL    HW2 3168   3.696   6.387   3.994
  757SOL     OW 3169   6.585   1.340   4.557
  757SOL    HW1 3170   6.593   1.391   4.642
  757SOL    HW2 3171   6.593   1.242   4.576
  758SOL     OW 3172   4.513   1.981   1.562
  758SOL    HW1 3173   4.471   1.995   1.472
  758SOL    HW2 3174   4.601   2.028   1.566
  759SOL     OW 3175   1.594   0.666   1.014
  759SOL    HW1 3176   1.686   0.699   0.993
  759SOL    HW2 3177   1.541   0.740   1.055
  760SOL     OW 3178   4.447   2.277   5.868
  760SOL    HW1 3179   4.423   2.238   5.957
  760SOL    HW2 3180   4.382   2.349   5.844
  761SOL     OW 3181   5.508   1.741   6.889
  761SOL    HW1 3182   5.581   1.727   6.957
  761SOL    HW2 3183   5.500   1.660   6.831
  762SOL     OW 3184   2.045   4.926   4.155
  762SOL    HW1 3185   2.116   4.857   4.137
  762SOL    HW2 3186   2.010   4.913   4.248
  763SOL     OW 3187   5.621   5.140   0.013
  763SOL    HW1 3188   5.609   5.156   0.111
  763SOL    HW2 3189   5.569   5.059   7.012
  764SOL     OW 3190   4.884   0.931   2.478
  764SOL    HW1 3191   4.945   0.964   2.549
  764SOL    HW2 3192   4.911   0.838   2.451
  765SOL     OW 3193   6.742   6.789   3.484
  765SOL    HW1 3194   6.693   6.876   3.490
  765SOL    HW2 3195   6.815   6.786   3.552
  766SOL     OW 3196   0.180   6.239   0.414
  766SOL    HW1 3197   0.236   6.258   0.495
  766SOL    HW2 3198   0.234   6.186   0.348
  767SOL     OW 3199   6.150   6.927   1.277
  767SOL    HW1 3200   6.056   6.908   1.305
  767SOL    HW2 3201   6.192   6.843   1.244
  768SOL     OW 3202   3.324   6.778   3.714
  768SOL    HW1 3203   3.337   6.722   3.795
  768SOL    HW2 3204   3.290   6.868   3.741
  769SOL     OW 3205   3.354   0.774   6.859
  769SOL    HW1 3206   3.357   0.871   6.836
  769SOL    HW2 3207   3.398   0.721   6.787
  770SOL     OW 3208   2.932   4.844   3.673
  770SOL    HW1 3209   2.953   4.863   3.577
  770SOL    HW2 3210   3.016   4.826   3.723
  771SOL     OW 3211   0.742   5.269   4.722
  771SOL    HW1 3212   0.774   5.357   4.758
  771SOL    HW2 3213   0.820   5.209   4.705
  772SOL     OW 3214   6.996   4.644   5.289
  772SOL    HW1 3215   0.001   4.550   5.301
  772SOL    HW2 3216   0.035   4.694   5.232
  773SOL     OW 3217   0.161   3.451   2.045
  773SOL    HW1 3218   0.070   3.409   2.050
  773SOL    HW2 3219   0.156   3.537   1.994
  774SOL     OW 3220   1.213   1.372   1.521
  774SOL    HW1 3221   1.197   1.335   1.612
  774SOL    HW2 3222   1.309   1.358   1.495
  775SOL     OW 3223   1.387   2.596   4.403
  775SOL    HW1 3224   1.345   2.602   4.313
  775SOL    HW2 3225   1.470   2.651   4.406
  776SOL     OW 3226   2.204   6.793   5.546
  776SOL    HW1 3227   2.110   6.809   5.576
  776SOL    HW2 3228   2.259   6.763   5.624
  777SOL     OW 3229   4.752   0.240   0.441
  777SOL    HW1 3230   4.787   0.295   0.517
  777SOL    HW2 3231   4.827   0.221   0.377
  778SOL     OW 3232   4.148   5.585   4.984
  778SOL    HW1 3233   4.185   5.663   4.934
  778SOL    HW2 3234   4.148   5.505   4.926
  779SOL     OW 3235   1.302   0.527   2.754
  779SOL    HW1 3236   1.325   0.619   2.785
  779SOL    HW2 3237   1.384   0.481   2.722
  780SOL     OW 3238   5.157   3.610   5.163
  780SOL    HW1 3239   5.168   3.543   5.236
  780SOL    HW2 3240   5.147   3.563   5.076
  781SOL     OW 3241   0.860   2.149   6.478
  781SOL    HW1 3242   0.858   2.248   6.488
  781SOL    HW2 3243   0.951   2.120   6.451
  782SOL     OW 3244   0.477   4.153   0.506
  782SOL    HW1 3245   0.564   4.107   0.489
  782SOL    HW2 3246   0.410   4.123   0.439
  783SOL     OW 3247   2.461   4.277   7.003
  783SOL    HW1 3248   2.366   4.295   6.978
  783SOL    HW2 3249   2.507   4.230   6.929
  784SOL     OW 3250   4.737   5.658   3.854
  784SOL    HW1 3251   4.799   5.736   3.848
  784SOL    HW2 3252   4.684   5.664   3.939
  785SOL     OW 3253   6.092   2.023   4.231
  785SOL    HW1 3254   6.085   1.934   4.275
  785SOL    HW2 3255   6.185   2.058   4.238
  786SOL     OW 3256   6.523   6.551   0.314
  786SOL    HW1 3257   6.565   6.554   0.404
  786SOL    HW2 3258   6.424   6.565   0.323
  787SOL     OW 3259   4.432   1.139   0.040
  787SOL    HW1 3260   4.473   1.206   7.005
  787SOL    HW2 3261   4.398   1.061   7.013
  788SOL     OW 3262   0.938   4.427   3.330
  788SOL    HW1 3263   1.031   4.395   3.351
  788SOL    HW2 3264   0.905   4.483   3.407
  789SOL     OW 3265   5.393   3.298   1.330
  789SOL    HW1 3266   5.480   3.342   1.306
  789SOL    HW2 3267   5.398   3.200   1.311
  790SOL     OW 3268   3.764   0.755   3.858
  790SOL    HW1 3269   3.743   0.837   3.910
  790SOL    HW2 3270   3.794   0.682   3.920
  791SOL     OW 3271   3.882   1.805   4.732
  791SOL    HW1 3272   3.973   1.822   4.695
  791SOL    HW2 3273   3.820   1.783   4.657
  792SOL     OW 3274   5.188   0.367   3.787
  792SOL    HW1 3275   5.184   0.338   3.882
  792SOL    HW2 3276   5.194   0.287   3.727
  793SOL     OW 3277   6.901   0.143   6.361
  793SOL    HW1 3278   6.935   0.179   6.274
  793SOL    HW2 3279   6.806   0.170   6.374
  794SOL     OW 3280   3.900   5.084   4.690
  794SOL    HW1 3281   3.862   5.060   4.779
  794SOL    HW2 3282   3.931   5.001   4.644
  795SOL     OW 3283   4.858   5.157   6.355
  795SOL    HW1 3284   4.858   5.186   6.259
  795SOL    HW2 3285   4.937   5.195   6.402
  796SOL     OW 3286   0.292   1.863   5.700
  796SOL    HW1 3287   0.371   1.836   5.754
  796SOL    HW2 3288   0.245   1.781   5.665
  797SOL     OW 3289   6.174   2.488   5.330
  797SOL    HW1 3290   6.114   2.478   5.251
  797SOL    HW2 3291   6.268   2.465   5.304
  798SOL     OW 3292   6.411   0.606   4.877
  798SOL    HW1 3293   6.351   0.594   4.798
  798SOL    HW2 3294   6.414   0.521   4.930
  799SOL     OW 3295   6.896   3.589   3.541
  799SOL    HW1 3296   6.942   3.505   3.514
  799SOL    HW2 3297   6.804   3.591   3.500
  800SOL     OW 3298   6.476   1.513   1.696
  800SOL    HW1 3299   6.517   1.590   1.744
  800SOL    HW2 3300   6.435   1.544   1.610
  801SOL     OW 3301   0.785   1.714   3.709
  801SOL    HW1 3302   0.878   1.715   3.746
  801SOL    HW2 3303   0.788   1.737   3.612
  802SOL     OW 3304   5.917   1.211   1.099
  802SOL    HW1 3305   5.937   1.181   1.192
  802SOL    HW2 3306   5.926   1.310   1.093
  803SOL     OW 3307   1.783   0.407   4.722
  803SOL    HW1 3308   1.786   0.480   4.653
  803SOL    HW2 3309   1.732   0.329   4.685
  804SOL     OW 3310   6.774   6.635   0.960
  804SOL    HW1 3311   6.744   6.724   0.994
  804SOL    HW2 3312   6.790   6.573   1.037
  805SOL     OW 3313   1.381   3.105   5.676
  805SOL    HW1 3314   1.313   3.160   5.629
  805SOL    HW2 3315   1.441   3.061   5.609
  806SOL     OW 3316   5.135   0.562   0.905
  806SOL    HW1 3317   5.200   0.603   0.840
  806SOL    HW2 3318   5.095   0.633   0.961
  807SOL     OW 3319   1.003   6.905   2.827
  807SOL    HW1 3320   1.093   6.909   2.784
  807SOL    HW2 3321   1.011   6.863   2.917
  808SOL     OW 3322   6.181   3.771   5.057
  808SOL    HW1 3323   6.124   3.690   5.044
  808SOL    HW2 3324   6.174   3.800   5.152
  809SOL     OW 3325   1.022   5.480   6.074
  809SOL    HW1 3326   1.049   5.575   6.057
  809SOL    HW2 3327   1.072   5.445   6.154
  810SOL     OW 3328   6.360   5.165   6.761
  810SOL    HW1 3329   6.354   5.240   6.696
  810SOL    HW2 3330   6.454   5.132   6.767
  811SOL     OW 3331   4.452   4.957   3.418
  811SOL    HW1 3332   4.368   4.957   3.363
  811SOL    HW2 3333   4.430   4.979   3.513
  812SOL     OW 3334   0.304   0.486   2.408
  812SOL    HW1 3335   0.321   0.438   2.322
  812SOL    HW2 3336   0.377   0.464   2.473
  813SOL     OW 3337   5.537   5.880   2.264
  813SOL    HW1 3338   5.548   5.865   2.362
  813SOL    HW2 3339   5.609   5.942   2.232
  814SOL     OW 3340   5.345   5.615   1.567
  814SOL    HW1 3341   5.268   5.583   1.623
  814SOL    HW2 3342   5.430   5.578   1.603
  815SOL     OW 3343   0.501   1.267   0.149
  815SOL    HW1 3344   0.528   1.349   0.200
  815SOL    HW2 3345   0.408   1.240   0.176
  816SOL     OW 3346   5.852   0.443   0.923
  816SOL    HW1 3347   5.884   0.379   0.993
  816SOL    HW2 3348   5.928   0.469   0.864
  817SOL     OW 3349   0.617   1.899   1.481
  817SOL    HW1 3350   0.598   1.823   1.543
  817SOL    HW2 3351   0.549   1.900   1.407
  818SOL     OW 3352   5.631   1.320   2.738
  818SOL    HW1 3353   5.620   1.412   2.774
  818SOL    HW2 3354   5.689   1.323   2.656
  819SOL     OW 3355   0.311   5.064   2.524
  819SOL    HW1 3356   0.336   5.146   2.472
  819SOL    HW2 3357   0.372   4.989   2.498
  820SOL     OW 3358   1.639   2.923   4.633
  820SOL    HW1 3359   1.708   2.925   4.706
  820SOL    HW2 3360   1.585   3.007   4.636
  821SOL     OW 3361   1.358   4.048   0.512
  821SOL    HW1 3362   1.410   3.997   0.580
  821SOL    HW2 3363   1.274   3.998   0.489
  822SOL     OW 3364   1.533   3.713   4.598
  822SOL    HW1 3365   1.618   3.765   4.591
  822SOL    HW2 3366   1.480   3.725   4.514
  823SOL     OW 3367   3.738   3.431   1.255
  823SOL    HW1 3368   3.835   3.406   1.266
  823SOL    HW2 3369   3.688   3.405   1.337
  824SOL     OW 3370   6.085   2.399   5.945
  824SOL    HW1 3371   6.064   2.440   6.034
  824SOL    HW2 3372   6.180   2.421   5.920
  825SOL     OW 3373   1.107   3.979   1.948
  825SOL    HW1 3374   1.165   3.989   1.868
  825SOL    HW2 3375   1.158   3.934   2.021
  826SOL     OW 3376   0.970   4.502   5.886
  826SOL    HW1 3377   1.005   4.587   5.925
  826SOL    HW2 3378   1.022   4.425   5.923
  827SOL     OW 3379   3.909   5.470   0.776
  827SOL    HW1 3380   3.953   5.487   0.864
  827SOL    HW2 3381   3.825   5.525   0.769
  828SOL     OW 3382   6.329   0.223   5.325
  828SOL    HW1 3383   6.309   0.320   5.334
  828SOL    HW2 3384   6.422   0.210   5.290
  829SOL     OW 3385   3.356   2.975   4.991
  829SOL    HW1 3386   3.321   2.938   4.904
  829SOL    HW2 3387   3.455   2.968   4.992
  830SOL     OW 3388   4.239   3.833   6.170
  830SOL    HW1 3389   4.216   3.799   6.079
  830SOL    HW2 3390   4.217   3.763   6.238
  831SOL     OW 3391   6.182   6.995   4.681
  831SOL    HW1 3392   6.123   7.013   4.760
  831SOL    HW2 3393   6.147   6.916   4.631
  832SOL     OW 3394   2.451   1.354   5.553
  832SOL    HW1 3395   2.434   1.440   5.601
  832SOL    HW2 3396   2.374   1.291   5.570
  833SOL     OW 3397   0.795   0.075   5.795
  833SOL    HW1 3398   0.830   0.079   5.888
  833SOL    HW2 3399   0.871   0.088   5.730
  834SOL     OW 3400   3.386   4.785   5.551
  834SOL    HW1 3401   3.298   4.822   5.581
  834SOL    HW2 3402   3.417   4.715   5.616
  835SOL     OW 3403   4.750   0.919   3.216
  835SOL    HW1 3404   4.741   0.937   3.314
  835SOL    HW2 3405   4.681   0.852   3.189
  836SOL     OW 3406   2.646   0.558   6.666
  836SOL    HW1 3407   2.557   0.515   6.650
  836SOL    HW2 3408   2.632   0.649   6.705
  837SOL     OW 3409   4.408   1.147   4.806
  837SOL    HW1 3410   4.384   1.169   4.900
  837SOL    HW2 3411   4.344   1.193   4.744
  838SOL     OW 3412   1.105   5.154   2.673
  838SOL    HW1 3413   1.176   5.085   2.682
  838SOL    HW2 3414   1.015   5.110   2.676
  839SOL     OW 3415   3.254   1.093   1.627
  839SOL    HW1 3416   3.243   1.048   1.715
  839SOL    HW2 3417   3.226   1.189   1.634
  840SOL     OW 3418   0.556   1.563   5.759
  840SOL    HW1 3419   0.569   1.630   5.686
  840SOL    HW2 3420   0.629   1.495   5.756
  841SOL     OW 3421   0.713   3.720   0.457
  841SOL    HW1 3422   0.698   3.669   0.373
  841SOL    HW2 3423   0.645   3.693   0.525
  842SOL     OW 3424   3.536   5.134   3.725
  842SOL    HW1 3425   3.484   5.187   3.657
  842SOL    HW2 3426   3.567   5.195   3.798
  843SOL     OW 3427   6.936   4.408   2.169
  843SOL    HW1 3428   6.909   4.505   2.170
  843SOL    HW2 3429   6.970   4.382   2.259
  844SOL     OW 3430   5.280   5.592   7.002
  844SOL    HW1 3431   5.346   5.522   7.027
  844SOL    HW2 3432   5.189   5.551   6.996
  845SOL     OW 3433   1.962   5.414   4.758
  845SOL    HW1 3434   1.924   5.461   4.838
  845SOL    HW2 3435   1.954   5.315   4.770
  846SOL     OW 3436   5.002   3.177   6.841
  846SOL    HW1 3437   5.061   3.130   6.907
  846SOL    HW2 3438   5.058   3.213   6.766
  847SOL     OW 3439   5.198   3.940   2.130
  847SOL    HW1 3440   5.220   4.006   2.058
  847SOL    HW2 3441   5.276   3.932   2.193
  848SOL     OW 3442   6.010   0.235   5.432
  848SOL    HW1 3443   5.981   0.146   5.468
  848SOL    HW2 3444   6.037   0.225   5.337
  849SOL     OW 3445   0.732   5.638   4.103
  849SOL    HW1 3446   0.817   5.599   4.138
  849SOL    HW2 3447   0.718   5.609   4.008
  850SOL     OW 3448   4.033   0.709   3.408
  850SOL    HW1 3449   4.062   0.801   3.381
  850SOL    HW2 3450   3.943   0.714   3.452
  851SOL     OW 3451   0.375   0.554   5.193
  851SOL    HW1 3452   0.307   0.622   5.165
  851SOL    HW2 3453   0.356   0.525   5.287
  852SOL     OW 3454   2.699   4.565   5.780
  852SOL    HW1 3455   2.602   4.580   5.798
  852SOL    HW2 3456   2.750   4.649   5.796
  853SOL     OW 3457   1.497   3.927   0.704
  853SOL    HW1 3458   1.467   3.833   0.719
  853SOL    HW2 3459   1.597   3.929   0.696
  854SOL     OW 3460   6.412   5.004   1.887
  854SOL    HW1 3461   6.476   5.007   1.811
  854SOL    HW2 3462   6.337   4.942   1.865
  855SOL     OW 3463   5.233   0.807   0.764
  855SOL    HW1 3464   5.239   0.746   0.685
  855SOL    HW2 3465   5.228   0.902   0.733
  856SOL     OW 3466   1.100   0.963   4.772
  856SOL    HW1 3467   1.001   0.968   4.785
  856SOL    HW2 3468   1.140   1.053   4.789
  857SOL     OW 3469   6.020   3.792   1.803
  857SOL    HW1 3470   5.928   3.758   1.784
  857SOL    HW2 3471   6.086   3.717   1.796
  858SOL     OW 3472   3.575   3.278   1.688
  858SOL    HW1 3473   3.536   3.187   1.699
  858SOL    HW2 3474   3.555   3.333   1.770
  859SOL     OW 3475   6.616   4.648   0.970
  859SOL    HW1 3476   6.536   4.660   0.910
  859SOL    HW2 3477   6.688   4.600   0.920
  860SOL     OW 3478   1.668   4.414   0.206
  860SOL    HW1 3479   1.768   4.421   0.207
  860SOL    HW2 3480   1.641   4.321   0.234
  861SOL     OW 3481   3.333   4.639   5.850
  861SOL    HW1 3482   3.338   4.739   5.853
  861SOL    HW2 3483   3.411   4.601   5.901
  862SOL     OW 3484   4.725   4.210   3.394
  862SOL    HW1 3485   4.651   4.270   3.362
  862SOL    HW2 3486   4.760   4.243   3.481
  863SOL     OW 3487   5.973   2.156   0.821
  863SOL    HW1 3488   5.881   2.127   0.795
  863SOL    HW2 3489   6.024   2.078   0.856
  864SOL     OW 3490   6.821   4.643   2.777
  864SOL    HW1 3491   6.875   4.624   2.859
  864SOL    HW2 3492   6.784   4.735   2.782
  865SOL     OW 3493   2.084   0.934   3.837
  865SOL    HW1 3494   2.080   1.010   3.902
  865SOL    HW2 3495   2.157   0.950   3.771
  866SOL     OW 3496   4.243   1.417   0.780
  866SOL    HW1 3497   4.322   1.405   0.720
  866SOL    HW2 3498   4.246   1.350   0.854
  867SOL     OW 3499   2.298   1.677   6.443
  867SOL    HW1 3500   2.321   1.591   6.397
  867SOL    HW2 3501   2.375   1.740   6.437
  868SOL     OW 3502   5.650   2.418   3.576
  868SOL    HW1 3503   5.746   2.443   3.565
  868SOL    HW2 3504   5.599   2.496   3.612
  869SOL     OW 3505   6.587   3.976   1.351
  869SOL    HW1 3506   6.498   4.019   1.344
  869SOL    HW2 3507   6.659   4.046   1.346
  870SOL     OW 3508   6.463   2.519   0.332
  870SOL    HW1 3509   6.373   2.516   0.377
  870SOL    HW2 3510   6.468   2.600   0.273
  871SOL     OW 3511   5.942   4.033   0.850
  871SOL    HW1 3512   6.009   4.057   0.781
  871SOL    HW2 3513   5.980   3.963   0.911
  872SOL     OW 3514   6.392   2.005   2.135
  872SOL    HW1 3515   6.417   1.909   2.133
  872SOL    HW2 3516   6.330   2.022   2.212
  873SOL     OW 3517   3.536   6.347   5.005
  873SOL    HW1 3518   3.528   6.247   5.000
  873SOL    HW2 3519   3.591   6.380   4.928
  874SOL     OW 3520   0.146   4.170   6.941
  874SOL    HW1 3521   0.107   4.105   6.875
  874SOL    HW2 3522   0.175   4.120   7.022
  875SOL     OW 3523   5.986   5.281   6.477
  875SOL    HW1 3524   5.949   5.221   6.548
  875SOL    HW2 3525   6.053   5.343   6.518
  876SOL     OW 3526   1.377   2.036   0.841
  876SOL    HW1 3527   1.435   2.025   0.761
  876SOL    HW2 3528   1.291   1.987   0.827
  877SOL     OW 3529   5.318   6.047   0.446
  877SOL    HW1 3530   5.290   6.054   0.350
  877SOL    HW2 3531   5.406   6.092   0.458
  878SOL     OW 3532   3.600   2.345   0.706
  878SOL    HW1 3533   3.607   2.441   0.677
  878SOL    HW2 3534   3.671   2.291   0.662
  879SOL     OW 3535   4.596   2.154   2.672
  879SOL    HW1 3536   4.498   2.169   2.676
  879SOL    HW2 3537   4.631   2.180   2.582
  880SOL     OW 3538   4.708   5.389   2.117
  880SOL    HW1 3539   4.738   5.394   2.022
  880SOL    HW2 3540   4.636   5.457   2.132
  881SOL     OW 3541   4.854   4.854   3.569
  881SOL    HW1 3542   4.812   4.883   3.655
  881SOL    HW2 3543   4.792   4.792   3.521
  882SOL     OW 3544   0.606   1.989   4.382
  882SOL    HW1 3545   0.687   1.930   4.392
  882SOL    HW2 3546   0.630   2.070   4.328
  883SOL     OW 3547   3.383   4.733   0.365
  883SOL    HW1 3548   3.324   4.655   0.384
  883SOL    HW2 3549   3.327   4.814   0.348
  884SOL     OW 3550   3.972   3.980   1.830
  884SOL    HW1 3551   3.884   4.028   1.823
  884SOL    HW2 3552   3.984   3.921   1.751
  885SOL     OW 3553   4.373   6.361   5.833
  885SOL    HW1 3554   4.365   6.452   5.873
  885SOL    HW2 3555   4.454   6.315   5.870
  886SOL     OW 3556   4.096   1.820   6.674
  886SOL    HW1 3557   4.084   1.798   6.771
  886SOL    HW2 3558   4.092   1.919   6.661
  887SOL     OW 3559   5.623   6.621   5.346
  887SOL    HW1 3560   5.669   6.546   5.394
  887SOL    HW2 3561   5.529   6.629   5.379
  888SOL     OW 3562   6.045   6.889   3.130
  888SOL    HW1 3563   5.956   6.870   3.090
  888SOL    HW2 3564   6.098   6.804   3.135
  889SOL     OW 3565   1.073   6.736   4.220
  889SOL    HW1 3566   1.108   6.814   4.272
  889SOL    HW2 3567   1.112   6.652   4.256
  890SOL     OW 3568   1.800   4.349   2.072
  890SOL    HW1 3569   1.732   4.338   2.144
  890SOL    HW2 3570   1.891   4.338   2.110
  891SOL     OW 3571   5.416   3.838   6.212
  891SOL    HW1 3572   5.412   3.782   6.130
  891SOL    HW2 3573   5.339   3.816   6.272
  892SOL     OW 3574   1.847   5.150   1.708
  892SOL    HW1 3575   1.807   5.178   1.795
  892SOL    HW2 3576   1.861   5.051   1.709
  893SOL     OW 3577   1.921   6.512   2.080
  893SOL    HW1 3578   1.891   6.523   1.985
  893SOL    HW2 3579   2.018   6.487   2.081
  894SOL     OW 3580   1.455   5.647   4.228
  894SOL    HW1 3581   1.495   5.628   4.318
  894SOL    HW2 3582   1.488   5.579   4.162
  895SOL     OW 3583   2.441   0.922   4.332
  895SOL    HW1 3584   2.346   0.951   4.323
  895SOL    HW2 3585   2.488   0.978   4.400
  896SOL     OW 3586   5.289   6.972   3.529
  896SOL    HW1 3587   5.302   0.033   3.484
  896SOL    HW2 3588   5.221   6.919   3.479
  897SOL     OW 3589   5.171   1.504   6.267
  897SOL    HW1 3590   5.101   1.541   6.206
  897SOL    HW2 3591   5.157   1.406   6.278
  898SOL     OW 3592   5.558   6.624   4.078
  898SOL    HW1 3593   5.591   6.561   4.007
  898SOL    HW2 3594   5.612   6.611   4.161
  899SOL     OW 3595   1.176   4.228   0.143
  899SOL    HW1 3596   1.088   4.241   0.097
  899SOL    HW2 3597   1.202   4.132   0.141
  900SOL     OW 3598   0.485   5.605   3.520
  900SOL    HW1 3599   0.498   5.692   3.473
  900SOL    HW2 3600   0.575   5.566   3.541
  901SOL     OW 3601   5.451   1.791   3.601
  901SOL    HW1 3602   5.466   1.777   3.699
  901SOL    HW2 3603   5.360   1.830   3.586
  902SOL     OW 3604   1.111   6.410   0.212
  902SOL    HW1 3605   1.091   6.371   0.302
  902SOL    HW2 3606   1.088   6.344   0.141
  903SOL     OW 3607   0.713   4.882   6.827
  903SOL    HW1 3608   0.677   4.904   6.737
  903SOL    HW2 3609   0.661   4.806   6.866
  904SOL     OW 3610   1.537   0.832   3.968
  904SOL    HW1 3611   1.557   0.837   4.066
  904SOL    HW2 3612   1.532   0.924   3.930
  905SOL     OW 3613   6.257   2.094   4.500
  905SOL    HW1 3614   6.218   2.015   4.547
  905SOL    HW2 3615   6.293   2.159   4.567
  906SOL     OW 3616   6.448   4.196   5.585
  906SOL    HW1 3617   6.480   4.123   5.645
  906SOL    HW2 3618   6.466   4.284   5.627
  907SOL     OW 3619   0.365   3.423   2.271
  907SOL    HW1 3620   0.282   3.424   2.216
  907SOL    HW2 3621   0.438   3.377   2.220
  908SOL     OW 3622   2.991   1.008   3.552
  908SOL    HW1 3623   3.009   0.985   3.456
  908SOL    HW2 3624   2.922   0.947   3.588
  909SOL     OW 3625   4.049   6.823   1.428
  909SOL    HW1 3626   4.024   6.900   1.487
  909SOL    HW2 3627   4.011   6.739   1.465
  910SOL     OW 3628   1.601   1.532   1.957
  910SOL    HW1 3629   1.697   1.504   1.961
  910SOL    HW2 3630   1.586   1.608   2.019
  911SOL     OW 3631   0.648   3.487   0.809
  911SOL    HW1 3632   0.684   3.416   0.749
  911SOL    HW2 3633   0.714   3.505   0.882
  912SOL     OW 3634   0.806   0.837   6.336
  912SOL    HW1 3635   0.717   0.799   6.359
  912SOL    HW2 3636   0.804   0.936   6.352
  913SOL     OW 3637   1.918   1.248   2.417
  913SOL    HW1 3638   1.878   1.276   2.330
  913SOL    HW2 3639   2.015   1.271   2.419
  914SOL     OW 3640   2.989   5.723   2.012
  914SOL    HW1 3641   3.042   5.779   2.076
  914SOL    HW2 3642   2.905   5.772   1.987
  915SOL     OW 3643   1.807   2.611   0.279
  915SOL    HW1 3644   1.816   2.689   0.341
  915SOL    HW2 3645   1.855   2.532   0.317
  916SOL     OW 3646   1.429   2.895   2.391
  916SOL    HW1 3647   1.455   2.799   2.404
  916SOL    HW2 3648   1.338   2.899   2.350
  917SOL     OW 3649   3.997   1.286   6.320
  917SOL    HW1 3650   4.037   1.234   6.396
  917SOL    HW2 3651   3.976   1.379   6.351
  918SOL     OW 3652   0.446   2.086   4.875
  918SOL    HW1 3653   0.483   2.002   4.837
  918SOL    HW2 3654   0.431   2.153   4.802
  919SOL     OW 3655   1.685   0.345   1.094
  919SOL    HW1 3656   1.673   0.444   1.102
  919SOL    HW2 3657   1.648   0.301   1.176
  920SOL     OW 3658   1.509   0.937   3.096
  920SOL    HW1 3659   1.473   0.864   3.154
  920SOL    HW2 3660   1.508   1.023   3.147
  921SOL     OW 3661   4.173   4.043   0.543
  921SOL    HW1 3662   4.214   3.984   0.613
  921SOL    HW2 3663   4.246   4.084   0.488
  922SOL     OW 3664   2.195   5.319   6.977
  922SOL    HW1 3665   2.260   5.243   6.975
  922SOL    HW2 3666   2.116   5.294   0.006
  923SOL     OW 3667   3.978   1.417   6.776
  923SOL    HW1 3668   3.885   1.452   6.763
  923SOL    HW2 3669   3.977   1.345   6.845
  924SOL     OW 3670   6.662   5.179   2.600
  924SOL    HW1 3671   6.664   5.133   2.511
  924SOL    HW2 3672   6.605   5.128   2.663
  925SOL     OW 3673   6.904   1.631   2.921
  925SOL    HW1 3674   6.875   1.595   2.832
  925SOL    HW2 3675   6.847   1.593   2.993
  926SOL     OW 3676   4.044   6.166   1.391
  926SOL    HW1 3677   4.128   6.186   1.442
  926SOL    HW2 3678   4.026   6.068   1.395
  927SOL     OW 3679   4.357   5.637   5.157
  927SOL    HW1 3680   4.361   5.735   5.180
  927SOL    HW2 3681   4.273   5.619   5.105
  928SOL     OW 3682   0.197   1.507   1.430
  928SOL    HW1 3683   0.203   1.546   1.522
  928SOL    HW2 3684   0.166   1.412   1.435
  929SOL     OW 3685   6.897   2.135   2.239
  929SOL    HW1 3686   6.809   2.180   2.254
  929SOL    HW2 3687   6.953   2.141   2.322
  930SOL     OW 3688   5.931   5.689   2.304
  930SOL    HW1 3689   5.999   5.722   2.240
  930SOL    HW2 3690   5.901   5.764   2.363
  931SOL     OW 3691   1.418   2.759   1.939
  931SOL    HW1 3692   1.348   2.711   1.992
  931SOL    HW2 3693   1.444   2.843   1.987
  932SOL     OW 3694   4.281   6.012   1.560
  932SOL    HW1 3695   4.375   5.997   1.529
  932SOL    HW2 3696   4.243   5.926   1.594
  933SOL     OW 3697   1.273   6.853   3.452
  933SOL    HW1 3698   1.242   6.942   3.419
  933SOL    HW2 3699   1.366   6.862   3.489
  934SOL     OW 3700   3.279   0.764   5.642
  934SOL    HW1 3701   3.262   0.767   5.740
  934SOL    HW2 3702   3.333   0.844   5.616
  935SOL     OW 3703   1.342   3.418   5.007
  935SOL    HW1 3704   1.338   3.391   5.104
  935SOL    HW2 3705   1.410   3.362   4.960
  936SOL     OW 3706   0.889   1.978   1.495
  936SOL    HW1 3707   0.911   1.961   1.591
  936SOL    HW2 3708   0.797   1.946   1.476
  937SOL     OW 3709   5.254   2.301   3.753
  937SOL    HW1 3710   5.319   2.266   3.685
  937SOL    HW2 3711   5.220   2.390   3.723
  938SOL     OW 3712   0.275   1.258   6.433
  938SOL    HW1 3713   0.255   1.162   6.450
  938SOL    HW2 3714   0.319   1.297   6.515
  939SOL     OW 3715   6.335   1.270   5.409
  939SOL    HW1 3716   6.366   1.210   5.483
  939SOL    HW2 3717   6.244   1.304   5.430
  940SOL     OW 3718   0.116   0.426   4.290
  940SOL    HW1 3719   0.113   0.524   4.310
  940SOL    HW2 3720   0.123   0.375   4.376
  941SOL     OW 3721   5.894   2.531   5.439
  941SOL    HW1 3722   5.985   2.504   5.407
  941SOL    HW2 3723   5.858   2.604   5.380
  942SOL     OW 3724   4.562   0.539   4.817
  942SOL    HW1 3725   4.595   0.521   4.724
  942SOL    HW2 3726   4.473   0.497   4.830
  943SOL     OW 3727   5.508   1.985   0.393
  943SOL    HW1 3728   5.416   2.026   0.394
  943SOL    HW2 3729   5.500   1.886   0.379
  944SOL     OW 3730   4.815   4.123   4.585
  944SOL    HW1 3731   4.895   4.120   4.646
  944SOL    HW2 3732   4.737   4.160   4.635
  945SOL     OW 3733   5.629   3.506   6.267
  945SOL    HW1 3734   5.573   3.439   6.314
  945SOL    HW2 3735   5.571   3.566   6.211
  946SOL     OW 3736   5.641   3.878   6.682
  946SOL    HW1 3737   5.655   3.809   6.611
  946SOL    HW2 3738   5.725   3.931   6.695
  947SOL     OW 3739   0.614   2.790   5.720
  947SOL    HW1 3740   0.575   2.709   5.676
  947SOL    HW2 3741   0.592   2.871   5.667
  948SOL     OW 3742   3.846   1.493   0.428
  948SOL    HW1 3743   3.929   1.522   0.477
  948SOL    HW2 3744   3.838   1.394   0.434
  949SOL     OW 3745   5.302   5.899   6.649
  949SOL    HW1 3746   5.333   5.868   6.739
  949SOL    HW2 3747   5.207   5.928   6.655
  950SOL     OW 3748   3.572   5.325   1.452
  950SOL    HW1 3749   3.652   5.343   1.395
  950SOL    HW2 3750   3.527   5.411   1.474
  951SOL     OW 3751   1.204   2.798   3.886
  951SOL    HW1 3752   1.135   2.865   3.858
  951SOL    HW2 3753   1.221   2.807   3.984
  952SOL     OW 3754   4.888   1.861   1.316
  952SOL    HW1 3755   4.967   1.875   1.376
  952SOL    HW2 3756   4.914   1.882   1.221
  953SOL     OW 3757   3.844   6.700   6.031
  953SOL    HW1 3758   3.761   6.714   6.085
  953SOL    HW2 3759   3.911   6.771   6.053
  954SOL     OW 3760   6.591   0.970   1.748
  954SOL    HW1 3761   6.671   0.910   1.757
  954SOL    HW2 3762   6.555   0.992   1.838
  955SOL     OW 3763   0.674   6.458   2.549
  955SOL    HW1 3764   0.693   6.500   2.460
  955SOL    HW2 3765   0.684   6.358   2.541
  956SOL     OW 3766   1.447   2.771   0.777
  956SOL    HW1 3767   1.500   2.719   0.844
  956SOL    HW2 3768   1.470   2.739   0.685
  957SOL     OW 3769   1.871   6.690   4.927
  957SOL    HW1 3770   1.943   6.628   4.894
  957SOL    HW2 3771   1.842   6.662   5.018
  958SOL     OW 3772   4.977   2.874   0.215
  958SOL    HW1 3773   4.966   2.973   0.215
  958SOL    HW2 3774   5.057   2.849   0.271
  959SOL     OW 3775   1.691   3.397   1.370
  959SOL    HW1 3776   1.731   3.310   1.398
  959SOL    HW2 3777   1.715   3.415   1.274
  960SOL     OW 3778   1.436   5.157   5.764
  960SOL    HW1 3779   1.535   5.144   5.766
  960SOL    HW2 3780   1.403   5.168   5.857
  961SOL     OW 3781   3.573   6.914   6.871
  961SOL    HW1 3782   3.655   6.955   6.911
  961SOL    HW2 3783   3.575   6.926   6.772
  962SOL     OW 3784   1.257   6.356   3.749
  962SOL    HW1 3785   1.179   6.408   3.784
  962SOL    HW2 3786   1.226   6.291   3.680
  963SOL     OW 3787   5.867   0.053   1.783
  963SOL    HW1 3788   5.891   0.065   1.880
  963SOL    HW2 3789   5.774   0.087   1.768
  964SOL     OW 3790   5.274   3.319   1.598
  964SOL    HW1 3791   5.301   3.256   1.671
  964SOL    HW2 3792   5.347   3.326   1.531
  965SOL     OW 3793   1.827   1.691   0.074
  965SOL    HW1 3794   1.823   1.642   7.014
  965SOL    HW2 3795   1.915   1.675   0.118
  966SOL     OW 3796   0.063   2.471   2.101
  966SOL    HW1 3797   0.094   2.565   2.083
  966SOL    HW2 3798   0.103   2.409   2.034
  967SOL     OW 3799   0.934   6.053   2.375
  967SOL    HW1 3800   0.972   5.960   2.372
  967SOL    HW2 3801   0.931   6.085   2.470
  968SOL     OW 3802   6.913   4.265   0.798
  968SOL    HW1 3803   7.000   4.314   0.790
  968SOL    HW2 3804   6.838   4.331   0.801
  969SOL     OW 3805   4.278   0.028   6.562
  969SOL    HW1 3806   4.357   0.089   6.568
  969SOL    HW2 3807   4.309   6.965   6.531
  970SOL     OW 3808   4.671   2.960   5.757
  970SOL    HW1 3809   4.586   2.922   5.720
  970SOL    HW2 3810   4.673   2.946   5.856
  971SOL     OW 3811   0.448   2.983   0.241
  971SOL    HW1 3812   0.442   3.069   0.191
  971SOL    HW2 3813   0.357   2.958   0.276
  972SOL     OW 3814   5.050   6.781   0.902
  972SOL    HW1 3815   5.138   6.739   0.926
  972SOL    HW2 3816   4.979   6.711   0.906
  973SOL     OW 3817   5.711   3.123   5.568
  973SOL    HW1 3818   5.636   3.113   5.502
  973SOL    HW2 3819   5.676   3.165   5.652
  974SOL     OW 3820   2.428   0.393   4.776
  974SOL    HW1 3821   2.379   0.307   4.788
  974SOL    HW2 3822   2.527   0.375   4.780
  975SOL     OW 3823   3.260   0.077   5.416
  975SOL    HW1 3824   3.290   0.168   5.386
  975SOL    HW2 3825   3.183   0.048   5.358
  976SOL     OW 3826   0.207   5.098   3.395
  976SOL    HW1 3827   0.276   5.160   3.432
  976SOL    HW2 3828   0.173   5.039   3.468
  977SOL     OW 3829   0.778   2.553   1.891
  977SOL    HW1 3830   0.719   2.615   1.943
  977SOL    HW2 3831   0.799   2.472   1.946
  978SOL     OW 3832   5.566   3.547   4.858
  978SOL    HW1 3833   5.589   3.533   4.954
  978SOL    HW2 3834   5.628   3.615   4.819
  979SOL     OW 3835   5.470   1.558   3.294
  979SOL    HW1 3836   5.427   1.634   3.247
  979SOL    HW2 3837   5.567   1.553   3.269
  980SOL     OW 3838   0.277   0.377   4.641
  980SOL    HW1 3839   0.315   0.331   4.561
  980SOL    HW2 3840   0.197   0.431   4.613
  981SOL     OW 3841   6.235   3.055   5.980
  981SOL    HW1 3842   6.288   3.113   5.918
  981SOL    HW2 3843   6.161   3.108   6.020
  982SOL     OW 3844   1.613   3.788   1.222
  982SOL    HW1 3845   1.685   3.848   1.186
  982SOL    HW2 3846   1.634   3.765   1.318
  983SOL     OW 3847   5.235   2.022   3.371
  983SOL    HW1 3848   5.219   1.942   3.314
  983SOL    HW2 3849   5.192   2.008   3.460
  984SOL     OW 3850   4.965   2.474   5.388
  984SOL    HW1 3851   4.958   2.404   5.460
  984SOL    HW2 3852   4.881   2.475   5.334
  985SOL     OW 3853   2.315   4.813   0.887
  985SOL    HW1 3854   2.403   4.832   0.930
  985SOL    HW2 3855   2.297   4.880   0.815
  986SOL     OW 3856   4.344   4.496   6.819
  986SOL    HW1 3857   4.272   4.428   6.835
  986SOL    HW2 3858   4.303   4.582   6.790
  987SOL     OW 3859   3.604   6.806   2.723
  987SOL    HW1 3860   3.684   6.757   2.687
  987SOL    HW2 3861   3.523   6.780   2.671
  988SOL     OW 3862   3.385   2.952   1.863
  988SOL    HW1 3863   3.383   3.006   1.779
  988SOL    HW2 3864   3.337   2.865   1.849
  989SOL     OW 3865   0.544   0.276   4.435
  989SOL    HW1 3866   0.483   0.268   4.356
  989SOL    HW2 3867   0.613   0.346   4.418
  990SOL     OW 3868   4.713   6.224   2.367
  990SOL    HW1 3869   4.650   6.295   2.399
  990SOL    HW2 3870   4.742   6.168   2.445
  991SOL     OW 3871   5.742   1.856   5.097
  991SOL    HW1 3872   5.680   1.929   5.070
  991SOL    HW2 3873   5.713   1.818   5.185
  992SOL     OW 3874   6.759   3.400   1.397
  992SOL    HW1 3875   6.857   3.387   1.416
  992SOL    HW2 3876   6.705   3.356   1.468
  993SOL     OW 3877   3.903   5.839   5.049
  993SOL    HW1 3878   3.990   5.802   5.081
  993SOL    HW2 3879   3.903   5.841   4.949
  994SOL     OW 3880   3.192   3.050   2.381
  994SOL    HW1 3881   3.176   3.146   2.359
  994SOL    HW2 3882   3.192   2.995   2.297
  995SOL     OW 3883   0.371   1.441   4.961
  995SOL    HW1 3884   0.298   1.449   5.028
  995SOL    HW2 3885   0.352   1.365   4.899
  996SOL     OW 3886   0.949   3.612   0.907
  996SOL    HW1 3887   1.031   3.622   0.851
  996SOL    HW2 3888   0.974   3.582   0.999
  997SOL     OW 3889   0.439   1.432   0.775
  997SOL    HW1 3890   0.521   1.375   0.783
  997SOL    HW2 3891   0.369   1.400   0.838
  998SOL     OW 3892   5.070   6.768   3.446
  998SOL    HW1 3893   5.058   6.668   3.443
  998SOL    HW2 3894   4.980   6.811   3.459
  999SOL     OW 3895   6.351   5.341   1.561
  999SOL    HW1 3896   6.384   5.359   1.468
  999SOL    HW2 3897   6.386   5.412   1.622
 1000SOL     OW 3898   4.501   2.487   4.231
 1000SOL    HW1 3899   4.579   2.429   4.208
 1000SOL    HW2 3900   4.497   2.500   4.330
 1001SOL     OW 3901   4.384   1.407   6.163
 1001SOL    HW1 3902   4.467   1.408   6.107
 1001SOL    HW2 3903   4.382   1.488   6.221
 1002SOL     OW 3904   0.081   1.283   0.028
 1002SOL    HW1 3905   0.157   1.268   6.992
 1002SOL    HW2 3906   0.116   1.293   0.121
 1003SOL     OW 3907   4.730   4.913   3.070
 1003SOL    HW1 3908   4.683   4.837   3.025
 1003SOL    HW2 3909   4.828   4.895   3.073
 1004SOL     OW 3910   5.941   5.479   0.774
 1004SOL    HW1 3911   5.882   5.475   0.855
 1004SOL    HW2 3912   5.943   5.390   0.730
 1005SOL     OW 3913   6.801   5.416   3.765
 1005SOL    HW1 3914   6.762   5.340   3.816
 1005SOL    HW2 3915   6.779   5.502   3.812
 1006SOL     OW 3916   2.284   4.123   0.136
 1006SOL    HW1 3917   2.332   4.170   0.062
 1006SOL    HW2 3918   2.340   4.127   0.219
 1007SOL     OW 3919   0.970   0.852   3.382
 1007SOL    HW1 3920   0.973   0.888   3.289
 1007SOL    HW2 3921   1.057   0.869   3.427
 1008SOL     OW 3922   2.568   2.021   4.446
 1008SOL    HW1 3923   2.497   2.059   4.506
 1008SOL    HW2 3924   2.612   2.095   4.396
 1009SOL     OW 3925   2.632   6.054   5.408
 1009SOL    HW1 3926   2.539   6.089   5.415
 1009SOL    HW2 3927   2.693   6.110   5.465
 1010SOL     OW 3928   5.033   0.622   6.093
 1010SOL    HW1 3929   5.099   0.678   6.043
 1010SOL    HW2 3930   5.019   0.535   6.045
 1011SOL     OW 3931   3.491   5.946   4.022
 1011SOL    HW1 3932   3.568   5.993   4.068
 1011SOL    HW2 3933   3.521   5.912   3.934
 1012SOL     OW 3934   3.526   5.730   0.592
 1012SOL    HW1 3935   3.609   5.736   0.536
 1012SOL    HW2 3936   3.488   5.637   0.586
 1013SOL     OW 3937   0.599   0.886   0.177
 1013SOL    HW1 3938   0.518   0.891   0.119
 1013SOL    HW2 3939   0.612   0.974   0.223
 1014SOL     OW 3940   5.542   0.004   6.282
 1014SOL    HW1 3941   5.539   0.099   6.312
 1014SOL    HW2 3942   5.536   6.971   6.362
 1015SOL     OW 3943   3.313   0.025   4.783
 1015SOL    HW1 3944   3.239   6.985   4.792
 1015SOL    HW2 3945   3.376   7.021   4.711
 1016SOL     OW 3946   4.606   2.642   2.236
 1016SOL    HW1 3947   4.548   2.715   2.202
 1016SOL    HW2 3948   4.551   2.576   2.287
 1017SOL     OW 3949   5.088   0.896   6.500
 1017SOL    HW1 3950   5.084   0.994   6.521
 1017SOL    HW2 3951   4.996   0.859   6.498
 1018SOL     OW 3952   1.384   2.495   1.625
 1018SOL    HW1 3953   1.451   2.491   1.700
 1018SOL    HW2 3954   1.424   2.456   1.542
 1019SOL     OW 3955   6.257   1.282   0.547
 1019SOL    HW1 3956   6.253   1.354   0.478
 1019SOL    HW2 3957   6.274   1.321   0.637
 1020SOL     OW 3958   3.330   2.180   1.318
 1020SOL    HW1 3959   3.368   2.263   1.359
 1020SOL    HW2 3960   3.390   2.102   1.338
 1021SOL     OW 3961   6.570   1.491   0.812
 1021SOL    HW1 3962   6.633   1.543   0.754
 1021SOL    HW2 3963   6.485   1.542   0.822
 1022SOL     OW 3964   3.687   2.780   0.252
 1022SOL    HW1 3965   3.734   2.777   0.340
 1022SOL    HW2 3966   3.750   2.751   0.180
 1023SOL     OW 3967   6.395   0.477   4.530
 1023SOL    HW1 3968   6.460   0.431   4.591
 1023SOL    HW2 3969   6.443   0.507   4.448
 1024SOL     OW 3970   6.403   1.844   4.140
 1024SOL    HW1 3971   6.356   1.897   4.070
 1024SOL    HW2 3972   6.456   1.771   4.096
 1025SOL     OW 3973   3.446   4.316   1.242
 1025SOL    HW1 3974   3.377   4.249   1.215
 1025SOL    HW2 3975   3.399   4.397   1.279
 1026SOL     OW 3976   0.983   2.975   6.423
 1026SOL    HW1 3977   1.029   2.979   6.334
 1026SOL    HW2 3978   0.975   2.880   6.452
 1027SOL     OW 3979   2.050   4.740   1.271
 1027SOL    HW1 3980   2.052   4.775   1.178
 1027SOL    HW2 3981   2.038   4.641   1.270
 1028SOL     OW 3982   0.430   5.393   0.828
 1028SOL    HW1 3983   0.450   5.300   0.859
 1028SOL    HW2 3984   0.515   5.446   0.827
 1029SOL     OW 3985   3.621   0.867   5.606
 1029SOL    HW1 3986   3.580   0.908   5.524
 1029SOL    HW2 3987   3.638   0.770   5.590
 1030SOL     OW 3988   4.060   4.524   5.379
 1030SOL    HW1 3989   3.966   4.489   5.386
 1030SOL    HW2 3990   4.101   4.492   5.294
 1031SOL     OW 3991   2.058   5.341   0.899
 1031SOL    HW1 3992   2.136   5.289   0.862
 1031SOL    HW2 3993   1.997   5.366   0.824
 1032SOL     OW 3994   1.207   1.445   4.898
 1032SOL    HW1 3995   1.293   1.440   4.847
 1032SOL    HW2 3996   1.131   1.421   4.838
 1033SOL     OW 3997   2.355   6.291   3.131
 1033SOL    HW1 3998   2.353   6.368   3.066
 1033SOL    HW2 3999   2.412   6.315   3.209
 1034SOL     OW 4000   1.104   0.066   1.717
 1034SOL    HW1 4001   1.154   0.063   1.631
 1034SOL    HW2 4002   1.141   7.024   1.779
 1035SOL     OW 4003   3.236   0.848   2.927
 1035SOL    HW1 4004   3.155   0.855   2.869
 1035SOL    HW2 4005   3.235   0.922   2.995
 1036SOL     OW 4006   4.790   6.942   6.771
 1036SOL    HW1 4007   4.847   6.992   6.837
 1036SOL    HW2 4008   4.848   6.880   6.718
 1037SOL     OW 4009   3.340   1.631   6.082
 1037SOL    HW1 4010   3.434   1.600   6.071
 1037SOL    HW2 4011   3.293   1.571   6.147
 1038SOL     OW 4012   2.581   1.442   5.076
 1038SOL    HW1 4013   2.527   1.525   5.064
 1038SOL    HW2 4014   2.562   1.403   5.166
 1039SOL     OW 4015   4.275   2.333   3.548
 1039SOL    HW1 4016   4.360   2.302   3.505
 1039SOL    HW2 4017   4.296   2.366   3.640
 1040SOL     OW 4018   5.748   3.223   4.205
 1040SOL    HW1 4019   5.701   3.311   4.216
 1040SOL    HW2 4020   5.829   3.221   4.263
 1041SOL     OW 4021   1.927   6.580   4.294
 1041SOL    HW1 4022   1.864   6.607   4.222
 1041SOL    HW2 4023   1.989   6.656   4.316
 1042SOL     OW 4024   4.742   3.804   0.981
 1042SOL    HW1 4025   4.672   3.773   1.045
 1042SOL    HW2 4026   4.826   3.826   1.030
 1043SOL     OW 4027   3.765   0.421   6.724
 1043SOL    HW1 4028   3.686   0.425   6.785
 1043SOL    HW2 4029   3.805   0.330   6.728
 1044SOL     OW 4030   3.925   3.922   2.428
 1044SOL    HW1 4031   3.923   3.951   2.332
 1044SOL    HW2 4032   3.845   3.957   2.475
 1045SOL     OW 4033   3.849   1.152   2.921
 1045SOL    HW1 4034   3.922   1.087   2.945
 1045SOL    HW2 4035   3.857   1.234   2.978
 1046SOL     OW 4036   3.404   0.758   2.293
 1046SOL    HW1 4037   3.437   0.826   2.227
 1046SOL    HW2 4038   3.481   0.725   2.348
 1047SOL     OW 4039   0.646   5.348   2.008
 1047SOL    HW1 4040   0.600   5.295   2.079
 1047SOL    HW2 4041   0.740   5.367   2.037
 1048SOL     OW 4042   6.081   4.777   5.199
 1048SOL    HW1 4043   5.998   4.773   5.255
 1048SOL    HW2 4044   6.155   4.728   5.245
 1049SOL     OW 4045   0.713   3.532   5.155
 1049SOL    HW1 4046   0.694   3.443   5.195
 1049SOL    HW2 4047   0.704   3.602   5.226
 1050SOL     OW 4048   2.490   0.527   0.588
 1050SOL    HW1 4049   2.441   0.614   0.573
 1050SOL    HW2 4050   2.520   0.490   0.501
 1051SOL     OW 4051   4.941   4.566   2.365
 1051SOL    HW1 4052   5.040   4.553   2.363
 1051SOL    HW2 4053   4.897   4.501   2.302
 1052SOL     OW 4054   3.979   0.279   4.759
 1052SOL    HW1 4055   4.046   0.244   4.826
 1052SOL    HW2 4056   3.947   0.203   4.702
 1053SOL     OW 4057   3.832   4.872   3.625
 1053SOL    HW1 4058   3.900   4.942   3.649
 1053SOL    HW2 4059   3.879   4.790   3.593
 1054SOL     OW 4060   4.266   5.800   4.850
 1054SOL    HW1 4061   4.266   5.810   4.751
 1054SOL    HW2 4062   4.234   5.885   4.892
 1055SOL     OW 4063   3.792   4.912   4.053
 1055SOL    HW1 4064   3.795   5.012   4.049
 1055SOL    HW2 4065   3.712   4.879   4.003
 1056SOL     OW 4066   2.544   5.541   6.191
 1056SOL    HW1 4067   2.478   5.615   6.184
 1056SOL    HW2 4068   2.578   5.535   6.285
 1057SOL     OW 4069   3.883   3.876   1.137
 1057SOL    HW1 4070   3.922   3.793   1.177
 1057SOL    HW2 4071   3.894   3.874   1.038
 1058SOL     OW 4072   2.968   6.676   2.383
 1058SOL    HW1 4073   2.983   6.584   2.345
 1058SOL    HW2 4074   2.870   6.694   2.387
 1059SOL     OW 4075   3.290   0.535   0.294
 1059SOL    HW1 4076   3.354   0.584   0.235
 1059SOL    HW2 4077   3.232   0.600   0.342
 1060SOL     OW 4078   2.595   1.087   4.507
 1060SOL    HW1 4079   2.665   1.143   4.463
 1060SOL    HW2 4080   2.537   1.145   4.565
 1061SOL     OW 4081   2.974   6.067   1.283
 1061SOL    HW1 4082   3.013   6.153   1.316
 1061SOL    HW2 4083   2.881   6.057   1.316
 1062SOL     OW 4084   4.819   4.744   4.901
 1062SOL    HW1 4085   4.897   4.684   4.887
 1062SOL    HW2 4086   4.819   4.816   4.832
 1063SOL     OW 4087   2.555   2.556   6.198
 1063SOL    HW1 4088   2.506   2.521   6.118
 1063SOL    HW2 4089   2.653   2.558   6.179
 1064SOL     OW 4090   0.360   3.360   1.889
 1064SOL    HW1 4091   0.382   3.434   1.826
 1064SOL    HW2 4092   0.275   3.381   1.937
 1065SOL     OW 4093   4.356   5.002   5.864
 1065SOL    HW1 4094   4.432   4.978   5.803
 1065SOL    HW2 4095   4.326   4.921   5.914
 1066SOL     OW 4096   4.214   6.675   3.392
 1066SOL    HW1 4097   4.250   6.744   3.454
 1066SOL    HW2 4098   4.203   6.588   3.440
 1067SOL     OW 4099   2.566   2.969   0.870
 1067SOL    HW1 4100   2.621   2.887   0.882
 1067SOL    HW2 4101   2.589   3.013   0.783
 1068SOL     OW 4102   0.408   4.372   0.717
 1068SOL    HW1 4103   0.451   4.320   0.643
 1068SOL    HW2 4104   0.388   4.465   0.686
 1069SOL     OW 4105   3.953   3.312   2.413
 1069SOL    HW1 4106   3.873   3.367   2.438
 1069SOL    HW2 4107   4.032   3.372   2.402
 1070SOL     OW 4108   2.522   6.865   0.773
 1070SOL    HW1 4109   2.552   6.901   0.861
 1070SOL    HW2 4110   2.576   6.784   0.750
 1071SOL     OW 4111   4.811   5.404   3.902
 1071SOL    HW1 4112   4.816   5.365   3.810
 1071SOL    HW2 4113   4.797   5.503   3.896
 1072SOL     OW 4114   3.626   5.482   2.952
 1072SOL    HW1 4115   3.570   5.521   3.024
 1072SOL    HW2 4116   3.700   5.428   2.992
 1073SOL     OW 4117   2.737   5.730   3.105
 1073SOL    HW1 4118   2.677   5.662   3.148
 1073SOL    HW2 4119   2.814   5.751   3.165
 1074SOL     OW 4120   1.307   5.591   2.342
 1074SOL    HW1 4121   1.365   5.523   2.387
 1074SOL    HW2 4122   1.361   5.643   2.276
 1075SOL     OW 4123   1.168   4.252   3.194
 1075SOL    HW1 4124   1.234   4.181   3.221
 1075SOL    HW2 4125   1.156   4.317   3.270
 1076SOL     OW 4126   6.961   4.012   2.812
 1076SOL    HW1 4127   6.904   4.090   2.787
 1076SOL    HW2 4128   7.023   3.990   2.737
 1077SOL     OW 4129   5.044   0.556   1.684
 1077SOL    HW1 4130   5.045   0.653   1.710
 1077SOL    HW2 4131   5.019   0.547   1.588
 1078SOL     OW 4132   0.319   3.263   1.569
 1078SOL    HW1 4133   0.386   3.326   1.608
 1078SOL    HW2 4134   0.269   3.218   1.642
 1079SOL     OW 4135   2.149   5.191   3.275
 1079SOL    HW1 4136   2.189   5.187   3.184
 1079SOL    HW2 4137   2.064   5.243   3.272
 1080SOL     OW 4138   1.762   5.571   3.941
 1080SOL    HW1 4139   1.679   5.592   3.890
 1080SOL    HW2 4140   1.765   5.626   4.024
 1081SOL     OW 4141   1.532   0.596   0.261
 1081SOL    HW1 4142   1.514   0.558   0.170
 1081SOL    HW2 4143   1.522   0.525   0.330
 1082SOL     OW 4144   2.181   6.937   0.912
 1082SOL    HW1 4145   2.111   6.867   0.924
 1082SOL    HW2 4146   2.246   6.909   0.842
 1083SOL     OW 4147   3.478   2.384   1.690
 1083SOL    HW1 4148   3.558   2.379   1.750
 1083SOL    HW2 4149   3.420   2.305   1.705
 1084SOL     OW 4150   6.675   3.620   0.761
 1084SOL    HW1 4151   6.596   3.618   0.822
 1084SOL    HW2 4152   6.719   3.709   0.765
 1085SOL     OW 4153   1.634   5.156   3.467
 1085SOL    HW1 4154   1.660   5.138   3.372
 1085SOL    HW2 4155   1.697   5.222   3.508
 1086SOL     OW 4156   3.487   5.181   2.437
 1086SOL    HW1 4157   3.445   5.242   2.504
 1086SOL    HW2 4158   3.506   5.093   2.480
 1087SOL     OW 4159   4.138   3.485   4.667
 1087SOL    HW1 4160   4.232   3.489   4.700
 1087SOL    HW2 4161   4.109   3.389   4.662
 1088SOL     OW 4162   6.576   4.386   2.517
 1088SOL    HW1 4163   6.558   4.471   2.469
 1088SOL    HW2 4164   6.534   4.310   2.467
 1089SOL     OW 4165   6.196   6.646   3.113
 1089SOL    HW1 4166   6.186   6.582   3.189
 1089SOL    HW2 4167   6.283   6.630   3.067
 1090SOL     OW 4168   2.147   1.770   6.146
 1090SOL    HW1 4169   2.108   1.838   6.208
 1090SOL    HW2 4170   2.232   1.734   6.185
 1091SOL     OW 4171   1.112   2.597   5.716
 1091SOL    HW1 4172   1.018   2.626   5.697
 1091SOL    HW2 4173   1.175   2.670   5.691
 1092SOL     OW 4174   2.022   4.483   1.167
 1092SOL    HW1 4175   2.120   4.472   1.150
 1092SOL    HW2 4176   1.970   4.422   1.106
 1093SOL     OW 4177   6.954   2.620   1.848
 1093SOL    HW1 4178   6.910   2.537   1.814
 1093SOL    HW2 4179   6.905   2.700   1.814
 1094SOL     OW 4180   0.442   6.729   1.940
 1094SOL    HW1 4181   0.451   6.797   1.866
 1094SOL    HW2 4182   0.347   6.724   1.970
 1095SOL     OW 4183   6.910   3.681   5.718
 1095SOL    HW1 4184   6.856   3.649   5.640
 1095SOL    HW2 4185   6.989   3.733   5.684
 1096SOL     OW 4186   3.456   3.433   1.887
 1096SOL    HW1 4187   3.468   3.531   1.902
 1096SOL    HW2 4188   3.428   3.389   1.972
 1097SOL     OW 4189   2.256   4.267   5.668
 1097SOL    HW1 4190   2.225   4.341   5.728
 1097SOL    HW2 4191   2.181   4.201   5.656
 1098SOL     OW 4192   4.049   0.484   2.594
 1098SOL    HW1 4193   3.990   0.551   2.640
 1098SOL    HW2 4194   4.089   0.423   2.662
 1099SOL     OW 4195   3.190   0.612   2.394
 1099SOL    HW1 4196   3.187   0.514   2.376
 1099SOL    HW2 4197   3.285   0.643   2.399
 1100SOL     OW 4198   6.554   1.006   6.755
 1100SOL    HW1 4199   6.581   0.926   6.702
 1100SOL    HW2 4200   6.636   1.055   6.786
 1101SOL     OW 4201   4.987   3.011   1.497
 1101SOL    HW1 4202   5.039   3.012   1.583
 1101SOL    HW2 4203   4.951   3.103   1.480
 1102SOL     OW 4204   0.118   4.046   3.853
 1102SOL    HW1 4205   0.039   4.104   3.831
 1102SOL    HW2 4206   0.202   4.099   3.842
 1103SOL     OW 4207   0.105   3.474   6.903
 1103SOL    HW1 4208   0.202   3.486   6.927
 1103SOL    HW2 4209   0.050   3.474   6.986
 1104SOL     OW 4210   2.825   5.268   6.373
 1104SOL    HW1 4211   2.750   5.202   6.375
 1104SOL    HW2 4212   2.798   5.348   6.321
 1105SOL     OW 4213   3.659   5.639   1.251
 1105SOL    HW1 4214   3.574   5.638   1.304
 1105SOL    HW2 4215   3.678   5.733   1.221
 1106SOL     OW 4216   1.339   0.957   6.338
 1106SOL    HW1 4217   1.437   0.962   6.317
 1106SOL    HW2 4218   1.286   0.990   6.260
 1107SOL     OW 4219   6.711   0.558   1.338
 1107SOL    HW1 4220   6.673   0.634   1.390
 1107SOL    HW2 4221   6.797   0.586   1.294
 1108SOL     OW 4222   1.130   1.042   6.730
 1108SOL    HW1 4223   1.223   1.005   6.723
 1108SOL    HW2 4224   1.130   1.121   6.792
 1109SOL     OW 4225   4.821   0.804   3.925
 1109SOL    HW1 4226   4.897   0.785   3.862
 1109SOL    HW2 4227   4.798   0.721   3.975
 1110SOL     OW 4228   3.763   2.930   2.644
 1110SOL    HW1 4229   3.829   2.949   2.571
 1110SOL    HW2 4230   3.671   2.933   2.606
 1111SOL     OW 4231   4.981   6.943   6.995
 1111SOL    HW1 4232   5.063   6.886   6.990
 1111SOL    HW2 4233   4.946   6.945   0.061
 1112SOL     OW 4234   0.770   1.441   2.427
 1112SOL    HW1 4235   0.755   1.366   2.491
 1112SOL    HW2 4236   0.706   1.434   2.351
 1113SOL     OW 4237   6.102   3.989   1.604
 1113SOL    HW1 4238   6.079   3.922   1.674
 1113SOL    HW2 4239   6.021   4.009   1.549
 1114SOL     OW 4240   5.658   1.066   5.526
 1114SOL    HW1 4241   5.718   1.139   5.560
 1114SOL    HW2 4242   5.675   1.052   5.428
 1115SOL     OW 4243   2.399   4.401   0.824
 1115SOL    HW1 4244   2.477   4.450   0.865
 1115SOL    HW2 4245   2.430   4.312   0.790
 1116SOL     OW 4246   3.754   6.441   6.338
 1116SOL    HW1 4247   3.786   6.536   6.335
 1116SOL    HW2 4248   3.807   6.391   6.406
 1117SOL     OW 4249   2.743   2.758   0.935
 1117SOL    HW1 4250   2.837   2.753   0.967
 1117SOL    HW2 4251   2.698   2.670   0.948
 1118SOL     OW 4252   1.628   3.003   1.946
 1118SOL    HW1 4253   1.575   3.087   1.931
 1118SOL    HW2 4254   1.632   2.951   1.861
 1119SOL     OW 4255   2.873   3.453   2.925
 1119SOL    HW1 4256   2.893   3.356   2.942
 1119SOL    HW2 4257   2.821   3.490   3.003
 1120SOL     OW 4258   4.636   1.020   4.087
 1120SOL    HW1 4259   4.728   0.996   4.057
 1120SOL    HW2 4260   4.580   0.937   4.092
 1121SOL     OW 4261   5.386   3.029   2.892
 1121SOL    HW1 4262   5.424   3.095   2.957
 1121SOL    HW2 4263   5.343   2.954   2.942
 1122SOL     OW 4264   4.433   5.301   6.649
 1122SOL    HW1 4265   4.341   5.311   6.686
 1122SOL    HW2 4266   4.428   5.279   6.552
 1123SOL     OW 4267   3.795   1.516   1.917
 1123SOL    HW1 4268   3.778   1.445   1.985
 1123SOL    HW2 4269   3.751   1.492   1.831
 1124SOL     OW 4270   1.449   4.925   4.406
 1124SOL    HW1 4271   1.395   4.888   4.481
 1124SOL    HW2 4272   1.546   4.904   4.420
 1125SOL     OW 4273   2.898   3.573   5.055
 1125SOL    HW1 4274   2.857   3.563   5.146
 1125SOL    HW2 4275   2.960   3.497   5.037
 1126SOL     OW 4276   6.271   0.290   2.387
 1126SOL    HW1 4277   6.241   0.196   2.404
 1126SOL    HW2 4278   6.292   0.334   2.474
 1127SOL     OW 4279   2.029   5.670   6.302
 1127SOL    HW1 4280   2.075   5.589   6.337
 1127SOL    HW2 4281   1.949   5.643   6.248
 1128SOL     OW 4282   2.511   1.757   4.187
 1128SOL    HW1 4283   2.431   1.809   4.218
 1128SOL    HW2 4284   2.483   1.687   4.122
 1129SOL     OW 4285   4.719   6.838   6.270
 1129SOL    HW1 4286   4.669   6.802   6.191
 1129SOL    HW2 4287   4.802   6.885   6.238
 1130SOL     OW 4288   0.412   6.028   5.844
 1130SOL    HW1 4289   0.397   6.104   5.908
 1130SOL    HW2 4290   0.327   6.006   5.797
 1131SOL     OW 4291   0.598   5.324   5.674
 1131SOL    HW1 4292   0.653   5.328   5.590
 1131SOL    HW2 4293   0.518   5.383   5.664
 1132SOL     OW 4294   5.680   6.672   5.080
 1132SOL    HW1 4295   5.697   6.668   5.179
 1132SOL    HW2 4296   5.582   6.677   5.063
 1133SOL     OW 4297   6.996   2.691   6.335
 1133SOL    HW1 4298   6.944   2.701   6.420
 1133SOL    HW2 4299   0.033   2.615   6.344
 1134SOL     OW 4300   6.843   2.573   5.928
 1134SOL    HW1 4301   6.820   2.603   5.835
 1134SOL    HW2 4302   6.942   2.573   5.939
 1135SOL     OW 4303   6.415   1.806   4.404
 1135SOL    HW1 4304   6.456   1.888   4.446
 1135SOL    HW2 4305   6.437   1.805   4.306
 1136SOL     OW 4306   3.511   5.120   4.183
 1136SOL    HW1 4307   3.454   5.201   4.193
 1136SOL    HW2 4308   3.501   5.061   4.264
 1137SOL     OW 4309   1.604   0.936   6.337
 1137SOL    HW1 4310   1.610   0.985   6.424
 1137SOL    HW2 4311   1.666   0.858   6.338
 1138SOL     OW 4312   1.193   4.191   5.783
 1138SOL    HW1 4313   1.153   4.226   5.868
 1138SOL    HW2 4314   1.133   4.211   5.706
 1139SOL     OW 4315   0.968   6.730   2.085
 1139SOL    HW1 4316   1.050   6.674   2.072
 1139SOL    HW2 4317   0.908   6.721   2.006
 1140SOL     OW 4318   3.788   2.119   3.105
 1140SOL    HW1 4319   3.878   2.162   3.104
 1140SOL    HW2 4320   3.773   2.073   3.192
 1141SOL     OW 4321   7.016   6.041   6.001
 1141SOL    HW1 4322   6.921   6.060   5.980
 1141SOL    HW2 4323   0.014   6.085   6.088
 1142SOL     OW 4324   6.607   0.694   4.579
 1142SOL    HW1 4325   6.601   0.682   4.678
 1142SOL    HW2 4326   6.560   0.779   4.553
 1143SOL     OW 4327   4.647   1.599   1.816
 1143SOL    HW1 4328   4.630   1.697   1.801
 1143SOL    HW2 4329   4.586   1.546   1.758
 1144SOL     OW 4330   1.144   0.104   5.105
 1144SOL    HW1 4331   1.045   0.116   5.111
 1144SOL    HW2 4332   1.186   0.189   5.073
 1145SOL     OW 4333   1.825   4.569   4.822
 1145SOL    HW1 4334   1.796   4.558   4.727
 1145SOL    HW2 4335   1.868   4.485   4.854
 1146SOL     OW 4336   5.875   1.797   1.029
 1146SOL    HW1 4337   5.861   1.866   1.099
 1146SOL    HW2 4338   5.929   1.835   0.954
 1147SOL     OW 4339   6.659   3.482   2.137
 1147SOL    HW1 4340   6.608   3.535   2.069
 1147SOL    HW2 4341   6.727   3.540   2.180
 1148SOL     OW 4342   5.388   1.050   6.746
 1148SOL    HW1 4343   5.448   1.057   6.826
 1148SOL    HW2 4344   5.298   1.016   6.773
 1149SOL     OW 4345   5.700   2.254   3.065
 1149SOL    HW1 4346   5.604   2.231   3.084
 1149SOL    HW2 4347   5.733   2.319   3.133
 1150SOL     OW 4348   1.318   5.250   5.494
 1150SOL    HW1 4349   1.369   5.223   5.576
 1150SOL    HW2 4350   1.377   5.302   5.433
 1151SOL     OW 4351   2.664   5.057   0.374
 1151SOL    HW1 4352   2.727   5.069   0.451
 1151SOL    HW2 4353   2.716   5.038   0.291
 1152SOL     OW 4354   0.698   0.939   4.184
 1152SOL    HW1 4355   0.746   0.999   4.249
 1152SOL    HW2 4356   0.709   0.844   4.213
 1153SOL     OW 4357   2.511   4.567   2.443
 1153SOL    HW1 4358   2.522   4.593   2.347
 1153SOL    HW2 4359   2.585   4.608   2.496
 1154SOL     OW 4360   1.855   4.090   2.325
 1154SOL    HW1 4361   1.793   4.013   2.312
 1154SOL    HW2 4362   1.921   4.093   2.249
 1155SOL     OW 4363   4.088   6.766   2.737
 1155SOL    HW1 4364   4.109   6.849   2.788
 1155SOL    HW2 4365   4.085   6.786   2.639
 1156SOL     OW 4366   1.726   1.546   3.758
 1156SOL    HW1 4367   1.650   1.489   3.729
 1156SOL    HW2 4368   1.692   1.620   3.817
 1157SOL     OW 4369   1.402   2.960   4.359
 1157SOL    HW1 4370   1.447   2.894   4.418
 1157SOL    HW2 4371   1.374   3.039   4.413
 1158SOL     OW 4372   4.317   5.975   6.459
 1158SOL    HW1 4373   4.331   5.903   6.527
 1158SOL    HW2 4374   4.330   5.938   6.367
 1159SOL     OW 4375   5.979   4.770   2.459
 1159SOL    HW1 4376   5.964   4.852   2.514
 1159SOL    HW2 4377   5.910   4.765   2.386
 1160SOL     OW 4378   3.023   3.031   1.124
 1160SOL    HW1 4379   3.081   2.950   1.132
 1160SOL    HW2 4380   3.074   3.112   1.152
 1161SOL     OW 4381   4.372   0.571   4.011
 1161SOL    HW1 4382   4.426   0.595   3.931
 1161SOL    HW2 4383   4.331   0.654   4.049
 1162SOL     OW 4384   4.096   5.085   1.319
 1162SOL    HW1 4385   4.089   5.047   1.411
 1162SOL    HW2 4386   4.005   5.095   1.280
 1163SOL     OW 4387   5.050   0.357   2.409
 1163SOL    HW1 4388   5.090   0.336   2.320
 1163SOL    HW2 4389   5.122   0.360   2.478
 1164SOL     OW 4390   6.141   3.629   3.868
 1164SOL    HW1 4391   6.106   3.633   3.775
 1164SOL    HW2 4392   6.239   3.646   3.868
 1165SOL     OW 4393   1.273   4.624   2.571
 1165SOL    HW1 4394   1.215   4.549   2.605
 1165SOL    HW2 4395   1.361   4.587   2.543
 1166SOL     OW 4396   3.199   2.158   6.573
 1166SOL    HW1 4397   3.151   2.216   6.506
 1166SOL    HW2 4398   3.295   2.183   6.576
 1167SOL     OW 4399   4.105   1.687   5.356
 1167SOL    HW1 4400   4.164   1.757   5.316
 1167SOL    HW2 4401   4.016   1.727   5.379
 1168SOL     OW 4402   6.057   6.979   3.430
 1168SOL    HW1 4403   5.968   7.010   3.463
 1168SOL    HW2 4404   6.049   6.957   3.332
 1169SOL     OW 4405   0.736   3.464   1.428
 1169SOL    HW1 4406   0.771   3.394   1.366
 1169SOL    HW2 4407   0.640   3.482   1.408
 1170SOL     OW 4408   3.075   0.398   1.195
 1170SOL    HW1 4409   3.086   0.494   1.222
 1170SOL    HW2 4410   3.097   0.388   1.098
 1171SOL     OW 4411   2.977   0.644   0.108
 1171SOL    HW1 4412   2.972   0.717   0.177
 1171SOL    HW2 4413   2.907   0.576   0.128
 1172SOL     OW 4414   3.403   3.498   5.050
 1172SOL    HW1 4415   3.356   3.540   5.127
 1172SOL    HW2 4416   3.394   3.399   5.055
 1173SOL     OW 4417   5.188   0.142   6.381
 1173SOL    HW1 4418   5.271   0.165   6.433
 1173SOL    HW2 4419   5.198   0.051   6.341
 1174SOL     OW 4420   3.608   6.068   6.924
 1174SOL    HW1 4421   3.579   6.010   7.000
 1174SOL    HW2 4422   3.609   6.014   6.840
 1175SOL     OW 4423   0.103   5.071   4.798
 1175SOL    HW1 4424   0.004   5.080   4.795
 1175SOL    HW2 4425   0.133   5.007   4.727
 1176SOL     OW 4426   6.461   2.837   0.918
 1176SOL    HW1 4427   6.443   2.910   0.984
 1176SOL    HW2 4428   6.392   2.838   0.847
 1177SOL     OW 4429   5.583   3.498   0.107
 1177SOL    HW1 4430   5.552   3.510   0.201
 1177SOL    HW2 4431   5.605   3.588   0.068
 1178SOL     OW 4432   5.585   4.285   2.514
 1178SOL    HW1 4433   5.584   4.215   2.442
 1178SOL    HW2 4434   5.679   4.318   2.526
 1179SOL     OW 4435   2.035   5.781   5.977
 1179SOL    HW1 4436   2.107   5.753   5.913
 1179SOL    HW2 4437   2.011   5.704   6.036
 1180SOL     OW 4438   1.818   0.995   3.718
 1180SOL    HW1 4439   1.888   0.957   3.780
 1180SOL    HW2 4440   1.856   1.003   3.626
 1181SOL     OW 4441   1.609   4.244   2.582
 1181SOL    HW1 4442   1.633   4.226   2.677
 1181SOL    HW2 4443   1.631   4.339   2.559
 1182SOL     OW 4444   1.210   3.853   4.190
 1182SOL    HW1 4445   1.227   3.889   4.282
 1182SOL    HW2 4446   1.114   3.827   4.182
 1183SOL     OW 4447   4.424   6.232   0.874
 1183SOL    HW1 4448   4.495   6.272   0.932
 1183SOL    HW2 4449   4.336   6.273   0.897
 1184SOL     OW 4450   3.575   3.027   6.079
 1184SOL    HW1 4451   3.498   3.066   6.029
 1184SOL    HW2 4452   3.558   2.930   6.097
 1185SOL     OW 4453   2.605   1.351   6.434
 1185SOL    HW1 4454   2.676   1.289   6.400
 1185SOL    HW2 4455   2.638   1.399   6.515
 1186SOL     OW 4456   3.731   0.775   5.179
 1186SOL    HW1 4457   3.673   0.838   5.128
 1186SOL    HW2 4458   3.817   0.822   5.203
 1187SOL     OW 4459   0.694   2.220   5.042
 1187SOL    HW1 4460   0.598   2.209   5.067
 1187SOL    HW2 4461   0.745   2.253   5.121
 1188SOL     OW 4462   1.419   0.555   4.985
 1188SOL    HW1 4463   1.330   0.587   4.951
 1188SOL    HW2 4464   1.491   0.618   4.956
 1189SOL     OW 4465   0.102   1.225   1.420
 1189SOL    HW1 4466   0.145   1.215   1.510
 1189SOL    HW2 4467   0.112   1.140   1.368
 1190SOL     OW 4468   4.470   5.150   2.337
 1190SOL    HW1 4469   4.541   5.128   2.269
 1190SOL    HW2 4470   4.511   5.204   2.411
 1191SOL     OW 4471   2.700   4.460   1.369
 1191SOL    HW1 4472   2.672   4.468   1.464
 1191SOL    HW2 4473   2.688   4.548   1.323
 1192SOL     OW 4474   4.640   4.935   2.702
 1192SOL    HW1 4475   4.665   4.904   2.610
 1192SOL    HW2 4476   4.652   4.859   2.767
 1193SOL     OW 4477   4.009   6.810   4.397
 1193SOL    HW1 4478   4.078   6.876   4.429
 1193SOL    HW2 4479   4.005   6.812   4.297
 1194SOL     OW 4480   5.706   1.614   1.451
 1194SOL    HW1 4481   5.746   1.620   1.542
 1194SOL    HW2 4482   5.660   1.700   1.429
 1195SOL     OW 4483   3.207   6.635   0.273
 1195SOL    HW1 4484   3.147   6.632   0.353
 1195SOL    HW2 4485   3.292   6.682   0.296
 1196SOL     OW 4486   1.366   5.293   3.525
 1196SOL    HW1 4487   1.454   5.247   3.519
 1196SOL    HW2 4488   1.333   5.313   3.432
 1197SOL     OW 4489   3.367   5.076   7.017
 1197SOL    HW1 4490   3.336   5.160   0.034
 1197SOL    HW2 4491   3.325   5.069   6.926
 1198SOL     OW 4492   3.384   1.097   2.315
 1198SOL    HW1 4493   3.366   1.193   2.333
 1198SOL    HW2 4494   3.468   1.069   2.362
 1199SOL     OW 4495   3.246   3.571   4.093
 1199SOL    HW1 4496   3.231   3.556   3.995
 1199SOL    HW2 4497   3.315   3.641   4.106
 1200SOL     OW 4498   4.627   3.394   0.978
 1200SOL    HW1 4499   4.550   3.353   1.026
 1200SOL    HW2 4500   4.694   3.427   1.045
 1201SOL     OW 4501   1.547   1.576   4.928
 1201SOL    HW1 4502   1.499   1.545   4.845
 1201SOL    HW2 4503   1.568   1.497   4.985
 1202SOL     OW 4504   6.346   0.320   4.914
 1202SOL    HW1 4505   6.395   0.259   4.976
 1202SOL    HW2 4506   6.248   0.302   4.921
 1203SOL     OW 4507   6.375   6.554   1.836
 1203SOL    HW1 4508   6.347   6.522   1.746
 1203SOL    HW2 4509   6.298   6.601   1.881
 1204SOL     OW 4510   1.447   0.016   0.180
 1204SOL    HW1 4511   1.407   0.065   0.103
 1204SOL    HW2 4512   1.474   6.951   0.151
 1205SOL     OW 4513   0.633   3.283   5.251
 1205SOL    HW1 4514   0.541   3.306   5.283
 1205SOL    HW2 4515   0.673   3.213   5.309
 1206SOL     OW 4516   0.223   2.073   4.454
 1206SOL    HW1 4517   0.294   2.135   4.421
 1206SOL    HW2 4518   0.217   1.994   4.393
 1207SOL     OW 4519   5.982   6.591   6.908
 1207SOL    HW1 4520   5.968   6.652   6.830
 1207SOL    HW2 4521   6.054   6.629   6.967
 1208SOL     OW 4522   3.612   3.522   2.807
 1208SOL    HW1 4523   3.542   3.590   2.782
 1208SOL    HW2 4524   3.669   3.503   2.727
 1209SOL     OW 4525   6.654   4.628   4.992
 1209SOL    HW1 4526   6.667   4.568   4.914
 1209SOL    HW2 4527   6.698   4.588   5.073
 1210SOL     OW 4528   2.558   0.185   2.973
 1210SOL    HW1 4529   2.585   0.226   2.885
 1210SOL    HW2 4530   2.481   0.236   3.011
 1211SOL     OW 4531   1.005   2.654   3.121
 1211SOL    HW1 4532   1.025   2.743   3.080
 1211SOL    HW2 4533   0.944   2.602   3.060
 1212SOL     OW 4534   0.866   4.623   3.601
 1212SOL    HW1 4535   0.948   4.642   3.656
 1212SOL    HW2 4536   0.804   4.564   3.653
 1213SOL     OW 4537   5.740   3.257   5.217
 1213SOL    HW1 4538   5.722   3.345   5.173
 1213SOL    HW2 4539   5.780   3.273   5.308
 1214SOL     OW 4540   1.544   2.234   1.666
 1214SOL    HW1 4541   1.582   2.163   1.726
 1214SOL    HW2 4542   1.616   2.269   1.606
 1215SOL     OW 4543   0.175   5.142   2.119
 1215SOL    HW1 4544   0.209   5.214   2.058
 1215SOL    HW2 4545   0.194   5.053   2.078
 1216SOL     OW 4546   2.597   6.942   1.684
 1216SOL    HW1 4547   2.653   6.944   1.767
 1216SOL    HW2 4548   2.505   6.977   1.705
 1217SOL     OW 4549   2.308   2.192   2.786
 1217SOL    HW1 4550   2.286   2.162   2.879
 1217SOL    HW2 4551   2.269   2.283   2.771
 1218SOL     OW 4552   0.436   3.175   3.585
 1218SOL    HW1 4553   0.437   3.172   3.485
 1218SOL    HW2 4554   0.359   3.120   3.619
 1219SOL     OW 4555   2.620   5.458   3.360
 1219SOL    HW1 4556   2.523   5.439   3.350
 1219SOL    HW2 4557   2.643   5.463   3.458
 1220SOL     OW 4558   6.130   4.524   2.403
 1220SOL    HW1 4559   6.063   4.597   2.416
 1220SOL    HW2 4560   6.204   4.536   2.470
 1221SOL     OW 4561   4.898   4.678   6.055
 1221SOL    HW1 4562   4.843   4.731   5.990
 1221SOL    HW2 4563   4.921   4.736   6.133
 1222SOL     OW 4564   6.237   4.656   1.294
 1222SOL    HW1 4565   6.321   4.609   1.270
 1222SOL    HW2 4566   6.239   4.749   1.256
 1223SOL     OW 4567   6.808   5.226   5.302
 1223SOL    HW1 4568   6.774   5.149   5.355
 1223SOL    HW2 4569   6.784   5.214   5.206
 1224SOL     OW 4570   4.274   4.953   1.143
 1224SOL    HW1 4571   4.194   5.013   1.152
 1224SOL    HW2 4572   4.354   5.008   1.121
 1225SOL     OW 4573   3.688   1.902   6.788
 1225SOL    HW1 4574   3.725   1.990   6.758
 1225SOL    HW2 4575   3.754   1.856   6.847
 1226SOL     OW 4576   5.771   5.460   1.017
 1226SOL    HW1 4577   5.838   5.521   1.059
 1226SOL    HW2 4578   5.681   5.503   1.019
 1227SOL     OW 4579   4.891   4.926   6.769
 1227SOL    HW1 4580   4.913   5.023   6.766
 1227SOL    HW2 4581   4.795   4.913   6.791
 1228SOL     OW 4582   3.575   4.120   4.006
 1228SOL    HW1 4583   3.553   4.217   4.011
 1228SOL    HW2 4584   3.631   4.094   4.084
 1229SOL     OW 4585   2.459   5.448   2.975
 1229SOL    HW1 4586   2.468   5.497   3.062
 1229SOL    HW2 4587   2.375   5.478   2.929
 1230SOL     OW 4588   4.835   5.441   1.258
 1230SOL    HW1 4589   4.845   5.367   1.192
 1230SOL    HW2 4590   4.744   5.435   1.300
 1231SOL     OW 4591   2.425   1.327   6.773
 1231SOL    HW1 4592   2.368   1.379   6.837
 1231SOL    HW2 4593   2.371   1.303   6.692
 1232SOL     OW 4594   3.152   1.281   5.145
 1232SOL    HW1 4595   3.102   1.263   5.060
 1232SOL    HW2 4596   3.152   1.380   5.163
 1233SOL     OW 4597   7.027   5.287   5.014
 1233SOL    HW1 4598   6.935   5.327   5.006
 1233SOL    HW2 4599   0.029   5.251   4.925
 1234SOL     OW 4600   6.226   4.500   0.011
 1234SOL    HW1 4601   6.257   4.540   0.097
 1234SOL    HW2 4602   6.233   4.569   6.965
 1235SOL     OW 4603   5.962   4.681   1.050
 1235SOL    HW1 4604   5.940   4.749   1.119
 1235SOL    HW2 4605   6.052   4.700   1.012
 1236SOL     OW 4606   1.265   1.183   2.715
 1236SOL    HW1 4607   1.209   1.261   2.686
 1236SOL    HW2 4608   1.356   1.214   2.739
 1237SOL     OW 4609   1.031   0.002   4.271
 1237SOL    HW1 4610   0.948   0.039   4.314
 1237SOL    HW2 4611   1.096   7.001   4.342
 1238SOL     OW 4612   0.776   0.473   4.313
 1238SOL    HW1 4613   0.806   0.400   4.253
 1238SOL    HW2 4614   0.855   0.511   4.361
 1239SOL     OW 4615   4.825   4.505   4.082
 1239SOL    HW1 4616   4.785   4.526   4.172
 1239SOL    HW2 4617   4.923   4.487   4.093
 1240SOL     OW 4618   0.507   3.604   0.606
 1240SOL    HW1 4619   0.497   3.517   0.557
 1240SOL    HW2 4620   0.573   3.593   0.680
 1241SOL     OW 4621   3.975   5.356   6.039
 1241SOL    HW1 4622   3.975   5.353   6.139
 1241SOL    HW2 4623   3.892   5.400   6.007
 1242SOL     OW 4624   2.096   5.227   0.600
 1242SOL    HW1 4625   2.179   5.238   0.546
 1242SOL    HW2 4626   2.021   5.276   0.557
 1243SOL     OW 4627   1.131   3.650   3.595
 1243SOL    HW1 4628   1.208   3.704   3.626
 1243SOL    HW2 4629   1.134   3.641   3.495
 1244SOL     OW 4630   6.246   6.868   5.064
 1244SOL    HW1 4631   6.222   6.912   5.150
 1244SOL    HW2 4632   6.211   6.922   4.987
 1245SOL     OW 4633   4.295   6.779   1.307
 1245SOL    HW1 4634   4.288   6.802   1.210
 1245SOL    HW2 4635   4.235   6.839   1.360
 1246SOL     OW 4636   5.595   1.859   1.327
 1246SOL    HW1 4637   5.533   1.892   1.399
 1246SOL    HW2 4638   5.645   1.936   1.289
 1247SOL     OW 4639   5.694   6.755   2.840
 1247SOL    HW1 4640   5.611   6.725   2.887
 1247SOL    HW2 4641   5.674   6.769   2.743
 1248SOL     OW 4642   0.749   6.553   4.473
 1248SOL    HW1 4643   0.676   6.618   4.491
 1248SOL    HW2 4644   0.772   6.554   4.375
 1249SOL     OW 4645   6.112   6.307   6.937
 1249SOL    HW1 4646   6.150   6.310   0.002
 1249SOL    HW2 4647   6.022   6.352   6.937
 1250SOL     OW 4648   0.584   4.523   4.832
 1250SOL    HW1 4649   0.558   4.427   4.825
 1250SOL    HW2 4650   0.582   4.566   4.742
 1251SOL     OW 4651   2.969   0.298   2.608
 1251SOL    HW1 4652   2.918   0.303   2.522
 1251SOL    HW2 4653   3.037   0.371   2.611
 1252SOL     OW 4654   2.635   5.276   6.922
 1252SOL    HW1 4655   2.698   5.328   6.981
 1252SOL    HW2 4656   2.683   5.247   6.840
 1253SOL     OW 4657   2.971   6.388   0.087
 1253SOL    HW1 4658   3.003   6.311   0.142
 1253SOL    HW2 4659   3.047   6.451   0.069
 1254SOL     OW 4660   6.154   1.490   3.829
 1254SOL    HW1 4661   6.107   1.433   3.762
 1254SOL    HW2 4662   6.106   1.576   3.840
 1255SOL     OW 4663   6.025   2.066   5.563
 1255SOL    HW1 4664   6.124   2.070   5.547
 1255SOL    HW2 4665   5.998   2.142   5.622
 1256SOL     OW 4666   0.486   5.720   5.154
 1256SOL    HW1 4667   0.567   5.759   5.198
 1256SOL    HW2 4668   0.444   5.652   5.215
 1257SOL     OW 4669   6.800   6.080   3.334
 1257SOL    HW1 4670   6.752   6.082   3.246
 1257SOL    HW2 4671   6.876   6.016   3.329
 1258SOL     OW 4672   4.578   5.786   6.554
 1258SOL    HW1 4673   4.503   5.821   6.611
 1258SOL    HW2 4674   4.633   5.722   6.607
 1259SOL     OW 4675   5.551   6.967   5.562
 1259SOL    HW1 4676   5.606   6.959   5.479
 1259SOL    HW2 4677   5.477   0.006   5.547
 1260SOL     OW 4678   3.264   1.204   0.694
 1260SOL    HW1 4679   3.166   1.218   0.680
 1260SOL    HW2 4680   3.278   1.151   0.777
 1261SOL     OW 4681   7.021   4.410   4.661
 1261SOL    HW1 4682   6.952   4.349   4.700
 1261SOL    HW2 4683   0.085   4.371   4.678
 1262SOL     OW 4684   3.977   5.776   1.858
 1262SOL    HW1 4685   3.985   5.844   1.931
 1262SOL    HW2 4686   3.929   5.695   1.893
 1263SOL     OW 4687   6.897   1.739   0.929
 1263SOL    HW1 4688   6.909   1.672   1.001
 1263SOL    HW2 4689   6.867   1.826   0.968
 1264SOL     OW 4690   6.107   2.501   4.534
 1264SOL    HW1 4691   6.086   2.569   4.604
 1264SOL    HW2 4692   6.091   2.542   4.443
 1265SOL     OW 4693   6.324   6.091   4.485
 1265SOL    HW1 4694   6.229   6.085   4.515
 1265SOL    HW2 4695   6.330   6.152   4.406
 1266SOL     OW 4696   3.129   0.837   3.874
 1266SOL    HW1 4697   3.128   0.864   3.778
 1266SOL    HW2 4698   3.083   0.906   3.929
 1267SOL     OW 4699   0.194   4.235   2.696
 1267SOL    HW1 4700   0.196   4.314   2.634
 1267SOL    HW2 4701   0.180   4.267   2.790
 1268SOL     OW 4702   5.886   4.514   6.834
 1268SOL    HW1 4703   5.795   4.555   6.820
 1268SOL    HW2 4704   5.940   4.525   6.751
 1269SOL     OW 4705   6.786   5.081   6.554
 1269SOL    HW1 4706   6.712   5.055   6.491
 1269SOL    HW2 4707   6.850   5.141   6.506
 1270SOL     OW 4708   1.492   1.661   4.308
 1270SOL    HW1 4709   1.574   1.692   4.354
 1270SOL    HW2 4710   1.509   1.655   4.209
 1271SOL     OW 4711   5.214   2.576   3.691
 1271SOL    HW1 4712   5.220   2.590   3.592
 1271SOL    HW2 4713   5.216   2.664   3.737
 1272SOL     OW 4714   6.301   6.474   0.933
 1272SOL    HW1 4715   6.348   6.479   0.845
 1272SOL    HW2 4716   6.337   6.397   0.985
 1273SOL     OW 4717   2.561   6.763   5.679
 1273SOL    HW1 4718   2.643   6.810   5.714
 1273SOL    HW2 4719   2.588   6.676   5.637
 1274SOL     OW 4720   6.139   1.830   2.710
 1274SOL    HW1 4721   6.102   1.909   2.660
 1274SOL    HW2 4722   6.239   1.834   2.708
 1275SOL     OW 4723   3.953   1.889   4.038
 1275SOL    HW1 4724   3.882   1.906   3.969
 1275SOL    HW2 4725   3.909   1.872   4.126
 1276SOL     OW 4726   6.502   6.726   2.646
 1276SOL    HW1 4727   6.447   6.643   2.661
 1276SOL    HW2 4728   6.538   6.726   2.553
 1277SOL     OW 4729   0.987   2.026   4.688
 1277SOL    HW1 4730   1.000   1.946   4.746
 1277SOL    HW2 4731   0.897   2.065   4.704
 1278SOL     OW 4732   3.182   1.296   5.575
 1278SOL    HW1 4733   3.084   1.281   5.568
 1278SOL    HW2 4734   3.199   1.384   5.620
 1279SOL     OW 4735   2.316   4.754   0.232
 1279SOL    HW1 4736   2.221   4.734   0.208
 1279SOL    HW2 4737   2.341   4.844   0.196
 1280SOL     OW 4738   1.798   5.703   2.648
 1280SOL    HW1 4739   1.707   5.703   2.607
 1280SOL    HW2 4740   1.824   5.797   2.671
 1281SOL     OW 4741   0.435   6.803   4.133
 1281SOL    HW1 4742   0.467   6.724   4.080
 1281SOL    HW2 4743   0.513   6.843   4.182
 1282SOL     OW 4744   1.191   0.114   2.471
 1282SOL    HW1 4745   1.196   0.213   2.459
 1282SOL    HW2 4746   1.264   0.071   2.418
 1283SOL     OW 4747   4.790   4.025   5.055
 1283SOL    HW1 4748   4.708   4.062   5.100
 1283SOL    HW2 4749   4.848   3.981   5.123
 1284SOL     OW 4750   2.785   2.077   2.829
 1284SOL    HW1 4751   2.859   2.010   2.821
 1284SOL    HW2 4752   2.812   2.150   2.891
 1285SOL     OW 4753   5.623   2.760   5.812
 1285SOL    HW1 4754   5.583   2.751   5.720
 1285SOL    HW2 4755   5.552   2.744   5.880
 1286SOL     OW 4756   6.089   6.457   1.684
 1286SOL    HW1 4757   6.013   6.421   1.630
 1286SOL    HW2 4758   6.143   6.381   1.722
 1287SOL     OW 4759   6.259   4.373   5.882
 1287SOL    HW1 4760   6.171   4.420   5.869
 1287SOL    HW2 4761   6.328   4.415   5.824
 1288SOL     OW 4762   6.525   2.513   3.759
 1288SOL    HW1 4763   6.498   2.608   3.739
 1288SOL    HW2 4764   6.575   2.510   3.845
 1289SOL     OW 4765   6.911   4.855   2.600
 1289SOL    HW1 4766   6.816   4.827   2.586
 1289SOL    HW2 4767   6.923   4.949   2.569
 1290SOL     OW 4768   0.682   0.452   1.085
 1290SOL    HW1 4769   0.687   0.361   1.045
 1290SOL    HW2 4770   0.774   0.492   1.088
 1291SOL     OW 4771   1.731   0.096   0.939
 1291SOL    HW1 4772   1.700   0.008   0.975
 1291SOL    HW2 4773   1.700   0.169   0.998
 1292SOL     OW 4774   0.965   5.816   6.619
 1292SOL    HW1 4775   0.956   5.829   6.718
 1292SOL    HW2 4776   1.021   5.735   6.601
 1293SOL     OW 4777   6.189   2.821   5.853
 1293SOL    HW1 4778   6.102   2.794   5.896
 1293SOL    HW2 4779   6.211   2.915   5.879
 1294SOL     OW 4780   0.251   1.714   3.475
 1294SOL    HW1 4781   0.227   1.723   3.571
 1294SOL    HW2 4782   0.333   1.767   3.455
 1295SOL     OW 4783   4.885   3.353   1.809
 1295SOL    HW1 4784   4.811   3.310   1.756
 1295SOL    HW2 4785   4.846   3.424   1.868
 1296SOL     OW 4786   3.705   2.275   0.022
 1296SOL    HW1 4787   3.621   2.238   7.009
 1296SOL    HW2 4788   3.690   2.372   0.044
 1297SOL     OW 4789   6.547   0.823   6.056
 1297SOL    HW1 4790   6.523   0.726   6.052
 1297SOL    HW2 4791   6.643   0.832   6.081
 1298SOL     OW 4792   6.543   2.658   3.252
 1298SOL    HW1 4793   6.500   2.622   3.169
 1298SOL    HW2 4794   6.501   2.616   3.333
 1299SOL     OW 4795   1.486   3.171   4.062
 1299SOL    HW1 4796   1.454   3.196   4.153
 1299SOL    HW2 4797   1.584   3.191   4.055
 1300SOL     OW 4798   3.841   3.427   1.861
 1300SOL    HW1 4799   3.893   3.423   1.775
 1300SOL    HW2 4800   3.868   3.352   1.920
 1301SOL     OW 4801   0.549   0.312   2.361
 1301SOL    HW1 4802   0.498   0.237   2.320
 1301SOL    HW2 4803   0.536   0.311   2.460
 1302SOL     OW 4804   2.690   5.801   5.380
 1302SOL    HW1 4805   2.643   5.889   5.389
 1302SOL    HW2 4806   2.698   5.758   5.470
 1303SOL     OW 4807   2.912   0.106   1.361
 1303SOL    HW1 4808   2.977   0.138   1.430
 1303SOL    HW2 4809   2.963   0.067   1.284
 1304SOL     OW 4810   3.635   1.143   6.449
 1304SOL    HW1 4811   3.691   1.165   6.369
 1304SOL    HW2 4812   3.654   1.049   6.478
 1305SOL     OW 4813   5.959   6.116   4.168
 1305SOL    HW1 4814   5.943   6.022   4.137
 1305SOL    HW2 4815   5.872   6.158   4.194
 1306SOL     OW 4816   1.239   4.848   4.626
 1306SOL    HW1 4817   1.208   4.774   4.686
 1306SOL    HW2 4818   1.190   4.842   4.539
 1307SOL     OW 4819   1.661   1.774   3.893
 1307SOL    HW1 4820   1.615   1.859   3.866
 1307SOL    HW2 4821   1.744   1.797   3.945
 1308SOL     OW 4822   4.570   6.127   3.193
 1308SOL    HW1 4823   4.609   6.036   3.206
 1308SOL    HW2 4824   4.568   6.149   3.096
 1309SOL     OW 4825   5.511   2.895   4.878
 1309SOL    HW1 4826   5.473   2.807   4.853
 1309SOL    HW2 4827   5.466   2.929   4.961
 1310SOL     OW 4828   5.470   3.625   5.258
 1310SOL    HW1 4829   5.481   3.722   5.233
 1310SOL    HW2 4830   5.376   3.596   5.239
 1311SOL     OW 4831   5.318   5.050   5.037
 1311SOL    HW1 4832   5.286   5.132   5.084
 1311SOL    HW2 4833   5.407   5.022   5.073
 1312SOL     OW 4834   5.987   0.074   2.508
 1312SOL    HW1 4835   6.085   0.061   2.493
 1312SOL    HW2 4836   5.966   0.064   2.605
 1313SOL     OW 4837   3.109   4.945   4.800
 1313SOL    HW1 4838   3.090   4.864   4.855
 1313SOL    HW2 4839   3.207   4.949   4.780
 1314SOL     OW 4840   5.925   1.775   5.600
 1314SOL    HW1 4841   5.940   1.874   5.591
 1314SOL    HW2 4842   5.982   1.739   5.674
 1315SOL     OW 4843   2.515   6.932   3.450
 1315SOL    HW1 4844   2.461   6.884   3.381
 1315SOL    HW2 4845   2.504   0.004   3.438
 1316SOL     OW 4846   3.674   6.383   2.905
 1316SOL    HW1 4847   3.585   6.338   2.917
 1316SOL    HW2 4848   3.661   6.482   2.907
 1317SOL     OW 4849   0.343   3.694   4.185
 1317SOL    HW1 4850   0.398   3.647   4.253
 1317SOL    HW2 4851   0.268   3.635   4.155
 1318SOL     OW 4852   0.746   6.349   1.365
 1318SOL    HW1 4853   0.840   6.358   1.399
 1318SOL    HW2 4854   0.692   6.297   1.431
 1319SOL     OW 4855   6.704   0.501   0.139
 1319SOL    HW1 4856   6.605   0.510   0.139
 1319SOL    HW2 4857   6.729   0.406   0.119
 1320SOL     OW 4858   5.442   6.176   5.328
 1320SOL    HW1 4859   5.523   6.145   5.278
 1320SOL    HW2 4860   5.366   6.112   5.312
 1321SOL     OW 4861   3.149   1.622   6.579
 1321SOL    HW1 4862   3.172   1.526   6.596
 1321SOL    HW2 4863   3.187   1.679   6.653
 1322SOL     OW 4864   5.106   1.842   6.141
 1322SOL    HW1 4865   5.176   1.905   6.107
 1322SOL    HW2 4866   5.030   1.894   6.179
 1323SOL     OW 4867   5.985   1.379   4.502
 1323SOL    HW1 4868   6.029   1.406   4.588
 1323SOL    HW2 4869   6.050   1.389   4.427
 1324SOL     OW 4870   1.212   3.306   6.989
 1324SOL    HW1 4871   1.234   3.342   6.898
 1324SOL    HW2 4872   1.113   3.312   7.004
 1325SOL     OW 4873   3.864   5.270   3.593
 1325SOL    HW1 4874   3.866   5.207   3.514
 1325SOL    HW2 4875   3.940   5.334   3.586
 1326SOL     OW 4876   5.127   4.095   4.242
 1326SOL    HW1 4877   5.043   4.055   4.278
 1326SOL    HW2 4878   5.118   4.194   4.241
 1327SOL     OW 4879   3.121   5.880   4.230
 1327SOL    HW1 4880   3.180   5.826   4.170
 1327SOL    HW2 4881   3.040   5.910   4.180
 1328SOL     OW 4882   2.180   1.354   0.594
 1328SOL    HW1 4883   2.183   1.420   0.519
 1328SOL    HW2 4884   2.192   1.402   0.681
 1329SOL     OW 4885   0.677   0.006   1.686
 1329SOL    HW1 4886   0.607   6.968   1.715
 1329SOL    HW2 4887   0.685   0.078   1.755
 1330SOL     OW 4888   4.549   6.537   1.056
 1330SOL    HW1 4889   4.520   6.544   0.961
 1330SOL    HW2 4890   4.550   6.441   1.084
 1331SOL     OW 4891   6.722   1.746   2.175
 1331SOL    HW1 4892   6.806   1.764   2.124
 1331SOL    HW2 4893   6.645   1.739   2.111
 1332SOL     OW 4894   4.154   2.174   1.044
 1332SOL    HW1 4895   4.224   2.149   1.111
 1332SOL    HW2 4896   4.178   2.136   0.955
 1333SOL     OW 4897   4.077   3.881   4.432
 1333SOL    HW1 4898   4.073   3.782   4.445
 1333SOL    HW2 4899   4.061   3.927   4.519
 1334SOL     OW 4900   0.464   3.878   3.812
 1334SOL    HW1 4901   0.541   3.837   3.762
 1334SOL    HW2 4902   0.436   3.963   3.767
 1335SOL     OW 4903   2.711   5.491   1.980
 1335SOL    HW1 4904   2.784   5.483   1.912
 1335SOL    HW2 4905   2.737   5.440   2.062
 1336SOL     OW 4906   0.537   0.883   4.824
 1336SOL    HW1 4907   0.511   0.973   4.859
 1336SOL    HW2 4908   0.530   0.815   4.897
 1337SOL     OW 4909   3.434   0.624   6.646
 1337SOL    HW1 4910   3.513   0.585   6.599
 1337SOL    HW2 4911   3.369   0.552   6.670
 1338SOL     OW 4912   3.406   5.553   1.468
 1338SOL    HW1 4913   3.387   5.551   1.566
 1338SOL    HW2 4914   3.329   5.514   1.418
 1339SOL     OW 4915   0.340   4.722   6.501
 1339SOL    HW1 4916   0.330   4.731   6.402
 1339SOL    HW2 4917   0.263   4.670   6.538
 1340SOL     OW 4918   1.938   0.940   6.415
 1340SOL    HW1 4919   1.878   1.000   6.468
 1340SOL    HW2 4920   1.886   0.862   6.380
 1341SOL     OW 4921   6.284   2.762   4.006
 1341SOL    HW1 4922   6.238   2.688   3.957
 1341SOL    HW2 4923   6.363   2.726   4.055
 1342SOL     OW 4924   0.569   6.326   1.881
 1342SOL    HW1 4925   0.661   6.343   1.919
 1342SOL    HW2 4926   0.565   6.360   1.788
 1343SOL     OW 4927   2.993   5.761   3.792
 1343SOL    HW1 4928   2.960   5.669   3.813
 1343SOL    HW2 4929   3.093   5.763   3.798
 1344SOL     OW 4930   5.003   1.286   2.998
 1344SOL    HW1 4931   4.925   1.348   3.014
 1344SOL    HW2 4932   5.082   1.319   3.049
 1345SOL     OW 4933   1.022   6.176   3.010
 1345SOL    HW1 4934   1.060   6.200   3.099
 1345SOL    HW2 4935   1.070   6.227   2.938
 1346SOL     OW 4936   0.324   1.024   3.858
 1346SOL    HW1 4937   0.358   1.002   3.949
 1346SOL    HW2 4938   0.397   1.068   3.805
 1347SOL     OW 4939   4.933   0.590   3.553
 1347SOL    HW1 4940   4.986   0.513   3.517
 1347SOL    HW2 4941   4.994   0.651   3.604
 1348SOL     OW 4942   4.657   5.894   4.577
 1348SOL    HW1 4943   4.713   5.971   4.608
 1348SOL    HW2 4944   4.713   5.833   4.521
 1349SOL     OW 4945   4.764   2.308   0.198
 1349SOL    HW1 4946   4.768   2.283   0.294
 1349SOL    HW2 4947   4.682   2.361   0.180
 1350SOL     OW 4948   3.483   0.430   4.995
 1350SOL    HW1 4949   3.566   0.485   4.981
 1350SOL    HW2 4950   3.419   0.480   5.053
 1351SOL     OW 4951   1.050   1.448   4.298
 1351SOL    HW1 4952   1.048   1.504   4.382
 1351SOL    HW2 4953   1.013   1.358   4.318
 1352SOL     OW 4954   0.584   6.579   4.055
 1352SOL    HW1 4955   0.600   6.503   3.991
 1352SOL    HW2 4956   0.659   6.581   4.122
 1353SOL     OW 4957   2.186   2.632   4.824
 1353SOL    HW1 4958   2.118   2.571   4.865
 1353SOL    HW2 4959   2.158   2.655   4.731
 1354SOL     OW 4960   0.429   0.225   0.687
 1354SOL    HW1 4961   0.413   0.178   0.774
 1354SOL    HW2 4962   0.343   0.259   0.651
 1355SOL     OW 4963   3.916   3.137   6.934
 1355SOL    HW1 4964   3.902   3.223   6.885
 1355SOL    HW2 4965   3.827   3.099   6.962
 1356SOL     OW 4966   3.204   2.750   1.801
 1356SOL    HW1 4967   3.164   2.726   1.889
 1356SOL    HW2 4968   3.166   2.837   1.770
 1357SOL     OW 4969   2.677   2.804   5.713
 1357SOL    HW1 4970   2.671   2.869   5.788
 1357SOL    HW2 4971   2.650   2.849   5.628
 1358SOL     OW 4972   1.988   3.794   5.900
 1358SOL    HW1 4973   1.894   3.815   5.929
 1358SOL    HW2 4974   2.040   3.878   5.892
 1359SOL     OW 4975   6.812   1.270   0.225
 1359SOL    HW1 4976   6.712   1.275   0.237
 1359SOL    HW2 4977   6.836   1.298   0.132
 1360SOL     OW 4978   3.477   2.876   3.778
 1360SOL    HW1 4979   3.548   2.806   3.768
 1360SOL    HW2 4980   3.481   2.916   3.869
 1361SOL     OW 4981   0.891   6.226   1.156
 1361SOL    HW1 4982   0.813   6.267   1.205
 1361SOL    HW2 4983   0.918   6.287   1.081
 1362SOL     OW 4984   3.072   1.824   6.415
 1362SOL    HW1 4985   3.030   1.895   6.472
 1362SOL    HW2 4986   3.088   1.742   6.471
 1363SOL     OW 4987   6.681   6.945   0.996
 1363SOL    HW1 4988   6.623   7.025   1.014
 1363SOL    HW2 4989   6.756   6.943   1.062
 1364SOL     OW 4990   1.171   3.763   1.122
 1364SOL    HW1 4991   1.209   3.673   1.102
 1364SOL    HW2 4992   1.245   3.829   1.133
 1365SOL     OW 4993   0.989   3.854   5.178
 1365SOL    HW1 4994   0.892   3.875   5.193
 1365SOL    HW2 4995   1.043   3.894   5.251
 1366SOL     OW 4996   3.812   0.494   1.520
 1366SOL    HW1 4997   3.804   0.585   1.560
 1366SOL    HW2 4998   3.726   0.471   1.475
 1367SOL     OW 4999   1.721   0.066   4.616
 1367SOL    HW1 5000   1.699   7.021   4.551
 1367SOL    HW2 5001   1.769   0.026   4.694
 1368SOL     OW 5002   1.685   6.601   4.663
 1368SOL    HW1 5003   1.735   6.676   4.706
 1368SOL    HW2 5004   1.645   6.543   4.733
 1369SOL     OW 5005   2.397   5.432   3.729
 1369SOL    HW1 5006   2.311   5.447   3.778
 1369SOL    HW2 5007   2.473   5.461   3.786
 1370SOL     OW 5008   6.874   2.539   2.928
 1370SOL    HW1 5009   6.797   2.583   2.974
 1370SOL    HW2 5010   6.852   2.443   2.910
 1371SOL     OW 5011   6.226   2.410   5.588
 1371SOL    HW1 5012   6.199   2.464   5.509
 1371SOL    HW2 5013   6.269   2.324   5.558
 1372SOL     OW 5014   5.922   2.922   1.414
 1372SOL    HW1 5015   5.860   2.974   1.473
 1372SOL    HW2 5016   5.935   2.831   1.451
 1373SOL     OW 5017   6.041   3.193   2.152
 1373SOL    HW1 5018   6.016   3.118   2.213
 1373SOL    HW2 5019   6.079   3.155   2.067
 1374SOL     OW 5020   3.816   3.210   2.070
 1374SOL    HW1 5021   3.749   3.136   2.067
 1374SOL    HW2 5022   3.904   3.173   2.101
 1375SOL     OW 5023   5.355   4.456   4.592
 1375SOL    HW1 5024   5.316   4.527   4.650
 1375SOL    HW2 5025   5.362   4.371   4.644
 1376SOL     OW 5026   3.061   4.666   5.858
 1376SOL    HW1 5027   2.993   4.593   5.846
 1376SOL    HW2 5028   3.153   4.628   5.846
 1377SOL     OW 5029   2.149   1.810   2.717
 1377SOL    HW1 5030   2.104   1.880   2.661
 1377SOL    HW2 5031   2.214   1.759   2.660
 1378SOL     OW 5032   5.472   2.344   4.272
 1378SOL    HW1 5033   5.417   2.428   4.268
 1378SOL    HW2 5034   5.465   2.304   4.363
 1379SOL     OW 5035   4.468   5.603   7.015
 1379SOL    HW1 5036   4.524   5.519   7.014
 1379SOL    HW2 5037   4.384   5.586   0.039
 1380SOL     OW 5038   0.279   5.830   2.859
 1380SOL    HW1 5039   0.355   5.875   2.907
 1380SOL    HW2 5040   0.248   5.890   2.785
 1381SOL     OW 5041   6.316   2.560   6.148
 1381SOL    HW1 5042   6.359   2.480   6.191
 1381SOL    HW2 5043   6.317   2.637   6.213
 1382SOL     OW 5044   5.014   2.546   6.959
 1382SOL    HW1 5045   4.959   2.623   6.991
 1382SOL    HW2 5046   5.083   2.524   0.001
 1383SOL     OW 5047   6.783   0.621   0.721
 1383SOL    HW1 5048   6.795   0.534   0.768
 1383SOL    HW2 5049   6.688   0.650   0.728
 1384SOL     OW 5050   5.808   2.046   2.065
 1384SOL    HW1 5051   5.855   1.962   2.039
 1384SOL    HW2 5052   5.727   2.024   2.120
 1385SOL     OW 5053   0.520   6.218   1.476
 1385SOL    HW1 5054   0.526   6.310   1.515
 1385SOL    HW2 5055   0.460   6.220   1.396
 1386SOL     OW 5056   2.229   5.575   4.429
 1386SOL    HW1 5057   2.291   5.502   4.457
 1386SOL    HW2 5058   2.165   5.541   4.361
 1387SOL     OW 5059   2.223   5.736   1.803
 1387SOL    HW1 5060   2.204   5.645   1.840
 1387SOL    HW2 5061   2.318   5.761   1.822
 1388SOL     OW 5062   6.359   0.121   2.080
 1388SOL    HW1 5063   6.387   0.152   2.171
 1388SOL    HW2 5064   6.435   0.129   2.016
 1389SOL     OW 5065   5.977   1.074   2.445
 1389SOL    HW1 5066   6.033   1.073   2.362
 1389SOL    HW2 5067   6.032   1.042   2.522
 1390SOL     OW 5068   1.562   1.852   4.865
 1390SOL    HW1 5069   1.583   1.755   4.877
 1390SOL    HW2 5070   1.482   1.862   4.806
 1391SOL     OW 5071   0.193   2.854   3.485
 1391SOL    HW1 5072   0.253   2.786   3.445
 1391SOL    HW2 5073   0.109   2.811   3.517
 1392SOL     OW 5074   5.003   4.351   4.214
 1392SOL    HW1 5075   5.048   4.406   4.285
 1392SOL    HW2 5076   4.935   4.292   4.257
 1393SOL     OW 5077   3.370   5.601   6.449
 1393SOL    HW1 5078   3.292   5.612   6.510
 1393SOL    HW2 5079   3.454   5.598   6.502
 1394SOL     OW 5080   1.634   6.154   6.743
 1394SOL    HW1 5081   1.710   6.095   6.716
 1394SOL    HW2 5082   1.631   6.234   6.683
 1395SOL     OW 5083   3.659   4.898   5.909
 1395SOL    HW1 5084   3.656   4.964   5.833
 1395SOL    HW2 5085   3.701   4.941   5.989
 1396SOL     OW 5086   6.291   6.225   3.788
 1396SOL    HW1 5087   6.265   6.206   3.883
 1396SOL    HW2 5088   6.353   6.303   3.787
 1397SOL     OW 5089   4.427   6.112   5.708
 1397SOL    HW1 5090   4.375   6.192   5.737
 1397SOL    HW2 5091   4.436   6.112   5.609
 1398SOL     OW 5092   2.174   1.034   4.561
 1398SOL    HW1 5093   2.076   1.013   4.565
 1398SOL    HW2 5094   2.189   1.129   4.587
 1399SOL     OW 5095   2.985   6.091   2.152
 1399SOL    HW1 5096   3.007   5.999   2.185
 1399SOL    HW2 5097   3.002   6.096   2.054
 1400SOL     OW 5098   2.182   6.488   2.492
 1400SOL    HW1 5099   2.197   6.562   2.557
 1400SOL    HW2 5100   2.122   6.419   2.534
 1401SOL     OW 5101   6.660   1.578   4.249
 1401SOL    HW1 5102   6.710   1.492   4.257
 1401SOL    HW2 5103   6.639   1.596   4.152
 1402SOL     OW 5104   6.813   3.318   0.340
 1402SOL    HW1 5105   6.780   3.368   0.421
 1402SOL    HW2 5106   6.827   3.222   0.364
 1403SOL     OW 5107   3.346   0.412   2.095
 1403SOL    HW1 5108   3.303   0.415   2.185
 1403SOL    HW2 5109   3.441   0.441   2.103
 1404SOL     OW 5110   5.477   1.522   0.604
 1404SOL    HW1 5111   5.539   1.450   0.636
 1404SOL    HW2 5112   5.470   1.593   0.674
 1405SOL     OW 5113   3.438   2.905   1.120
 1405SOL    HW1 5114   3.509   2.836   1.107
 1405SOL    HW2 5115   3.352   2.860   1.146
 1406SOL     OW 5116   1.740   4.519   1.275
 1406SOL    HW1 5117   1.836   4.501   1.256
 1406SOL    HW2 5118   1.731   4.600   1.333
 1407SOL     OW 5119   6.433   2.316   2.899
 1407SOL    HW1 5120   6.443   2.378   2.821
 1407SOL    HW2 5121   6.496   2.343   2.972
 1408SOL     OW 5122   6.298   0.330   6.021
 1408SOL    HW1 5123   6.226   0.398   6.031
 1408SOL    HW2 5124   6.295   0.291   5.929
 1409SOL     OW 5125   0.408   1.553   3.982
 1409SOL    HW1 5126   0.382   1.459   4.005
 1409SOL    HW2 5127   0.475   1.552   3.908
 1410SOL     OW 5128   6.803   2.836   6.796
 1410SOL    HW1 5129   6.744   2.817   6.875
 1410SOL    HW2 5130   6.770   2.919   6.750
 1411SOL     OW 5131   1.835   0.374   1.610
 1411SOL    HW1 5132   1.817   0.291   1.662
 1411SOL    HW2 5133   1.749   0.424   1.597
 1412SOL     OW 5134   1.171   2.877   0.110
 1412SOL    HW1 5135   1.242   2.878   0.039
 1412SOL    HW2 5136   1.088   2.920   0.074
 1413SOL     OW 5137   3.336   0.200   3.715
 1413SOL    HW1 5138   3.385   0.219   3.800
 1413SOL    HW2 5139   3.336   0.282   3.658
 1414SOL     OW 5140   3.142   0.971   1.848
 1414SOL    HW1 5141   3.093   0.901   1.797
 1414SOL    HW2 5142   3.093   0.991   1.933
 1415SOL     OW 5143   4.235   6.059   5.938
 1415SOL    HW1 5144   4.198   5.969   5.916
 1415SOL    HW2 5145   4.299   6.088   5.867
 1416SOL     OW 5146   4.601   5.564   3.133
 1416SOL    HW1 5147   4.519   5.615   3.107
 1416SOL    HW2 5148   4.574   5.481   3.183
 1417SOL     OW 5149   3.416   2.796   6.411
 1417SOL    HW1 5150   3.373   2.708   6.427
 1417SOL    HW2 5151   3.361   2.849   6.346
 1418SOL     OW 5152   3.133   3.974   2.721
 1418SOL    HW1 5153   3.154   4.072   2.711
 1418SOL    HW2 5154   3.076   3.945   2.644
 1419SOL     OW 5155   4.443   6.069   4.537
 1419SOL    HW1 5156   4.508   5.993   4.536
 1419SOL    HW2 5157   4.461   6.129   4.614
 1420SOL     OW 5158   7.006   5.342   1.969
 1420SOL    HW1 5159   6.982   5.417   2.030
 1420SOL    HW2 5160   6.923   5.298   1.935
 1421SOL     OW 5161   3.595   1.083   2.841
 1421SOL    HW1 5162   3.584   1.064   2.744
 1421SOL    HW2 5163   3.692   1.088   2.864
 1422SOL     OW 5164   2.706   6.440   0.071
 1422SOL    HW1 5165   2.680   6.454   7.002
 1422SOL    HW2 5166   2.806   6.440   0.079
 1423SOL     OW 5167   4.879   0.261   2.574
 1423SOL    HW1 5168   4.939   0.308   2.509
 1423SOL    HW2 5169   4.787   0.253   2.535
 1424SOL     OW 5170   6.554   4.987   2.804
 1424SOL    HW1 5171   6.597   4.971   2.893
 1424SOL    HW2 5172   6.465   5.030   2.817
 1425SOL     OW 5173   1.884   6.987   4.809
 1425SOL    HW1 5174   1.930   6.918   4.864
 1425SOL    HW2 5175   1.886   0.048   4.857
 1426SOL     OW 5176   1.814   1.207   5.614
 1426SOL    HW1 5177   1.892   1.269   5.611
 1426SOL    HW2 5178   1.798   1.177   5.708
 1427SOL     OW 5179   6.216   0.832   4.810
 1427SOL    HW1 5180   6.216   0.733   4.794
 1427SOL    HW2 5181   6.249   0.851   4.902
 1428SOL     OW 5182   5.570   1.380   0.036
 1428SOL    HW1 5183   5.592   1.393   0.133
 1428SOL    HW2 5184   5.641   1.424   7.008
 1429SOL     OW 5185   5.380   0.112   0.270
 1429SOL    HW1 5186   5.441   0.145   0.343
 1429SOL    HW2 5187   5.397   0.165   0.187
 1430SOL     OW 5188   1.803   4.706   3.652
 1430SOL    HW1 5189   1.859   4.758   3.587
 1430SOL    HW2 5190   1.840   4.715   3.744
 1431SOL     OW 5191   1.113   0.741   1.245
 1431SOL    HW1 5192   1.057   0.663   1.274
 1431SOL    HW2 5193   1.152   0.722   1.155
 1432SOL     OW 5194   2.901   0.148   1.867
 1432SOL    HW1 5195   2.864   0.196   1.787
 1432SOL    HW2 5196   2.983   0.099   1.841
 1433SOL     OW 5197   4.600   0.531   4.328
 1433SOL    HW1 5198   4.558   0.455   4.279
 1433SOL    HW2 5199   4.536   0.608   4.330
 1434SOL     OW 5200   0.725   0.795   5.228
 1434SOL    HW1 5201   0.792   0.865   5.253
 1434SOL    HW2 5202   0.651   0.794   5.295
 1435SOL     OW 5203   0.303   1.434   3.566
 1435SOL    HW1 5204   0.278   1.531   3.575
 1435SOL    HW2 5205   0.265   1.398   3.481
 1436SOL     OW 5206   4.349   4.280   0.695
 1436SOL    HW1 5207   4.384   4.367   0.662
 1436SOL    HW2 5208   4.419   4.209   0.682
 1437SOL     OW 5209   3.714   1.008   2.327
 1437SOL    HW1 5210   3.738   0.912   2.319
 1437SOL    HW2 5211   3.788   1.064   2.289
 1438SOL     OW 5212   2.088   0.629   1.179
 1438SOL    HW1 5213   2.109   0.596   1.087
 1438SOL    HW2 5214   1.990   0.645   1.187
 1439SOL     OW 5215   0.419   5.643   2.695
 1439SOL    HW1 5216   0.358   5.717   2.722
 1439SOL    HW2 5217   0.376   5.555   2.714
 1440SOL     OW 5218   2.355   3.169   1.667
 1440SOL    HW1 5219   2.299   3.190   1.747
 1440SOL    HW2 5220   2.380   3.072   1.669
 1441SOL     OW 5221   4.943   6.020   1.059
 1441SOL    HW1 5222   4.945   6.074   1.143
 1441SOL    HW2 5223   5.008   6.058   0.993
 1442SOL     OW 5224   5.115   5.635   0.721
 1442SOL    HW1 5225   5.158   5.663   0.807
 1442SOL    HW2 5226   5.103   5.536   0.721
 1443SOL     OW 5227   0.308   2.679   2.894
 1443SOL    HW1 5228   0.217   2.656   2.929
 1443SOL    HW2 5229   0.355   2.737   2.961
 1444SOL     OW 5230   0.504   4.925   6.593
 1444SOL    HW1 5231   0.421   4.980   6.592
 1444SOL    HW2 5232   0.479   4.828   6.597
 1445SOL     OW 5233   1.262   3.717   1.790
 1445SOL    HW1 5234   1.293   3.737   1.697
 1445SOL    HW2 5235   1.172   3.672   1.786
 1446SOL     OW 5236   6.681   6.393   0.776
 1446SOL    HW1 5237   6.749   6.325   0.804
 1446SOL    HW2 5238   6.689   6.474   0.833
 1447SOL     OW 5239   5.455   5.484   4.490
 1447SOL    HW1 5240   5.538   5.481   4.435
 1447SOL    HW2 5241   5.475   5.525   4.579
 1448SOL     OW 5242   0.857   2.630   5.645
 1448SOL    HW1 5243   0.823   2.537   5.655
 1448SOL    HW2 5244   0.797   2.693   5.695
 1449SOL     OW 5245   2.055   3.094   3.098
 1449SOL    HW1 5246   2.091   3.076   3.007
 1449SOL    HW2 5247   2.066   3.191   3.120
 1450SOL     OW 5248   2.836   1.995   3.438
 1450SOL    HW1 5249   2.739   1.984   3.417
 1450SOL    HW2 5250   2.862   2.091   3.425
 1451SOL     OW 5251   2.864   1.248   2.740
 1451SOL    HW1 5252   2.832   1.338   2.769
 1451SOL    HW2 5253   2.964   1.246   2.743
 1452SOL     OW 5254   4.783   3.090   6.703
 1452SOL    HW1 5255   4.863   3.132   6.744
 1452SOL    HW2 5256   4.700   3.125   6.747
 1453SOL     OW 5257   0.028   4.395   5.353
 1453SOL    HW1 5258   0.121   4.389   5.389
 1453SOL    HW2 5259   0.013   4.324   5.285
 1454SOL     OW 5260   3.542   2.043   3.036
 1454SOL    HW1 5261   3.506   2.011   3.124
 1454SOL    HW2 5262   3.626   2.094   3.051
 1455SOL     OW 5263   0.183   5.623   2.104
 1455SOL    HW1 5264   0.186   5.684   2.183
 1455SOL    HW2 5265   0.275   5.607   2.070
 1456SOL     OW 5266   6.368   5.191   4.322
 1456SOL    HW1 5267   6.353   5.262   4.391
 1456SOL    HW2 5268   6.423   5.118   4.362
 1457SOL     OW 5269   1.172   5.240   6.283
 1457SOL    HW1 5270   1.147   5.332   6.311
 1457SOL    HW2 5271   1.271   5.232   6.274
 1458SOL     OW 5272   5.560   4.951   5.146
 1458SOL    HW1 5273   5.593   4.880   5.208
 1458SOL    HW2 5274   5.632   5.020   5.134
 1459SOL     OW 5275   5.964   6.663   5.307
 1459SOL    HW1 5276   5.899   6.641   5.381
 1459SOL    HW2 5277   5.944   6.754   5.272
 1460SOL     OW 5278   1.434   6.612   5.058
 1460SOL    HW1 5279   1.417   6.547   5.132
 1460SOL    HW2 5280   1.348   6.637   5.014
 1461SOL     OW 5281   6.509   2.969   3.900
 1461SOL    HW1 5282   6.533   2.898   3.966
 1461SOL    HW2 5283   6.467   3.047   3.947
 1462SOL     OW 5284   0.168   1.231   1.707
 1462SOL    HW1 5285   0.099   1.195   1.770
 1462SOL    HW2 5286   0.224   1.298   1.755
 1463SOL     OW 5287   2.283   5.597   6.842
 1463SOL    HW1 5288   2.241   5.688   6.830
 1463SOL    HW2 5289   2.214   5.527   6.823
 1464SOL     OW 5290   1.021   4.336   3.902
 1464SOL    HW1 5291   0.998   4.431   3.880
 1464SOL    HW2 5292   1.007   4.279   3.822
 1465SOL     OW 5293   1.274   3.194   4.461
 1465SOL    HW1 5294   1.338   3.258   4.421
 1465SOL    HW2 5295   1.180   3.225   4.443
 1466SOL     OW 5296   5.711   1.738   2.788
 1466SOL    HW1 5297   5.682   1.786   2.705
 1466SOL    HW2 5298   5.717   1.804   2.863
 1467SOL     OW 5299   0.373   0.416   3.703
 1467SOL    HW1 5300   0.393   0.440   3.608
 1467SOL    HW2 5301   0.322   0.491   3.746
 1468SOL     OW 5302   2.941   5.581   2.544
 1468SOL    HW1 5303   2.976   5.562   2.636
 1468SOL    HW2 5304   2.885   5.664   2.546
 1469SOL     OW 5305   5.974   3.928   3.528
 1469SOL    HW1 5306   5.926   3.917   3.441
 1469SOL    HW2 5307   6.015   4.020   3.532
 1470SOL     OW 5308   5.799   1.635   2.273
 1470SOL    HW1 5309   5.709   1.659   2.310
 1470SOL    HW2 5310   5.858   1.716   2.272
 1471SOL     OW 5311   4.615   6.891   0.984
 1471SOL    HW1 5312   4.641   6.987   0.967
 1471SOL    HW2 5313   4.682   6.831   0.941
 1472SOL     OW 5314   1.497   7.011   6.364
 1472SOL    HW1 5315   1.591   6.979   6.358
 1472SOL    HW2 5316   1.480   0.050   6.290
 1473SOL     OW 5317   1.552   5.909   3.654
 1473SOL    HW1 5318   1.626   5.961   3.698
 1473SOL    HW2 5319   1.531   5.828   3.709
 1474SOL     OW 5320   2.722   4.731   1.208
 1474SOL    HW1 5321   2.784   4.810   1.207
 1474SOL    HW2 5322   2.640   4.754   1.261
 1475SOL     OW 5323   5.568   0.580   6.578
 1475SOL    HW1 5324   5.596   0.562   6.484
 1475SOL    HW2 5325   5.497   0.516   6.605
 1476SOL     OW 5326   5.053   0.292   0.004
 1476SOL    HW1 5327   5.072   0.390   0.004
 1476SOL    HW2 5328   5.075   0.253   6.942
 1477SOL     OW 5329   3.387   4.156   1.551
 1477SOL    HW1 5330   3.420   4.080   1.496
 1477SOL    HW2 5331   3.321   4.210   1.498
 1478SOL     OW 5332   4.392   5.583   6.766
 1478SOL    HW1 5333   4.435   5.519   6.702
 1478SOL    HW2 5334   4.438   5.578   6.855
 1479SOL     OW 5335   4.415   3.399   1.634
 1479SOL    HW1 5336   4.368   3.487   1.639
 1479SOL    HW2 5337   4.513   3.413   1.627
 1480SOL     OW 5338   3.228   0.526   4.283
 1480SOL    HW1 5339   3.254   0.574   4.199
 1480SOL    HW2 5340   3.198   0.593   4.351
 1481SOL     OW 5341   4.780   2.691   6.168
 1481SOL    HW1 5342   4.779   2.683   6.268
 1481SOL    HW2 5343   4.715   2.627   6.129
 1482SOL     OW 5344   5.680   1.355   1.233
 1482SOL    HW1 5345   5.771   1.322   1.255
 1482SOL    HW2 5346   5.685   1.423   1.160
 1483SOL     OW 5347   5.975   0.953   0.438
 1483SOL    HW1 5348   5.913   0.877   0.419
 1483SOL    HW2 5349   6.018   0.984   0.353
 1484SOL     OW 5350   3.674   5.089   5.208
 1484SOL    HW1 5351   3.633   5.170   5.250
 1484SOL    HW2 5352   3.773   5.101   5.200
 1485SOL     OW 5353   4.993   2.846   3.514
 1485SOL    HW1 5354   5.035   2.811   3.430
 1485SOL    HW2 5355   5.059   2.838   3.589
 1486SOL     OW 5356   4.597   6.053   3.981
 1486SOL    HW1 5357   4.621   6.150   3.981
 1486SOL    HW2 5358   4.679   5.998   3.964
 1487SOL     OW 5359   6.871   0.993   0.531
 1487SOL    HW1 5360   6.929   1.047   0.469
 1487SOL    HW2 5361   6.920   0.910   0.558
 1488SOL     OW 5362   6.415   1.810   2.737
 1488SOL    HW1 5363   6.436   1.824   2.640
 1488SOL    HW2 5364   6.418   1.712   2.758
 1489SOL     OW 5365   3.076   4.653   0.340
 1489SOL    HW1 5366   3.134   4.689   0.268
 1489SOL    HW2 5367   2.984   4.635   0.304
 1490SOL     OW 5368   6.376   2.399   2.183
 1490SOL    HW1 5369   6.400   2.360   2.272
 1490SOL    HW2 5370   6.460   2.421   2.134
 1491SOL     OW 5371   5.865   2.501   3.831
 1491SOL    HW1 5372   5.779   2.547   3.853
 1491SOL    HW2 5373   5.852   2.402   3.834
 1492SOL     OW 5374   6.361   1.511   3.242
 1492SOL    HW1 5375   6.457   1.488   3.227
 1492SOL    HW2 5376   6.311   1.502   3.156
 1493SOL     OW 5377   5.989   1.656   6.101
 1493SOL    HW1 5378   6.018   1.585   6.037
 1493SOL    HW2 5379   5.978   1.743   6.052
 1494SOL     OW 5380   6.830   4.860   6.270
 1494SOL    HW1 5381   6.872   4.817   6.350
 1494SOL    HW2 5382   6.731   4.866   6.284
 1495SOL     OW 5383   6.635   3.926   4.168
 1495SOL    HW1 5384   6.537   3.911   4.158
 1495SOL    HW2 5385   6.672   3.864   4.237
 1496SOL     OW 5386   6.165   6.798   5.975
 1496SOL    HW1 5387   6.126   6.760   6.059
 1496SOL    HW2 5388   6.249   6.748   5.952
 1497SOL     OW 5389   6.279   2.304   2.489
 1497SOL    HW1 5390   6.372   2.267   2.489
 1497SOL    HW2 5391   6.282   2.403   2.483
 1498SOL     OW 5392   3.333   3.803   0.564
 1498SOL    HW1 5393   3.354   3.882   0.507
 1498SOL    HW2 5394   3.373   3.816   0.654
 1499SOL     OW 5395   0.302   4.450   4.226
 1499SOL    HW1 5396   0.226   4.474   4.286
 1499SOL    HW2 5397   0.276   4.372   4.169
 1500SOL     OW 5398   0.490   5.784   2.260
 1500SOL    HW1 5399   0.391   5.790   2.272
 1500SOL    HW2 5400   0.513   5.795   2.163
 1501SOL     OW 5401   6.295   1.670   0.532
 1501SOL    HW1 5402   6.380   1.636   0.572
 1501SOL    HW2 5403   6.267   1.609   0.457
 1502SOL     OW 5404   6.578   0.368   6.135
 1502SOL    HW1 5405   6.478   0.362   6.137
 1502SOL    HW2 5406   6.617   0.283   6.171
 1503SOL     OW 5407   0.572   4.865   1.377
 1503SOL    HW1 5408   0.582   4.920   1.460
 1503SOL    HW2 5409   0.486   4.888   1.332
 1504SOL     OW 5410   2.130   6.750   2.693
 1504SOL    HW1 5411   2.078   6.758   2.608
 1504SOL    HW2 5412   2.077   6.698   2.759
 1505SOL     OW 5413   6.292   5.349   5.137
 1505SOL    HW1 5414   6.199   5.377   5.157
 1505SOL    HW2 5415   6.356   5.405   5.190
 1506SOL     OW 5416   0.851   1.148   0.610
 1506SOL    HW1 5417   0.831   1.234   0.563
 1506SOL    HW2 5418   0.947   1.124   0.597
 1507SOL     OW 5419   2.230   2.639   3.551
 1507SOL    HW1 5420   2.187   2.596   3.631
 1507SOL    HW2 5421   2.210   2.584   3.470
 1508SOL     OW 5422   2.083   1.122   1.361
 1508SOL    HW1 5423   2.172   1.155   1.393
 1508SOL    HW2 5424   2.038   1.193   1.308
 1509SOL     OW 5425   5.461   1.073   4.400
 1509SOL    HW1 5426   5.521   1.053   4.477
 1509SOL    HW2 5427   5.390   1.003   4.395
 1510SOL     OW 5428   3.465   6.086   5.025
 1510SOL    HW1 5429   3.498   6.007   4.974
 1510SOL    HW2 5430   3.374   6.068   5.062
 1511SOL     OW 5431   3.150   3.758   5.135
 1511SOL    HW1 5432   3.056   3.773   5.103
 1511SOL    HW2 5433   3.147   3.723   5.229
 1512SOL     OW 5434   5.647   6.585   0.817
 1512SOL    HW1 5435   5.607   6.522   0.884
 1512SOL    HW2 5436   5.599   6.574   0.730
 1513SOL     OW 5437   2.248   0.002   5.857
 1513SOL    HW1 5438   2.282   0.035   5.945
 1513SOL    HW2 5439   2.321   6.977   5.811
 1514SOL     OW 5440   2.956   2.881   6.331
 1514SOL    HW1 5441   3.019   2.937   6.277
 1514SOL    HW2 5442   2.924   2.804   6.275
 1515SOL     OW 5443   4.374   0.585   2.292
 1515SOL    HW1 5444   4.378   0.678   2.328
 1515SOL    HW2 5445   4.283   0.567   2.255
 1516SOL     OW 5446   5.976   6.984   5.480
 1516SOL    HW1 5447   5.879   6.968   5.460
 1516SOL    HW2 5448   5.998   6.946   5.570
 1517SOL     OW 5449   3.384   6.633   3.971
 1517SOL    HW1 5450   3.453   6.578   3.924
 1517SOL    HW2 5451   3.305   6.576   3.995
 1518SOL     OW 5452   0.576   3.374   6.378
 1518SOL    HW1 5453   0.565   3.344   6.473
 1518SOL    HW2 5454   0.573   3.295   6.317
 1519SOL     OW 5455   6.664   5.058   0.213
 1519SOL    HW1 5456   6.567   5.070   0.233
 1519SOL    HW2 5457   6.716   5.059   0.298
 1520SOL     OW 5458   0.754   6.271   3.295
 1520SOL    HW1 5459   0.828   6.225   3.344
 1520SOL    HW2 5460   0.734   6.221   3.211
 1521SOL     OW 5461   2.103   5.241   6.181
 1521SOL    HW1 5462   2.107   5.312   6.251
 1521SOL    HW2 5463   2.186   5.244   6.126
 1522SOL     OW 5464   6.176   5.877   4.000
 1522SOL    HW1 5465   6.270   5.897   4.028
 1522SOL    HW2 5466   6.171   5.876   3.901
 1523SOL     OW 5467   3.327   6.012   0.809
 1523SOL    HW1 5468   3.231   5.983   0.808
 1523SOL    HW2 5469   3.337   6.095   0.754
 1524SOL     OW 5470   2.132   1.594   3.487
 1524SOL    HW1 5471   2.080   1.522   3.442
 1524SOL    HW2 5472   2.219   1.556   3.519
 1525SOL     OW 5473   5.514   4.639   0.034
 1525SOL    HW1 5474   5.608   4.669   0.016
 1525SOL    HW2 5475   5.508   4.540   0.026
 1526SOL     OW 5476   1.080   1.703   0.909
 1526SOL    HW1 5477   1.101   1.637   0.837
 1526SOL    HW2 5478   1.160   1.716   0.967
 1527SOL     OW 5479   4.373   1.930   3.694
 1527SOL    HW1 5480   4.406   1.983   3.616
 1527SOL    HW2 5481   4.444   1.926   3.765
 1528SOL     OW 5482   3.291   3.667   2.286
 1528SOL    HW1 5483   3.335   3.614   2.214
 1528SOL    HW2 5484   3.341   3.656   2.372
 1529SOL     OW 5485   4.527   1.835   6.103
 1529SOL    HW1 5486   4.611   1.827   6.049
 1529SOL    HW2 5487   4.548   1.883   6.189
 1530SOL     OW 5488   2.507   6.468   0.963
 1530SOL    HW1 5489   2.538   6.564   0.961
 1530SOL    HW2 5490   2.430   6.457   0.901
 1531SOL     OW 5491   4.779   5.908   4.209
 1531SOL    HW1 5492   4.812   5.837   4.272
 1531SOL    HW2 5493   4.712   5.868   4.147
 1532SOL     OW 5494   2.999   5.413   0.298
 1532SOL    HW1 5495   3.024   5.327   0.341
 1532SOL    HW2 5496   3.049   5.488   0.342
 1533SOL     OW 5497   5.598   5.779   1.380
 1533SOL    HW1 5498   5.519   5.835   1.355
 1533SOL    HW2 5499   5.567   5.685   1.400
 1534SOL     OW 5500   2.817   4.551   6.690
 1534SOL    HW1 5501   2.887   4.522   6.754
 1534SOL    HW2 5502   2.858   4.606   6.618
 1535SOL     OW 5503   5.584   4.541   3.751
 1535SOL    HW1 5504   5.593   4.632   3.791
 1535SOL    HW2 5505   5.494   4.503   3.773
 1536SOL     OW 5506   5.027   3.743   6.714
 1536SOL    HW1 5507   4.954   3.800   6.676
 1536SOL    HW2 5508   5.104   3.801   6.741
 1537SOL     OW 5509   3.073   5.473   2.776
 1537SOL    HW1 5510   3.102   5.380   2.798
 1537SOL    HW2 5511   3.055   5.524   2.860
 1538SOL     OW 5512   2.793   1.642   0.676
 1538SOL    HW1 5513   2.860   1.612   0.608
 1538SOL    HW2 5514   2.823   1.728   0.717
 1539SOL     OW 5515   5.799   3.365   0.995
 1539SOL    HW1 5516   5.784   3.457   0.960
 1539SOL    HW2 5517   5.885   3.328   0.957
 1540SOL     OW 5518   3.231   0.077   3.246
 1540SOL    HW1 5519   3.133   0.087   3.228
 1540SOL    HW2 5520   3.245   0.026   3.330
 1541SOL     OW 5521   4.159   3.104   5.931
 1541SOL    HW1 5522   4.086   3.108   6.000
 1541SOL    HW2 5523   4.247   3.119   5.975
 1542SOL     OW 5524   0.241   5.990   2.653
 1542SOL    HW1 5525   0.245   6.004   2.554
 1542SOL    HW2 5526   0.275   6.071   2.700
 1543SOL     OW 5527   3.067   5.166   0.381
 1543SOL    HW1 5528   3.106   5.120   0.461
 1543SOL    HW2 5529   2.994   5.110   0.342
 1544SOL     OW 5530   3.886   3.556   3.910
 1544SOL    HW1 5531   3.820   3.520   3.975
 1544SOL    HW2 5532   3.859   3.532   3.817
 1545SOL     OW 5533   5.670   5.796   1.643
 1545SOL    HW1 5534   5.744   5.729   1.644
 1545SOL    HW2 5535   5.658   5.831   1.550
 1546SOL     OW 5536   5.739   6.144   6.060
 1546SOL    HW1 5537   5.723   6.046   6.045
 1546SOL    HW2 5538   5.834   6.159   6.086
 1547SOL     OW 5539   1.870   3.227   6.784
 1547SOL    HW1 5540   1.914   3.239   6.873
 1547SOL    HW2 5541   1.778   3.266   6.786
 1548SOL     OW 5542   6.866   2.445   0.484
 1548SOL    HW1 5543   6.831   2.376   0.420
 1548SOL    HW2 5544   6.804   2.523   0.486
 1549SOL     OW 5545   5.175   1.144   4.598
 1549SOL    HW1 5546   5.231   1.078   4.648
 1549SOL    HW2 5547   5.112   1.190   4.662
 1550SOL     OW 5548   3.925   3.110   4.279
 1550SOL    HW1 5549   4.000   3.057   4.318
 1550SOL    HW2 5550   3.838   3.076   4.314
 1551SOL     OW 5551   6.868   4.982   5.507
 1551SOL    HW1 5552   6.831   4.917   5.441
 1551SOL    HW2 5553   6.967   4.974   5.510
 1552SOL     OW 5554   1.853   4.015   0.946
 1552SOL    HW1 5555   1.911   4.089   0.912
 1552SOL    HW2 5556   1.852   4.017   1.046
 1553SOL     OW 5557   2.079   1.570   5.971
 1553SOL    HW1 5558   2.172   1.536   5.961
 1553SOL    HW2 5559   2.082   1.663   6.007
 1554SOL     OW 5560   3.733   2.012   3.914
 1554SOL    HW1 5561   3.656   2.039   3.858
 1554SOL    HW2 5562   3.708   2.018   4.011
 1555SOL     OW 5563   6.029   4.843   5.967
 1555SOL    HW1 5564   5.993   4.914   5.906
 1555SOL    HW2 5565   5.979   4.845   6.053
 1556SOL     OW 5566   2.069   0.464   5.889
 1556SOL    HW1 5567   2.064   0.534   5.960
 1556SOL    HW2 5568   2.149   0.481   5.832
 1557SOL     OW 5569   0.095   2.662   5.070
 1557SOL    HW1 5570   0.134   2.591   5.130
 1557SOL    HW2 5571   7.023   2.659   5.075
 1558SOL     OW 5572   0.352   0.001   4.775
 1558SOL    HW1 5573   0.372   6.947   4.831
 1558SOL    HW2 5574   0.268   0.044   4.808
 1559SOL     OW 5575   1.362   1.686   5.890
 1559SOL    HW1 5576   1.317   1.625   5.824
 1559SOL    HW2 5577   1.453   1.651   5.912
 1560SOL     OW 5578   0.028   0.398   6.512
 1560SOL    HW1 5579   0.083   0.427   6.590
 1560SOL    HW2 5580   7.001   0.317   6.538
 1561SOL     OW 5581   5.650   6.106   2.131
 1561SOL    HW1 5582   5.640   6.059   2.043
 1561SOL    HW2 5583   5.733   6.162   2.129
 1562SOL     OW 5584   6.386   0.673   3.814
 1562SOL    HW1 5585   6.481   0.701   3.800
 1562SOL    HW2 5586   6.333   0.750   3.848
 1563SOL     OW 5587   3.654   6.629   5.229
 1563SOL    HW1 5588   3.678   6.695   5.157
 1563SOL    HW2 5589   3.665   6.672   5.318
 1564SOL     OW 5590   0.784   2.173   2.776
 1564SOL    HW1 5591   0.692   2.135   2.786
 1564SOL    HW2 5592   0.781   2.251   2.713
 1565SOL     OW 5593   6.147   4.403   1.247
 1565SOL    HW1 5594   6.157   4.503   1.248
 1565SOL    HW2 5595   6.138   4.369   1.341
 1566SOL     OW 5596   5.923   4.541   3.260
 1566SOL    HW1 5597   5.890   4.464   3.315
 1566SOL    HW2 5598   5.850   4.607   3.246
 1567SOL     OW 5599   6.006   5.823   5.387
 1567SOL    HW1 5600   6.099   5.855   5.405
 1567SOL    HW2 5601   6.004   5.723   5.389
 1568SOL     OW 5602   0.332   6.853   0.006
 1568SOL    HW1 5603   0.242   6.811   0.015
 1568SOL    HW2 5604   0.361   6.850   6.937
 1569SOL     OW 5605   3.270   6.609   5.049
 1569SOL    HW1 5606   3.354   6.556   5.059
 1569SOL    HW2 5607   3.232   6.594   4.957
 1570SOL     OW 5608   3.234   2.236   1.758
 1570SOL    HW1 5609   3.212   2.216   1.854
 1570SOL    HW2 5610   3.151   2.258   1.708
 1571SOL     OW 5611   0.049   3.884   0.833
 1571SOL    HW1 5612   0.076   3.835   0.750
 1571SOL    HW2 5613   0.108   3.965   0.844
 1572SOL     OW 5614   1.555   5.873   2.316
 1572SOL    HW1 5615   1.593   5.940   2.252
 1572SOL    HW2 5616   1.460   5.895   2.334
 1573SOL     OW 5617   4.305   0.505   0.704
 1573SOL    HW1 5618   4.394   0.526   0.743
 1573SOL    HW2 5619   4.304   0.412   0.668
 1574SOL     OW 5620   5.910   2.568   2.388
 1574SOL    HW1 5621   5.872   2.476   2.393
 1574SOL    HW2 5622   5.873   2.623   2.462
 1575SOL     OW 5623   3.087   2.069   0.084
 1575SOL    HW1 5624   3.057   2.098   7.020
 1575SOL    HW2 5625   3.046   1.980   0.106
 1576SOL     OW 5626   6.427   5.643   3.571
 1576SOL    HW1 5627   6.347   5.702   3.563
 1576SOL    HW2 5628   6.452   5.634   3.668
 1577SOL     OW 5629   1.350   0.332   0.245
 1577SOL    HW1 5630   1.413   0.324   0.323
 1577SOL    HW2 5631   1.351   0.246   0.193
 1578SOL     OW 5632   6.003   5.567   4.695
 1578SOL    HW1 5633   6.046   5.630   4.631
 1578SOL    HW2 5634   5.958   5.494   4.644
 1579SOL     OW 5635   0.295   7.004   3.494
 1579SOL    HW1 5636   0.358   0.050   3.520
 1579SOL    HW2 5637   0.268   6.953   3.575
 1580SOL     OW 5638   3.263   3.645   5.845
 1580SOL    HW1 5639   3.287   3.548   5.843
 1580SOL    HW2 5640   3.322   3.695   5.781
 1581SOL     OW 5641   6.375   3.835   4.204
 1581SOL    HW1 5642   6.316   3.825   4.284
 1581SOL    HW2 5643   6.320   3.850   4.123
 1582SOL     OW 5644   6.438   6.217   5.188
 1582SOL    HW1 5645   6.451   6.289   5.119
 1582SOL    HW2 5646   6.380   6.145   5.150
 1583SOL     OW 5647   2.344   1.808   2.260
 1583SOL    HW1 5648   2.347   1.835   2.356
 1583SOL    HW2 5649   2.249   1.812   2.228
 1584SOL     OW 5650   1.870   0.279   6.030
 1584SOL    HW1 5651   1.956   0.301   5.983
 1584SOL    HW2 5652   1.821   0.363   6.051
 1585SOL     OW 5653   5.833   1.271   5.523
 1585SOL    HW1 5654   5.835   1.356   5.471
 1585SOL    HW2 5655   5.914   1.267   5.583
 1586SOL     OW 5656   3.666   4.122   3.108
 1586SOL    HW1 5657   3.644   4.106   3.204
 1586SOL    HW2 5658   3.761   4.094   3.091
 1587SOL     OW 5659   2.431   6.577   6.476
 1587SOL    HW1 5660   2.411   6.537   6.566
 1587SOL    HW2 5661   2.345   6.594   6.427
 1588SOL     OW 5662   5.603   3.911   1.536
 1588SOL    HW1 5663   5.602   3.963   1.622
 1588SOL    HW2 5664   5.655   3.961   1.468
 1589SOL     OW 5665   5.191   4.333   3.090
 1589SOL    HW1 5666   5.273   4.389   3.091
 1589SOL    HW2 5667   5.110   4.391   3.094
 1590SOL     OW 5668   1.808   0.029   5.356
 1590SOL    HW1 5669   1.779   6.961   5.349
 1590SOL    HW2 5670   1.727   0.088   5.367
 1591SOL     OW 5671   0.793   3.787   1.265
 1591SOL    HW1 5672   0.836   3.820   1.349
 1591SOL    HW2 5673   0.849   3.812   1.186
 1592SOL     OW 5674   3.220   3.801   3.589
 1592SOL    HW1 5675   3.260   3.839   3.673
 1592SOL    HW2 5676   3.138   3.853   3.566
 1593SOL     OW 5677   0.936   5.073   4.664
 1593SOL    HW1 5678   0.995   5.058   4.743
 1593SOL    HW2 5679   0.890   4.988   4.639
 1594SOL     OW 5680   1.225   5.058   3.181
 1594SOL    HW1 5681   1.204   4.967   3.216
 1594SOL    HW2 5682   1.323   5.065   3.163
 1595SOL     OW 5683   6.909   5.272   5.651
 1595SOL    HW1 5684   6.853   5.193   5.627
 1595SOL    HW2 5685   6.997   5.266   5.604
 1596SOL     OW 5686   2.937   4.933   0.264
 1596SOL    HW1 5687   3.016   4.956   0.208
 1596SOL    HW2 5688   2.932   4.834   0.277
 1597SOL     OW 5689   2.479   6.999   0.247
 1597SOL    HW1 5690   2.532   0.002   0.326
 1597SOL    HW2 5691   2.492   0.036   0.171
 1598SOL     OW 5692   6.664   5.607   1.733
 1598SOL    HW1 5693   6.660   5.706   1.717
 1598SOL    HW2 5694   6.729   5.565   1.669
 1599SOL     OW 5695   3.348   4.879   0.790
 1599SOL    HW1 5696   3.358   4.894   0.888
 1599SOL    HW2 5697   3.367   4.963   0.740
 1600SOL     OW 5698   3.485   0.892   5.075
 1600SOL    HW1 5699   3.467   0.876   4.978
 1600SOL    HW2 5700   3.402   0.921   5.121
 1601SOL     OW 5701   1.199   5.109   5.117
 1601SOL    HW1 5702   1.203   5.096   5.018
 1601SOL    HW2 5703   1.266   5.049   5.160
 1602SOL     OW 5704   0.415   4.104   2.475
 1602SOL    HW1 5705   0.342   4.090   2.408
 1602SOL    HW2 5706   0.463   4.189   2.455
 1603SOL     OW 5707   5.922   6.275   0.736
 1603SOL    HW1 5708   5.899   6.345   0.669
 1603SOL    HW2 5709   5.929   6.186   0.690
 1604SOL     OW 5710   0.331   5.858   4.996
 1604SOL    HW1 5711   0.374   5.785   5.049
 1604SOL    HW2 5712   0.379   5.944   5.013
 1605SOL     OW 5713   5.265   6.687   3.153
 1605SOL    HW1 5714   5.181   6.741   3.145
 1605SOL    HW2 5715   5.260   6.630   3.235
 1606SOL     OW 5716   5.453   6.734   5.674
 1606SOL    HW1 5717   5.518   6.769   5.741
 1606SOL    HW2 5718   5.459   6.787   5.590
 1607SOL     OW 5719   4.737   3.049   0.708
 1607SOL    HW1 5720   4.772   2.976   0.767
 1607SOL    HW2 5721   4.805   3.122   0.703
 1608SOL     OW 5722   2.189   0.504   0.462
 1608SOL    HW1 5723   2.222   0.592   0.496
 1608SOL    HW2 5724   2.159   0.448   0.539
 1609SOL     OW 5725   5.438   1.074   5.728
 1609SOL    HW1 5726   5.385   1.149   5.689
 1609SOL    HW2 5727   5.515   1.053   5.668
 1610SOL     OW 5728   5.335   6.776   4.174
 1610SOL    HW1 5729   5.420   6.730   4.148
 1610SOL    HW2 5730   5.257   6.725   4.137
 1611SOL     OW 5731   3.902   2.977   1.484
 1611SOL    HW1 5732   3.867   3.020   1.401
 1611SOL    HW2 5733   3.908   2.878   1.471
 1612SOL     OW 5734   3.419   1.099   4.560
 1612SOL    HW1 5735   3.408   1.126   4.464
 1612SOL    HW2 5736   3.431   1.000   4.565
 1613SOL     OW 5737   1.618   6.856   0.949
 1613SOL    HW1 5738   1.582   6.792   0.880
 1613SOL    HW2 5739   1.610   6.815   1.040
 1614SOL     OW 5740   0.955   3.035   6.146
 1614SOL    HW1 5741   0.949   3.055   6.049
 1614SOL    HW2 5742   0.863   3.018   6.182
 1615SOL     OW 5743   6.324   4.833   5.874
 1615SOL    HW1 5744   6.326   4.923   5.830
 1615SOL    HW2 5745   6.232   4.814   5.907
 1616SOL     OW 5746   2.662   1.711   5.492
 1616SOL    HW1 5747   2.694   1.770   5.566
 1616SOL    HW2 5748   2.683   1.753   5.404
 1617SOL     OW 5749   4.426   0.331   4.142
 1617SOL    HW1 5750   4.437   0.254   4.080
 1617SOL    HW2 5751   4.409   0.414   4.090
 1618SOL     OW 5752   5.999   1.967   1.517
 1618SOL    HW1 5753   5.916   1.952   1.571
 1618SOL    HW2 5754   6.063   2.022   1.571
 1619SOL     OW 5755   2.192   2.734   4.368
 1619SOL    HW1 5756   2.234   2.779   4.289
 1619SOL    HW2 5757   2.223   2.779   4.452
 1620SOL     OW 5758   3.501   5.771   1.893
 1620SOL    HW1 5759   3.439   5.850   1.888
 1620SOL    HW2 5760   3.499   5.732   1.985
 1621SOL     OW 5761   1.873   1.806   2.107
 1621SOL    HW1 5762   1.958   1.854   2.129
 1621SOL    HW2 5763   1.800   1.872   2.092
 1622SOL     OW 5764   1.939   2.216   4.881
 1622SOL    HW1 5765   2.006   2.289   4.893
 1622SOL    HW2 5766   1.941   2.155   4.961
 1623SOL     OW 5767   2.837   2.311   4.743
 1623SOL    HW1 5768   2.807   2.316   4.839
 1623SOL    HW2 5769   2.769   2.355   4.685
 1624SOL     OW 5770   2.324   0.747   0.599
 1624SOL    HW1 5771   2.227   0.768   0.612
 1624SOL    HW2 5772   2.369   0.741   0.688
 1625SOL     OW 5773   0.263   5.327   1.925
 1625SOL    HW1 5774   0.168   5.338   1.954
 1625SOL    HW2 5775   0.318   5.402   1.961
 1626SOL     OW 5776   1.958   2.697   5.863
 1626SOL    HW1 5777   2.042   2.715   5.812
 1626SOL    HW2 5778   1.979   2.692   5.960
 1627SOL     OW 5779   5.238   2.920   4.025
 1627SOL    HW1 5780   5.171   2.992   4.043
 1627SOL    HW2 5781   5.327   2.948   4.063
 1628SOL     OW 5782   3.062   3.352   0.216
 1628SOL    HW1 5783   3.060   3.315   0.309
 1628SOL    HW2 5784   3.147   3.402   0.203
 1629SOL     OW 5785   3.469   2.116   2.796
 1629SOL    HW1 5786   3.384   2.168   2.802
 1629SOL    HW2 5787   3.490   2.076   2.885
 1630SOL     OW 5788   6.891   4.906   4.854
 1630SOL    HW1 5789   6.921   4.924   4.948
 1630SOL    HW2 5790   6.915   4.812   4.829
 1631SOL     OW 5791   0.144   6.681   5.707
 1631SOL    HW1 5792   0.153   6.762   5.765
 1631SOL    HW2 5793   0.226   6.624   5.718
 1632SOL     OW 5794   5.035   0.206   0.743
 1632SOL    HW1 5795   4.987   0.291   0.723
 1632SOL    HW2 5796   5.086   0.177   0.662
 1633SOL     OW 5797   5.742   2.880   3.317
 1633SOL    HW1 5798   5.756   2.829   3.402
 1633SOL    HW2 5799   5.716   2.817   3.244
 1634SOL     OW 5800   3.985   0.469   0.228
 1634SOL    HW1 5801   4.081   0.484   0.202
 1634SOL    HW2 5802   3.972   0.496   0.323
 1635SOL     OW 5803   0.729   5.000   4.275
 1635SOL    HW1 5804   0.778   4.931   4.327
 1635SOL    HW2 5805   0.790   5.077   4.257
 1636SOL     OW 5806   2.453   6.506   1.235
 1636SOL    HW1 5807   2.488   6.487   1.142
 1636SOL    HW2 5808   2.523   6.554   1.287
 1637SOL     OW 5809   0.260   2.859   2.678
 1637SOL    HW1 5810   0.276   2.782   2.616
 1637SOL    HW2 5811   0.247   2.825   2.771
 1638SOL     OW 5812   1.289   2.794   5.680
 1638SOL    HW1 5813   1.352   2.749   5.616
 1638SOL    HW2 5814   1.306   2.892   5.680
 1639SOL     OW 5815   5.151   4.459   2.780
 1639SOL    HW1 5816   5.237   4.413   2.757
 1639SOL    HW2 5817   5.082   4.439   2.710
 1640SOL     OW 5818   5.563   0.767   1.278
 1640SOL    HW1 5819   5.540   0.679   1.236
 1640SOL    HW2 5820   5.535   0.841   1.217
 1641SOL     OW 5821   6.748   2.947   5.414
 1641SOL    HW1 5822   6.722   2.856   5.383
 1641SOL    HW2 5823   6.827   2.979   5.362
 1642SOL     OW 5824   0.479   1.832   1.217
 1642SOL    HW1 5825   0.528   1.803   1.135
 1642SOL    HW2 5826   0.462   1.930   1.212
 1643SOL     OW 5827   3.643   0.603   6.229
 1643SOL    HW1 5828   3.715   0.553   6.181
 1643SOL    HW2 5829   3.571   0.627   6.164
 1644SOL     OW 5830   2.994   0.907   0.662
 1644SOL    HW1 5831   3.088   0.908   0.628
 1644SOL    HW2 5832   2.972   0.817   0.699
 1645SOL     OW 5833   1.912   6.305   6.114
 1645SOL    HW1 5834   1.925   6.222   6.169
 1645SOL    HW2 5835   2.002   6.341   6.088
 1646SOL     OW 5836   1.283   3.987   0.100
 1646SOL    HW1 5837   1.239   3.897   0.104
 1646SOL    HW2 5838   1.353   3.993   0.170
 1647SOL     OW 5839   5.926   2.485   3.271
 1647SOL    HW1 5840   5.987   2.423   3.222
 1647SOL    HW2 5841   5.920   2.457   3.367
 1648SOL     OW 5842   4.048   0.130   2.252
 1648SOL    HW1 5843   4.010   0.149   2.161
 1648SOL    HW2 5844   4.030   0.207   2.313
 1649SOL     OW 5845   2.526   6.916   2.959
 1649SOL    HW1 5846   2.555   7.010   2.976
 1649SOL    HW2 5847   2.460   6.915   2.884
 1650SOL     OW 5848   3.555   0.037   3.858
 1650SOL    HW1 5849   3.595   6.999   3.923
 1650SOL    HW2 5850   3.531   0.121   3.906
 1651SOL     OW 5851   1.575   0.222   1.306
 1651SOL    HW1 5852   1.627   0.140   1.331
 1651SOL    HW2 5853   1.535   0.262   1.388
 1652SOL     OW 5854   3.120   3.261   1.641
 1652SOL    HW1 5855   3.066   3.242   1.559
 1652SOL    HW2 5856   3.180   3.340   1.624
 1653SOL     OW 5857   1.172   4.774   0.933
 1653SOL    HW1 5858   1.258   4.820   0.912
 1653SOL    HW2 5859   1.106   4.841   0.968
 1654SOL     OW 5860   0.468   2.132   3.318
 1654SOL    HW1 5861   0.434   2.132   3.224
 1654SOL    HW2 5862   0.554   2.081   3.323
 1655SOL     OW 5863   4.585   4.951   5.719
 1655SOL    HW1 5864   4.552   4.994   5.636
 1655SOL    HW2 5865   4.628   5.019   5.778
 1656SOL     OW 5866   0.453   4.355   3.001
 1656SOL    HW1 5867   0.474   4.304   2.917
 1656SOL    HW2 5868   0.471   4.298   3.081
 1657SOL     OW 5869   0.916   0.694   4.735
 1657SOL    HW1 5870   0.830   0.644   4.721
 1657SOL    HW2 5871   0.928   0.712   4.833
 1658SOL     OW 5872   6.450   6.585   3.012
 1658SOL    HW1 5873   6.463   6.529   2.931
 1658SOL    HW2 5874   6.496   6.543   3.090
 1659SOL     OW 5875   4.897   2.034   6.238
 1659SOL    HW1 5876   4.850   1.994   6.317
 1659SOL    HW2 5877   4.832   2.044   6.162
 1660SOL     OW 5878   1.998   6.088   3.580
 1660SOL    HW1 5879   2.089   6.072   3.616
 1660SOL    HW2 5880   1.949   6.002   3.573
 1661SOL     OW 5881   3.112   7.019   2.909
 1661SOL    HW1 5882   3.129   6.957   2.986
 1661SOL    HW2 5883   3.047   0.062   2.937
 1662SOL     OW 5884   0.290   0.200   2.808
 1662SOL    HW1 5885   0.211   0.259   2.792
 1662SOL    HW2 5886   0.268   0.134   2.880
 1663SOL     OW 5887   2.151   0.076   3.546
 1663SOL    HW1 5888   2.105   0.051   3.631
 1663SOL    HW2 5889   2.170   7.020   3.492
 1664SOL     OW 5890   2.314   5.209   4.223
 1664SOL    HW1 5891   2.215   5.221   4.218
 1664SOL    HW2 5892   2.348   5.175   4.135
 1665SOL     OW 5893   1.079   0.514   4.404
 1665SOL    HW1 5894   1.084   0.433   4.463
 1665SOL    HW2 5895   1.101   0.595   4.458
 1666SOL     OW 5896   5.356   3.625   6.852
 1666SOL    HW1 5897   5.456   3.616   6.845
 1666SOL    HW2 5898   5.327   3.711   6.809
 1667SOL     OW 5899   6.939   0.870   6.627
 1667SOL    HW1 5900   6.948   0.920   6.712
 1667SOL    HW2 5901   6.882   0.922   6.563
 1668SOL     OW 5902   2.205   0.179   5.001
 1668SOL    HW1 5903   2.229   0.274   5.019
 1668SOL    HW2 5904   2.106   0.172   4.985
 1669SOL     OW 5905   6.061   6.464   6.450
 1669SOL    HW1 5906   6.057   6.381   6.395
 1669SOL    HW2 5907   6.113   6.447   6.534
 1670SOL     OW 5908   5.973   3.685   6.454
 1670SOL    HW1 5909   5.910   3.609   6.474
 1670SOL    HW2 5910   5.925   3.753   6.399
 1671SOL     OW 5911   6.149   4.884   0.215
 1671SOL    HW1 5912   6.240   4.845   0.227
 1671SOL    HW2 5913   6.122   4.931   0.299
 1672SOL     OW 5914   1.645   5.309   1.880
 1672SOL    HW1 5915   1.557   5.262   1.887
 1672SOL    HW2 5916   1.700   5.290   1.962
 1673SOL     OW 5917   6.439   1.974   3.404
 1673SOL    HW1 5918   6.396   1.929   3.326
 1673SOL    HW2 5919   6.386   1.956   3.486
 1674SOL     OW 5920   2.180   5.354   6.707
 1674SOL    HW1 5921   2.183   5.354   6.807
 1674SOL    HW2 5922   2.239   5.282   6.672
 1675SOL     OW 5923   4.769   2.259   0.720
 1675SOL    HW1 5924   4.719   2.320   0.781
 1675SOL    HW2 5925   4.839   2.310   0.672
 1676SOL     OW 5926   2.419   1.309   4.532
 1676SOL    HW1 5927   2.381   1.354   4.450
 1676SOL    HW2 5928   2.344   1.288   4.595
 1677SOL     OW 5929   6.000   0.987   5.518
 1677SOL    HW1 5930   5.957   0.911   5.468
 1677SOL    HW2 5931   5.968   0.987   5.612
 1678SOL     OW 5932   4.934   0.468   1.416
 1678SOL    HW1 5933   4.981   0.513   1.339
 1678SOL    HW2 5934   4.957   0.371   1.416
 1679SOL     OW 5935   6.010   4.283   0.482
 1679SOL    HW1 5936   5.948   4.327   0.417
 1679SOL    HW2 5937   5.963   4.209   0.528
 1680SOL     OW 5938   1.538   2.558   4.722
 1680SOL    HW1 5939   1.504   2.493   4.790
 1680SOL    HW2 5940   1.480   2.639   4.720
 1681SOL     OW 5941   4.573   5.852   0.870
 1681SOL    HW1 5942   4.505   5.892   0.809
 1681SOL    HW2 5943   4.647   5.918   0.886
 1682SOL     OW 5944   6.790   3.688   5.443
 1682SOL    HW1 5945   6.722   3.616   5.428
 1682SOL    HW2 5946   6.813   3.731   5.355
 1683SOL     OW 5947   5.434   6.067   6.429
 1683SOL    HW1 5948   5.532   6.083   6.419
 1683SOL    HW2 5949   5.417   6.012   6.510
 1684SOL     OW 5950   0.276   6.365   4.759
 1684SOL    HW1 5951   0.210   6.369   4.684
 1684SOL    HW2 5952   0.369   6.366   4.723
 1685SOL     OW 5953   1.363   1.344   7.022
 1685SOL    HW1 5954   1.401   1.256   6.994
 1685SOL    HW2 5955   1.431   1.393   0.050
 1686SOL     OW 5956   2.077   5.751   6.551
 1686SOL    HW1 5957   2.074   5.748   6.451
 1686SOL    HW2 5958   2.170   5.770   6.582
 1687SOL     OW 5959   2.191   6.191   1.883
 1687SOL    HW1 5960   2.252   6.136   1.940
 1687SOL    HW2 5961   2.111   6.219   1.936
 1688SOL     OW 5962   0.596   1.557   3.787
 1688SOL    HW1 5963   0.643   1.469   3.791
 1688SOL    HW2 5964   0.663   1.631   3.778
 1689SOL     OW 5965   3.397   1.657   2.272
 1689SOL    HW1 5966   3.369   1.748   2.301
 1689SOL    HW2 5967   3.493   1.659   2.244
 1690SOL     OW 5968   0.837   2.030   0.679
 1690SOL    HW1 5969   0.864   2.125   0.696
 1690SOL    HW2 5970   0.828   2.016   0.580
 1691SOL     OW 5971   4.771   4.661   2.594
 1691SOL    HW1 5972   4.703   4.671   2.522
 1691SOL    HW2 5973   4.856   4.625   2.554
 1692SOL     OW 5974   1.744   6.844   3.198
 1692SOL    HW1 5975   1.666   6.783   3.184
 1692SOL    HW2 5976   1.728   6.929   3.148
 1693SOL     OW 5977   2.915   2.054   3.884
 1693SOL    HW1 5978   3.005   2.065   3.841
 1693SOL    HW2 5979   2.924   2.059   3.983
 1694SOL     OW 5980   4.802   5.951   5.517
 1694SOL    HW1 5981   4.854   5.870   5.546
 1694SOL    HW2 5982   4.860   6.032   5.523
 1695SOL     OW 5983   3.444   1.239   6.205
 1695SOL    HW1 5984   3.456   1.141   6.218
 1695SOL    HW2 5985   3.528   1.279   6.169
 1696SOL     OW 5986   3.546   5.428   1.875
 1696SOL    HW1 5987   3.595   5.469   1.952
 1696SOL    HW2 5988   3.472   5.370   1.909
 1697SOL     OW 5989   1.033   1.380   2.259
 1697SOL    HW1 5990   1.098   1.434   2.312
 1697SOL    HW2 5991   0.941   1.392   2.296
 1698SOL     OW 5992   5.269   1.780   0.818
 1698SOL    HW1 5993   5.239   1.741   0.905
 1698SOL    HW2 5994   5.191   1.786   0.755
 1699SOL     OW 5995   2.768   4.190   0.774
 1699SOL    HW1 5996   2.813   4.236   0.697
 1699SOL    HW2 5997   2.826   4.117   0.808
 1700SOL     OW 5998   6.340   2.769   4.505
 1700SOL    HW1 5999   6.327   2.673   4.479
 1700SOL    HW2 6000   6.262   2.823   4.473
 1701SOL     OW 6001   5.868   3.055   5.045
 1701SOL    HW1 6002   5.961   3.089   5.059
 1701SOL    HW2 6003   5.807   3.098   5.112
 1702SOL     OW 6004   4.874   2.948   1.767
 1702SOL    HW1 6005   4.868   2.850   1.749
 1702SOL    HW2 6006   4.808   2.973   1.838
 1703SOL     OW 6007   1.395   3.718   0.157
 1703SOL    HW1 6008   1.458   3.787   0.191
 1703SOL    HW2 6009   1.393   3.720   0.057
 1704SOL     OW 6010   0.232   0.672   1.591
 1704SOL    HW1 6011   0.188   0.601   1.534
 1704SOL    HW2 6012   0.263   0.747   1.533
 1705SOL     OW 6013   3.828   3.515   2.557
 1705SOL    HW1 6014   3.898   3.569   2.603
 1705SOL    HW2 6015   3.754   3.575   2.526
 1706SOL     OW 6016   2.379   0.494   6.562
 1706SOL    HW1 6017   2.384   0.394   6.564
 1706SOL    HW2 6018   2.409   0.527   6.473
 1707SOL     OW 6019   5.534   1.393   3.048
 1707SOL    HW1 6020   5.597   1.402   3.125
 1707SOL    HW2 6021   5.552   1.307   3.000
 1708SOL     OW 6022   0.684   4.709   1.803
 1708SOL    HW1 6023   0.749   4.689   1.876
 1708SOL    HW2 6024   0.674   4.629   1.744
 1709SOL     OW 6025   3.012   5.711   4.683
 1709SOL    HW1 6026   2.997   5.684   4.778
 1709SOL    HW2 6027   2.971   5.642   4.622
 1710SOL     OW 6028   0.361   5.370   4.243
 1710SOL    HW1 6029   0.388   5.384   4.148
 1710SOL    HW2 6030   0.413   5.295   4.282
 1711SOL     OW 6031   2.127   4.392   5.089
 1711SOL    HW1 6032   2.189   4.341   5.149
 1711SOL    HW2 6033   2.033   4.366   5.110
 1712SOL     OW 6034   1.667   4.958   1.355
 1712SOL    HW1 6035   1.714   4.949   1.267
 1712SOL    HW2 6036   1.629   5.050   1.363
 1713SOL     OW 6037   1.673   3.439   0.294
 1713SOL    HW1 6038   1.730   3.457   0.214
 1713SOL    HW2 6039   1.699   3.350   0.334
 1714SOL     OW 6040   3.698   1.241   1.315
 1714SOL    HW1 6041   3.766   1.248   1.243
 1714SOL    HW2 6042   3.685   1.330   1.357
 1715SOL     OW 6043   0.404   2.785   3.703
 1715SOL    HW1 6044   0.339   2.792   3.628
 1715SOL    HW2 6045   0.463   2.706   3.689
 1716SOL     OW 6046   6.948   6.934   6.959
 1716SOL    HW1 6047   7.019   6.868   6.983
 1716SOL    HW2 6048   6.911   6.974   0.016
 1717SOL     OW 6049   3.141   7.014   0.034
 1717SOL    HW1 6050   3.114   6.976   0.122
 1717SOL    HW2 6051   3.096   6.962   6.988
 1718SOL     OW 6052   1.240   4.467   5.742
 1718SOL    HW1 6053   1.162   4.515   5.781
 1718SOL    HW2 6054   1.241   4.372   5.775
 1719SOL     OW 6055   2.188   3.435   1.472
 1719SOL    HW1 6056   2.102   3.485   1.461
 1719SOL    HW2 6057   2.213   3.393   1.385
 1720SOL     OW 6058   6.668   1.342   2.734
 1720SOL    HW1 6059   6.605   1.297   2.798
 1720SOL    HW2 6060   6.762   1.325   2.762
 1721SOL     OW 6061   1.743   6.037   3.770
 1721SOL    HW1 6062   1.814   5.967   3.762
 1721SOL    HW2 6063   1.786   6.127   3.779
 1722SOL     OW 6064   5.574   0.096   1.742
 1722SOL    HW1 6065   5.482   0.057   1.744
 1722SOL    HW2 6066   5.587   0.146   1.656
 1723SOL     OW 6067   5.942   0.833   2.945
 1723SOL    HW1 6068   6.015   0.770   2.918
 1723SOL    HW2 6069   5.884   0.789   3.013
 1724SOL     OW 6070   5.112   0.539   6.972
 1724SOL    HW1 6071   5.126   0.546   6.873
 1724SOL    HW2 6072   5.115   0.631   7.012
 1725SOL     OW 6073   4.056   5.489   2.214
 1725SOL    HW1 6074   4.124   5.418   2.234
 1725SOL    HW2 6075   3.998   5.503   2.294
 1726SOL     OW 6076   0.040   3.899   4.193
 1726SOL    HW1 6077   0.138   3.905   4.170
 1726SOL    HW2 6078   7.025   3.989   4.183
 1727SOL     OW 6079   3.016   3.343   5.425
 1727SOL    HW1 6080   2.926   3.328   5.384
 1727SOL    HW2 6081   3.048   3.435   5.401
 1728SOL     OW 6082   4.285   4.618   3.552
 1728SOL    HW1 6083   4.217   4.659   3.612
 1728SOL    HW2 6084   4.274   4.655   3.459
 1729SOL     OW 6085   2.139   3.716   2.506
 1729SOL    HW1 6086   2.144   3.810   2.539
 1729SOL    HW2 6087   2.164   3.713   2.409
 1730SOL     OW 6088   5.794   2.075   4.587
 1730SOL    HW1 6089   5.870   2.134   4.558
 1730SOL    HW2 6090   5.770   2.097   4.682
 1731SOL     OW 6091   0.541   6.364   0.778
 1731SOL    HW1 6092   0.467   6.387   0.715
 1731SOL    HW2 6093   0.616   6.429   0.766
 1732SOL     OW 6094   0.649   4.546   6.870
 1732SOL    HW1 6095   0.587   4.624   6.883
 1732SOL    HW2 6096   0.597   4.461   6.873
 1733SOL     OW 6097   1.086   3.869   0.501
 1733SOL    HW1 6098   1.040   3.814   0.570
 1733SOL    HW2 6099   1.085   3.820   0.414
 1734SOL     OW 6100   4.792   3.721   1.327
 1734SOL    HW1 6101   4.721   3.791   1.337
 1734SOL    HW2 6102   4.879   3.758   1.360
 1735SOL     OW 6103   5.083   6.237   0.637
 1735SOL    HW1 6104   4.999   6.283   0.664
 1735SOL    HW2 6105   5.062   6.158   0.580
 1736SOL     OW 6106   3.272   3.761   0.234
 1736SOL    HW1 6107   3.354   3.818   0.245
 1736SOL    HW2 6108   3.299   3.665   0.227
 1737SOL     OW 6109   1.225   6.160   3.538
 1737SOL    HW1 6110   1.321   6.165   3.512
 1737SOL    HW2 6111   1.200   6.066   3.560
 1738SOL     OW 6112   1.133   1.606   1.636
 1738SOL    HW1 6113   1.225   1.632   1.665
 1738SOL    HW2 6114   1.129   1.508   1.619
 1739SOL     OW 6115   4.451   2.471   6.160
 1739SOL    HW1 6116   4.521   2.503   6.096
 1739SOL    HW2 6117   4.495   2.421   6.235
 1740SOL     OW 6118   0.859   1.323   5.361
 1740SOL    HW1 6119   0.835   1.393   5.428
 1740SOL    HW2 6120   0.949   1.342   5.322
 1741SOL     OW 6121   2.230   0.877   2.320
 1741SOL    HW1 6122   2.227   0.819   2.238
 1741SOL    HW2 6123   2.136   0.901   2.346
 1742SOL     OW 6124   6.076   6.348   4.736
 1742SOL    HW1 6125   6.085   6.304   4.647
 1742SOL    HW2 6126   5.985   6.328   4.773
 1743SOL     OW 6127   4.541   0.809   0.744
 1743SOL    HW1 6128   4.470   0.872   0.775
 1743SOL    HW2 6129   4.602   0.856   0.680
 1744SOL     OW 6130   2.960   6.766   1.541
 1744SOL    HW1 6131   3.040   6.826   1.551
 1744SOL    HW2 6132   2.888   6.815   1.491
 1745SOL     OW 6133   6.113   3.139   5.142
 1745SOL    HW1 6134   6.189   3.136   5.077
 1745SOL    HW2 6135   6.089   3.046   5.170
 1746SOL     OW 6136   2.345   1.004   5.577
 1746SOL    HW1 6137   2.256   0.972   5.544
 1746SOL    HW2 6138   2.333   1.050   5.666
 1747SOL     OW 6139   5.129   6.992   5.819
 1747SOL    HW1 6140   5.138   6.913   5.879
 1747SOL    HW2 6141   5.156   0.048   5.867
 1748SOL     OW 6142   5.817   1.622   1.694
 1748SOL    HW1 6143   5.907   1.584   1.673
 1748SOL    HW2 6144   5.769   1.561   1.756
 1749SOL     OW 6145   4.586   0.071   6.019
 1749SOL    HW1 6146   4.523   0.130   5.969
 1749SOL    HW2 6147   4.621   0.120   6.099
 1750SOL     OW 6148   4.882   0.349   3.931
 1750SOL    HW1 6149   4.938   0.389   4.003
 1750SOL    HW2 6150   4.812   0.290   3.971
 1751SOL     OW 6151   1.933   5.566   3.712
 1751SOL    HW1 6152   2.027   5.547   3.740
 1751SOL    HW2 6153   1.873   5.563   3.791
 1752SOL     OW 6154   0.112   1.881   6.930
 1752SOL    HW1 6155   0.093   1.945   6.856
 1752SOL    HW2 6156   0.207   1.889   6.958
 1753SOL     OW 6157   2.307   6.881   2.247
 1753SOL    HW1 6158   2.354   6.933   2.176
 1753SOL    HW2 6159   2.330   6.784   2.239
 1754SOL     OW 6160   3.891   2.712   1.448
 1754SOL    HW1 6161   3.831   2.652   1.396
 1754SOL    HW2 6162   3.859   2.719   1.542
 1755SOL     OW 6163   5.879   3.715   0.417
 1755SOL    HW1 6164   5.881   3.802   0.367
 1755SOL    HW2 6165   5.799   3.714   0.477
 1756SOL     OW 6166   5.759   5.658   4.790
 1756SOL    HW1 6167   5.752   5.757   4.799
 1756SOL    HW2 6168   5.848   5.634   4.752
 1757SOL     OW 6169   3.543   0.586   5.253
 1757SOL    HW1 6170   3.450   0.597   5.216
 1757SOL    HW2 6171   3.593   0.672   5.244
 1758SOL     OW 6172   2.644   1.716   3.377
 1758SOL    HW1 6173   2.693   1.629   3.367
 1758SOL    HW2 6174   2.579   1.710   3.452
 1759SOL     OW 6175   0.544   5.539   6.046
 1759SOL    HW1 6176   0.616   5.494   6.099
 1759SOL    HW2 6177   0.551   5.638   6.059
 1760SOL     OW 6178   5.082   0.331   2.140
 1760SOL    HW1 6179   5.169   0.301   2.101
 1760SOL    HW2 6180   5.041   0.400   2.081
 1761SOL     OW 6181   5.812   2.542   1.708
 1761SOL    HW1 6182   5.846   2.611   1.645
 1761SOL    HW2 6183   5.772   2.586   1.788
 1762SOL     OW 6184   5.594   2.769   0.730
 1762SOL    HW1 6185   5.639   2.688   0.769
 1762SOL    HW2 6186   5.528   2.806   0.795
 1763SOL     OW 6187   2.123   3.420   3.757
 1763SOL    HW1 6188   2.027   3.402   3.776
 1763SOL    HW2 6189   2.179   3.390   3.834
 1764SOL     OW 6190   6.512   3.119   4.215
 1764SOL    HW1 6191   6.425   3.128   4.166
 1764SOL    HW2 6192   6.502   3.050   4.287
 1765SOL     OW 6193   1.851   2.949   6.229
 1765SOL    HW1 6194   1.891   3.035   6.197
 1765SOL    HW2 6195   1.870   2.876   6.163
 1766SOL     OW 6196   6.085   3.322   5.383
 1766SOL    HW1 6197   6.062   3.251   5.316
 1766SOL    HW2 6198   6.006   3.341   5.441
 1767SOL     OW 6199   6.759   3.942   1.791
 1767SOL    HW1 6200   6.685   3.979   1.735
 1767SOL    HW2 6201   6.847   3.974   1.755
 1768SOL     OW 6202   5.926   6.775   3.894
 1768SOL    HW1 6203   6.003   6.721   3.859
 1768SOL    HW2 6204   5.943   6.872   3.878
 1769SOL     OW 6205   5.324   0.671   3.563
 1769SOL    HW1 6206   5.237   0.652   3.608
 1769SOL    HW2 6207   5.350   0.767   3.579
 1770SOL     OW 6208   3.403   5.402   5.219
 1770SOL    HW1 6209   3.403   5.307   5.190
 1770SOL    HW2 6210   3.465   5.455   5.161
 1771SOL     OW 6211   4.279   6.917   6.988
 1771SOL    HW1 6212   4.374   6.886   7.000
 1771SOL    HW2 6213   4.218   6.855   0.009
 1772SOL     OW 6214   3.235   6.256   3.486
 1772SOL    HW1 6215   3.200   6.350   3.481
 1772SOL    HW2 6216   3.335   6.258   3.492
 1773SOL     OW 6217   0.778   6.307   6.984
 1773SOL    HW1 6218   0.797   6.311   0.055
 1773SOL    HW2 6219   0.838   6.371   6.935
 1774SOL     OW 6220   3.265   4.883   2.242
 1774SOL    HW1 6221   3.245   4.893   2.145
 1774SOL    HW2 6222   3.359   4.910   2.260
 1775SOL     OW 6223   0.771   4.413   1.407
 1775SOL    HW1 6224   0.750   4.315   1.400
 1775SOL    HW2 6225   0.844   4.435   1.343
 1776SOL     OW 6226   3.286   6.195   5.540
 1776SOL    HW1 6227   3.243   6.162   5.624
 1776SOL    HW2 6228   3.341   6.276   5.560
 1777SOL     OW 6229   3.304   5.547   0.366
 1777SOL    HW1 6230   3.271   5.556   0.272
 1777SOL    HW2 6231   3.293   5.634   0.413
 1778SOL     OW 6232   6.492   3.925   5.704
 1778SOL    HW1 6233   6.494   3.857   5.777
 1778SOL    HW2 6234   6.575   3.916   5.648
 1779SOL     OW 6235   3.753   0.488   5.576
 1779SOL    HW1 6236   3.805   0.536   5.646
 1779SOL    HW2 6237   3.656   0.508   5.586
 1780SOL     OW 6238   3.485   3.594   6.585
 1780SOL    HW1 6239   3.389   3.579   6.563
 1780SOL    HW2 6240   3.514   3.524   6.651
 1781SOL     OW 6241   3.670   5.376   3.835
 1781SOL    HW1 6242   3.596   5.437   3.806
 1781SOL    HW2 6243   3.717   5.340   3.755
 1782SOL     OW 6244   3.488   1.710   4.326
 1782SOL    HW1 6245   3.503   1.729   4.229
 1782SOL    HW2 6246   3.390   1.702   4.344
 1783SOL     OW 6247   2.176   5.852   6.846
 1783SOL    HW1 6248   2.149   5.946   6.823
 1783SOL    HW2 6249   2.251   5.854   6.912
 1784SOL     OW 6250   3.363   6.683   5.803
 1784SOL    HW1 6251   3.391   6.776   5.780
 1784SOL    HW2 6252   3.361   6.673   5.903
 1785SOL     OW 6253   6.993   4.723   1.461
 1785SOL    HW1 6254   0.022   4.693   1.384
 1785SOL    HW2 6255   7.017   4.671   1.543
 1786SOL     OW 6256   3.964   2.383   0.947
 1786SOL    HW1 6257   3.925   2.352   0.860
 1786SOL    HW2 6258   4.033   2.317   0.977
 1787SOL     OW 6259   3.740   0.821   5.975
 1787SOL    HW1 6260   3.674   0.855   5.908
 1787SOL    HW2 6261   3.692   0.788   6.056
 1788SOL     OW 6262   1.424   4.889   6.330
 1788SOL    HW1 6263   1.522   4.871   6.324
 1788SOL    HW2 6264   1.391   4.865   6.421
 1789SOL     OW 6265   6.140   0.378   0.453
 1789SOL    HW1 6266   6.135   0.340   0.546
 1789SOL    HW2 6267   6.184   0.468   0.457
 1790SOL     OW 6268   3.157   6.835   3.091
 1790SOL    HW1 6269   3.199   6.785   3.016
 1790SOL    HW2 6270   3.203   6.812   3.177
 1791SOL     OW 6271   0.158   6.741   2.472
 1791SOL    HW1 6272   0.173   6.748   2.571
 1791SOL    HW2 6273   0.242   6.767   2.424
 1792SOL     OW 6274   1.128   4.113   4.802
 1792SOL    HW1 6275   1.189   4.192   4.812
 1792SOL    HW2 6276   1.181   4.034   4.770
 1793SOL     OW 6277   0.118   0.571   3.714
 1793SOL    HW1 6278   0.121   0.537   3.808
 1793SOL    HW2 6279   0.159   0.662   3.710
 1794SOL     OW 6280   4.480   6.222   6.466
 1794SOL    HW1 6281   4.511   6.239   6.372
 1794SOL    HW2 6282   4.412   6.149   6.466
 1795SOL     OW 6283   0.798   3.039   0.126
 1795SOL    HW1 6284   0.813   2.940   0.123
 1795SOL    HW2 6285   0.856   3.079   0.196
 1796SOL     OW 6286   3.326   0.292   6.603
 1796SOL    HW1 6287   3.241   0.274   6.553
 1796SOL    HW2 6288   3.404   0.261   6.548
 1797SOL     OW 6289   1.061   0.636   0.692
 1797SOL    HW1 6290   0.977   0.586   0.709
 1797SOL    HW2 6291   1.078   0.640   0.593
 1798SOL     OW 6292   5.593   2.357   3.330
 1798SOL    HW1 6293   5.597   2.257   3.328
 1798SOL    HW2 6294   5.615   2.390   3.422
 1799SOL     OW 6295   2.303   1.810   6.740
 1799SOL    HW1 6296   2.328   1.746   6.667
 1799SOL    HW2 6297   2.204   1.818   6.745
 1800SOL     OW 6298   3.948   5.071   2.356
 1800SOL    HW1 6299   3.892   4.992   2.379
 1800SOL    HW2 6300   3.937   5.142   2.425
 1801SOL     OW 6301   5.763   6.914   1.081
 1801SOL    HW1 6302   5.777   6.816   1.098
 1801SOL    HW2 6303   5.713   6.954   1.158
 1802SOL     OW 6304   5.235   5.244   3.711
 1802SOL    HW1 6305   5.288   5.286   3.637
 1802SOL    HW2 6306   5.186   5.164   3.676
 1803SOL     OW 6307   5.527   5.579   1.028
 1803SOL    HW1 6308   5.465   5.549   1.101
 1803SOL    HW2 6309   5.497   5.668   0.994
 1804SOL     OW 6310   3.373   3.107   5.919
 1804SOL    HW1 6311   3.398   3.082   5.826
 1804SOL    HW2 6312   3.358   3.206   5.924
 1805SOL     OW 6313   5.816   2.874   6.553
 1805SOL    HW1 6314   5.732   2.833   6.589
 1805SOL    HW2 6315   5.836   2.958   6.603
 1806SOL     OW 6316   0.140   0.759   0.823
 1806SOL    HW1 6317   0.234   0.724   0.830
 1806SOL    HW2 6318   0.142   0.858   0.809
 1807SOL     OW 6319   5.931   1.926   5.981
 1807SOL    HW1 6320   5.868   1.892   5.911
 1807SOL    HW2 6321   5.891   2.007   6.025
 1808SOL     OW 6322   1.994   4.508   4.067
 1808SOL    HW1 6323   1.982   4.555   4.154
 1808SOL    HW2 6324   2.042   4.421   4.083
 1809SOL     OW 6325   3.583   0.218   6.435
 1809SOL    HW1 6326   3.676   0.247   6.413
 1809SOL    HW2 6327   3.586   0.144   6.502
 1810SOL     OW 6328   3.506   5.832   3.011
 1810SOL    HW1 6329   3.431   5.869   2.957
 1810SOL    HW2 6330   3.565   5.776   2.952
 1811SOL     OW 6331   6.126   5.811   2.603
 1811SOL    HW1 6332   6.198   5.801   2.535
 1811SOL    HW2 6333   6.161   5.786   2.693
 1812SOL     OW 6334   4.175   5.500   6.639
 1812SOL    HW1 6335   4.252   5.546   6.682
 1812SOL    HW2 6336   4.177   5.517   6.540
 1813SOL     OW 6337   6.797   5.516   5.383
 1813SOL    HW1 6338   6.890   5.552   5.377
 1813SOL    HW2 6339   6.799   5.424   5.422
 1814SOL     OW 6340   4.893   6.624   2.497
 1814SOL    HW1 6341   4.903   6.637   2.398
 1814SOL    HW2 6342   4.981   6.597   2.536
 1815SOL     OW 6343   0.295   1.109   2.293
 1815SOL    HW1 6344   0.388   1.083   2.318
 1815SOL    HW2 6345   0.285   1.209   2.302
 1816SOL     OW 6346   0.969   4.099   0.594
 1816SOL    HW1 6347   0.996   4.008   0.563
 1816SOL    HW2 6348   1.048   4.161   0.591
 1817SOL     OW 6349   1.157   5.532   1.887
 1817SOL    HW1 6350   1.077   5.490   1.843
 1817SOL    HW2 6351   1.238   5.476   1.869
 1818SOL     OW 6352   1.770   1.237   2.914
 1818SOL    HW1 6353   1.738   1.211   3.005
 1818SOL    HW2 6354   1.774   1.156   2.856
 1819SOL     OW 6355   1.251   4.258   2.379
 1819SOL    HW1 6356   1.291   4.348   2.362
 1819SOL    HW2 6357   1.325   4.190   2.387
 1820SOL     OW 6358   5.821   0.559   2.833
 1820SOL    HW1 6359   5.767   0.578   2.751
 1820SOL    HW2 6360   5.896   0.624   2.839
 1821SOL     OW 6361   1.706   1.604   3.390
 1821SOL    HW1 6362   1.684   1.604   3.292
 1821SOL    HW2 6363   1.803   1.625   3.402
 1822SOL     OW 6364   3.730   3.518   1.574
 1822SOL    HW1 6365   3.739   3.475   1.663
 1822SOL    HW2 6366   3.633   3.524   1.549
 1823SOL     OW 6367   4.100   0.096   2.558
 1823SOL    HW1 6368   4.165   0.120   2.486
 1823SOL    HW2 6369   4.008   0.093   2.519
 1824SOL     OW 6370   5.117   2.349   1.812
 1824SOL    HW1 6371   5.060   2.425   1.843
 1824SOL    HW2 6372   5.065   2.264   1.817
 1825SOL     OW 6373   1.111   1.225   1.322
 1825SOL    HW1 6374   1.131   1.283   1.401
 1825SOL    HW2 6375   1.039   1.267   1.267
 1826SOL     OW 6376   3.045   6.033   6.607
 1826SOL    HW1 6377   2.973   6.092   6.570
 1826SOL    HW2 6378   3.113   6.015   6.537
 1827SOL     OW 6379   6.207   6.800   1.853
 1827SOL    HW1 6380   6.160   6.817   1.766
 1827SOL    HW2 6381   6.281   6.867   1.865
 1828SOL     OW 6382   1.754   2.292   0.099
 1828SOL    HW1 6383   1.725   2.306   0.004
 1828SOL    HW2 6384   1.782   2.380   0.139
 1829SOL     OW 6385   6.209   5.643   1.587
 1829SOL    HW1 6386   6.288   5.631   1.648
 1829SOL    HW2 6387   6.138   5.576   1.611
 1830SOL     OW 6388   5.749   6.068   3.652
 1830SOL    HW1 6389   5.827   6.118   3.614
 1830SOL    HW2 6390   5.736   6.096   3.747
 1831SOL     OW 6391   4.968   0.711   3.279
 1831SOL    HW1 6392   4.937   0.671   3.366
 1831SOL    HW2 6393   4.906   0.784   3.252
 1832SOL     OW 6394   5.190   2.812   0.418
 1832SOL    HW1 6395   5.285   2.780   0.421
 1832SOL    HW2 6396   5.166   2.852   0.506
 1833SOL     OW 6397   5.853   1.993   5.336
 1833SOL    HW1 6398   5.919   2.028   5.401
 1833SOL    HW2 6399   5.900   1.957   5.256
 1834SOL     OW 6400   2.776   3.934   0.510
 1834SOL    HW1 6401   2.873   3.910   0.506
 1834SOL    HW2 6402   2.724   3.855   0.541
 1835SOL     OW 6403   0.920   4.375   7.023
 1835SOL    HW1 6404   0.891   4.320   6.945
 1835SOL    HW2 6405   0.844   4.389   0.058
 1836SOL     OW 6406   0.489   5.787   0.710
 1836SOL    HW1 6407   0.401   5.788   0.663
 1836SOL    HW2 6408   0.491   5.858   0.780
 1837SOL     OW 6409   1.106   2.292   4.496
 1837SOL    HW1 6410   1.071   2.283   4.589
 1837SOL    HW2 6411   1.029   2.297   4.432
 1838SOL     OW 6412   0.789   2.587   4.064
 1838SOL    HW1 6413   0.759   2.682   4.049
 1838SOL    HW2 6414   0.844   2.583   4.147
 1839SOL     OW 6415   6.902   1.703   5.973
 1839SOL    HW1 6416   6.977   1.769   5.957
 1839SOL    HW2 6417   6.815   1.745   5.946
 1840SOL     OW 6418   1.669   5.277   0.417
 1840SOL    HW1 6419   1.649   5.214   0.342
 1840SOL    HW2 6420   1.639   5.237   0.503
 1841SOL     OW 6421   1.485   3.074   2.787
 1841SOL    HW1 6422   1.578   3.039   2.777
 1841SOL    HW2 6423   1.462   3.082   2.884
 1842SOL     OW 6424   0.826   4.979   0.061
 1842SOL    HW1 6425   0.811   4.958   6.992
 1842SOL    HW2 6426   0.788   5.070   0.082
 1843SOL     OW 6427   3.727   2.047   4.806
 1843SOL    HW1 6428   3.636   2.029   4.844
 1843SOL    HW2 6429   3.788   1.972   4.831
 1844SOL     OW 6430   5.254   3.438   3.641
 1844SOL    HW1 6431   5.257   3.351   3.690
 1844SOL    HW2 6432   5.162   3.477   3.647
 1845SOL     OW 6433   4.181   6.933   0.871
 1845SOL    HW1 6434   4.196   0.005   0.871
 1845SOL    HW2 6435   4.086   6.913   0.896
 1846SOL     OW 6436   3.278   1.032   5.574
 1846SOL    HW1 6437   3.369   1.039   5.532
 1846SOL    HW2 6438   3.243   1.124   5.593
 1847SOL     OW 6439   1.940   6.993   0.413
 1847SOL    HW1 6440   1.879   7.015   0.336
 1847SOL    HW2 6441   1.887   6.954   0.488
 1848SOL     OW 6442   2.863   6.917   2.524
 1848SOL    HW1 6443   2.885   6.886   2.616
 1848SOL    HW2 6444   2.947   6.940   2.475
 1849SOL     OW 6445   2.804   1.195   6.362
 1849SOL    HW1 6446   2.790   1.192   6.263
 1849SOL    HW2 6447   2.808   1.102   6.398
 1850SOL     OW 6448   5.485   1.534   1.665
 1850SOL    HW1 6449   5.539   1.484   1.733
 1850SOL    HW2 6450   5.472   1.628   1.697
 1851SOL     OW 6451   6.501   3.547   2.882
 1851SOL    HW1 6452   6.581   3.580   2.932
 1851SOL    HW2 6453   6.436   3.622   2.871
 1852SOL     OW 6454   5.408   3.149   6.680
 1852SOL    HW1 6455   5.358   3.181   6.599
 1852SOL    HW2 6456   5.478   3.216   6.705
 1853SOL     OW 6457   1.553   4.414   0.552
 1853SOL    HW1 6458   1.484   4.375   0.493
 1853SOL    HW2 6459   1.558   4.513   0.536
 1854SOL     OW 6460   2.832   5.524   4.112
 1854SOL    HW1 6461   2.927   5.534   4.140
 1854SOL    HW2 6462   2.779   5.487   4.189
 1855SOL     OW 6463   5.513   4.304   1.655
 1855SOL    HW1 6464   5.569   4.274   1.733
 1855SOL    HW2 6465   5.423   4.332   1.687
 1856SOL     OW 6466   4.942   3.303   6.231
 1856SOL    HW1 6467   4.893   3.239   6.290
 1856SOL    HW2 6468   5.018   3.256   6.186
 1857SOL     OW 6469   4.779   1.395   3.873
 1857SOL    HW1 6470   4.859   1.437   3.915
 1857SOL    HW2 6471   4.750   1.450   3.794
 1858SOL     OW 6472   5.394   3.582   3.406
 1858SOL    HW1 6473   5.343   3.661   3.443
 1858SOL    HW2 6474   5.375   3.502   3.463
 1859SOL     OW 6475   5.017   1.469   3.643
 1859SOL    HW1 6476   5.000   1.517   3.729
 1859SOL    HW2 6477   4.935   1.419   3.615
 1860SOL     OW 6478   4.288   1.930   5.295
 1860SOL    HW1 6479   4.377   1.892   5.271
 1860SOL    HW2 6480   4.289   2.029   5.283
 1861SOL     OW 6481   5.210   6.540   2.414
 1861SOL    HW1 6482   5.194   6.523   2.511
 1861SOL    HW2 6483   5.288   6.602   2.403
 1862SOL     OW 6484   1.591   1.714   0.606
 1862SOL    HW1 6485   1.505   1.756   0.578
 1862SOL    HW2 6486   1.600   1.624   0.565
 1863SOL     OW 6487   2.218   2.587   1.356
 1863SOL    HW1 6488   2.159   2.585   1.437
 1863SOL    HW2 6489   2.234   2.682   1.329
 1864SOL     OW 6490   1.140   6.636   3.349
 1864SOL    HW1 6491   1.193   6.707   3.395
 1864SOL    HW2 6492   1.072   6.598   3.412
 1865SOL     OW 6493   5.137   2.265   6.647
 1865SOL    HW1 6494   5.166   2.288   6.740
 1865SOL    HW2 6495   5.038   2.277   6.639
 1866SOL     OW 6496   5.611   5.550   2.548
 1866SOL    HW1 6497   5.514   5.524   2.539
 1866SOL    HW2 6498   5.662   5.475   2.590
 1867SOL     OW 6499   0.968   4.833   6.749
 1867SOL    HW1 6500   0.967   4.773   6.669
 1867SOL    HW2 6501   0.874   4.850   6.779
 1868SOL     OW 6502   6.169   4.051   5.665
 1868SOL    HW1 6503   6.102   4.118   5.698
 1868SOL    HW2 6504   6.234   4.097   5.604
 1869SOL     OW 6505   5.761   1.444   4.712
 1869SOL    HW1 6506   5.848   1.430   4.759
 1869SOL    HW2 6507   5.753   1.379   4.636
 1870SOL     OW 6508   2.257   4.204   4.324
 1870SOL    HW1 6509   2.242   4.129   4.388
 1870SOL    HW2 6510   2.169   4.245   4.300
 1871SOL     OW 6511   1.561   0.480   0.828
 1871SOL    HW1 6512   1.552   0.555   0.894
 1871SOL    HW2 6513   1.529   0.395   0.870
 1872SOL     OW 6514   2.453   4.648   0.020
 1872SOL    HW1 6515   2.420   4.679   0.109
 1872SOL    HW2 6516   2.379   4.652   6.981
 1873SOL     OW 6517   5.258   1.059   0.688
 1873SOL    HW1 6518   5.352   1.091   0.698
 1873SOL    HW2 6519   5.195   1.133   0.711
 1874SOL     OW 6520   1.342   3.621   2.705
 1874SOL    HW1 6521   1.278   3.553   2.668
 1874SOL    HW2 6522   1.419   3.574   2.748
 1875SOL     OW 6523   1.366   6.992   1.234
 1875SOL    HW1 6524   1.353   6.994   1.134
 1875SOL    HW2 6525   1.437   6.926   1.257
 1876SOL     OW 6526   2.376   6.935   4.304
 1876SOL    HW1 6527   2.290   6.914   4.257
 1876SOL    HW2 6528   2.367   7.023   4.352
 1877SOL     OW 6529   6.923   6.749   3.675
 1877SOL    HW1 6530   6.930   6.717   3.769
 1877SOL    HW2 6531   6.984   6.696   3.617
 1878SOL     OW 6532   5.725   2.347   5.838
 1878SOL    HW1 6533   5.786   2.410   5.790
 1878SOL    HW2 6534   5.715   2.377   5.933
 1879SOL     OW 6535   1.778   4.396   5.787
 1879SOL    HW1 6536   1.756   4.466   5.855
 1879SOL    HW2 6537   1.709   4.397   5.715
 1880SOL     OW 6538   6.102   0.678   5.096
 1880SOL    HW1 6539   6.091   0.658   5.193
 1880SOL    HW2 6540   6.197   0.701   5.078
 1881SOL     OW 6541   0.441   2.585   6.814
 1881SOL    HW1 6542   0.352   2.611   6.778
 1881SOL    HW2 6543   0.489   2.666   6.848
 1882SOL     OW 6544   1.297   6.266   6.632
 1882SOL    HW1 6545   1.382   6.318   6.634
 1882SOL    HW2 6546   1.236   6.305   6.563
 1883SOL     OW 6547   0.432   2.403   3.976
 1883SOL    HW1 6548   0.473   2.321   4.014
 1883SOL    HW2 6549   0.345   2.380   3.933
 1884SOL     OW 6550   0.552   2.850   1.105
 1884SOL    HW1 6551   0.651   2.856   1.109
 1884SOL    HW2 6552   0.524   2.754   1.104
 1885SOL     OW 6553   1.919   1.270   4.346
 1885SOL    HW1 6554   1.906   1.345   4.282
 1885SOL    HW2 6555   1.926   1.184   4.296
 1886SOL     OW 6556   0.785   6.615   3.382
 1886SOL    HW1 6557   0.825   6.660   3.462
 1886SOL    HW2 6558   0.829   6.526   3.368
 1887SOL     OW 6559   3.013   6.186   6.286
 1887SOL    HW1 6560   3.067   6.233   6.216
 1887SOL    HW2 6561   2.931   6.240   6.307
 1888SOL     OW 6562   2.868   1.232   3.032
 1888SOL    HW1 6563   2.869   1.251   2.934
 1888SOL    HW2 6564   2.875   1.318   3.083
 1889SOL     OW 6565   0.485   3.315   2.493
 1889SOL    HW1 6566   0.454   3.366   2.412
 1889SOL    HW2 6567   0.544   3.373   2.548
 1890SOL     OW 6568   0.961   5.780   4.630
 1890SOL    HW1 6569   1.014   5.812   4.551
 1890SOL    HW2 6570   0.873   5.744   4.598
 1891SOL     OW 6571   3.106   3.108   3.360
 1891SOL    HW1 6572   3.100   3.043   3.436
 1891SOL    HW2 6573   3.183   3.170   3.375
 1892SOL     OW 6574   1.052   0.517   2.636
 1892SOL    HW1 6575   1.050   0.458   2.556
 1892SOL    HW2 6576   1.144   0.515   2.676
 1893SOL     OW 6577   3.898   3.803   4.224
 1893SOL    HW1 6578   3.960   3.847   4.288
 1893SOL    HW2 6579   3.874   3.712   4.257
 1894SOL     OW 6580   3.315   3.499   4.609
 1894SOL    HW1 6581   3.221   3.483   4.579
 1894SOL    HW2 6582   3.318   3.502   4.709
 1895SOL     OW 6583   1.841   6.349   0.244
 1895SOL    HW1 6584   1.805   6.291   0.316
 1895SOL    HW2 6585   1.800   6.323   0.156
 1896SOL     OW 6586   6.052   2.454   1.279
 1896SOL    HW1 6587   6.111   2.477   1.356
 1896SOL    HW2 6588   6.057   2.356   1.261
 1897SOL     OW 6589   1.537   4.356   4.661
 1897SOL    HW1 6590   1.570   4.420   4.730
 1897SOL    HW2 6591   1.511   4.406   4.579
 1898SOL     OW 6592   1.826   6.203   2.979
 1898SOL    HW1 6593   1.829   6.230   2.883
 1898SOL    HW2 6594   1.913   6.164   3.006
 1899SOL     OW 6595   0.456   0.945   1.985
 1899SOL    HW1 6596   0.358   0.946   2.004
 1899SOL    HW2 6597   0.501   1.017   2.037
 1900SOL     OW 6598   2.630   6.498   6.824
 1900SOL    HW1 6599   2.544   6.495   6.773
 1900SOL    HW2 6600   2.706   6.504   6.759
 1901SOL     OW 6601   2.708   3.792   1.671
 1901SOL    HW1 6602   2.763   3.853   1.613
 1901SOL    HW2 6603   2.769   3.745   1.735
 1902SOL     OW 6604   1.541   0.311   4.982
 1902SOL    HW1 6605   1.516   0.283   4.889
 1902SOL    HW2 6606   1.495   0.398   5.003
 1903SOL     OW 6607   1.507   2.416   4.027
 1903SOL    HW1 6608   1.606   2.413   4.041
 1903SOL    HW2 6609   1.466   2.335   4.069
 1904SOL     OW 6610   5.720   5.987   1.864
 1904SOL    HW1 6611   5.681   5.942   1.785
 1904SOL    HW2 6612   5.771   6.068   1.835
 1905SOL     OW 6613   1.015   1.766   3.861
 1905SOL    HW1 6614   0.991   1.699   3.931
 1905SOL    HW2 6615   1.059   1.844   3.904
 1906SOL     OW 6616   1.395   6.685   4.647
 1906SOL    HW1 6617   1.394   6.766   4.706
 1906SOL    HW2 6618   1.487   6.671   4.611
 1907SOL     OW 6619   4.854   2.884   0.465
 1907SOL    HW1 6620   4.887   2.869   0.372
 1907SOL    HW2 6621   4.924   2.932   0.518
 1908SOL     OW 6622   3.526   1.085   1.174
 1908SOL    HW1 6623   3.576   1.134   1.246
 1908SOL    HW2 6624   3.431   1.115   1.173
 1909SOL     OW 6625   6.249   5.165   4.728
 1909SOL    HW1 6626   6.196   5.114   4.795
 1909SOL    HW2 6627   6.194   5.179   4.646
 1910SOL     OW 6628   0.356   5.893   6.209
 1910SOL    HW1 6629   0.370   5.988   6.238
 1910SOL    HW2 6630   0.394   5.831   6.276
 1911SOL     OW 6631   6.051   6.197   4.435
 1911SOL    HW1 6632   5.961   6.172   4.471
 1911SOL    HW2 6633   6.055   6.172   4.338
 1912SOL     OW 6634   3.512   4.966   2.063
 1912SOL    HW1 6635   3.435   4.921   2.016
 1912SOL    HW2 6636   3.592   4.907   2.061
 1913SOL     OW 6637   3.462   4.202   6.592
 1913SOL    HW1 6638   3.459   4.118   6.645
 1913SOL    HW2 6639   3.554   4.241   6.594
 1914SOL     OW 6640   3.476   4.285   6.953
 1914SOL    HW1 6641   3.403   4.238   7.004
 1914SOL    HW2 6642   3.435   4.352   6.892
 1915SOL     OW 6643   3.498   2.963   6.617
 1915SOL    HW1 6644   3.417   2.939   6.671
 1915SOL    HW2 6645   3.491   2.922   6.526
 1916SOL     OW 6646   3.970   0.845   2.372
 1916SOL    HW1 6647   4.038   0.817   2.440
 1916SOL    HW2 6648   4.017   0.868   2.286
 1917SOL     OW 6649   1.931   4.126   1.202
 1917SOL    HW1 6650   2.026   4.114   1.232
 1917SOL    HW2 6651   1.926   4.205   1.140
 1918SOL     OW 6652   5.461   2.233   3.603
 1918SOL    HW1 6653   5.532   2.303   3.597
 1918SOL    HW2 6654   5.494   2.146   3.567
 1919SOL     OW 6655   6.851   2.959   5.983
 1919SOL    HW1 6656   6.850   2.899   5.903
 1919SOL    HW2 6657   6.759   2.967   6.021
 1920SOL     OW 6658   5.031   3.292   0.990
 1920SOL    HW1 6659   5.055   3.389   0.983
 1920SOL    HW2 6660   4.987   3.275   1.079
 1921SOL     OW 6661   2.708   2.136   6.666
 1921SOL    HW1 6662   2.710   2.210   6.733
 1921SOL    HW2 6663   2.647   2.064   6.699
 1922SOL     OW 6664   3.315   2.906   3.543
 1922SOL    HW1 6665   3.384   2.888   3.614
 1922SOL    HW2 6666   3.361   2.943   3.462
 1923SOL     OW 6667   3.421   0.822   4.535
 1923SOL    HW1 6668   3.460   0.823   4.444
 1923SOL    HW2 6669   3.351   0.751   4.540
 1924SOL     OW 6670   4.834   1.071   0.890
 1924SOL    HW1 6671   4.765   1.124   0.840
 1924SOL    HW2 6672   4.801   0.978   0.904
 1925SOL     OW 6673   1.326   3.719   1.528
 1925SOL    HW1 6674   1.398   3.652   1.512
 1925SOL    HW2 6675   1.361   3.811   1.508
 1926SOL     OW 6676   3.716   0.708   2.308
 1926SOL    HW1 6677   3.672   0.680   2.393
 1926SOL    HW2 6678   3.810   0.737   2.325
 1927SOL     OW 6679   1.940   5.218   1.119
 1927SOL    HW1 6680   1.974   5.243   1.209
 1927SOL    HW2 6681   1.986   5.274   1.050
 1928SOL     OW 6682   6.305   4.562   2.605
 1928SOL    HW1 6683   6.374   4.489   2.605
 1928SOL    HW2 6684   6.338   4.638   2.661
 1929SOL     OW 6685   3.513   6.780   3.496
 1929SOL    HW1 6686   3.555   6.870   3.510
 1929SOL    HW2 6687   3.430   6.773   3.551
 1930SOL     OW 6688   3.698   3.423   0.429
 1930SOL    HW1 6689   3.770   3.358   0.451
 1930SOL    HW2 6690   3.705   3.503   0.489
 1931SOL     OW 6691   0.235   2.246   3.856
 1931SOL    HW1 6692   0.256   2.148   3.860
 1931SOL    HW2 6693   0.137   2.260   3.871
 1932SOL     OW 6694   4.871   1.966   2.207
 1932SOL    HW1 6695   4.797   2.009   2.155
 1932SOL    HW2 6696   4.932   2.036   2.243
 1933SOL     OW 6697   1.228   1.002   1.214
 1933SOL    HW1 6698   1.165   0.926   1.196
 1933SOL    HW2 6699   1.177   1.078   1.254
 1934SOL     OW 6700   6.755   1.144   6.884
 1934SOL    HW1 6701   6.776   1.233   6.925
 1934SOL    HW2 6702   6.840   1.092   6.873
 1935SOL     OW 6703   6.038   4.903   3.713
 1935SOL    HW1 6704   6.014   4.809   3.690
 1935SOL    HW2 6705   5.962   4.964   3.687
 1936SOL     OW 6706   4.771   3.124   6.059
 1936SOL    HW1 6707   4.731   3.188   6.124
 1936SOL    HW2 6708   4.706   3.052   6.037
 1937SOL     OW 6709   6.121   4.904   6.801
 1937SOL    HW1 6710   6.163   4.992   6.778
 1937SOL    HW2 6711   6.036   4.893   6.749
 1938SOL     OW 6712   6.686   3.007   0.197
 1938SOL    HW1 6713   6.747   3.039   0.271
 1938SOL    HW2 6714   6.638   3.086   0.158
 1939SOL     OW 6715   0.364   0.308   4.236
 1939SOL    HW1 6716   0.272   0.343   4.255
 1939SOL    HW2 6717   0.398   0.346   4.151
 1940SOL     OW 6718   0.401   4.984   0.385
 1940SOL    HW1 6719   0.474   5.032   0.336
 1940SOL    HW2 6720   0.413   4.997   0.483
 1941SOL     OW 6721   5.192   1.787   4.806
 1941SOL    HW1 6722   5.159   1.854   4.873
 1941SOL    HW2 6723   5.250   1.833   4.739
 1942SOL     OW 6724   0.358   4.567   2.032
 1942SOL    HW1 6725   0.387   4.595   1.941
 1942SOL    HW2 6726   0.293   4.491   2.025
 1943SOL     OW 6727   0.770   2.781   3.301
 1943SOL    HW1 6728   0.802   2.732   3.219
 1943SOL    HW2 6729   0.827   2.754   3.379
 1944SOL     OW 6730   0.636   3.238   3.758
 1944SOL    HW1 6731   0.727   3.226   3.717
 1944SOL    HW2 6732   0.566   3.212   3.691
 1945SOL     OW 6733   5.342   1.285   2.008
 1945SOL    HW1 6734   5.431   1.240   2.023
 1945SOL    HW2 6735   5.349   1.381   2.035
 1946SOL     OW 6736   6.447   5.875   0.804
 1946SOL    HW1 6737   6.362   5.843   0.845
 1946SOL    HW2 6738   6.470   5.965   0.841
 1947SOL     OW 6739   6.282   5.050   2.865
 1947SOL    HW1 6740   6.296   5.149   2.854
 1947SOL    HW2 6741   6.266   5.030   2.962
 1948SOL     OW 6742   5.250   3.179   3.708
 1948SOL    HW1 6743   5.184   3.133   3.767
 1948SOL    HW2 6744   5.236   3.152   3.613
 1949SOL     OW 6745   3.198   4.201   6.487
 1949SOL    HW1 6746   3.282   4.234   6.530
 1949SOL    HW2 6747   3.183   4.249   6.401
 1950SOL     OW 6748   3.959   3.943   3.372
 1950SOL    HW1 6749   4.002   3.972   3.457
 1950SOL    HW2 6750   3.859   3.944   3.383
 1951SOL     OW 6751   6.419   5.061   5.657
 1951SOL    HW1 6752   6.518   5.072   5.666
 1951SOL    HW2 6753   6.394   5.057   5.561
 1952SOL     OW 6754   5.474   4.908   7.002
 1952SOL    HW1 6755   5.440   4.928   6.910
 1952SOL    HW2 6756   5.449   4.815   0.001
 1953SOL     OW 6757   1.109   1.428   0.086
 1953SOL    HW1 6758   1.203   1.440   0.054
 1953SOL    HW2 6759   1.064   1.517   0.091
 1954SOL     OW 6760   3.679   6.720   1.977
 1954SOL    HW1 6761   3.710   6.815   1.973
 1954SOL    HW2 6762   3.642   6.693   1.888
 1955SOL     OW 6763   6.959   2.739   3.613
 1955SOL    HW1 6764   0.009   2.676   3.609
 1955SOL    HW2 6765   6.882   2.702   3.560
 1956SOL     OW 6766   5.173   0.814   1.536
 1956SOL    HW1 6767   5.111   0.878   1.580
 1956SOL    HW2 6768   5.262   0.817   1.582
 1957SOL     OW 6769   6.719   2.325   4.163
 1957SOL    HW1 6770   6.679   2.234   4.170
 1957SOL    HW2 6771   6.819   2.317   4.163
 1958SOL     OW 6772   4.096   1.532   0.567
 1958SOL    HW1 6773   4.113   1.495   0.658
 1958SOL    HW2 6774   4.178   1.578   0.533
 1959SOL     OW 6775   1.127   2.227   5.363
 1959SOL    HW1 6776   1.109   2.321   5.392
 1959SOL    HW2 6777   1.202   2.226   5.297
 1960SOL     OW 6778   5.848   3.893   3.296
 1960SOL    HW1 6779   5.785   3.822   3.328
 1960SOL    HW2 6780   5.798   3.960   3.241
 1961SOL     OW 6781   0.617   3.695   3.660
 1961SOL    HW1 6782   0.547   3.623   3.650
 1961SOL    HW2 6783   0.708   3.654   3.655
 1962SOL     OW 6784   0.658   0.514   1.800
 1962SOL    HW1 6785   0.610   0.601   1.785
 1962SOL    HW2 6786   0.726   0.526   1.873
 1963SOL     OW 6787   0.666   2.842   6.856
 1963SOL    HW1 6788   0.599   2.842   6.930
 1963SOL    HW2 6789   0.627   2.885   6.775
 1964SOL     OW 6790   5.644   3.686   0.572
 1964SOL    HW1 6791   5.579   3.615   0.598
 1964SOL    HW2 6792   5.596   3.759   0.524
 1965SOL     OW 6793   6.195   4.429   3.626
 1965SOL    HW1 6794   6.141   4.349   3.600
 1965SOL    HW2 6795   6.226   4.476   3.544
 1966SOL     OW 6796   0.726   4.725   6.562
 1966SOL    HW1 6797   0.691   4.814   6.534
 1966SOL    HW2 6798   0.779   4.685   6.487
 1967SOL     OW 6799   6.414   3.326   5.121
 1967SOL    HW1 6800   6.494   3.384   5.117
 1967SOL    HW2 6801   6.332   3.379   5.098
 1968SOL     OW 6802   2.540   0.864   5.842
 1968SOL    HW1 6803   2.545   0.837   5.747
 1968SOL    HW2 6804   2.480   0.944   5.851
 1969SOL     OW 6805   1.193   6.057   0.983
 1969SOL    HW1 6806   1.251   6.119   1.035
 1969SOL    HW2 6807   1.181   5.972   1.034
 1970SOL     OW 6808   5.487   4.585   4.148
 1970SOL    HW1 6809   5.489   4.513   4.078
 1970SOL    HW2 6810   5.538   4.664   4.116
 1971SOL     OW 6811   1.930   4.330   4.855
 1971SOL    HW1 6812   1.881   4.301   4.937
 1971SOL    HW2 6813   2.022   4.291   4.855
 1972SOL     OW 6814   6.303   1.981   2.546
 1972SOL    HW1 6815   6.280   1.921   2.468
 1972SOL    HW2 6816   6.267   2.072   2.529
 1973SOL     OW 6817   3.516   2.243   0.952
 1973SOL    HW1 6818   3.551   2.150   0.964
 1973SOL    HW2 6819   3.541   2.277   0.862
 1974SOL     OW 6820   2.324   0.045   5.217
 1974SOL    HW1 6821   2.251   7.018   5.258
 1974SOL    HW2 6822   2.285   0.116   5.159
 1975SOL     OW 6823   2.129   2.560   2.902
 1975SOL    HW1 6824   2.107   2.549   2.999
 1975SOL    HW2 6825   2.127   2.657   2.877
 1976SOL     OW 6826   1.209   0.815   4.989
 1976SOL    HW1 6827   1.304   0.825   4.960
 1976SOL    HW2 6828   1.148   0.855   4.921
 1977SOL     OW 6829   1.557   3.849   6.818
 1977SOL    HW1 6830   1.551   3.814   6.725
 1977SOL    HW2 6831   1.613   3.932   6.819
 1978SOL     OW 6832   2.930   0.616   2.079
 1978SOL    HW1 6833   2.907   0.536   2.134
 1978SOL    HW2 6834   2.848   0.670   2.062
 1979SOL     OW 6835   5.757   4.767   6.430
 1979SOL    HW1 6836   5.699   4.715   6.493
 1979SOL    HW2 6837   5.765   4.717   6.344
 1980SOL     OW 6838   3.902   0.538   0.778
 1980SOL    HW1 6839   3.985   0.592   0.790
 1980SOL    HW2 6840   3.896   0.470   0.850
 1981SOL     OW 6841   3.854   1.891   2.274
 1981SOL    HW1 6842   3.778   1.952   2.295
 1981SOL    HW2 6843   3.840   1.848   2.185
 1982SOL     OW 6844   1.620   2.772   6.157
 1982SOL    HW1 6845   1.674   2.795   6.076
 1982SOL    HW2 6846   1.526   2.751   6.131
 1983SOL     OW 6847   6.157   1.613   1.975
 1983SOL    HW1 6848   6.146   1.526   2.023
 1983SOL    HW2 6849   6.092   1.616   1.898
 1984SOL     OW 6850   4.510   3.924   6.156
 1984SOL    HW1 6851   4.563   3.852   6.200
 1984SOL    HW2 6852   4.413   3.901   6.160
 1985SOL     OW 6853   6.139   4.596   4.394
 1985SOL    HW1 6854   6.207   4.669   4.394
 1985SOL    HW2 6855   6.048   4.635   4.378
 1986SOL     OW 6856   2.946   3.645   2.054
 1986SOL    HW1 6857   2.910   3.731   2.089
 1986SOL    HW2 6858   3.046   3.651   2.047
 1987SOL     OW 6859   2.483   0.712   2.088
 1987SOL    HW1 6860   2.387   0.684   2.075
 1987SOL    HW2 6861   2.501   0.724   2.185
 1988SOL     OW 6862   0.512   1.909   1.892
 1988SOL    HW1 6863   0.512   1.862   1.980
 1988SOL    HW2 6864   0.467   1.851   1.823
 1989SOL     OW 6865   2.941   5.760   5.268
 1989SOL    HW1 6866   2.933   5.786   5.172
 1989SOL    HW2 6867   2.859   5.790   5.318
 1990SOL     OW 6868   3.916   0.355   7.019
 1990SOL    HW1 6869   3.924   0.390   0.085
 1990SOL    HW2 6870   4.004   0.364   6.972
 1991SOL     OW 6871   2.318   5.307   1.656
 1991SOL    HW1 6872   2.288   5.213   1.639
 1991SOL    HW2 6873   2.316   5.359   1.570
 1992SOL     OW 6874   0.889   6.519   2.802
 1992SOL    HW1 6875   0.799   6.493   2.768
 1992SOL    HW2 6876   0.936   6.574   2.734
 1993SOL     OW 6877   2.084   1.856   2.968
 1993SOL    HW1 6878   2.021   1.932   2.955
 1993SOL    HW2 6879   2.092   1.804   2.883
 1994SOL     OW 6880   3.811   3.097   1.271
 1994SOL    HW1 6881   3.792   3.069   1.177
 1994SOL    HW2 6882   3.745   3.167   1.299
 1995SOL     OW 6883   5.740   1.878   4.165
 1995SOL    HW1 6884   5.827   1.848   4.203
 1995SOL    HW2 6885   5.735   1.852   4.069
 1996SOL     OW 6886   4.916   0.768   0.670
 1996SOL    HW1 6887   4.871   0.783   0.758
 1996SOL    HW2 6888   4.948   0.856   0.634
 1997SOL     OW 6889   3.515   0.853   3.567
 1997SOL    HW1 6890   3.554   0.878   3.479
 1997SOL    HW2 6891   3.447   0.921   3.594
 1998SOL     OW 6892   2.814   3.966   1.105
 1998SOL    HW1 6893   2.728   3.923   1.079
 1998SOL    HW2 6894   2.798   4.033   1.178
 1999SOL     OW 6895   0.352   6.786   6.748
 1999SOL    HW1 6896   0.331   6.710   6.687
 1999SOL    HW2 6897   0.447   6.780   6.777
 2000SOL     OW 6898   4.019   4.426   6.054
 2000SOL    HW1 6899   4.004   4.383   6.143
 2000SOL    HW2 6900   4.087   4.373   6.002
 2001SOL     OW 6901   1.595   2.519   1.044
 2001SOL    HW1 6902   1.552   2.579   1.111
 2001SOL    HW2 6903   1.662   2.461   1.089
 2002SOL     OW 6904   6.604   5.331   0.783
 2002SOL    HW1 6905   6.558   5.413   0.748
 2002SOL    HW2 6906   6.702   5.338   0.765
 2003SOL     OW 6907   5.896   5.625   1.771
 2003SOL    HW1 6908   5.805   5.626   1.812
 2003SOL    HW2 6909   5.936   5.534   1.781
 2004SOL     OW 6910   3.948   6.680   2.968
 2004SOL    HW1 6911   4.001   6.734   2.902
 2004SOL    HW2 6912   3.853   6.673   2.936
 2005SOL     OW 6913   1.475   6.705   0.504
 2005SOL    HW1 6914   1.410   6.632   0.524
 2005SOL    HW2 6915   1.505   6.698   0.409
 2006SOL     OW 6916   5.458   6.732   2.465
 2006SOL    HW1 6917   5.529   6.777   2.519
 2006SOL    HW2 6918   5.484   6.730   2.369
 2007SOL     OW 6919   5.855   5.408   5.849
 2007SOL    HW1 6920   5.920   5.339   5.882
 2007SOL    HW2 6921   5.804   5.370   5.771
 2008SOL     OW 6922   1.999   3.468   2.859
 2008SOL    HW1 6923   2.046   3.391   2.817
 2008SOL    HW2 6924   1.902   3.463   2.839
 2009SOL     OW 6925   6.251   6.937   2.727
 2009SOL    HW1 6926   6.275   7.003   2.798
 2009SOL    HW2 6927   6.289   6.847   2.750
 2010SOL     OW 6928   6.759   1.948   1.789
 2010SOL    HW1 6929   6.847   1.965   1.832
 2010SOL    HW2 6930   6.704   2.031   1.790
 2011SOL     OW 6931   1.068   0.208   4.815
 2011SOL    HW1 6932   0.968   0.206   4.825
 2011SOL    HW2 6933   1.107   0.265   4.886
 2012SOL     OW 6934   0.463   3.039   0.921
 2012SOL    HW1 6935   0.488   3.131   0.951
 2012SOL    HW2 6936   0.465   2.977   0.999
 2013SOL     OW 6937   0.403   2.634   2.247
 2013SOL    HW1 6938   0.430   2.542   2.216
 2013SOL    HW2 6939   0.386   2.632   2.345
 2014SOL     OW 6940   3.936   1.485   4.448
 2014SOL    HW1 6941   3.881   1.404   4.466
 2014SOL    HW2 6942   3.960   1.488   4.351
 2015SOL     OW 6943   4.009   6.467   2.339
 2015SOL    HW1 6944   3.951   6.518   2.275
 2015SOL    HW2 6945   4.020   6.373   2.305
 2016SOL     OW 6946   2.105   0.619   4.530
 2016SOL    HW1 6947   2.181   0.671   4.569
 2016SOL    HW2 6948   2.140   0.541   4.478
 2017SOL     OW 6949   3.256   6.432   3.797
 2017SOL    HW1 6950   3.324   6.440   3.723
 2017SOL    HW2 6951   3.168   6.468   3.765
 2018SOL     OW 6952   0.458   0.374   4.002
 2018SOL    HW1 6953   0.449   0.295   3.940
 2018SOL    HW2 6954   0.435   0.457   3.952
 2019SOL     OW 6955   5.922   5.175   6.738
 2019SOL    HW1 6956   5.995   5.234   6.772
 2019SOL    HW2 6957   5.834   5.220   6.750
 2020SOL     OW 6958   2.029   6.710   0.962
 2020SOL    HW1 6959   1.954   6.687   0.900
 2020SOL    HW2 6960   2.031   6.644   1.038
 2021SOL     OW 6961   0.289   5.828   4.723
 2021SOL    HW1 6962   0.330   5.822   4.814
 2021SOL    HW2 6963   0.240   5.743   4.703
 2022SOL     OW 6964   1.638   3.311   4.432
 2022SOL    HW1 6965   1.670   3.231   4.382
 2022SOL    HW2 6966   1.716   3.370   4.453
 2023SOL     OW 6967   6.741   5.851   6.488
 2023SOL    HW1 6968   6.755   5.949   6.472
 2023SOL    HW2 6969   6.785   5.824   6.574
 2024SOL     OW 6970   0.372   5.676   3.793
 2024SOL    HW1 6971   0.295   5.625   3.833
 2024SOL    HW2 6972   0.378   5.656   3.696
 2025SOL     OW 6973   2.061   6.186   4.515
 2025SOL    HW1 6974   2.019   6.185   4.606
 2025SOL    HW2 6975   2.147   6.237   4.518
 2026SOL     OW 6976   0.478   0.249   5.762
 2026SOL    HW1 6977   0.484   0.180   5.689
 2026SOL    HW2 6978   0.540   0.224   5.837
 2027SOL     OW 6979   7.005   6.140   2.244
 2027SOL    HW1 6980   6.922   6.196   2.241
 2027SOL    HW2 6981   0.048   6.187   2.298
 2028SOL     OW 6982   3.004   5.601   4.942
 2028SOL    HW1 6983   3.057   5.615   5.025
 2028SOL    HW2 6984   3.031   5.515   4.899
 2029SOL     OW 6985   6.556   2.855   6.478
 2029SOL    HW1 6986   6.524   2.876   6.570
 2029SOL    HW2 6987   6.594   2.763   6.476
 2030SOL     OW 6988   2.299   6.687   2.950
 2030SOL    HW1 6989   2.302   6.738   2.864
 2030SOL    HW2 6990   2.350   6.601   2.940
 2031SOL     OW 6991   0.679   6.117   5.023
 2031SOL    HW1 6992   0.656   6.152   4.932
 2031SOL    HW2 6993   0.771   6.149   5.048
 2032SOL     OW 6994   2.069   2.672   6.123
 2032SOL    HW1 6995   2.148   2.730   6.102
 2032SOL    HW2 6996   2.076   2.640   6.218
 2033SOL     OW 6997   1.877   1.280   0.524
 2033SOL    HW1 6998   1.947   1.265   0.454
 2033SOL    HW2 6999   1.917   1.267   0.615
 2034SOL     OW 7000   0.844   4.553   4.920
 2034SOL    HW1 7001   0.900   4.509   4.850
 2034SOL    HW2 7002   0.749   4.556   4.890
 2035SOL     OW 7003   5.555   6.043   3.029
 2035SOL    HW1 7004   5.596   5.989   3.103
 2035SOL    HW2 7005   5.455   6.036   3.034
 2036SOL     OW 7006   0.445   4.285   6.182
 2036SOL    HW1 7007   0.522   4.341   6.213
 2036SOL    HW2 7008   0.361   4.339   6.188
 2037SOL     OW 7009   1.029   2.547   6.919
 2037SOL    HW1 7010   1.119   2.559   6.877
 2037SOL    HW2 7011   1.033   2.478   6.990
 2038SOL     OW 7012   1.076   1.332   5.893
 2038SOL    HW1 7013   1.036   1.423   5.908
 2038SOL    HW2 7014   1.033   1.289   5.814
 2039SOL     OW 7015   5.238   6.049   3.253
 2039SOL    HW1 7016   5.226   6.145   3.229
 2039SOL    HW2 7017   5.248   5.995   3.169
 2040SOL     OW 7018   2.773   2.001   0.387
 2040SOL    HW1 7019   2.761   2.096   0.359
 2040SOL    HW2 7020   2.764   1.995   0.487
 2041SOL     OW 7021   2.860   6.564   6.681
 2041SOL    HW1 7022   2.869   6.611   6.594
 2041SOL    HW2 7023   2.892   6.469   6.671
 2042SOL     OW 7024   6.184   0.618   6.175
 2042SOL    HW1 7025   6.211   0.703   6.220
 2042SOL    HW2 7026   6.141   0.557   6.241
 2043SOL     OW 7027   0.710   4.017   0.467
 2043SOL    HW1 7028   0.741   3.922   0.458
 2043SOL    HW2 7029   0.780   4.070   0.515
 2044SOL     OW 7030   4.134   0.394   1.940
 2044SOL    HW1 7031   4.232   0.395   1.922
 2044SOL    HW2 7032   4.087   0.454   1.875
 2045SOL     OW 7033   2.166   5.912   4.025
 2045SOL    HW1 7034   2.249   5.857   4.018
 2045SOL    HW2 7035   2.179   5.999   3.979
 2046SOL     OW 7036   0.884   3.060   5.896
 2046SOL    HW1 7037   0.895   3.102   5.806
 2046SOL    HW2 7038   0.909   2.963   5.892
 2047SOL     OW 7039   6.635   0.109   1.402
 2047SOL    HW1 7040   6.686   0.174   1.459
 2047SOL    HW2 7041   6.610   0.153   1.316
 2048SOL     OW 7042   2.188   1.056   4.311
 2048SOL    HW1 7043   2.179   1.052   4.410
 2048SOL    HW2 7044   2.097   1.065   4.270
 2049SOL     OW 7045   4.567   2.929   5.339
 2049SOL    HW1 7046   4.480   2.919   5.389
 2049SOL    HW2 7047   4.610   3.016   5.365
 2050SOL     OW 7048   0.532   0.793   3.580
 2050SOL    HW1 7049   0.555   0.710   3.630
 2050SOL    HW2 7050   0.616   0.842   3.555
 2051SOL     OW 7051   3.532   6.646   0.347
 2051SOL    HW1 7052   3.526   6.641   0.247
 2051SOL    HW2 7053   3.610   6.591   0.378
 2052SOL     OW 7054   0.936   3.851   1.027
 2052SOL    HW1 7055   0.911   3.787   0.954
 2052SOL    HW2 7056   1.032   3.836   1.053
 2053SOL     OW 7057   6.300   4.843   2.705
 2053SOL    HW1 7058   6.363   4.856   2.628
 2053SOL    HW2 7059   6.291   4.928   2.756
 2054SOL     OW 7060   3.175   3.630   2.953
 2054SOL    HW1 7061   3.139   3.597   3.040
 2054SOL    HW2 7062   3.176   3.556   2.886
 2055SOL     OW 7063   4.449   2.610   5.732
 2055SOL    HW1 7064   4.370   2.548   5.731
 2055SOL    HW2 7065   4.417   2.704   5.727
 2056SOL     OW 7066   2.923   5.062   1.728
 2056SOL    HW1 7067   2.941   4.967   1.702
 2056SOL    HW2 7068   2.974   5.085   1.811
 2057SOL     OW 7069   5.931   3.007   3.970
 2057SOL    HW1 7070   5.907   2.956   4.053
 2057SOL    HW2 7071   5.981   3.089   3.995
 2058SOL     OW 7072   5.872   0.303   3.603
 2058SOL    HW1 7073   5.826   0.220   3.635
 2058SOL    HW2 7074   5.971   0.290   3.609
 2059SOL     OW 7075   2.173   2.047   5.351
 2059SOL    HW1 7076   2.243   2.097   5.301
 2059SOL    HW2 7077   2.216   1.992   5.423
 2060SOL     OW 7078   1.950   2.404   6.579
 2060SOL    HW1 7079   1.992   2.344   6.648
 2060SOL    HW2 7080   1.939   2.354   6.493
 2061SOL     OW 7081   1.948   1.772   3.398
 2061SOL    HW1 7082   1.958   1.871   3.385
 2061SOL    HW2 7083   2.037   1.732   3.420
 2062SOL     OW 7084   6.106   4.983   4.437
 2062SOL    HW1 7085   6.009   4.984   4.460
 2062SOL    HW2 7086   6.123   5.045   4.360
 2063SOL     OW 7087   1.413   2.195   4.191
 2063SOL    HW1 7088   1.511   2.180   4.183
 2063SOL    HW2 7089   1.391   2.229   4.283
 2064SOL     OW 7090   0.620   3.710   4.298
 2064SOL    HW1 7091   0.665   3.733   4.212
 2064SOL    HW2 7092   0.674   3.639   4.345
 2065SOL     OW 7093   4.116   3.596   5.663
 2065SOL    HW1 7094   4.122   3.619   5.566
 2065SOL    HW2 7095   4.129   3.497   5.675
 2066SOL     OW 7096   1.564   2.778   5.036
 2066SOL    HW1 7097   1.471   2.741   5.043
 2066SOL    HW2 7098   1.592   2.779   4.940
 2067SOL     OW 7099   6.296   4.567   1.918
 2067SOL    HW1 7100   6.393   4.560   1.942
 2067SOL    HW2 7101   6.241   4.537   1.995
 2068SOL     OW 7102   4.332   6.458   4.388
 2068SOL    HW1 7103   4.381   6.402   4.321
 2068SOL    HW2 7104   4.315   6.404   4.470
 2069SOL     OW 7105   6.401   1.102   3.748
 2069SOL    HW1 7106   6.478   1.095   3.685
 2069SOL    HW2 7107   6.428   1.068   3.838
 2070SOL     OW 7108   1.284   5.069   1.245
 2070SOL    HW1 7109   1.286   4.972   1.223
 2070SOL    HW2 7110   1.267   5.122   1.162
 2071SOL     OW 7111   6.822   2.646   4.893
 2071SOL    HW1 7112   6.888   2.690   4.832
 2071SOL    HW2 7113   6.840   2.547   4.896
 2072SOL     OW 7114   5.514   3.877   5.208
 2072SOL    HW1 7115   5.570   3.927   5.274
 2072SOL    HW2 7116   5.554   3.886   5.117
 2073SOL     OW 7117   3.293   5.178   6.502
 2073SOL    HW1 7118   3.199   5.143   6.502
 2073SOL    HW2 7119   3.335   5.158   6.414
 2074SOL     OW 7120   2.449   4.567   6.171
 2074SOL    HW1 7121   2.411   4.618   6.248
 2074SOL    HW2 7122   2.518   4.622   6.124
 2075SOL     OW 7123   5.446   2.603   1.578
 2075SOL    HW1 7124   5.540   2.573   1.565
 2075SOL    HW2 7125   5.386   2.523   1.583
 2076SOL     OW 7126   6.907   6.923   4.735
 2076SOL    HW1 7127   6.939   6.931   4.640
 2076SOL    HW2 7128   6.984   6.899   4.794
 2077SOL     OW 7129   6.232   4.550   0.322
 2077SOL    HW1 7130   6.204   4.560   0.418
 2077SOL    HW2 7131   6.291   4.626   0.297
 2078SOL     OW 7132   0.952   2.710   6.498
 2078SOL    HW1 7133   1.045   2.674   6.498
 2078SOL    HW2 7134   0.914   2.707   6.590
 2079SOL     OW 7135   5.273   1.372   3.113
 2079SOL    HW1 7136   5.361   1.397   3.073
 2079SOL    HW2 7137   5.286   1.347   3.209
 2080SOL     OW 7138   2.334   3.196   6.230
 2080SOL    HW1 7139   2.400   3.164   6.163
 2080SOL    HW2 7140   2.285   3.275   6.194
 2081SOL     OW 7141   0.103   6.331   2.443
 2081SOL    HW1 7142   0.167   6.400   2.410
 2081SOL    HW2 7143   0.011   6.369   2.445
 2082SOL     OW 7144   0.177   5.712   4.009
 2082SOL    HW1 7145   0.154   5.677   4.099
 2082SOL    HW2 7146   0.093   5.728   3.956
 2083SOL     OW 7147   0.577   5.885   4.057
 2083SOL    HW1 7148   0.643   5.811   4.054
 2083SOL    HW2 7149   0.536   5.897   3.967
 2084SOL     OW 7150   6.870   2.334   1.435
 2084SOL    HW1 7151   6.919   2.392   1.371
 2084SOL    HW2 7152   6.771   2.351   1.427
 2085SOL     OW 7153   6.370   5.865   0.517
 2085SOL    HW1 7154   6.275   5.893   0.501
 2085SOL    HW2 7155   6.385   5.856   0.616
 2086SOL     OW 7156   5.543   0.246   6.739
 2086SOL    HW1 7157   5.624   0.302   6.756
 2086SOL    HW2 7158   5.546   0.210   6.646
 2087SOL     OW 7159   4.593   1.617   6.757
 2087SOL    HW1 7160   4.682   1.651   6.787
 2087SOL    HW2 7161   4.522   1.684   6.781
 2088SOL     OW 7162   6.947   4.489   6.042
 2088SOL    HW1 7163   6.852   4.483   6.072
 2088SOL    HW2 7164   7.006   4.497   6.122
 2089SOL     OW 7165   2.723   4.254   5.823
 2089SOL    HW1 7166   2.733   4.306   5.908
 2089SOL    HW2 7167   2.640   4.283   5.776
 2090SOL     OW 7168   5.262   3.039   0.274
 2090SOL    HW1 7169   5.359   3.061   0.267
 2090SOL    HW2 7170   5.249   2.968   0.343
 2091SOL     OW 7171   4.831   6.360   0.911
 2091SOL    HW1 7172   4.908   6.306   0.878
 2091SOL    HW2 7173   4.755   6.353   0.847
 2092SOL     OW 7174   3.408   3.332   2.146
 2092SOL    HW1 7175   3.351   3.314   2.226
 2092SOL    HW2 7176   3.499   3.361   2.176
 2093SOL     OW 7177   4.324   0.346   1.111
 2093SOL    HW1 7178   4.422   0.349   1.089
 2093SOL    HW2 7179   4.308   0.275   1.180
 2094SOL     OW 7180   5.087   2.178   0.780
 2094SOL    HW1 7181   5.179   2.141   0.769
 2094SOL    HW2 7182   5.039   2.174   0.692
 2095SOL     OW 7183   5.114   5.330   4.404
 2095SOL    HW1 7184   5.112   5.417   4.355
 2095SOL    HW2 7185   5.151   5.259   4.344
 2096SOL     OW 7186   4.140   0.007   2.812
 2096SOL    HW1 7187   4.108   0.042   2.724
 2096SOL    HW2 7188   4.126   0.076   2.883
 2097SOL     OW 7189   0.935   5.886   5.814
 2097SOL    HW1 7190   0.952   5.796   5.776
 2097SOL    HW2 7191   0.900   5.877   5.907
 2098SOL     OW 7192   2.405   6.752   3.713
 2098SOL    HW1 7193   2.447   6.802   3.637
 2098SOL    HW2 7194   2.306   6.766   3.711
 2099SOL     OW 7195   4.169   1.797   0.207
 2099SOL    HW1 7196   4.100   1.804   0.279
 2099SOL    HW2 7197   4.153   1.714   0.154
 2100SOL     OW 7198   4.681   0.742   7.023
 2100SOL    HW1 7199   4.746   0.692   0.053
 2100SOL    HW2 7200   4.589   0.708   0.012
 2101SOL     OW 7201   1.958   7.009   2.698
 2101SOL    HW1 7202   1.985   6.979   2.790
 2101SOL    HW2 7203   1.962   6.932   2.635
 2102SOL     OW 7204   3.850   2.584   1.718
 2102SOL    HW1 7205   3.949   2.568   1.713
 2102SOL    HW2 7206   3.806   2.503   1.757
 2103SOL     OW 7207   1.411   0.263   0.902
 2103SOL    HW1 7208   1.429   0.171   0.937
 2103SOL    HW2 7209   1.356   0.256   0.818
 2104SOL     OW 7210   2.070   4.411   2.682
 2104SOL    HW1 7211   2.169   4.416   2.665
 2104SOL    HW2 7212   2.023   4.392   2.596
 2105SOL     OW 7213   5.484   0.238   5.202
 2105SOL    HW1 7214   5.526   0.147   5.207
 2105SOL    HW2 7215   5.393   0.230   5.162
 2106SOL     OW 7216   3.498   2.361   1.410
 2106SOL    HW1 7217   3.485   2.385   1.506
 2106SOL    HW2 7218   3.564   2.424   1.368
 2107SOL     OW 7219   5.045   4.587   4.884
 2107SOL    HW1 7220   5.029   4.494   4.850
 2107SOL    HW2 7221   5.119   4.630   4.831
 2108SOL     OW 7222   4.691   6.888   4.764
 2108SOL    HW1 7223   4.642   6.843   4.839
 2108SOL    HW2 7224   4.659   6.853   4.677
 2109SOL     OW 7225   2.528   5.878   2.041
 2109SOL    HW1 7226   2.597   5.867   2.113
 2109SOL    HW2 7227   2.438   5.890   2.084
 2110SOL     OW 7228   3.565   5.662   0.176
 2110SOL    HW1 7229   3.517   5.575   0.170
 2110SOL    HW2 7230   3.599   5.675   0.269
 2111SOL     OW 7231   1.130   2.167   6.656
 2111SOL    HW1 7232   1.163   2.258   6.632
 2111SOL    HW2 7233   1.117   2.113   6.573
 2112SOL     OW 7234   0.694   0.451   6.638
 2112SOL    HW1 7235   0.772   0.496   6.683
 2112SOL    HW2 7236   0.684   0.358   6.675
 2113SOL     OW 7237   6.416   1.603   4.942
 2113SOL    HW1 7238   6.473   1.638   5.017
 2113SOL    HW2 7239   6.345   1.670   4.921
 2114SOL     OW 7240   2.317   0.834   5.177
 2114SOL    HW1 7241   2.393   0.781   5.217
 2114SOL    HW2 7242   2.274   0.780   5.104
 2115SOL     OW 7243   0.024   6.472   3.299
 2115SOL    HW1 7244   0.113   6.427   3.312
 2115SOL    HW2 7245   0.035   6.550   3.238
 2116SOL     OW 7246   2.107   1.226   6.766
 2116SOL    HW1 7247   2.133   1.134   6.798
 2116SOL    HW2 7248   2.018   1.221   6.721
 2117SOL     OW 7249   6.587   2.155   2.728
 2117SOL    HW1 7250   6.547   2.064   2.716
 2117SOL    HW2 7251   6.564   2.191   2.818
 2118SOL     OW 7252   6.953   2.958   2.589
 2118SOL    HW1 7253   6.879   2.911   2.638
 2118SOL    HW2 7254   6.916   3.042   2.548
 2119SOL     OW 7255   0.912   3.151   0.404
 2119SOL    HW1 7256   0.995   3.141   0.460
 2119SOL    HW2 7257   0.835   3.108   0.451
 2120SOL     OW 7258   5.657   1.940   0.631
 2120SOL    HW1 7259   5.608   1.869   0.682
 2120SOL    HW2 7260   5.602   1.969   0.553
 2121SOL     OW 7261   2.133   6.621   1.466
 2121SOL    HW1 7262   2.065   6.622   1.393
 2121SOL    HW2 7263   2.196   6.544   1.452
 2122SOL     OW 7264   6.718   1.056   4.891
 2122SOL    HW1 7265   6.666   1.134   4.927
 2122SOL    HW2 7266   6.759   1.081   4.804
 2123SOL     OW 7267   1.011   4.765   3.396
 2123SOL    HW1 7268   0.980   4.714   3.476
 2123SOL    HW2 7269   0.942   4.761   3.324
 2124SOL     OW 7270   4.958   3.802   6.156
 2124SOL    HW1 7271   4.919   3.720   6.199
 2124SOL    HW2 7272   4.981   3.869   6.226
 2125SOL     OW 7273   1.350   5.709   4.604
 2125SOL    HW1 7274   1.374   5.780   4.538
 2125SOL    HW2 7275   1.367   5.743   4.697
 2126SOL     OW 7276   2.989   3.743   0.240
 2126SOL    HW1 7277   3.083   3.731   0.271
 2126SOL    HW2 7278   2.934   3.783   0.314
 2127SOL     OW 7279   1.142   3.527   4.284
 2127SOL    HW1 7280   1.092   3.585   4.221
 2127SOL    HW2 7281   1.230   3.502   4.245
 2128SOL     OW 7282   5.328   3.004   2.104
 2128SOL    HW1 7283   5.339   3.068   2.180
 2128SOL    HW2 7284   5.247   2.947   2.119
 2129SOL     OW 7285   5.374   4.298   3.575
 2129SOL    HW1 7286   5.325   4.382   3.554
 2129SOL    HW2 7287   5.357   4.271   3.670
 2130SOL     OW 7288   1.871   0.556   1.867
 2130SOL    HW1 7289   1.865   0.646   1.824
 2130SOL    HW2 7290   1.958   0.514   1.844
 2131SOL     OW 7291   5.872   0.391   6.805
 2131SOL    HW1 7292   5.870   0.292   6.791
 2131SOL    HW2 7293   5.806   0.415   6.877
 2132SOL     OW 7294   2.880   2.674   0.167
 2132SOL    HW1 7295   2.793   2.640   0.131
 2132SOL    HW2 7296   2.911   2.751   0.111
 2133SOL     OW 7297   3.871   2.117   1.121
 2133SOL    HW1 7298   3.970   2.127   1.106
 2133SOL    HW2 7299   3.825   2.110   1.033
 2134SOL     OW 7300   1.692   6.719   5.547
 2134SOL    HW1 7301   1.779   6.674   5.525
 2134SOL    HW2 7302   1.704   6.778   5.627
 2135SOL     OW 7303   0.926   6.113   4.039
 2135SOL    HW1 7304   1.006   6.053   4.046
 2135SOL    HW2 7305   0.858   6.085   4.107
 2136SOL     OW 7306   0.976   5.066   3.845
 2136SOL    HW1 7307   1.013   5.051   3.753
 2136SOL    HW2 7308   1.032   5.134   3.893
 2137SOL     OW 7309   0.160   0.111   4.138
 2137SOL    HW1 7310   0.064   0.137   4.139
 2137SOL    HW2 7311   0.205   0.145   4.221
 2138SOL     OW 7312   1.345   2.248   5.989
 2138SOL    HW1 7313   1.281   2.285   6.057
 2138SOL    HW2 7314   1.432   2.296   5.996
 2139SOL     OW 7315   3.104   0.033   4.316
 2139SOL    HW1 7316   3.121   6.978   4.370
 2139SOL    HW2 7317   3.185   0.055   4.262
 2140SOL     OW 7318   1.235   5.810   4.228
 2140SOL    HW1 7319   1.317   5.752   4.227
 2140SOL    HW2 7320   1.156   5.756   4.259
 2141SOL     OW 7321   7.014   1.989   6.700
 2141SOL    HW1 7322   6.924   2.021   6.671
 2141SOL    HW2 7323   0.034   1.946   6.622
 2142SOL     OW 7324   3.656   0.917   3.337
 2142SOL    HW1 7325   3.729   0.984   3.346
 2142SOL    HW2 7326   3.694   0.827   3.314
 2143SOL     OW 7327   3.548   5.937   0.129
 2143SOL    HW1 7328   3.626   5.976   0.179
 2143SOL    HW2 7329   3.545   5.838   0.145
 2144SOL     OW 7330   1.127   1.288   1.767
 2144SOL    HW1 7331   1.197   1.243   1.823
 2144SOL    HW2 7332   1.038   1.279   1.812
 2145SOL     OW 7333   3.068   5.623   3.008
 2145SOL    HW1 7334   3.136   5.583   3.069
 2145SOL    HW2 7335   3.025   5.701   3.053
 2146SOL     OW 7336   2.645   2.504   0.912
 2146SOL    HW1 7337   2.694   2.476   0.830
 2146SOL    HW2 7338   2.553   2.466   0.911
 2147SOL     OW 7339   0.187   1.105   4.648
 2147SOL    HW1 7340   0.243   1.185   4.627
 2147SOL    HW2 7341   0.231   1.023   4.610
 2148SOL     OW 7342   6.081   3.243   4.064
 2148SOL    HW1 7343   6.065   3.275   3.971
 2148SOL    HW2 7344   6.154   3.297   4.105
 2149SOL     OW 7345   2.835   0.690   3.194
 2149SOL    HW1 7346   2.899   0.640   3.136
 2149SOL    HW2 7347   2.743   0.684   3.156
 2150SOL     OW 7348   4.844   0.195   3.327
 2150SOL    HW1 7349   4.855   0.249   3.244
 2150SOL    HW2 7350   4.773   0.125   3.311
 2151SOL     OW 7351   4.222   4.597   5.830
 2151SOL    HW1 7352   4.212   4.498   5.816
 2151SOL    HW2 7353   4.289   4.632   5.764
 2152SOL     OW 7354   6.589   6.704   2.394
 2152SOL    HW1 7355   6.565   6.797   2.367
 2152SOL    HW2 7356   6.610   6.650   2.313
 2153SOL     OW 7357   4.298   1.670   3.637
 2153SOL    HW1 7358   4.304   1.763   3.671
 2153SOL    HW2 7359   4.365   1.612   3.684
 2154SOL     OW 7360   3.468   6.430   5.273
 2154SOL    HW1 7361   3.474   6.353   5.209
 2154SOL    HW2 7362   3.540   6.496   5.252
 2155SOL     OW 7363   5.952   3.327   6.898
 2155SOL    HW1 7364   5.982   3.361   6.810
 2155SOL    HW2 7365   5.854   3.305   6.894
 2156SOL     OW 7366   6.472   0.546   2.269
 2156SOL    HW1 7367   6.436   0.536   2.362
 2156SOL    HW2 7368   6.430   0.626   2.226
 2157SOL     OW 7369   6.411   0.918   4.605
 2157SOL    HW1 7370   6.376   0.921   4.699
 2157SOL    HW2 7371   6.342   0.879   4.545
 2158SOL     OW 7372   5.003   0.129   3.793
 2158SOL    HW1 7373   4.932   0.104   3.727
 2158SOL    HW2 7374   4.986   0.223   3.825
 2159SOL     OW 7375   2.466   0.337   5.250
 2159SOL    HW1 7376   2.381   0.370   5.291
 2159SOL    HW2 7377   2.452   0.245   5.214
 2160SOL     OW 7378   2.992   2.734   0.657
 2160SOL    HW1 7379   3.063   2.752   0.588
 2160SOL    HW2 7380   2.917   2.798   0.644
 2161SOL     OW 7381   4.864   2.462   4.332
 2161SOL    HW1 7382   4.807   2.541   4.352
 2161SOL    HW2 7383   4.951   2.492   4.293
 2162SOL     OW 7384   2.216   1.286   1.540
 2162SOL    HW1 7385   2.242   1.372   1.584
 2162SOL    HW2 7386   2.240   1.210   1.600
 2163SOL     OW 7387   2.549   1.640   0.857
 2163SOL    HW1 7388   2.547   1.559   0.915
 2163SOL    HW2 7389   2.635   1.643   0.807
 2164SOL     OW 7390   6.753   0.865   1.364
 2164SOL    HW1 7391   6.793   0.866   1.273
 2164SOL    HW2 7392   6.827   0.868   1.432
 2165SOL     OW 7393   3.075   0.113   2.229
 2165SOL    HW1 7394   3.063   0.144   2.135
 2165SOL    HW2 7395   2.994   0.061   2.258
 2166SOL     OW 7396   5.373   2.410   5.574
 2166SOL    HW1 7397   5.400   2.370   5.661
 2166SOL    HW2 7398   5.451   2.458   5.534
 2167SOL     OW 7399   3.366   1.059   0.913
 2167SOL    HW1 7400   3.309   1.040   0.993
 2167SOL    HW2 7401   3.450   1.105   0.942
 2168SOL     OW 7402   5.794   6.395   4.699
 2168SOL    HW1 7403   5.760   6.431   4.786
 2168SOL    HW2 7404   5.831   6.469   4.644
 2169SOL     OW 7405   5.603   1.288   5.876
 2169SOL    HW1 7406   5.632   1.353   5.947
 2169SOL    HW2 7407   5.511   1.312   5.844
 2170SOL     OW 7408   5.531   4.599   4.427
 2170SOL    HW1 7409   5.527   4.544   4.344
 2170SOL    HW2 7410   5.471   4.559   4.497
 2171SOL     OW 7411   6.820   3.739   0.437
 2171SOL    HW1 7412   6.744   3.764   0.377
 2171SOL    HW2 7413   6.811   3.643   0.465
 2172SOL     OW 7414   2.521   0.457   1.900
 2172SOL    HW1 7415   2.477   0.504   1.823
 2172SOL    HW2 7416   2.560   0.525   1.962
 2173SOL     OW 7417   4.624   2.659   4.854
 2173SOL    HW1 7418   4.681   2.581   4.829
 2173SOL    HW2 7419   4.529   2.630   4.862
 2174SOL     OW 7420   1.363   5.391   4.471
 2174SOL    HW1 7421   1.270   5.429   4.466
 2174SOL    HW2 7422   1.426   5.461   4.503
 2175SOL     OW 7423   1.472   6.032   5.533
 2175SOL    HW1 7424   1.386   5.996   5.569
 2175SOL    HW2 7425   1.470   6.132   5.536
 2176SOL     OW 7426   1.900   2.479   2.374
 2176SOL    HW1 7427   1.999   2.482   2.366
 2176SOL    HW2 7428   1.863   2.406   2.316
 2177SOL     OW 7429   1.137   1.905   0.721
 2177SOL    HW1 7430   1.120   1.817   0.767
 2177SOL    HW2 7431   1.112   1.897   0.625
 2178SOL     OW 7432   6.011   6.373   1.002
 2178SOL    HW1 7433   5.984   6.348   0.909
 2178SOL    HW2 7434   6.111   6.381   1.007
 2179SOL     OW 7435   1.186   4.194   4.075
 2179SOL    HW1 7436   1.180   4.222   4.170
 2179SOL    HW2 7437   1.126   4.252   4.019
 2180SOL     OW 7438   3.359   2.632   1.591
 2180SOL    HW1 7439   3.311   2.682   1.664
 2180SOL    HW2 7440   3.396   2.547   1.627
 2181SOL     OW 7441   3.358   6.710   1.470
 2181SOL    HW1 7442   3.457   6.711   1.484
 2181SOL    HW2 7443   3.314   6.778   1.528
 2182SOL     OW 7444   5.099   2.843   0.934
 2182SOL    HW1 7445   5.066   2.850   1.028
 2182SOL    HW2 7446   5.068   2.757   0.894
 2183SOL     OW 7447   3.697   2.437   1.059
 2183SOL    HW1 7448   3.643   2.358   1.032
 2183SOL    HW2 7449   3.793   2.421   1.035
 2184SOL     OW 7450   5.295   3.579   6.390
 2184SOL    HW1 7451   5.255   3.582   6.298
 2184SOL    HW2 7452   5.343   3.492   6.403
 2185SOL     OW 7453   6.727   6.917   2.109
 2185SOL    HW1 7454   6.732   6.979   2.030
 2185SOL    HW2 7455   6.700   6.826   2.078
 2186SOL     OW 7456   0.382   4.248   3.440
 2186SOL    HW1 7457   0.432   4.175   3.486
 2186SOL    HW2 7458   0.296   4.211   3.404
 2187SOL     OW 7459   6.077   1.093   0.644
 2187SOL    HW1 7460   6.020   1.037   0.584
 2187SOL    HW2 7461   6.135   1.153   0.588
 2188SOL     OW 7462   4.532   1.249   3.866
 2188SOL    HW1 7463   4.631   1.264   3.869
 2188SOL    HW2 7464   4.500   1.219   3.956
 2189SOL     OW 7465   3.270   0.218   0.054
 2189SOL    HW1 7466   3.237   0.307   0.021
 2189SOL    HW2 7467   3.199   0.149   0.039
 2190SOL     OW 7468   5.390   2.922   0.806
 2190SOL    HW1 7469   5.380   2.944   0.709
 2190SOL    HW2 7470   5.302   2.895   0.843
 2191SOL     OW 7471   2.857   1.618   0.297
 2191SOL    HW1 7472   2.910   1.559   0.236
 2191SOL    HW2 7473   2.760   1.612   0.273
 2192SOL     OW 7474   4.399   5.690   2.701
 2192SOL    HW1 7475   4.444   5.761   2.755
 2192SOL    HW2 7476   4.383   5.723   2.608
 2193SOL     OW 7477   6.641   5.947   4.442
 2193SOL    HW1 7478   6.622   6.023   4.380
 2193SOL    HW2 7479   6.739   5.929   4.444
 2194SOL     OW 7480   2.779   6.969   1.976
 2194SOL    HW1 7481   2.822   0.027   1.947
 2194SOL    HW2 7482   2.817   6.893   1.924
 2195SOL     OW 7483   0.848   4.661   2.111
 2195SOL    HW1 7484   0.829   4.578   2.057
 2195SOL    HW2 7485   0.873   4.636   2.204
 2196SOL     OW 7486   4.325   3.870   0.716
 2196SOL    HW1 7487   4.351   3.796   0.778
 2196SOL    HW2 7488   4.407   3.922   0.690
 2197SOL     OW 7489   4.451   4.073   7.024
 2197SOL    HW1 7490   4.439   4.163   0.040
 2197SOL    HW2 7491   4.379   4.011   0.028
 2198SOL     OW 7492   6.703   4.307   0.437
 2198SOL    HW1 7493   6.608   4.295   0.409
 2198SOL    HW2 7494   6.737   4.394   0.402
 2199SOL     OW 7495   4.348   1.092   3.239
 2199SOL    HW1 7496   4.342   1.030   3.160
 2199SOL    HW2 7497   4.272   1.157   3.235
 2200SOL     OW 7498   3.310   0.101   4.163
 2200SOL    HW1 7499   3.353   0.191   4.161
 2200SOL    HW2 7500   3.378   0.031   4.141
 2201SOL     OW 7501   4.733   4.198   4.041
 2201SOL    HW1 7502   4.796   4.268   4.007
 2201SOL    HW2 7503   4.711   4.217   4.137
 2202SOL     OW 7504   4.526   5.320   3.789
 2202SOL    HW1 7505   4.540   5.334   3.887
 2202SOL    HW2 7506   4.613   5.295   3.746
 2203SOL     OW 7507   3.052   2.193   2.320
 2203SOL    HW1 7508   2.953   2.208   2.329
 2203SOL    HW2 7509   3.094   2.276   2.282
 2204SOL     OW 7510   2.672   2.486   0.433
 2204SOL    HW1 7511   2.727   2.506   0.514
 2204SOL    HW2 7512   2.649   2.571   0.386
 2205SOL     OW 7513   2.861   1.237   2.100
 2205SOL    HW1 7514   2.864   1.247   2.001
 2205SOL    HW2 7515   2.943   1.189   2.131
 2206SOL     OW 7516   1.715   3.252   0.610
 2206SOL    HW1 7517   1.656   3.261   0.530
 2206SOL    HW2 7518   1.791   3.317   0.604
 2207SOL     OW 7519   6.920   4.645   4.758
 2207SOL    HW1 7520   6.966   4.574   4.706
 2207SOL    HW2 7521   6.828   4.614   4.782
 2208SOL     OW 7522   0.011   4.804   2.313
 2208SOL    HW1 7523   7.014   4.788   2.409
 2208SOL    HW2 7524   7.006   4.894   2.285
 2209SOL     OW 7525   0.283   6.596   1.659
 2209SOL    HW1 7526   0.236   6.531   1.719
 2209SOL    HW2 7527   0.271   6.689   1.695
 2210SOL     OW 7528   2.002   4.973   3.877
 2210SOL    HW1 7529   2.095   4.958   3.843
 2210SOL    HW2 7530   1.997   4.946   3.973
 2211SOL     OW 7531   6.822   2.118   5.017
 2211SOL    HW1 7532   6.903   2.081   4.970
 2211SOL    HW2 7533   6.742   2.065   4.992
 2212SOL     OW 7534   2.588   6.765   6.030
 2212SOL    HW1 7535   2.630   6.805   5.948
 2212SOL    HW2 7536   2.564   6.838   6.094
 2213SOL     OW 7537   4.651   0.653   3.169
 2213SOL    HW1 7538   4.689   0.607   3.249
 2213SOL    HW2 7539   4.554   0.633   3.161
 2214SOL     OW 7540   4.010   6.938   5.226
 2214SOL    HW1 7541   3.916   6.963   5.245
 2214SOL    HW2 7542   4.034   6.856   5.278
 2215SOL     OW 7543   5.398   2.189   5.191
 2215SOL    HW1 7544   5.362   2.165   5.281
 2215SOL    HW2 7545   5.493   2.219   5.200
 2216SOL     OW 7546   3.509   1.549   2.524
 2216SOL    HW1 7547   3.502   1.574   2.427
 2216SOL    HW2 7548   3.521   1.450   2.532
 2217SOL     OW 7549   3.953   0.519   1.754
 2217SOL    HW1 7550   3.868   0.571   1.760
 2217SOL    HW2 7551   3.968   0.492   1.659
 2218SOL     OW 7552   0.808   0.172   2.826
 2218SOL    HW1 7553   0.755   0.098   2.867
 2218SOL    HW2 7554   0.768   0.260   2.851
 2219SOL     OW 7555   2.194   2.098   2.544
 2219SOL    HW1 7556   2.225   2.124   2.635
 2219SOL    HW2 7557   2.104   2.056   2.549
 2220SOL     OW 7558   1.271   0.381   2.039
 2220SOL    HW1 7559   1.210   0.458   2.021
 2220SOL    HW2 7560   1.222   0.311   2.092
 2221SOL     OW 7561   0.486   0.542   5.967
 2221SOL    HW1 7562   0.448   0.493   6.045
 2221SOL    HW2 7563   0.427   0.530   5.887
 2222SOL     OW 7564   6.577   4.988   3.922
 2222SOL    HW1 7565   6.484   4.985   3.957
 2222SOL    HW2 7566   6.594   4.906   3.867
 2223SOL     OW 7567   6.730   6.569   1.495
 2223SOL    HW1 7568   6.765   6.503   1.562
 2223SOL    HW2 7569   6.647   6.613   1.531
 2224SOL     OW 7570   0.897   4.926   0.799
 2224SOL    HW1 7571   0.859   4.835   0.783
 2224SOL    HW2 7572   0.927   4.934   0.894
 2225SOL     OW 7573   0.791   3.569   0.167
 2225SOL    HW1 7574   0.846   3.536   0.244
 2225SOL    HW2 7575   0.840   3.641   0.119
 2226SOL     OW 7576   3.784   3.640   2.234
 2226SOL    HW1 7577   3.881   3.665   2.231
 2226SOL    HW2 7578   3.742   3.680   2.315
 2227SOL     OW 7579   1.035   2.029   3.956
 2227SOL    HW1 7580   1.056   2.064   3.865
 2227SOL    HW2 7581   0.944   2.061   3.984
 2228SOL     OW 7582   2.868   4.967   3.933
 2228SOL    HW1 7583   2.809   4.931   4.006
 2228SOL    HW2 7584   2.842   4.925   3.846
 2229SOL     OW 7585   5.781   6.445   3.277
 2229SOL    HW1 7586   5.771   6.528   3.223
 2229SOL    HW2 7587   5.844   6.382   3.232
 2230SOL     OW 7588   2.107   5.228   1.884
 2230SOL    HW1 7589   2.147   5.318   1.903
 2230SOL    HW2 7590   2.055   5.232   1.799
 2231SOL     OW 7591   2.216   5.812   1.276
 2231SOL    HW1 7592   2.198   5.904   1.313
 2231SOL    HW2 7593   2.223   5.747   1.352
 2232SOL     OW 7594   5.613   2.586   3.937
 2232SOL    HW1 7595   5.581   2.613   3.846
 2232SOL    HW2 7596   5.576   2.496   3.960
 2233SOL     OW 7597   3.413   1.007   6.743
 2233SOL    HW1 7598   3.342   1.066   6.781
 2233SOL    HW2 7599   3.407   1.009   6.643
 2234SOL     OW 7600   3.676   2.519   1.308
 2234SOL    HW1 7601   3.605   2.589   1.310
 2234SOL    HW2 7602   3.692   2.491   1.213
 2235SOL     OW 7603   1.870   1.555   1.984
 2235SOL    HW1 7604   1.908   1.541   1.893
 2235SOL    HW2 7605   1.874   1.653   2.007
 2236SOL     OW 7606   1.316   4.665   5.535
 2236SOL    HW1 7607   1.239   4.728   5.541
 2236SOL    HW2 7608   1.299   4.586   5.594
 2237SOL     OW 7609   6.557   3.231   4.440
 2237SOL    HW1 7610   6.639   3.287   4.449
 2237SOL    HW2 7611   6.522   3.238   4.346
 2238SOL     OW 7612   5.754   6.450   0.478
 2238SOL    HW1 7613   5.831   6.501   0.517
 2238SOL    HW2 7614   5.779   6.420   0.385
 2239SOL     OW 7615   6.110   6.158   1.767
 2239SOL    HW1 7616   6.020   6.187   1.801
 2239SOL    HW2 7617   6.110   6.059   1.755
 2240SOL     OW 7618   6.112   3.516   2.024
 2240SOL    HW1 7619   6.040   3.506   1.956
 2240SOL    HW2 7620   6.084   3.473   2.110
 2241SOL     OW 7621   1.271   0.384   3.958
 2241SOL    HW1 7622   1.194   0.390   4.022
 2241SOL    HW2 7623   1.265   0.458   3.891
 2242SOL     OW 7624   3.115   2.000   2.491
 2242SOL    HW1 7625   3.195   2.033   2.541
 2242SOL    HW2 7626   3.089   2.068   2.422
 2243SOL     OW 7627   2.794   0.136   5.223
 2243SOL    HW1 7628   2.764   0.101   5.134
 2243SOL    HW2 7629   2.788   0.236   5.223
 2244SOL     OW 7630   3.912   1.016   5.258
 2244SOL    HW1 7631   3.963   1.020   5.344
 2244SOL    HW2 7632   3.856   1.098   5.247
 2245SOL     OW 7633   0.346   2.108   1.815
 2245SOL    HW1 7634   0.381   2.202   1.814
 2245SOL    HW2 7635   0.419   2.046   1.846
 2246SOL     OW 7636   1.032   4.494   5.360
 2246SOL    HW1 7637   1.021   4.510   5.459
 2246SOL    HW2 7638   1.079   4.407   5.345
 2247SOL     OW 7639   1.699   1.133   4.478
 2247SOL    HW1 7640   1.635   1.113   4.403
 2247SOL    HW2 7641   1.767   1.199   4.447
 2248SOL     OW 7642   4.450   3.858   5.783
 2248SOL    HW1 7643   4.356   3.876   5.813
 2248SOL    HW2 7644   4.448   3.806   5.698
 2249SOL     OW 7645   4.305   5.630   5.596
 2249SOL    HW1 7646   4.366   5.569   5.545
 2249SOL    HW2 7647   4.348   5.657   5.681
 2250SOL     OW 7648   4.859   5.399   1.633
 2250SOL    HW1 7649   4.853   5.300   1.623
 2250SOL    HW2 7650   4.770   5.440   1.616
 2251SOL     OW 7651   0.503   0.994   6.419
 2251SOL    HW1 7652   0.415   1.002   6.467
 2251SOL    HW2 7653   0.530   0.898   6.414
 2252SOL     OW 7654   3.345   0.794   6.446
 2252SOL    HW1 7655   3.390   0.738   6.516
 2252SOL    HW2 7656   3.376   0.889   6.454
 2253SOL     OW 7657   1.028   4.200   6.477
 2253SOL    HW1 7658   0.938   4.227   6.510
 2253SOL    HW2 7659   1.041   4.234   6.384
 2254SOL     OW 7660   1.596   4.665   6.426
 2254SOL    HW1 7661   1.624   4.755   6.458
 2254SOL    HW2 7662   1.664   4.597   6.455
 2255SOL     OW 7663   6.335   3.781   6.634
 2255SOL    HW1 7664   6.434   3.795   6.641
 2255SOL    HW2 7665   6.316   3.683   6.632
 2256SOL     OW 7666   2.482   4.591   1.913
 2256SOL    HW1 7667   2.445   4.569   1.822
 2256SOL    HW2 7668   2.546   4.667   1.905
 2257SOL     OW 7669   1.555   3.772   5.068
 2257SOL    HW1 7670   1.609   3.753   4.986
 2257SOL    HW2 7671   1.475   3.826   5.043
 2258SOL     OW 7672   2.332   5.290   4.769
 2258SOL    HW1 7673   2.310   5.387   4.759
 2258SOL    HW2 7674   2.423   5.272   4.732
 2259SOL     OW 7675   6.300   2.820   6.317
 2259SOL    HW1 7676   6.385   2.838   6.366
 2259SOL    HW2 7677   6.257   2.907   6.291
 2260SOL     OW 7678   4.281   3.112   0.801
 2260SOL    HW1 7679   4.368   3.155   0.780
 2260SOL    HW2 7680   4.227   3.173   0.859
 2261SOL     OW 7681   2.558   6.311   4.965
 2261SOL    HW1 7682   2.592   6.249   4.894
 2261SOL    HW2 7683   2.589   6.405   4.944
 2262SOL     OW 7684   3.249   1.949   3.012
 2262SOL    HW1 7685   3.187   1.870   3.015
 2262SOL    HW2 7686   3.336   1.925   3.056
 2263SOL     OW 7687   1.137   4.318   6.011
 2263SOL    HW1 7688   1.177   4.393   6.063
 2263SOL    HW2 7689   1.121   4.240   6.071
 2264SOL     OW 7690   3.220   3.834   3.298
 2264SOL    HW1 7691   3.260   3.804   3.384
 2264SOL    HW2 7692   3.197   3.931   3.304
 2265SOL     OW 7693   0.476   6.607   3.665
 2265SOL    HW1 7694   0.451   6.619   3.569
 2265SOL    HW2 7695   0.565   6.648   3.682
 2266SOL     OW 7696   6.237   0.586   5.644
 2266SOL    HW1 7697   6.282   0.540   5.567
 2266SOL    HW2 7698   6.159   0.638   5.610
 2267SOL     OW 7699   5.167   1.692   5.109
 2267SOL    HW1 7700   5.242   1.730   5.163
 2267SOL    HW2 7701   5.131   1.762   5.048
 2268SOL     OW 7702   6.885   5.555   0.136
 2268SOL    HW1 7703   6.851   5.561   0.230
 2268SOL    HW2 7704   6.851   5.471   0.094
 2269SOL     OW 7705   0.320   6.761   3.049
 2269SOL    HW1 7706   0.357   6.811   3.127
 2269SOL    HW2 7707   0.315   6.664   3.072
 2270SOL     OW 7708   4.033   3.167   3.396
 2270SOL    HW1 7709   4.003   3.185   3.490
 2270SOL    HW2 7710   3.968   3.105   3.352
 2271SOL     OW 7711   1.255   4.695   3.260
 2271SOL    HW1 7712   1.316   4.671   3.336
 2271SOL    HW2 7713   1.165   4.718   3.296
 2272SOL     OW 7714   5.120   0.932   5.693
 2272SOL    HW1 7715   5.218   0.949   5.705
 2272SOL    HW2 7716   5.069   1.011   5.726
 2273SOL     OW 7717   0.574   0.981   2.350
 2273SOL    HW1 7718   0.581   1.020   2.258
 2273SOL    HW2 7719   0.653   0.921   2.366
 2274SOL     OW 7720   0.767   3.964   3.760
 2274SOL    HW1 7721   0.759   3.868   3.734
 2274SOL    HW2 7722   0.817   3.972   3.846
 2275SOL     OW 7723   5.123   6.262   3.936
 2275SOL    HW1 7724   5.213   6.302   3.922
 2275SOL    HW2 7725   5.059   6.333   3.966
 2276SOL     OW 7726   3.334   5.923   2.593
 2276SOL    HW1 7727   3.269   5.994   2.621
 2276SOL    HW2 7728   3.300   5.833   2.621
 2277SOL     OW 7729   3.232   3.125   2.020
 2277SOL    HW1 7730   3.301   3.196   2.034
 2277SOL    HW2 7731   3.261   3.065   1.946
 2278SOL     OW 7732   4.199   5.506   1.298
 2278SOL    HW1 7733   4.115   5.520   1.246
 2278SOL    HW2 7734   4.275   5.552   1.251
 2279SOL     OW 7735   5.486   4.043   5.599
 2279SOL    HW1 7736   5.472   4.124   5.656
 2279SOL    HW2 7737   5.564   4.059   5.538
 2280SOL     OW 7738   5.650   0.315   6.184
 2280SOL    HW1 7739   5.563   0.353   6.150
 2280SOL    HW2 7740   5.658   0.220   6.154
 2281SOL     OW 7741   2.177   1.008   0.102
 2281SOL    HW1 7742   2.155   0.936   0.169
 2281SOL    HW2 7743   2.160   0.973   0.010
 2282SOL     OW 7744   4.134   5.620   2.781
 2282SOL    HW1 7745   4.230   5.620   2.754
 2282SOL    HW2 7746   4.080   5.670   2.714
 2283SOL     OW 7747   0.793   3.322   1.889
 2283SOL    HW1 7748   0.749   3.232   1.895
 2283SOL    HW2 7749   0.862   3.330   1.960
 2284SOL     OW 7750   2.044   2.144   1.817
 2284SOL    HW1 7751   2.123   2.201   1.794
 2284SOL    HW2 7752   2.075   2.056   1.851
 2285SOL     OW 7753   1.671   3.391   6.526
 2285SOL    HW1 7754   1.646   3.438   6.441
 2285SOL    HW2 7755   1.588   3.357   6.571
 2286SOL     OW 7756   6.614   6.783   4.238
 2286SOL    HW1 7757   6.645   6.731   4.158
 2286SOL    HW2 7758   6.569   6.867   4.207
 2287SOL     OW 7759   2.319   1.948   0.714
 2287SOL    HW1 7760   2.275   1.878   0.658
 2287SOL    HW2 7761   2.339   2.028   0.658
 2288SOL     OW 7762   2.708   5.818   4.582
 2288SOL    HW1 7763   2.682   5.756   4.657
 2288SOL    HW2 7764   2.775   5.884   4.615
 2289SOL     OW 7765   3.941   0.886   6.723
 2289SOL    HW1 7766   3.956   0.788   6.739
 2289SOL    HW2 7767   3.902   0.899   6.632
 2290SOL     OW 7768   3.427   3.773   4.735
 2290SOL    HW1 7769   3.394   3.715   4.661
 2290SOL    HW2 7770   3.503   3.829   4.702
 2291SOL     OW 7771   2.335   2.526   0.290
 2291SOL    HW1 7772   2.335   2.491   0.384
 2291SOL    HW2 7773   2.401   2.602   0.283
 2292SOL     OW 7774   4.878   2.001   3.250
 2292SOL    HW1 7775   4.906   1.912   3.284
 2292SOL    HW2 7776   4.946   2.036   3.186
 2293SOL     OW 7777   0.668   1.270   6.155
 2293SOL    HW1 7778   0.730   1.348   6.167
 2293SOL    HW2 7779   0.574   1.302   6.153
 2294SOL     OW 7780   6.601   1.941   4.987
 2294SOL    HW1 7781   6.578   1.866   5.049
 2294SOL    HW2 7782   6.557   2.025   5.019
 2295SOL     OW 7783   5.390   5.873   0.673
 2295SOL    HW1 7784   5.332   5.935   0.620
 2295SOL    HW2 7785   5.372   5.885   0.770
 2296SOL     OW 7786   3.561   5.512   5.026
 2296SOL    HW1 7787   3.624   5.570   5.077
 2296SOL    HW2 7788   3.600   5.421   5.015
 2297SOL     OW 7789   6.071   3.312   6.237
 2297SOL    HW1 7790   6.171   3.323   6.241
 2297SOL    HW2 7791   6.029   3.398   6.208
 2298SOL     OW 7792   2.649   3.318   5.440
 2298SOL    HW1 7793   2.550   3.308   5.450
 2298SOL    HW2 7794   2.669   3.396   5.380
 2299SOL     OW 7795   6.165   3.559   4.619
 2299SOL    HW1 7796   6.243   3.533   4.562
 2299SOL    HW2 7797   6.082   3.559   4.564
 2300SOL     OW 7798   5.486   0.178   2.809
 2300SOL    HW1 7799   5.410   0.118   2.784
 2300SOL    HW2 7800   5.458   0.273   2.794
 2301SOL     OW 7801   3.809   3.456   5.110
 2301SOL    HW1 7802   3.783   3.363   5.134
 2301SOL    HW2 7803   3.760   3.485   5.028
 2302SOL     OW 7804   6.750   3.239   6.172
 2302SOL    HW1 7805   6.849   3.242   6.156
 2302SOL    HW2 7806   6.731   3.267   6.266
 2303SOL     OW 7807   2.674   1.721   6.613
 2303SOL    HW1 7808   2.624   1.807   6.620
 2303SOL    HW2 7809   2.727   1.720   6.529
 2304SOL     OW 7810   6.235   7.000   2.451
 2304SOL    HW1 7811   6.240   6.973   2.547
 2304SOL    HW2 7812   6.210   6.920   2.396
 2305SOL     OW 7813   3.083   6.985   5.246
 2305SOL    HW1 7814   3.095   6.887   5.232
 2305SOL    HW2 7815   2.993   7.003   5.287
 2306SOL     OW 7816   1.583   4.090   4.621
 2306SOL    HW1 7817   1.580   4.187   4.641
 2306SOL    HW2 7818   1.604   4.039   4.705
 2307SOL     OW 7819   6.606   3.560   4.559
 2307SOL    HW1 7820   6.575   3.583   4.652
 2307SOL    HW2 7821   6.650   3.470   4.560
 2308SOL     OW 7822   0.878   5.709   2.007
 2308SOL    HW1 7823   0.864   5.626   1.953
 2308SOL    HW2 7824   0.948   5.693   2.077
 2309SOL     OW 7825   1.988   0.626   5.109
 2309SOL    HW1 7826   2.015   0.722   5.100
 2309SOL    HW2 7827   1.929   0.601   5.031
 2310SOL     OW 7828   4.154   6.961   0.334
 2310SOL    HW1 7829   4.122   0.028   0.324
 2310SOL    HW2 7830   4.185   6.947   0.428
 2311SOL     OW 7831   2.291   5.823   0.952
 2311SOL    HW1 7832   2.312   5.920   0.936
 2311SOL    HW2 7833   2.194   5.814   0.974
 2312SOL     OW 7834   3.111   4.862   2.776
 2312SOL    HW1 7835   3.184   4.914   2.821
 2312SOL    HW2 7836   3.136   4.847   2.680
 2313SOL     OW 7837   4.622   4.929   1.679
 2313SOL    HW1 7838   4.562   5.008   1.662
 2313SOL    HW2 7839   4.609   4.862   1.606
 2314SOL     OW 7840   2.562   4.531   3.474
 2314SOL    HW1 7841   2.586   4.534   3.377
 2314SOL    HW2 7842   2.612   4.602   3.523
 2315SOL     OW 7843   4.984   1.954   6.531
 2315SOL    HW1 7844   4.938   2.023   6.589
 2315SOL    HW2 7845   4.967   1.863   6.569
 2316SOL     OW 7846   4.924   3.493   2.226
 2316SOL    HW1 7847   4.995   3.430   2.258
 2316SOL    HW2 7848   4.933   3.580   2.273
 2317SOL     OW 7849   0.356   6.115   3.609
 2317SOL    HW1 7850   0.281   6.063   3.568
 2317SOL    HW2 7851   0.318   6.183   3.672
 2318SOL     OW 7852   0.505   1.209   3.697
 2318SOL    HW1 7853   0.470   1.296   3.664
 2318SOL    HW2 7854   0.602   1.219   3.723
 2319SOL     OW 7855   1.484   4.752   1.423
 2319SOL    HW1 7856   1.548   4.816   1.382
 2319SOL    HW2 7857   1.397   4.755   1.374
 2320SOL     OW 7858   6.314   4.797   4.439
 2320SOL    HW1 7859   6.315   4.768   4.535
 2320SOL    HW2 7860   6.243   4.866   4.426
 2321SOL     OW 7861   3.866   4.882   4.369
 2321SOL    HW1 7862   3.860   4.982   4.367
 2321SOL    HW2 7863   3.792   4.843   4.314
 2322SOL     OW 7864   2.822   0.874   4.560
 2322SOL    HW1 7865   2.822   0.827   4.472
 2322SOL    HW2 7866   2.741   0.931   4.568
 2323SOL     OW 7867   4.876   3.579   1.976
 2323SOL    HW1 7868   4.874   3.533   2.065
 2323SOL    HW2 7869   4.892   3.677   1.989
 2324SOL     OW 7870   0.916   5.204   4.236
 2324SOL    HW1 7871   0.920   5.280   4.172
 2324SOL    HW2 7872   1.002   5.153   4.233
 2325SOL     OW 7873   0.201   1.923   0.331
 2325SOL    HW1 7874   0.140   1.847   0.307
 2325SOL    HW2 7875   0.154   2.010   0.313
 2326SOL     OW 7876   0.862   4.303   0.742
 2326SOL    HW1 7877   0.903   4.238   0.677
 2326SOL    HW2 7878   0.911   4.299   0.828
 2327SOL     OW 7879   4.822   1.313   3.520
 2327SOL    HW1 7880   4.880   1.295   3.441
 2327SOL    HW2 7881   4.728   1.288   3.498
 2328SOL     OW 7882   6.317   5.040   3.984
 2328SOL    HW1 7883   6.243   5.048   4.050
 2328SOL    HW2 7884   6.289   5.079   3.896
 2329SOL     OW 7885   1.277   5.844   3.553
 2329SOL    HW1 7886   1.375   5.866   3.558
 2329SOL    HW2 7887   1.244   5.861   3.460
 2330SOL     OW 7888   1.323   4.592   0.429
 2330SOL    HW1 7889   1.240   4.641   0.403
 2330SOL    HW2 7890   1.317   4.497   0.398
 2331SOL     OW 7891   1.102   4.734   5.163
 2331SOL    HW1 7892   1.089   4.686   5.250
 2331SOL    HW2 7893   1.181   4.795   5.170
 2332SOL     OW 7894   5.612   3.267   5.796
 2332SOL    HW1 7895   5.581   3.188   5.848
 2332SOL    HW2 7896   5.646   3.337   5.859
 2333SOL     OW 7897   2.666   4.767   3.593
 2333SOL    HW1 7898   2.755   4.799   3.624
 2333SOL    HW2 7899   2.600   4.774   3.668
 2334SOL     OW 7900   2.338   0.406   6.012
 2334SOL    HW1 7901   2.355   0.504   6.016
 2334SOL    HW2 7902   2.256   0.385   6.066
 2335SOL     OW 7903   4.745   4.506   4.377
 2335SOL    HW1 7904   4.787   4.515   4.467
 2335SOL    HW2 7905   4.706   4.595   4.350
 2336SOL     OW 7906   4.153   2.892   5.762
 2336SOL    HW1 7907   4.245   2.893   5.724
 2336SOL    HW2 7908   4.144   2.962   5.832
 2337SOL     OW 7909   5.960   0.342   4.535
 2337SOL    HW1 7910   6.041   0.287   4.557
 2337SOL    HW2 7911   5.924   0.314   4.446
 2338SOL     OW 7912   1.538   7.019   6.919
 2338SOL    HW1 7913   1.510   0.039   6.836
 2338SOL    HW2 7914   1.637   7.023   6.929
 2339SOL     OW 7915   4.183   5.274   6.882
 2339SOL    HW1 7916   4.258   5.299   6.942
 2339SOL    HW2 7917   4.100   5.323   6.909
 2340SOL     OW 7918   3.223   5.140   4.564
 2340SOL    HW1 7919   3.277   5.100   4.637
 2340SOL    HW2 7920   3.246   5.237   4.555
 2341SOL     OW 7921   5.902   4.900   6.637
 2341SOL    HW1 7922   5.849   4.873   6.557
 2341SOL    HW2 7923   5.881   4.995   6.661
 2342SOL     OW 7924   6.665   1.168   5.390
 2342SOL    HW1 7925   6.672   1.250   5.334
 2342SOL    HW2 7926   6.722   1.095   5.351
 2343SOL     OW 7927   0.954   6.735   0.274
 2343SOL    HW1 7928   0.976   6.664   0.208
 2343SOL    HW2 7929   1.039   6.777   0.307
 2344SOL     OW 7930   2.377   0.878   2.858
 2344SOL    HW1 7931   2.333   0.963   2.828
 2344SOL    HW2 7932   2.319   0.835   2.928
 2345SOL     OW 7933   1.019   2.032   1.969
 2345SOL    HW1 7934   0.997   1.964   1.899
 2345SOL    HW2 7935   0.947   2.102   1.971
 2346SOL     OW 7936   4.661   3.161   5.378
 2346SOL    HW1 7937   4.719   3.180   5.298
 2346SOL    HW2 7938   4.719   3.141   5.457
 2347SOL     OW 7939   1.907   3.481   0.667
 2347SOL    HW1 7940   1.997   3.454   0.633
 2347SOL    HW2 7941   1.917   3.552   0.736
 2348SOL     OW 7942   2.055   6.815   1.951
 2348SOL    HW1 7943   2.048   6.733   1.894
 2348SOL    HW2 7944   2.152   6.836   1.966
 2349SOL     OW 7945   5.245   3.862   6.802
 2349SOL    HW1 7946   5.244   3.853   6.901
 2349SOL    HW2 7947   5.319   3.923   6.774
 2350SOL     OW 7948   2.322   6.268   5.112
 2350SOL    HW1 7949   2.243   6.328   5.098
 2350SOL    HW2 7950   2.403   6.308   5.069
 2351SOL     OW 7951   1.717   5.115   2.872
 2351SOL    HW1 7952   1.748   5.150   2.961
 2351SOL    HW2 7953   1.715   5.189   2.806
 2352SOL     OW 7954   5.450   4.970   0.768
 2352SOL    HW1 7955   5.441   4.902   0.696
 2352SOL    HW2 7956   5.411   5.057   0.737
 2353SOL     OW 7957   2.580   3.207   6.064
 2353SOL    HW1 7958   2.648   3.151   6.017
 2353SOL    HW2 7959   2.571   3.295   6.017
 2354SOL     OW 7960   4.073   1.598   2.073
 2354SOL    HW1 7961   3.980   1.570   2.097
 2354SOL    HW2 7962   4.083   1.697   2.089
 2355SOL     OW 7963   0.292   1.441   1.822
 2355SOL    HW1 7964   0.357   1.504   1.780
 2355SOL    HW2 7965   0.223   1.493   1.872
 2356SOL     OW 7966   2.915   5.492   3.855
 2356SOL    HW1 7967   2.877   5.413   3.807
 2356SOL    HW2 7968   2.893   5.485   3.953
 2357SOL     OW 7969   1.137   4.847   0.540
 2357SOL    HW1 7970   1.144   4.840   0.639
 2357SOL    HW2 7971   1.056   4.796   0.509
 2358SOL     OW 7972   3.013   0.763   5.104
 2358SOL    HW1 7973   3.021   0.701   5.182
 2358SOL    HW2 7974   2.917   0.777   5.082
 2359SOL     OW 7975   1.991   2.031   5.675
 2359SOL    HW1 7976   1.990   1.944   5.626
 2359SOL    HW2 7977   2.028   2.018   5.767
 2360SOL     OW 7978   3.211   5.104   0.950
 2360SOL    HW1 7979   3.149   5.172   0.911
 2360SOL    HW2 7980   3.177   5.013   0.930
 2361SOL     OW 7981   3.405   5.887   1.067
 2361SOL    HW1 7982   3.424   5.829   0.988
 2361SOL    HW2 7983   3.308   5.914   1.066
 2362SOL     OW 7984   3.204   5.085   4.131
 2362SOL    HW1 7985   3.235   5.007   4.076
 2362SOL    HW2 7986   3.169   5.051   4.218
 2363SOL     OW 7987   2.413   3.895   0.848
 2363SOL    HW1 7988   2.324   3.919   0.888
 2363SOL    HW2 7989   2.422   3.939   0.759
 2364SOL     OW 7990   4.261   1.532   2.249
 2364SOL    HW1 7991   4.186   1.554   2.186
 2364SOL    HW2 7992   4.342   1.506   2.197
 2365SOL     OW 7993   5.887   4.344   2.963
 2365SOL    HW1 7994   5.787   4.334   2.954
 2365SOL    HW2 7995   5.909   4.441   2.977
 2366SOL     OW 7996   2.881   5.370   5.255
 2366SOL    HW1 7997   2.963   5.401   5.303
 2366SOL    HW2 7998   2.907   5.328   5.168
 2367SOL     OW 7999   6.175   5.164   5.455
 2367SOL    HW1 8000   6.078   5.169   5.479
 2367SOL    HW2 8001   6.213   5.257   5.453
 2368SOL     OW 8002   5.186   0.815   4.912
 2368SOL    HW1 8003   5.246   0.854   4.843
 2368SOL    HW2 8004   5.091   0.822   4.882
 2369SOL     OW 8005   3.883   2.172   4.400
 2369SOL    HW1 8006   3.970   2.218   4.419
 2369SOL    HW2 8007   3.816   2.197   4.470
 2370SOL     OW 8008   5.436   2.023   1.971
 2370SOL    HW1 8009   5.351   1.977   1.995
 2370SOL    HW2 8010   5.424   2.072   1.884
 2371SOL     OW 8011   1.311   6.878   1.807
 2371SOL    HW1 8012   1.379   6.903   1.738
 2371SOL    HW2 8013   1.348   6.806   1.866
 2372SOL     OW 8014   6.571   0.293   5.837
 2372SOL    HW1 8015   6.537   0.382   5.869
 2372SOL    HW2 8016   6.657   0.272   5.882
 2373SOL     OW 8017   5.888   4.135   5.989
 2373SOL    HW1 8018   5.790   4.133   5.972
 2373SOL    HW2 8019   5.907   4.185   6.074
 2374SOL     OW 8020   6.717   6.340   2.178
 2374SOL    HW1 8021   6.647   6.315   2.244
 2374SOL    HW2 8022   6.675   6.357   2.089
 2375SOL     OW 8023   1.639   0.070   4.203
 2375SOL    HW1 8024   1.649   0.153   4.258
 2375SOL    HW2 8025   1.601   0.094   4.114
 2376SOL     OW 8026   4.865   2.517   3.395
 2376SOL    HW1 8027   4.769   2.525   3.424
 2376SOL    HW2 8028   4.907   2.439   3.442
 2377SOL     OW 8029   4.197   3.988   5.785
 2377SOL    HW1 8030   4.226   4.079   5.816
 2377SOL    HW2 8031   4.112   3.996   5.734
 2378SOL     OW 8032   0.590   0.855   0.476
 2378SOL    HW1 8033   0.650   0.776   0.465
 2378SOL    HW2 8034   0.622   0.929   0.416
 2379SOL     OW 8035   0.616   4.843   2.702
 2379SOL    HW1 8036   0.670   4.900   2.763
 2379SOL    HW2 8037   0.660   4.753   2.692
 2380SOL     OW 8038   4.365   5.838   6.716
 2380SOL    HW1 8039   4.378   5.748   6.756
 2380SOL    HW2 8040   4.353   5.906   6.789
 2381SOL     OW 8041   2.185   3.269   3.975
 2381SOL    HW1 8042   2.131   3.187   3.955
 2381SOL    HW2 8043   2.211   3.270   4.071
 2382SOL     OW 8044   6.981   5.095   3.247
 2382SOL    HW1 8045   0.053   5.105   3.255
 2382SOL    HW2 8046   6.942   5.178   3.206
 2383SOL     OW 8047   4.745   3.811   5.886
 2383SOL    HW1 8048   4.663   3.824   5.830
 2383SOL    HW2 8049   4.744   3.720   5.926
 2384SOL     OW 8050   0.505   2.413   2.546
 2384SOL    HW1 8051   0.465   2.403   2.637
 2384SOL    HW2 8052   0.605   2.413   2.553
 2385SOL     OW 8053   0.144   1.200   6.699
 2385SOL    HW1 8054   0.168   1.116   6.652
 2385SOL    HW2 8055   0.216   1.268   6.686
 2386SOL     OW 8056   6.126   5.745   5.088
 2386SOL    HW1 8057   6.093   5.773   5.178
 2386SOL    HW2 8058   6.091   5.654   5.066
 2387SOL     OW 8059   0.650   0.415   3.520
 2387SOL    HW1 8060   0.713   0.489   3.498
 2387SOL    HW2 8061   0.560   0.435   3.483
 2388SOL     OW 8062   0.784   3.463   5.466
 2388SOL    HW1 8063   0.742   3.550   5.438
 2388SOL    HW2 8064   0.746   3.434   5.553
 2389SOL     OW 8065   4.381   5.449   3.592
 2389SOL    HW1 8066   4.440   5.420   3.667
 2389SOL    HW2 8067   4.396   5.390   3.512
 2390SOL     OW 8068   5.042   2.527   6.168
 2390SOL    HW1 8069   5.012   2.435   6.143
 2390SOL    HW2 8070   5.040   2.585   6.087
 2391SOL     OW 8071   3.335   3.913   6.855
 2391SOL    HW1 8072   3.286   3.921   6.768
 2391SOL    HW2 8073   3.269   3.911   6.930
 2392SOL     OW 8074   3.977   5.064   6.017
 2392SOL    HW1 8075   3.933   5.000   6.080
 2392SOL    HW2 8076   3.981   5.155   6.059
 2393SOL     OW 8077   3.859   4.415   0.245
 2393SOL    HW1 8078   3.769   4.425   0.203
 2393SOL    HW2 8079   3.871   4.320   0.276
 2394SOL     OW 8080   6.421   1.512   3.795
 2394SOL    HW1 8081   6.332   1.483   3.829
 2394SOL    HW2 8082   6.441   1.465   3.709
 2395SOL     OW 8083   1.585   2.615   3.838
 2395SOL    HW1 8084   1.575   2.710   3.866
 2395SOL    HW2 8085   1.541   2.555   3.905
 2396SOL     OW 8086   6.804   0.566   6.493
 2396SOL    HW1 8087   6.728   0.508   6.521
 2396SOL    HW2 8088   6.889   0.514   6.500
 2397SOL     OW 8089   2.358   4.535   4.970
 2397SOL    HW1 8090   2.283   4.487   5.016
 2397SOL    HW2 8091   2.349   4.634   4.986
 2398SOL     OW 8092   3.911   6.047   4.515
 2398SOL    HW1 8093   3.900   6.017   4.420
 2398SOL    HW2 8094   3.992   6.104   4.523
 2399SOL     OW 8095   3.213   1.522   2.661
 2399SOL    HW1 8096   3.219   1.459   2.584
 2399SOL    HW2 8097   3.271   1.602   2.643
 2400SOL     OW 8098   1.421   3.344   0.321
 2400SOL    HW1 8099   1.428   3.281   0.244
 2400SOL    HW2 8100   1.497   3.409   0.317
 2401SOL     OW 8101   2.008   6.260   6.967
 2401SOL    HW1 8102   1.918   6.228   6.995
 2401SOL    HW2 8103   2.018   6.356   6.993
 2402SOL     OW 8104   1.013   4.224   2.261
 2402SOL    HW1 8105   1.103   4.221   2.306
 2402SOL    HW2 8106   1.018   4.280   2.179
 2403SOL     OW 8107   3.104   3.941   5.400
 2403SOL    HW1 8108   3.048   3.978   5.325
 2403SOL    HW2 8109   3.199   3.968   5.386
 2404SOL     OW 8110   5.915   1.528   1.315
 2404SOL    HW1 8111   5.994   1.523   1.376
 2404SOL    HW2 8112   5.834   1.557   1.367
 2405SOL     OW 8113   2.167   2.997   0.643
 2405SOL    HW1 8114   2.182   2.905   0.681
 2405SOL    HW2 8115   2.176   3.065   0.716
 2406SOL     OW 8116   3.734   5.315   4.925
 2406SOL    HW1 8117   3.820   5.354   4.893
 2406SOL    HW2 8118   3.683   5.281   4.846
 2407SOL     OW 8119   2.164   1.894   3.649
 2407SOL    HW1 8120   2.083   1.923   3.700
 2407SOL    HW2 8121   2.152   1.800   3.619
 2408SOL     OW 8122   3.834   0.452   6.072
 2408SOL    HW1 8123   3.861   0.392   5.997
 2408SOL    HW2 8124   3.901   0.526   6.082
 2409SOL     OW 8125   0.712   3.160   6.668
 2409SOL    HW1 8126   0.653   3.085   6.638
 2409SOL    HW2 8127   0.808   3.133   6.659
 2410SOL     OW 8128   6.814   3.329   4.577
 2410SOL    HW1 8129   6.831   3.230   4.572
 2410SOL    HW2 8130   6.841   3.363   4.667
 2411SOL     OW 8131   3.121   1.543   6.920
 2411SOL    HW1 8132   3.173   1.506   6.843
 2411SOL    HW2 8133   3.163   1.514   7.006
 2412SOL     OW 8134   3.755   2.545   6.071
 2412SOL    HW1 8135   3.830   2.542   6.006
 2412SOL    HW2 8136   3.763   2.468   6.134
 2413SOL     OW 8137   0.386   3.755   6.749
 2413SOL    HW1 8138   0.366   3.733   6.654
 2413SOL    HW2 8139   0.316   3.816   6.785
 2414SOL     OW 8140   0.020   1.361   5.574
 2414SOL    HW1 8141   0.081   1.419   5.519
 2414SOL    HW2 8142   0.033   1.381   5.671
 2415SOL     OW 8143   3.166   4.678   6.469
 2415SOL    HW1 8144   3.158   4.777   6.461
 2415SOL    HW2 8145   3.241   4.645   6.411
 2416SOL     OW 8146   0.393   2.320   3.100
 2416SOL    HW1 8147   0.315   2.381   3.115
 2416SOL    HW2 8148   0.473   2.357   3.146
 2417SOL     OW 8149   3.355   2.572   1.131
 2417SOL    HW1 8150   3.312   2.586   1.220
 2417SOL    HW2 8151   3.365   2.474   1.113
 2418SOL     OW 8152   5.222   4.535   6.779
 2418SOL    HW1 8153   5.210   4.631   6.805
 2418SOL    HW2 8154   5.169   4.477   6.840
 2419SOL     OW 8155   3.392   0.948   3.224
 2419SOL    HW1 8156   3.377   1.040   3.189
 2419SOL    HW2 8157   3.490   0.932   3.233
 2420SOL     OW 8158   1.657   3.567   2.824
 2420SOL    HW1 8159   1.654   3.555   2.725
 2420SOL    HW2 8160   1.709   3.650   2.846
 2421SOL     OW 8161   2.890   0.033   3.591
 2421SOL    HW1 8162   2.968   0.006   3.648
 2421SOL    HW2 8163   2.805   0.010   3.638
 2422SOL     OW 8164   4.081   5.942   0.280
 2422SOL    HW1 8165   4.076   6.042   0.274
 2422SOL    HW2 8166   4.085   5.914   0.376
 2423SOL     OW 8167   2.558   5.099   4.340
 2423SOL    HW1 8168   2.481   5.147   4.298
 2423SOL    HW2 8169   2.540   5.087   4.438
 2424SOL     OW 8170   4.970   6.588   6.394
 2424SOL    HW1 8171   5.041   6.526   6.428
 2424SOL    HW2 8172   4.997   6.624   6.305
 2425SOL     OW 8173   3.984   5.454   5.144
 2425SOL    HW1 8174   4.045   5.445   5.223
 2425SOL    HW2 8175   4.030   5.502   5.071
 2426SOL     OW 8176   2.938   2.180   5.024
 2426SOL    HW1 8177   3.034   2.201   5.044
 2426SOL    HW2 8178   2.880   2.253   5.059
 2427SOL     OW 8179   4.782   1.652   0.565
 2427SOL    HW1 8180   4.712   1.718   0.592
 2427SOL    HW2 8181   4.843   1.635   0.643
 2428SOL     OW 8182   1.625   1.599   3.116
 2428SOL    HW1 8183   1.529   1.594   3.145
 2428SOL    HW2 8184   1.629   1.601   3.017
 2429SOL     OW 8185   6.020   5.958   1.105
 2429SOL    HW1 8186   6.045   6.039   1.157
 2429SOL    HW2 8187   5.971   5.894   1.165
 2430SOL     OW 8188   6.289   0.596   6.582
 2430SOL    HW1 8189   6.284   0.634   6.490
 2430SOL    HW2 8190   6.197   0.581   6.618
 2431SOL     OW 8191   1.153   3.132   1.957
 2431SOL    HW1 8192   1.109   3.122   1.868
 2431SOL    HW2 8193   1.174   3.041   1.994
 2432SOL     OW 8194   2.389   5.369   2.269
 2432SOL    HW1 8195   2.402   5.421   2.185
 2432SOL    HW2 8196   2.464   5.387   2.332
 2433SOL     OW 8197   0.744   4.211   5.033
 2433SOL    HW1 8198   0.771   4.304   5.056
 2433SOL    HW2 8199   0.818   4.167   4.980
 2434SOL     OW 8200   4.521   1.213   3.431
 2434SOL    HW1 8201   4.465   1.184   3.509
 2434SOL    HW2 8202   4.476   1.185   3.346
 2435SOL     OW 8203   6.006   6.761   6.673
 2435SOL    HW1 8204   5.976   6.738   6.581
 2435SOL    HW2 8205   6.106   6.762   6.676
 2436SOL     OW 8206   0.159   3.524   0.324
 2436SOL    HW1 8207   0.153   3.624   0.320
 2436SOL    HW2 8208   0.099   3.484   0.255
 2437SOL     OW 8209   0.237   4.358   1.133
 2437SOL    HW1 8210   0.250   4.343   1.035
 2437SOL    HW2 8211   0.151   4.314   1.162
 2438SOL     OW 8212   3.448   1.612   4.751
 2438SOL    HW1 8213   3.359   1.566   4.744
 2438SOL    HW2 8214   3.445   1.698   4.701
 2439SOL     OW 8215   0.434   5.517   1.151
 2439SOL    HW1 8216   0.443   5.482   1.058
 2439SOL    HW2 8217   0.524   5.544   1.186
 2440SOL     OW 8218   6.660   1.363   5.224
 2440SOL    HW1 8219   6.616   1.306   5.155
 2440SOL    HW2 8220   6.752   1.387   5.193
 2441SOL     OW 8221   6.546   0.727   0.700
 2441SOL    HW1 8222   6.454   0.750   0.733
 2441SOL    HW2 8223   6.572   0.790   0.626
 2442SOL     OW 8224   5.325   3.204   2.316
 2442SOL    HW1 8225   5.271   3.251   2.247
 2442SOL    HW2 8226   5.264   3.157   2.380
 2443SOL     OW 8227   0.469   3.467   1.359
 2443SOL    HW1 8228   0.427   3.415   1.285
 2443SOL    HW2 8229   0.420   3.449   1.445
 2444SOL     OW 8230   3.233   5.723   2.733
 2444SOL    HW1 8231   3.185   5.639   2.757
 2444SOL    HW2 8232   3.235   5.784   2.812
 2445SOL     OW 8233   0.576   2.136   0.771
 2445SOL    HW1 8234   0.577   2.058   0.833
 2445SOL    HW2 8235   0.636   2.118   0.693
 2446SOL     OW 8236   0.135   5.856   1.866
 2446SOL    HW1 8237   0.151   5.933   1.928
 2446SOL    HW2 8238   0.144   5.770   1.916
 2447SOL     OW 8239   1.777   6.840   0.587
 2447SOL    HW1 8240   1.687   6.806   0.616
 2447SOL    HW2 8241   1.849   6.782   0.627
 2448SOL     OW 8242   5.896   0.990   4.384
 2448SOL    HW1 8243   5.848   0.902   4.395
 2448SOL    HW2 8244   5.846   1.061   4.435
 2449SOL     OW 8245   1.729   4.254   0.684
 2449SOL    HW1 8246   1.657   4.301   0.633
 2449SOL    HW2 8247   1.804   4.317   0.703
 2450SOL     OW 8248   0.702   6.508   4.905
 2450SOL    HW1 8249   0.676   6.593   4.861
 2450SOL    HW2 8250   0.796   6.515   4.940
 2451SOL     OW 8251   2.059   6.566   5.858
 2451SOL    HW1 8252   2.011   6.484   5.825
 2451SOL    HW2 8253   2.156   6.560   5.834
 2452SOL     OW 8254   2.206   1.646   4.239
 2452SOL    HW1 8255   2.229   1.684   4.328
 2452SOL    HW2 8256   2.248   1.556   4.229
 2453SOL     OW 8257   1.506   1.932   5.893
 2453SOL    HW1 8258   1.420   1.905   5.848
 2453SOL    HW2 8259   1.532   2.024   5.862
 2454SOL     OW 8260   3.104   6.178   1.043
 2454SOL    HW1 8261   3.032   6.172   1.113
 2454SOL    HW2 8262   3.113   6.091   0.996
 2455SOL     OW 8263   4.217   2.111   0.798
 2455SOL    HW1 8264   4.274   2.035   0.764
 2455SOL    HW2 8265   4.155   2.140   0.725
 2456SOL     OW 8266   0.407   3.608   5.826
 2456SOL    HW1 8267   0.488   3.596   5.882
 2456SOL    HW2 8268   0.376   3.703   5.833
 2457SOL     OW 8269   3.979   1.845   5.651
 2457SOL    HW1 8270   3.967   1.761   5.704
 2457SOL    HW2 8271   4.040   1.828   5.574
 2458SOL     OW 8272   0.411   6.790   2.342
 2458SOL    HW1 8273   0.469   6.775   2.422
 2458SOL    HW2 8274   0.465   6.776   2.258
 2459SOL     OW 8275   1.890   6.857   1.243
 2459SOL    HW1 8276   1.923   6.896   1.158
 2459SOL    HW2 8277   1.924   6.764   1.253
 2460SOL     OW 8278   0.640   0.666   4.177
 2460SOL    HW1 8279   0.552   0.701   4.209
 2460SOL    HW2 8280   0.665   0.585   4.229
 2461SOL     OW 8281   3.562   1.326   3.888
 2461SOL    HW1 8282   3.559   1.420   3.853
 2461SOL    HW2 8283   3.523   1.264   3.820
 2462SOL     OW 8284   0.715   5.140   0.569
 2462SOL    HW1 8285   0.690   5.225   0.523
 2462SOL    HW2 8286   0.812   5.120   0.551
 2463SOL     OW 8287   6.627   0.108   0.369
 2463SOL    HW1 8288   6.568   0.167   0.315
 2463SOL    HW2 8289   6.579   0.080   0.453
 2464SOL     OW 8290   0.874   2.536   4.321
 2464SOL    HW1 8291   0.940   2.561   4.392
 2464SOL    HW2 8292   0.781   2.555   4.353
 2465SOL     OW 8293   6.647   0.103   6.735
 2465SOL    HW1 8294   6.694   0.024   6.774
 2465SOL    HW2 8295   6.564   0.122   6.788
 2466SOL     OW 8296   0.716   2.105   1.896
 2466SOL    HW1 8297   0.661   2.022   1.890
 2466SOL    HW2 8298   0.764   2.119   1.810
 2467SOL     OW 8299   5.133   3.149   5.051
 2467SOL    HW1 8300   5.044   3.182   5.019
 2467SOL    HW2 8301   5.119   3.083   5.125
 2468SOL     OW 8302   3.627   0.251   5.240
 2468SOL    HW1 8303   3.560   0.201   5.185
 2468SOL    HW2 8304   3.580   0.326   5.288
 2469SOL     OW 8305   3.575   1.913   6.104
 2469SOL    HW1 8306   3.584   1.905   6.005
 2469SOL    HW2 8307   3.484   1.884   6.132
 2470SOL     OW 8308   2.513   5.492   6.768
 2470SOL    HW1 8309   2.427   5.534   6.797
 2470SOL    HW2 8310   2.545   5.429   6.839
 2471SOL     OW 8311   3.002   5.190   2.080
 2471SOL    HW1 8312   3.074   5.242   2.125
 2471SOL    HW2 8313   2.914   5.237   2.091
 2472SOL     OW 8314   4.595   1.449   3.336
 2472SOL    HW1 8315   4.513   1.495   3.302
 2472SOL    HW2 8316   4.568   1.363   3.381
 2473SOL     OW 8317   0.153   4.084   3.499
 2473SOL    HW1 8318   0.134   3.986   3.486
 2473SOL    HW2 8319   0.099   4.118   3.575
 2474SOL     OW 8320   1.145   6.207   1.768
 2474SOL    HW1 8321   1.146   6.158   1.681
 2474SOL    HW2 8322   1.112   6.300   1.753
 2475SOL     OW 8323   4.892   1.083   0.491
 2475SOL    HW1 8324   4.836   1.162   0.464
 2475SOL    HW2 8325   4.982   1.090   0.449
 2476SOL     OW 8326   4.189   0.205   0.934
 2476SOL    HW1 8327   4.255   0.265   0.977
 2476SOL    HW2 8328   4.100   0.215   0.978
 2477SOL     OW 8329   3.779   0.402   3.570
 2477SOL    HW1 8330   3.844   0.352   3.513
 2477SOL    HW2 8331   3.804   0.499   3.571
 2478SOL     OW 8332   4.363   0.102   5.102
 2478SOL    HW1 8333   4.358   0.181   5.162
 2478SOL    HW2 8334   4.382   0.020   5.155
 2479SOL     OW 8335   5.630   3.375   1.211
 2479SOL    HW1 8336   5.627   3.472   1.187
 2479SOL    HW2 8337   5.668   3.323   1.135
 2480SOL     OW 8338   3.843   2.305   1.337
 2480SOL    HW1 8339   3.790   2.390   1.328
 2480SOL    HW2 8340   3.831   2.250   1.254
 2481SOL     OW 8341   3.194   6.705   2.162
 2481SOL    HW1 8342   3.128   6.742   2.228
 2481SOL    HW2 8343   3.284   6.745   2.180
 2482SOL     OW 8344   6.662   3.335   7.019
 2482SOL    HW1 8345   6.595   3.310   0.062
 2482SOL    HW2 8346   6.750   3.294   0.013
 2483SOL     OW 8347   1.823   2.462   0.759
 2483SOL    HW1 8348   1.767   2.507   0.689
 2483SOL    HW2 8349   1.863   2.531   0.819
 2484SOL     OW 8350   4.232   0.476   0.126
 2484SOL    HW1 8351   4.323   0.438   0.139
 2484SOL    HW2 8352   4.203   0.460   0.032
 2485SOL     OW 8353   0.699   2.363   6.131
 2485SOL    HW1 8354   0.629   2.304   6.170
 2485SOL    HW2 8355   0.789   2.340   6.168
 2486SOL     OW 8356   0.253   5.466   3.553
 2486SOL    HW1 8357   0.259   5.441   3.650
 2486SOL    HW2 8358   0.322   5.535   3.532
 2487SOL     OW 8359   4.265   6.325   6.988
 2487SOL    HW1 8360   4.205   6.403   6.973
 2487SOL    HW2 8361   4.350   6.355   0.006
 2488SOL     OW 8362   6.900   4.151   0.562
 2488SOL    HW1 8363   6.831   4.205   0.513
 2488SOL    HW2 8364   6.915   4.190   0.653
 2489SOL     OW 8365   6.108   5.171   4.227
 2489SOL    HW1 8366   6.053   5.254   4.222
 2489SOL    HW2 8367   6.197   5.192   4.266
 2490SOL     OW 8368   2.575   5.927   3.210
 2490SOL    HW1 8369   2.616   5.917   3.300
 2490SOL    HW2 8370   2.622   5.869   3.144
 2491SOL     OW 8371   3.722   4.671   1.459
 2491SOL    HW1 8372   3.728   4.591   1.519
 2491SOL    HW2 8373   3.805   4.678   1.404
 2492SOL     OW 8374   6.551   5.011   1.625
 2492SOL    HW1 8375   6.606   4.928   1.614
 2492SOL    HW2 8376   6.612   5.090   1.638
 2493SOL     OW 8377   5.273   6.671   1.009
 2493SOL    HW1 8378   5.288   6.587   0.957
 2493SOL    HW2 8379   5.356   6.725   1.009
 2494SOL     OW 8380   6.702   3.350   1.131
 2494SOL    HW1 8381   6.771   3.407   1.087
 2494SOL    HW2 8382   6.714   3.353   1.230
 2495SOL     OW 8383   0.599   4.215   1.994
 2495SOL    HW1 8384   0.667   4.187   1.926
 2495SOL    HW2 8385   0.641   4.212   2.085
 2496SOL     OW 8386   5.665   4.654   6.688
 2496SOL    HW1 8387   5.662   4.706   6.774
 2496SOL    HW2 8388   5.616   4.568   6.700
 2497SOL     OW 8389   0.191   7.023   2.014
 2497SOL    HW1 8390   0.270   0.050   2.041
 2497SOL    HW2 8391   0.132   7.008   2.093
 2498SOL     OW 8392   1.683   3.567   5.196
 2498SOL    HW1 8393   1.711   3.595   5.288
 2498SOL    HW2 8394   1.649   3.646   5.146
 2499SOL     OW 8395   0.123   3.676   1.901
 2499SOL    HW1 8396   0.156   3.737   1.828
 2499SOL    HW2 8397   0.023   3.674   1.899
 2500SOL     OW 8398   3.608   3.266   1.426
 2500SOL    HW1 8399   3.520   3.227   1.398
 2500SOL    HW2 8400   3.613   3.269   1.525
 2501SOL     OW 8401   6.146   5.476   6.568
 2501SOL    HW1 8402   6.111   5.566   6.596
 2501SOL    HW2 8403   6.232   5.458   6.614
 2502SOL     OW 8404   2.280   6.343   4.592
 2502SOL    HW1 8405   2.305   6.316   4.499
 2502SOL    HW2 8406   2.346   6.410   4.626
 2503SOL     OW 8407   3.017   6.636   5.950
 2503SOL    HW1 8408   3.088   6.701   5.979
 2503SOL    HW2 8409   3.051   6.582   5.873
 2504SOL     OW 8410   3.833   6.835   3.524
 2504SOL    HW1 8411   3.867   6.812   3.433
 2504SOL    HW2 8412   3.749   6.889   3.515
 2505SOL     OW 8413   0.267   4.201   4.117
 2505SOL    HW1 8414   0.168   4.191   4.103
 2505SOL    HW2 8415   0.309   4.110   4.124
 2506SOL     OW 8416   5.712   5.342   6.166
 2506SOL    HW1 8417   5.706   5.437   6.197
 2506SOL    HW2 8418   5.631   5.320   6.111
 2507SOL     OW 8419   6.613   2.928   2.026
 2507SOL    HW1 8420   6.659   2.936   2.115
 2507SOL    HW2 8421   6.540   2.996   2.020
 2508SOL     OW 8422   5.306   1.520   4.552
 2508SOL    HW1 8423   5.232   1.583   4.528
 2508SOL    HW2 8424   5.361   1.500   4.470
 2509SOL     OW 8425   0.623   3.275   5.681
 2509SOL    HW1 8426   0.580   3.302   5.766
 2509SOL    HW2 8427   0.722   3.267   5.694
 2510SOL     OW 8428   3.147   3.909   2.276
 2510SOL    HW1 8429   3.188   3.828   2.235
 2510SOL    HW2 8430   3.075   3.880   2.340
 2511SOL     OW 8431   2.154   0.391   4.301
 2511SOL    HW1 8432   2.247   0.416   4.329
 2511SOL    HW2 8433   2.154   0.364   4.205
 2512SOL     OW 8434   4.118   4.868   4.264
 2512SOL    HW1 8435   4.139   4.966   4.260
 2512SOL    HW2 8436   4.032   4.855   4.312
 2513SOL     OW 8437   2.490   5.429   5.926
 2513SOL    HW1 8438   2.539   5.343   5.912
 2513SOL    HW2 8439   2.518   5.470   6.012
 2514SOL     OW 8440   1.468   1.861   2.649
 2514SOL    HW1 8441   1.405   1.934   2.623
 2514SOL    HW2 8442   1.541   1.899   2.706
 2515SOL     OW 8443   0.899   1.634   1.447
 2515SOL    HW1 8444   0.913   1.689   1.365
 2515SOL    HW2 8445   0.978   1.643   1.508
 2516SOL     OW 8446   5.716   2.157   4.831
 2516SOL    HW1 8447   5.681   2.086   4.893
 2516SOL    HW2 8448   5.644   2.224   4.813
 2517SOL     OW 8449   1.351   1.193   3.902
 2517SOL    HW1 8450   1.283   1.120   3.905
 2517SOL    HW2 8451   1.434   1.159   3.859
 2518SOL     OW 8452   2.159   4.712   1.515
 2518SOL    HW1 8453   2.164   4.777   1.590
 2518SOL    HW2 8454   2.154   4.761   1.428
 2519SOL     OW 8455   1.034   1.287   0.769
 2519SOL    HW1 8456   0.958   1.224   0.749
 2519SOL    HW2 8457   1.076   1.260   0.856
 2520SOL     OW 8458   2.648   2.289   0.255
 2520SOL    HW1 8459   2.571   2.244   0.300
 2520SOL    HW2 8460   2.682   2.362   0.313
 2521SOL     OW 8461   5.160   0.955   5.200
 2521SOL    HW1 8462   5.124   0.890   5.267
 2521SOL    HW2 8463   5.181   0.907   5.114
 2522SOL     OW 8464   1.289   1.990   6.804
 2522SOL    HW1 8465   1.370   2.038   6.836
 2522SOL    HW2 8466   1.222   2.056   6.769
 2523SOL     OW 8467   1.419   5.367   6.880
 2523SOL    HW1 8468   1.511   5.406   6.872
 2523SOL    HW2 8469   1.422   5.288   6.941
 2524SOL     OW 8470   1.491   0.428   4.408
 2524SOL    HW1 8471   1.561   0.363   4.379
 2524SOL    HW2 8472   1.444   0.392   4.488
 2525SOL     OW 8473   6.420   2.682   5.405
 2525SOL    HW1 8474   6.395   2.586   5.395
 2525SOL    HW2 8475   6.505   2.700   5.355
 2526SOL     OW 8476   1.709   0.005   1.393
 2526SOL    HW1 8477   1.780   7.007   1.327
 2526SOL    HW2 8478   1.643   6.957   1.401
 2527SOL     OW 8479   4.652   5.155   5.936
 2527SOL    HW1 8480   4.598   5.138   6.019
 2527SOL    HW2 8481   4.609   5.228   5.884
 2528SOL     OW 8482   4.852   5.966   6.563
 2528SOL    HW1 8483   4.789   6.041   6.542
 2528SOL    HW2 8484   4.805   5.899   6.621
 2529SOL     OW 8485   0.551   6.662   6.389
 2529SOL    HW1 8486   0.472   6.663   6.450
 2529SOL    HW2 8487   0.521   6.642   6.296
 2530SOL     OW 8488   2.594   5.600   6.526
 2530SOL    HW1 8489   2.653   5.680   6.521
 2530SOL    HW2 8490   2.590   5.567   6.621
 2531SOL     OW 8491   6.948   5.685   6.644
 2531SOL    HW1 8492   6.964   5.653   6.550
 2531SOL    HW2 8493   6.991   5.622   6.708
 2532SOL     OW 8494   5.256   6.379   1.149
 2532SOL    HW1 8495   5.161   6.400   1.169
 2532SOL    HW2 8496   5.296   6.327   1.224
 2533SOL     OW 8497   4.824   0.585   4.116
 2533SOL    HW1 8498   4.898   0.650   4.134
 2533SOL    HW2 8499   4.791   0.549   4.203
 2534SOL     OW 8500   3.975   1.326   2.591
 2534SOL    HW1 8501   4.048   1.346   2.656
 2534SOL    HW2 8502   4.010   1.336   2.498
 2535SOL     OW 8503   3.941   2.942   6.573
 2535SOL    HW1 8504   3.985   3.033   6.571
 2535SOL    HW2 8505   3.867   2.939   6.506
 2536SOL     OW 8506   1.345   1.140   0.700
 2536SOL    HW1 8507   1.265   1.143   0.759
 2536SOL    HW2 8508   1.405   1.065   0.728
 2537SOL     OW 8509   4.015   6.881   6.125
 2537SOL    HW1 8510   3.971   6.965   6.158
 2537SOL    HW2 8511   4.043   6.826   6.203
 2538SOL     OW 8512   6.357   2.985   3.459
 2538SOL    HW1 8513   6.416   3.013   3.534
 2538SOL    HW2 8514   6.367   3.049   3.382
 2539SOL     OW 8515   5.201   2.599   5.466
 2539SOL    HW1 8516   5.233   2.506   5.484
 2539SOL    HW2 8517   5.115   2.595   5.414
 2540SOL     OW 8518   2.553   1.556   1.678
 2540SOL    HW1 8519   2.563   1.617   1.599
 2540SOL    HW2 8520   2.573   1.462   1.651
 2541SOL     OW 8521   3.837   6.778   4.637
 2541SOL    HW1 8522   3.875   6.844   4.702
 2541SOL    HW2 8523   3.889   6.782   4.552
 2542SOL     OW 8524   1.899   5.363   6.669
 2542SOL    HW1 8525   1.998   5.370   6.685
 2542SOL    HW2 8526   1.854   5.443   6.708
 2543SOL     OW 8527   1.236   1.172   3.508
 2543SOL    HW1 8528   1.222   1.131   3.418
 2543SOL    HW2 8529   1.241   1.101   3.577
 2544SOL     OW 8530   1.090   5.594   7.023
 2544SOL    HW1 8531   1.107   5.686   0.032
 2544SOL    HW2 8532   1.061   5.534   0.070
 2545SOL     OW 8533   2.979   5.840   3.245
 2545SOL    HW1 8534   3.002   5.788   3.326
 2545SOL    HW2 8535   3.008   5.935   3.257
 2546SOL     OW 8536   6.683   1.478   1.156
 2546SOL    HW1 8537   6.594   1.462   1.114
 2546SOL    HW2 8538   6.685   1.438   1.248
 2547SOL     OW 8539   0.673   3.534   4.893
 2547SOL    HW1 8540   0.711   3.542   4.985
 2547SOL    HW2 8541   0.745   3.512   4.828
 2548SOL     OW 8542   0.836   0.113   4.458
 2548SOL    HW1 8543   0.788   0.155   4.381
 2548SOL    HW2 8544   0.771   0.095   4.532
 2549SOL     OW 8545   6.609   2.588   1.424
 2549SOL    HW1 8546   6.530   2.634   1.463
 2549SOL    HW2 8547   6.586   2.493   1.403
 2550SOL     OW 8548   6.130   5.944   0.370
 2550SOL    HW1 8549   6.044   5.893   0.360
 2550SOL    HW2 8550   6.116   6.020   0.434
 2551SOL     OW 8551   1.283   4.317   6.665
 2551SOL    HW1 8552   1.188   4.323   6.634
 2551SOL    HW2 8553   1.286   4.333   6.764
 2552SOL     OW 8554   1.899   5.334   3.249
 2552SOL    HW1 8555   1.862   5.377   3.167
 2552SOL    HW2 8556   1.913   5.404   3.319
 2553SOL     OW 8557   4.232   3.746   6.654
 2553SOL    HW1 8558   4.240   3.841   6.684
 2553SOL    HW2 8559   4.315   3.696   6.680
 2554SOL     OW 8560   2.110   1.491   0.335
 2554SOL    HW1 8561   2.193   1.524   0.291
 2554SOL    HW2 8562   2.067   1.421   0.277
 2555SOL     OW 8563   6.146   0.929   6.797
 2555SOL    HW1 8564   6.083   1.006   6.796
 2555SOL    HW2 8565   6.228   0.954   6.848
 2556SOL     OW 8566   2.986   5.562   0.866
 2556SOL    HW1 8567   3.038   5.641   0.835
 2556SOL    HW2 8568   2.993   5.554   0.966
 2557SOL     OW 8569   1.706   4.071   6.793
 2557SOL    HW1 8570   1.801   4.100   6.784
 2557SOL    HW2 8571   1.647   4.134   6.744
 2558SOL     OW 8572   3.814   0.240   5.711
 2558SOL    HW1 8573   3.875   0.262   5.787
 2558SOL    HW2 8574   3.819   0.313   5.643
 2559SOL     OW 8575   0.075   5.536   5.037
 2559SOL    HW1 8576   0.040   5.444   5.016
 2559SOL    HW2 8577   0.175   5.532   5.045
 2560SOL     OW 8578   6.361   1.291   7.014
 2560SOL    HW1 8579   6.395   1.198   7.001
 2560SOL    HW2 8580   6.263   1.288   0.010
 2561SOL     OW 8581   3.194   5.419   4.800
 2561SOL    HW1 8582   3.272   5.359   4.820
 2561SOL    HW2 8583   3.220   5.514   4.816
 2562SOL     OW 8584   2.236   4.009   6.607
 2562SOL    HW1 8585   2.168   4.013   6.680
 2562SOL    HW2 8586   2.263   3.914   6.590
 2563SOL     OW 8587   2.026   1.192   0.324
 2563SOL    HW1 8588   2.122   1.168   0.338
 2563SOL    HW2 8589   1.975   1.110   0.299
 2564SOL     OW 8590   1.421   6.373   1.705
 2564SOL    HW1 8591   1.375   6.364   1.793
 2564SOL    HW2 8592   1.437   6.282   1.666
 2565SOL     OW 8593   1.140   0.846   1.520
 2565SOL    HW1 8594   1.225   0.892   1.543
 2565SOL    HW2 8595   1.151   0.796   1.434
 2566SOL     OW 8596   1.815   6.628   6.231
 2566SOL    HW1 8597   1.881   6.608   6.158
 2566SOL    HW2 8598   1.793   6.544   6.280
 2567SOL     OW 8599   0.617   7.008   0.654
 2567SOL    HW1 8600   0.567   0.065   0.674
 2567SOL    HW2 8601   0.600   6.981   0.559
 2568SOL     OW 8602   5.265   3.769   0.050
 2568SOL    HW1 8603   5.310   3.689   0.010
 2568SOL    HW2 8604   5.176   3.743   0.086
 2569SOL     OW 8605   2.709   0.819   2.939
 2569SOL    HW1 8606   2.677   0.740   2.992
 2569SOL    HW2 8607   2.735   0.892   3.002
 2570SOL     OW 8608   5.248   2.449   6.331
 2570SOL    HW1 8609   5.166   2.480   6.283
 2570SOL    HW2 8610   5.223   2.379   6.398
 2571SOL     OW 8611   0.979   3.729   4.742
 2571SOL    HW1 8612   1.059   3.695   4.692
 2571SOL    HW2 8613   0.922   3.783   4.681
 2572SOL     OW 8614   1.362   4.923   3.876
 2572SOL    HW1 8615   1.416   4.968   3.805
 2572SOL    HW2 8616   1.348   4.827   3.851
 2573SOL     OW 8617   1.164   0.166   0.775
 2573SOL    HW1 8618   1.071   0.202   0.780
 2573SOL    HW2 8619   1.162   0.067   0.792
 2574SOL     OW 8620   5.855   3.475   0.640
 2574SOL    HW1 8621   5.864   3.430   0.551
 2574SOL    HW2 8622   5.785   3.546   0.634
 2575SOL     OW 8623   0.804   5.895   6.096
 2575SOL    HW1 8624   0.837   5.831   6.165
 2575SOL    HW2 8625   0.801   5.987   6.134
 2576SOL     OW 8626   4.099   5.626   4.179
 2576SOL    HW1 8627   4.044   5.560   4.127
 2576SOL    HW2 8628   4.102   5.713   4.129
 2577SOL     OW 8629   2.398   4.360   2.228
 2577SOL    HW1 8630   2.448   4.443   2.250
 2577SOL    HW2 8631   2.408   4.294   2.302
 2578SOL     OW 8632   4.017   2.139   2.960
 2578SOL    HW1 8633   4.079   2.217   2.963
 2578SOL    HW2 8634   3.930   2.167   2.920
 2579SOL     OW 8635   1.249   6.434   3.190
 2579SOL    HW1 8636   1.168   6.471   3.236
 2579SOL    HW2 8637   1.313   6.509   3.173
 2580SOL     OW 8638   2.176   2.024   5.922
 2580SOL    HW1 8639   2.149   2.094   5.989
 2580SOL    HW2 8640   2.186   1.936   5.968
 2581SOL     OW 8641   3.506   0.602   5.519
 2581SOL    HW1 8642   3.429   0.664   5.533
 2581SOL    HW2 8643   3.518   0.585   5.421
 2582SOL     OW 8644   6.711   3.216   2.110
 2582SOL    HW1 8645   6.659   3.135   2.138
 2582SOL    HW2 8646   6.672   3.297   2.155
 2583SOL     OW 8647   6.079   0.349   0.745
 2583SOL    HW1 8648   5.990   0.334   0.702
 2583SOL    HW2 8649   6.117   0.261   0.774
 2584SOL     OW 8650   3.881   4.612   6.208
 2584SOL    HW1 8651   3.915   4.555   6.133
 2584SOL    HW2 8652   3.892   4.563   6.295
 2585SOL     OW 8653   2.995   4.575   6.244
 2585SOL    HW1 8654   3.058   4.586   6.321
 2585SOL    HW2 8655   2.973   4.665   6.207
 2586SOL     OW 8656   2.829   0.830   3.650
 2586SOL    HW1 8657   2.848   0.732   3.660
 2586SOL    HW2 8658   2.750   0.855   3.708
 2587SOL     OW 8659   6.756   1.009   4.083
 2587SOL    HW1 8660   6.811   0.958   4.150
 2587SOL    HW2 8661   6.792   0.992   3.991
 2588SOL     OW 8662   4.563   0.937   6.611
 2588SOL    HW1 8663   4.597   0.931   6.517
 2588SOL    HW2 8664   4.568   1.032   6.642
 2589SOL     OW 8665   2.128   6.476   0.358
 2589SOL    HW1 8666   2.103   6.440   0.268
 2589SOL    HW2 8667   2.200   6.545   0.348
 2590SOL     OW 8668   2.328   5.441   0.179
 2590SOL    HW1 8669   2.267   5.410   0.105
 2590SOL    HW2 8670   2.388   5.513   0.144
 2591SOL     OW 8671   6.223   5.446   3.525
 2591SOL    HW1 8672   6.137   5.489   3.552
 2591SOL    HW2 8673   6.299   5.508   3.544
 2592SOL     OW 8674   2.912   3.957   0.848
 2592SOL    HW1 8675   2.933   3.863   0.821
 2592SOL    HW2 8676   2.878   3.958   0.942
 2593SOL     OW 8677   3.533   4.182   0.900
 2593SOL    HW1 8678   3.570   4.128   0.976
 2593SOL    HW2 8679   3.433   4.175   0.900
 2594SOL     OW 8680   2.012   3.096   4.632
 2594SOL    HW1 8681   1.959   3.052   4.704
 2594SOL    HW2 8682   2.076   3.030   4.592
 2595SOL     OW 8683   2.124   1.360   2.728
 2595SOL    HW1 8684   2.064   1.440   2.738
 2595SOL    HW2 8685   2.219   1.389   2.734
 2596SOL     OW 8686   1.326   1.680   0.176
 2596SOL    HW1 8687   1.403   1.619   0.193
 2596SOL    HW2 8688   1.344   1.736   0.095
 2597SOL     OW 8689   6.956   6.369   0.431
 2597SOL    HW1 8690   6.979   6.466   0.427
 2597SOL    HW2 8691   0.012   6.314   0.425
 2598SOL     OW 8692   5.912   2.354   2.615
 2598SOL    HW1 8693   5.839   2.346   2.683
 2598SOL    HW2 8694   5.872   2.346   2.523
 2599SOL     OW 8695   3.109   5.851   2.200
 2599SOL    HW1 8696   3.151   5.782   2.260
 2599SOL    HW2 8697   3.179   5.893   2.143
 2600SOL     OW 8698   5.782   3.714   4.332
 2600SOL    HW1 8699   5.865   3.753   4.290
 2600SOL    HW2 8700   5.805   3.674   4.420
 2601SOL     OW 8701   6.530   1.386   3.590
 2601SOL    HW1 8702   6.488   1.302   3.556
 2601SOL    HW2 8703   6.615   1.404   3.540
 2602SOL     OW 8704   1.066   4.387   2.947
 2602SOL    HW1 8705   1.134   4.326   2.989
 2602SOL    HW2 8706   1.054   4.362   2.851
 2603SOL     OW 8707   2.568   6.217   2.617
 2603SOL    HW1 8708   2.611   6.303   2.645
 2603SOL    HW2 8709   2.490   6.197   2.677
 2604SOL     OW 8710   4.714   2.864   3.323
 2604SOL    HW1 8711   4.743   2.820   3.408
 2604SOL    HW2 8712   4.733   2.962   3.328
 2605SOL     OW 8713   1.967   3.669   2.009
 2605SOL    HW1 8714   2.049   3.629   1.967
 2605SOL    HW2 8715   1.987   3.761   2.041
 2606SOL     OW 8716   4.821   4.000   1.329
 2606SOL    HW1 8717   4.881   4.061   1.381
 2606SOL    HW2 8718   4.868   3.972   1.245
 2607SOL     OW 8719   2.532   2.096   1.111
 2607SOL    HW1 8720   2.575   2.058   1.193
 2607SOL    HW2 8721   2.575   2.184   1.089
 2608SOL     OW 8722   2.537   5.077   5.709
 2608SOL    HW1 8723   2.563   5.138   5.635
 2608SOL    HW2 8724   2.521   4.985   5.673
 2609SOL     OW 8725   0.514   2.389   0.656
 2609SOL    HW1 8726   0.491   2.295   0.682
 2609SOL    HW2 8727   0.448   2.422   0.588
 2610SOL     OW 8728   1.756   3.975   4.829
 2610SOL    HW1 8729   1.755   3.875   4.823
 2610SOL    HW2 8730   1.780   4.002   4.923
 2611SOL     OW 8731   5.031   0.345   6.535
 2611SOL    HW1 8732   5.081   0.431   6.531
 2611SOL    HW2 8733   5.086   0.273   6.493
 2612SOL     OW 8734   6.632   0.137   6.302
 2612SOL    HW1 8735   6.648   0.061   6.239
 2612SOL    HW2 8736   6.571   0.107   6.375
 2613SOL     OW 8737   0.905   6.538   6.912
 2613SOL    HW1 8738   0.841   6.607   6.876
 2613SOL    HW2 8739   0.959   6.579   6.986
 2614SOL     OW 8740   6.042   1.835   6.933
 2614SOL    HW1 8741   6.113   1.905   6.938
 2614SOL    HW2 8742   6.075   1.758   6.879
 2615SOL     OW 8743   0.519   3.355   6.645
 2615SOL    HW1 8744   0.585   3.281   6.657
 2615SOL    HW2 8745   0.426   3.319   6.658
 2616SOL     OW 8746   1.207   1.178   4.886
 2616SOL    HW1 8747   1.305   1.171   4.869
 2616SOL    HW2 8748   1.188   1.260   4.941
 2617SOL     OW 8749   4.769   0.464   1.633
 2617SOL    HW1 8750   4.697   0.533   1.620
 2617SOL    HW2 8751   4.845   0.483   1.571
 2618SOL     OW 8752   1.392   6.603   6.297
 2618SOL    HW1 8753   1.310   6.588   6.242
 2618SOL    HW2 8754   1.386   6.692   6.343
 2619SOL     OW 8755   4.740   1.057   2.915
 2619SOL    HW1 8756   4.722   1.128   2.847
 2619SOL    HW2 8757   4.832   1.069   2.952
 2620SOL     OW 8758   6.156   1.755   1.403
 2620SOL    HW1 8759   6.241   1.794   1.368
 2620SOL    HW2 8760   6.090   1.828   1.422
 2621SOL     OW 8761   1.697   6.116   1.715
 2621SOL    HW1 8762   1.600   6.100   1.696
 2621SOL    HW2 8763   1.743   6.029   1.728
 2622SOL     OW 8764   2.745   4.000   6.919
 2622SOL    HW1 8765   2.824   4.059   6.939
 2622SOL    HW2 8766   2.695   4.038   6.841
 2623SOL     OW 8767   0.026   6.187   3.788
 2623SOL    HW1 8768   0.069   6.112   3.736
 2623SOL    HW2 8769   0.018   6.267   3.729
 2624SOL     OW 8770   0.901   1.629   5.088
 2624SOL    HW1 8771   0.963   1.568   5.137
 2624SOL    HW2 8772   0.896   1.717   5.135
 2625SOL     OW 8773   2.795   4.888   6.622
 2625SOL    HW1 8774   2.724   4.827   6.587
 2625SOL    HW2 8775   2.792   4.889   6.722
 2626SOL     OW 8776   6.991   6.529   6.915
 2626SOL    HW1 8777   0.024   6.452   6.893
 2626SOL    HW2 8778   6.898   6.496   6.931
 2627SOL     OW 8779   2.064   0.218   5.795
 2627SOL    HW1 8780   2.123   0.149   5.836
 2627SOL    HW2 8781   2.076   0.305   5.843
 2628SOL     OW 8782   0.349   4.552   1.532
 2628SOL    HW1 8783   0.361   4.456   1.507
 2628SOL    HW2 8784   0.438   4.593   1.551
 2629SOL     OW 8785   3.221   4.110   2.451
 2629SOL    HW1 8786   3.178   4.051   2.382
 2629SOL    HW2 8787   3.203   4.206   2.428
 2630SOL     OW 8788   4.101   0.741   4.396
 2630SOL    HW1 8789   4.028   0.779   4.339
 2630SOL    HW2 8790   4.071   0.652   4.432
 2631SOL     OW 8791   5.603   6.946   0.138
 2631SOL    HW1 8792   5.695   6.983   0.125
 2631SOL    HW2 8793   5.560   6.990   0.217
 2632SOL     OW 8794   6.007   5.109   2.216
 2632SOL    HW1 8795   6.014   5.200   2.177
 2632SOL    HW2 8796   5.915   5.095   2.252
 2633SOL     OW 8797   0.330   3.334   5.746
 2633SOL    HW1 8798   0.248   3.323   5.691
 2633SOL    HW2 8799   0.346   3.431   5.764
 2634SOL     OW 8800   0.803   1.488   5.557
 2634SOL    HW1 8801   0.778   1.435   5.638
 2634SOL    HW2 8802   0.868   1.560   5.582
 2635SOL     OW 8803   4.460   5.078   3.681
 2635SOL    HW1 8804   4.490   5.011   3.748
 2635SOL    HW2 8805   4.485   5.170   3.712
 2636SOL     OW 8806   3.628   6.757   6.162
 2636SOL    HW1 8807   3.610   6.766   6.260
 2636SOL    HW2 8808   3.545   6.727   6.116
 2637SOL     OW 8809   0.532   0.970   3.116
 2637SOL    HW1 8810   0.632   0.971   3.120
 2637SOL    HW2 8811   0.502   0.963   3.021
 2638SOL     OW 8812   0.824   6.580   4.204
 2638SOL    HW1 8813   0.852   6.503   4.147
 2638SOL    HW2 8814   0.904   6.639   4.221
 2639SOL     OW 8815   4.407   4.700   4.638
 2639SOL    HW1 8816   4.441   4.787   4.603
 2639SOL    HW2 8817   4.366   4.713   4.728
 2640SOL     OW 8818   2.581   0.962   3.755
 2640SOL    HW1 8819   2.567   1.057   3.784
 2640SOL    HW2 8820   2.497   0.910   3.770
 2641SOL     OW 8821   5.403   2.005   0.049
 2641SOL    HW1 8822   5.342   1.948   0.103
 2641SOL    HW2 8823   5.426   1.959   6.990
 2642SOL     OW 8824   6.647   0.111   2.879
 2642SOL    HW1 8825   6.746   0.120   2.892
 2642SOL    HW2 8826   6.599   0.173   2.941
 2643SOL     OW 8827   1.696   4.624   4.339
 2643SOL    HW1 8828   1.787   4.588   4.318
 2643SOL    HW2 8829   1.682   4.709   4.289
 2644SOL     OW 8830   5.497   5.589   4.764
 2644SOL    HW1 8831   5.590   5.620   4.783
 2644SOL    HW2 8832   5.471   5.518   4.830
 2645SOL     OW 8833   4.817   5.840   3.478
 2645SOL    HW1 8834   4.745   5.809   3.540
 2645SOL    HW2 8835   4.776   5.869   3.391
 2646SOL     OW 8836   0.863   2.434   6.458
 2646SOL    HW1 8837   0.772   2.452   6.496
 2646SOL    HW2 8838   0.918   2.518   6.464
 2647SOL     OW 8839   4.670   6.925   2.411
 2647SOL    HW1 8840   4.577   6.923   2.374
 2647SOL    HW2 8841   4.735   6.942   2.338
 2648SOL     OW 8842   0.772   6.873   6.360
 2648SOL    HW1 8843   0.702   6.801   6.361
 2648SOL    HW2 8844   0.733   6.956   6.320
 2649SOL     OW 8845   5.152   1.565   3.418
 2649SOL    HW1 8846   5.192   1.475   3.399
 2649SOL    HW2 8847   5.103   1.562   3.505
 2650SOL     OW 8848   2.618   6.978   3.709
 2650SOL    HW1 8849   2.584   6.954   3.618
 2650SOL    HW2 8850   2.556   0.017   3.752
 2651SOL     OW 8851   4.032   2.209   4.140
 2651SOL    HW1 8852   4.096   2.284   4.158
 2651SOL    HW2 8853   3.970   2.199   4.218
 2652SOL     OW 8854   5.236   3.976   5.463
 2652SOL    HW1 8855   5.315   3.979   5.524
 2652SOL    HW2 8856   5.255   4.030   5.381
 2653SOL     OW 8857   2.362   6.286   6.927
 2653SOL    HW1 8858   2.273   6.320   6.955
 2653SOL    HW2 8859   2.397   6.341   6.850
 2654SOL     OW 8860   0.149   1.011   0.764
 2654SOL    HW1 8861   0.204   1.065   0.828
 2654SOL    HW2 8862   0.071   1.064   0.734
 2655SOL     OW 8863   5.167   6.269   2.892
 2655SOL    HW1 8864   5.085   6.316   2.859
 2655SOL    HW2 8865   5.142   6.201   2.961
 2656SOL     OW 8866   4.348   5.994   3.948
 2656SOL    HW1 8867   4.446   6.008   3.965
 2656SOL    HW2 8868   4.308   6.080   3.917
 2657SOL     OW 8869   1.365   3.779   6.523
 2657SOL    HW1 8870   1.323   3.863   6.556
 2657SOL    HW2 8871   1.458   3.772   6.559
 2658SOL     OW 8872   4.129   5.433   0.278
 2658SOL    HW1 8873   4.123   5.334   0.265
 2658SOL    HW2 8874   4.211   5.455   0.331
 2659SOL     OW 8875   0.042   2.106   5.238
 2659SOL    HW1 8876   0.096   2.089   5.155
 2659SOL    HW2 8877   0.092   2.072   5.317
 2660SOL     OW 8878   0.459   1.330   1.053
 2660SOL    HW1 8879   0.481   1.246   1.003
 2660SOL    HW2 8880   0.541   1.362   1.100
 2661SOL     OW 8881   1.654   1.317   1.092
 2661SOL    HW1 8882   1.581   1.327   1.026
 2661SOL    HW2 8883   1.729   1.265   1.051
 2662SOL     OW 8884   2.807   1.917   1.899
 2662SOL    HW1 8885   2.891   1.889   1.853
 2662SOL    HW2 8886   2.740   1.842   1.894
 2663SOL     OW 8887   3.779   0.097   0.704
 2663SOL    HW1 8888   3.812   0.003   0.707
 2663SOL    HW2 8889   3.682   0.100   0.728
 2664SOL     OW 8890   4.909   3.666   5.463
 2664SOL    HW1 8891   4.997   3.650   5.509
 2664SOL    HW2 8892   4.836   3.620   5.514
 2665SOL     OW 8893   1.835   3.264   3.650
 2665SOL    HW1 8894   1.836   3.361   3.675
 2665SOL    HW2 8895   1.781   3.252   3.567
 2666SOL     OW 8896   2.132   4.090   1.605
 2666SOL    HW1 8897   2.182   4.079   1.691
 2666SOL    HW2 8898   2.125   4.002   1.559
 2667SOL     OW 8899   6.362   3.200   5.808
 2667SOL    HW1 8900   6.365   3.285   5.860
 2667SOL    HW2 8901   6.407   3.212   5.720
 2668SOL     OW 8902   6.439   0.511   3.041
 2668SOL    HW1 8903   6.448   0.414   3.020
 2668SOL    HW2 8904   6.396   0.522   3.131
 2669SOL     OW 8905   2.296   0.988   0.780
 2669SOL    HW1 8906   2.326   0.895   0.797
 2669SOL    HW2 8907   2.271   1.032   0.866
 2670SOL     OW 8908   6.969   0.129   6.673
 2670SOL    HW1 8909   0.028   0.096   6.713
 2670SOL    HW2 8910   6.911   0.051   6.650
 2671SOL     OW 8911   5.373   4.774   6.032
 2671SOL    HW1 8912   5.380   4.872   6.050
 2671SOL    HW2 8913   5.334   4.728   6.112
 2672SOL     OW 8914   2.870   1.253   1.824
 2672SOL    HW1 8915   2.936   1.300   1.765
 2672SOL    HW2 8916   2.825   1.180   1.772
 2673SOL     OW 8917   3.806   0.226   2.665
 2673SOL    HW1 8918   3.867   0.283   2.720
 2673SOL    HW2 8919   3.740   0.180   2.725
 2674SOL     OW 8920   6.971   5.902   3.126
 2674SOL    HW1 8921   7.011   5.814   3.101
 2674SOL    HW2 8922   6.890   5.919   3.069
 2675SOL     OW 8923   4.679   1.099   5.231
 2675SOL    HW1 8924   4.713   1.164   5.164
 2675SOL    HW2 8925   4.748   1.085   5.303
 2676SOL     OW 8926   3.735   3.954   3.828
 2676SOL    HW1 8927   3.813   3.908   3.870
 2676SOL    HW2 8928   3.682   4.002   3.898
 2677SOL     OW 8929   1.654   5.934   1.221
 2677SOL    HW1 8930   1.637   5.916   1.318
 2677SOL    HW2 8931   1.573   5.907   1.167
 2678SOL     OW 8932   3.577   1.827   2.853
 2678SOL    HW1 8933   3.563   1.902   2.917
 2678SOL    HW2 8934   3.675   1.819   2.832
 2679SOL     OW 8935   2.121   3.435   2.469
 2679SOL    HW1 8936   2.142   3.526   2.505
 2679SOL    HW2 8937   2.100   3.441   2.372
 2680SOL     OW 8938   5.619   2.611   0.282
 2680SOL    HW1 8939   5.568   2.525   0.275
 2680SOL    HW2 8940   5.650   2.638   0.191
 2681SOL     OW 8941   2.274   2.451   3.367
 2681SOL    HW1 8942   2.332   2.378   3.404
 2681SOL    HW2 8943   2.220   2.415   3.291
 2682SOL     OW 8944   3.685   3.743   1.709
 2682SOL    HW1 8945   3.732   3.675   1.653
 2682SOL    HW2 8946   3.699   3.722   1.806
 2683SOL     OW 8947   2.381   4.019   1.303
 2683SOL    HW1 8948   2.380   3.919   1.300
 2683SOL    HW2 8949   2.458   4.053   1.249
 2684SOL     OW 8950   6.372   0.285   3.711
 2684SOL    HW1 8951   6.313   0.260   3.788
 2684SOL    HW2 8952   6.457   0.232   3.715
 2685SOL     OW 8953   0.609   6.462   5.828
 2685SOL    HW1 8954   0.510   6.470   5.817
 2685SOL    HW2 8955   0.654   6.471   5.739
 2686SOL     OW 8956   1.426   0.736   5.695
 2686SOL    HW1 8957   1.510   0.733   5.640
 2686SOL    HW2 8958   1.401   0.831   5.713
 2687SOL     OW 8959   4.138   1.660   1.545
 2687SOL    HW1 8960   4.235   1.684   1.553
 2687SOL    HW2 8961   4.113   1.656   1.448
 2688SOL     OW 8962   4.078   2.701   0.183
 2688SOL    HW1 8963   4.070   2.635   0.257
 2688SOL    HW2 8964   4.084   2.793   0.221
 2689SOL     OW 8965   0.985   3.526   3.075
 2689SOL    HW1 8966   1.015   3.588   3.148
 2689SOL    HW2 8967   0.894   3.553   3.043
 2690SOL     OW 8968   5.123   1.382   5.472
 2690SOL    HW1 8969   5.025   1.375   5.487
 2690SOL    HW2 8970   5.146   1.341   5.383
 2691SOL     OW 8971   0.110   4.125   4.920
 2691SOL    HW1 8972   0.165   4.126   4.836
 2691SOL    HW2 8973   0.120   4.213   4.966
 2692SOL     OW 8974   2.453   5.525   2.066
 2692SOL    HW1 8975   2.547   5.505   2.038
 2692SOL    HW2 8976   2.442   5.624   2.076
 2693SOL     OW 8977   0.865   5.804   3.289
 2693SOL    HW1 8978   0.766   5.812   3.290
 2693SOL    HW2 8979   0.893   5.732   3.224
 2694SOL     OW 8980   2.472   0.397   2.338
 2694SOL    HW1 8981   2.433   0.341   2.411
 2694SOL    HW2 8982   2.462   0.494   2.361
 2695SOL     OW 8983   6.907   4.980   3.876
 2695SOL    HW1 8984   6.997   4.961   3.914
 2695SOL    HW2 8985   6.878   4.902   3.820
 2696SOL     OW 8986   4.300   5.064   6.303
 2696SOL    HW1 8987   4.324   5.001   6.376
 2696SOL    HW2 8988   4.336   5.030   6.216
 2697SOL     OW 8989   3.974   1.927   0.349
 2697SOL    HW1 8990   3.949   2.022   0.331
 2697SOL    HW2 8991   3.906   1.866   0.308
 2698SOL     OW 8992   1.401   5.442   6.000
 2698SOL    HW1 8993   1.492   5.403   5.987
 2698SOL    HW2 8994   1.335   5.392   5.943
 2699SOL     OW 8995   2.688   6.684   2.128
 2699SOL    HW1 8996   2.603   6.682   2.076
 2699SOL    HW2 8997   2.670   6.712   2.222
 2700SOL     OW 8998   4.257   1.945   1.387
 2700SOL    HW1 8999   4.202   1.861   1.388
 2700SOL    HW2 9000   4.247   1.992   1.474
 2701SOL     OW 9001   4.875   3.851   4.855
 2701SOL    HW1 9002   4.853   3.925   4.919
 2701SOL    HW2 9003   4.837   3.765   4.889
 2702SOL     OW 9004   2.510   1.275   4.850
 2702SOL    HW1 9005   2.560   1.320   4.924
 2702SOL    HW2 9006   2.493   1.341   4.777
 2703SOL     OW 9007   2.497   6.470   2.910
 2703SOL    HW1 9008   2.551   6.542   2.953
 2703SOL    HW2 9009   2.524   6.462   2.814
 2704SOL     OW 9010   4.748   0.521   3.732
 2704SOL    HW1 9011   4.829   0.555   3.683
 2704SOL    HW2 9012   4.776   0.463   3.808
 2705SOL     OW 9013   0.898   0.744   5.028
 2705SOL    HW1 9014   0.824   0.767   5.091
 2705SOL    HW2 9015   0.978   0.715   5.081
 2706SOL     OW 9016   6.844   4.391   3.972
 2706SOL    HW1 9017   6.777   4.454   4.010
 2706SOL    HW2 9018   6.815   4.297   3.992
 2707SOL     OW 9019   4.173   1.338   3.552
 2707SOL    HW1 9020   4.213   1.363   3.464
 2707SOL    HW2 9021   4.244   1.300   3.611
 2708SOL     OW 9022   5.278   3.403   5.972
 2708SOL    HW1 9023   5.344   3.329   5.963
 2708SOL    HW2 9024   5.206   3.391   5.904
 2709SOL     OW 9025   4.642   1.682   5.806
 2709SOL    HW1 9026   4.669   1.673   5.710
 2709SOL    HW2 9027   4.558   1.736   5.812
 2710SOL     OW 9028   1.255   2.861   4.149
 2710SOL    HW1 9029   1.298   2.916   4.221
 2710SOL    HW2 9030   1.287   2.766   4.156
 2711SOL     OW 9031   3.558   1.039   1.968
 2711SOL    HW1 9032   3.462   1.042   1.994
 2711SOL    HW2 9033   3.566   1.018   1.871
 2712SOL     OW 9034   5.140   6.064   2.236
 2712SOL    HW1 9035   5.048   6.026   2.237
 2712SOL    HW2 9036   5.197   6.012   2.172
 2713SOL     OW 9037   3.741   5.055   5.669
 2713SOL    HW1 9038   3.801   5.035   5.591
 2713SOL    HW2 9039   3.784   5.122   5.728
 2714SOL     OW 9040   2.967   4.173   6.064
 2714SOL    HW1 9041   2.969   4.132   6.155
 2714SOL    HW2 9042   2.995   4.104   5.997
 2715SOL     OW 9043   4.399   6.769   6.593
 2715SOL    HW1 9044   4.468   6.720   6.539
 2715SOL    HW2 9045   4.371   6.713   6.670
 2716SOL     OW 9046   4.135   0.393   2.846
 2716SOL    HW1 9047   4.228   0.426   2.858
 2716SOL    HW2 9048   4.119   0.316   2.908
 2717SOL     OW 9049   0.883   2.220   1.662
 2717SOL    HW1 9050   0.901   2.208   1.565
 2717SOL    HW2 9051   0.955   2.275   1.704
 2718SOL     OW 9052   6.494   1.737   5.573
 2718SOL    HW1 9053   6.474   1.675   5.648
 2718SOL    HW2 9054   6.521   1.685   5.492
 2719SOL     OW 9055   1.561   5.004   3.700
 2719SOL    HW1 9056   1.636   4.984   3.763
 2719SOL    HW2 9057   1.595   5.057   3.622
 2720SOL     OW 9058   1.699   5.812   6.309
 2720SOL    HW1 9059   1.693   5.788   6.212
 2720SOL    HW2 9060   1.700   5.911   6.320
 2721SOL     OW 9061   2.412   6.647   1.663
 2721SOL    HW1 9062   2.413   6.614   1.569
 2721SOL    HW2 9063   2.490   6.708   1.678
 2722SOL     OW 9064   3.886   4.829   6.594
 2722SOL    HW1 9065   3.831   4.875   6.524
 2722SOL    HW2 9066   3.843   4.742   6.618
 2723SOL     OW 9067   3.718   6.148   6.588
 2723SOL    HW1 9068   3.685   6.060   6.624
 2723SOL    HW2 9069   3.704   6.151   6.489
 2724SOL     OW 9070   6.692   5.425   1.131
 2724SOL    HW1 9071   6.643   5.371   1.062
 2724SOL    HW2 9072   6.662   5.397   1.222
 2725SOL     OW 9073   5.696   4.477   3.511
 2725SOL    HW1 9074   5.724   4.383   3.491
 2725SOL    HW2 9075   5.650   4.480   3.600
 2726SOL     OW 9076   5.970   1.442   2.617
 2726SOL    HW1 9077   5.886   1.424   2.565
 2726SOL    HW2 9078   5.957   1.524   2.673
 2727SOL     OW 9079   1.540   5.698   3.450
 2727SOL    HW1 9080   1.547   5.776   3.512
 2727SOL    HW2 9081   1.616   5.700   3.384
 2728SOL     OW 9082   4.136   5.754   6.175
 2728SOL    HW1 9083   4.209   5.821   6.187
 2728SOL    HW2 9084   4.095   5.764   6.085
 2729SOL     OW 9085   6.158   0.383   6.762
 2729SOL    HW1 9086   6.063   0.381   6.795
 2729SOL    HW2 9087   6.216   0.430   6.828
 2730SOL     OW 9088   1.556   5.680   2.539
 2730SOL    HW1 9089   1.534   5.587   2.511
 2730SOL    HW2 9090   1.516   5.745   2.474
 2731SOL     OW 9091   3.076   3.967   4.772
 2731SOL    HW1 9092   3.077   3.869   4.752
 2731SOL    HW2 9093   3.053   3.981   4.869
 2732SOL     OW 9094   5.399   0.665   1.695
 2732SOL    HW1 9095   5.380   0.628   1.604
 2732SOL    HW2 9096   5.355   0.608   1.764
 2733SOL     OW 9097   0.816   6.310   0.225
 2733SOL    HW1 9098   0.886   6.326   0.295
 2733SOL    HW2 9099   0.726   6.303   0.268
 2734SOL     OW 9100   3.707   5.911   2.535
 2734SOL    HW1 9101   3.715   5.827   2.589
 2734SOL    HW2 9102   3.755   5.985   2.582
 2735SOL     OW 9103   0.811   1.697   1.969
 2735SOL    HW1 9104   0.821   1.619   2.031
 2735SOL    HW2 9105   0.742   1.677   1.900
 2736SOL     OW 9106   5.992   4.014   2.921
 2736SOL    HW1 9107   5.950   4.070   2.849
 2736SOL    HW2 9108   5.928   3.942   2.949
 2737SOL     OW 9109   2.955   0.619   5.324
 2737SOL    HW1 9110   2.979   0.704   5.371
 2737SOL    HW2 9111   2.856   0.611   5.316
 2738SOL     OW 9112   5.254   5.741   1.350
 2738SOL    HW1 9113   5.312   5.718   1.428
 2738SOL    HW2 9114   5.158   5.721   1.372
 2739SOL     OW 9115   6.692   5.813   0.956
 2739SOL    HW1 9116   6.602   5.769   0.958
 2739SOL    HW2 9117   6.761   5.747   0.926
 2740SOL     OW 9118   0.684   5.265   3.034
 2740SOL    HW1 9119   0.760   5.214   2.992
 2740SOL    HW2 9120   0.685   5.250   3.133
 2741SOL     OW 9121   0.547   6.860   5.584
 2741SOL    HW1 9122   0.616   6.820   5.645
 2741SOL    HW2 9123   0.491   6.787   5.545
 2742SOL     OW 9124   3.393   5.565   2.588
 2742SOL    HW1 9125   3.377   5.590   2.493
 2742SOL    HW2 9126   3.351   5.632   2.649
 2743SOL     OW 9127   4.734   1.600   2.487
 2743SOL    HW1 9128   4.730   1.653   2.572
 2743SOL    HW2 9129   4.797   1.644   2.423
 2744SOL     OW 9130   3.470   4.121   2.594
 2744SOL    HW1 9131   3.385   4.108   2.542
 2744SOL    HW2 9132   3.448   4.146   2.688
 2745SOL     OW 9133   0.669   5.650   0.542
 2745SOL    HW1 9134   0.595   5.667   0.607
 2745SOL    HW2 9135   0.751   5.700   0.571
 2746SOL     OW 9136   1.900   1.071   3.478
 2746SOL    HW1 9137   1.869   1.152   3.527
 2746SOL    HW2 9138   1.908   1.091   3.381
 2747SOL     OW 9139   4.070   4.366   0.997
 2747SOL    HW1 9140   3.986   4.417   1.017
 2747SOL    HW2 9141   4.073   4.343   0.900
 2748SOL     OW 9142   3.586   0.559   0.689
 2748SOL    HW1 9143   3.673   0.569   0.738
 2748SOL    HW2 9144   3.596   0.488   0.620
 2749SOL     OW 9145   3.096   1.520   0.984
 2749SOL    HW1 9146   3.135   1.500   0.894
 2749SOL    HW2 9147   3.005   1.559   0.973
 2750SOL     OW 9148   3.286   5.963   2.883
 2750SOL    HW1 9149   3.186   5.960   2.892
 2750SOL    HW2 9150   3.313   6.055   2.854
 2751SOL     OW 9151   6.248   4.922   0.891
 2751SOL    HW1 9152   6.274   5.015   0.865
 2751SOL    HW2 9153   6.217   4.922   0.986
 2752SOL     OW 9154   3.928   5.818   6.804
 2752SOL    HW1 9155   3.858   5.843   6.872
 2752SOL    HW2 9156   3.999   5.888   6.804
 2753SOL     OW 9157   5.312   5.951   5.245
 2753SOL    HW1 9158   5.386   5.918   5.185
 2753SOL    HW2 9159   5.237   5.885   5.244
 2754SOL     OW 9160   1.056   0.077   5.667
 2754SOL    HW1 9161   1.069   7.018   5.718
 2754SOL    HW2 9162   1.091   0.153   5.721
 2755SOL     OW 9163   3.763   0.104   2.430
 2755SOL    HW1 9164   3.768   0.159   2.347
 2755SOL    HW2 9165   3.773   0.163   2.510
 2756SOL     OW 9166   4.508   6.425   0.489
 2756SOL    HW1 9167   4.554   6.514   0.480
 2756SOL    HW2 9168   4.552   6.359   0.429
 2757SOL     OW 9169   0.521   4.904   0.891
 2757SOL    HW1 9170   0.458   4.826   0.893
 2757SOL    HW2 9171   0.535   4.933   0.796
 2758SOL     OW 9172   4.560   0.915   5.413
 2758SOL    HW1 9173   4.605   0.977   5.348
 2758SOL    HW2 9174   4.592   0.822   5.397
 2759SOL     OW 9175   5.000   4.744   4.134
 2759SOL    HW1 9176   4.993   4.837   4.099
 2759SOL    HW2 9177   5.090   4.730   4.175
 2760SOL     OW 9178   1.492   6.409   3.604
 2760SOL    HW1 9179   1.507   6.311   3.596
 2760SOL    HW2 9180   1.411   6.426   3.661
 2761SOL     OW 9181   2.409   5.146   3.971
 2761SOL    HW1 9182   2.365   5.161   3.883
 2761SOL    HW2 9183   2.508   5.140   3.959
 2762SOL     OW 9184   1.721   0.770   4.921
 2762SOL    HW1 9185   1.795   0.833   4.944
 2762SOL    HW2 9186   1.748   0.677   4.948
 2763SOL     OW 9187   4.921   1.436   2.623
 2763SOL    HW1 9188   4.853   1.497   2.584
 2763SOL    HW2 9189   4.987   1.489   2.677
 2764SOL     OW 9190   6.199   1.009   1.823
 2764SOL    HW1 9191   6.101   1.013   1.803
 2764SOL    HW2 9192   6.244   0.950   1.756
 2765SOL     OW 9193   5.314   1.904   2.724
 2765SOL    HW1 9194   5.292   1.820   2.675
 2765SOL    HW2 9195   5.291   1.894   2.821
 2766SOL     OW 9196   6.062   0.374   2.733
 2766SOL    HW1 9197   6.005   0.299   2.764
 2766SOL    HW2 9198   6.005   0.443   2.688
 2767SOL     OW 9199   5.949   4.237   5.742
 2767SOL    HW1 9200   5.938   4.335   5.761
 2767SOL    HW2 9201   5.943   4.186   5.828
 2768SOL     OW 9202   6.114   1.288   6.481
 2768SOL    HW1 9203   6.211   1.314   6.475
 2768SOL    HW2 9204   6.058   1.370   6.488
 2769SOL     OW 9205   1.316   4.437   1.319
 2769SOL    HW1 9206   1.396   4.383   1.346
 2769SOL    HW2 9207   1.337   4.488   1.236
 2770SOL     OW 9208   6.538   5.882   1.650
 2770SOL    HW1 9209   6.483   5.878   1.567
 2770SOL    HW2 9210   6.499   5.949   1.713
 2771SOL     OW 9211   5.263   1.290   1.268
 2771SOL    HW1 9212   5.290   1.198   1.296
 2771SOL    HW2 9213   5.320   1.357   1.317
 2772SOL     OW 9214   3.764   2.140   6.702
 2772SOL    HW1 9215   3.797   2.162   6.610
 2772SOL    HW2 9216   3.820   2.187   6.770
 2773SOL     OW 9217   3.313   4.517   1.014
 2773SOL    HW1 9218   3.259   4.571   1.079
 2773SOL    HW2 9219   3.408   4.547   1.016
 2774SOL     OW 9220   5.590   3.302   2.387
 2774SOL    HW1 9221   5.617   3.365   2.315
 2774SOL    HW2 9222   5.498   3.266   2.367
 2775SOL     OW 9223   6.470   6.913   2.237
 2775SOL    HW1 9224   6.562   6.926   2.199
 2775SOL    HW2 9225   6.402   6.949   2.174
 2776SOL     OW 9226   3.297   6.395   6.446
 2776SOL    HW1 9227   3.228   6.419   6.377
 2776SOL    HW2 9228   3.253   6.378   6.534
 2777SOL     OW 9229   2.410   1.757   3.504
 2777SOL    HW1 9230   2.361   1.704   3.435
 2777SOL    HW2 9231   2.353   1.835   3.532
 2778SOL     OW 9232   2.342   2.332   4.377
 2778SOL    HW1 9233   2.415   2.295   4.320
 2778SOL    HW2 9234   2.361   2.312   4.473
 2779SOL     OW 9235   6.369   1.678   0.855
 2779SOL    HW1 9236   6.373   1.635   0.945
 2779SOL    HW2 9237   6.274   1.677   0.822
 2780SOL     OW 9238   3.947   6.218   0.166
 2780SOL    HW1 9239   3.888   6.297   0.175
 2780SOL    HW2 9240   3.960   6.196   0.069
 2781SOL     OW 9241   4.534   4.609   6.990
 2781SOL    HW1 9242   4.483   4.590   0.048
 2781SOL    HW2 9243   4.490   4.562   6.914
 2782SOL     OW 9244   2.833   1.159   6.103
 2782SOL    HW1 9245   2.926   1.125   6.087
 2782SOL    HW2 9246   2.768   1.092   6.066
 2783SOL     OW 9247   0.198   4.212   5.801
 2783SOL    HW1 9248   0.187   4.144   5.873
 2783SOL    HW2 9249   0.134   4.287   5.815
 2784SOL     OW 9250   2.295   2.255   1.652
 2784SOL    HW1 9251   2.326   2.329   1.712
 2784SOL    HW2 9252   2.295   2.287   1.557
 2785SOL     OW 9253   5.936   1.116   1.772
 2785SOL    HW1 9254   5.851   1.152   1.733
 2785SOL    HW2 9255   5.943   1.145   1.867
 2786SOL     OW 9256   2.818   0.053   0.136
 2786SOL    HW1 9257   2.854   0.095   0.053
 2786SOL    HW2 9258   2.844   6.983   0.139
 2787SOL     OW 9259   2.006   2.875   5.200
 2787SOL    HW1 9260   1.916   2.844   5.228
 2787SOL    HW2 9261   2.032   2.829   5.114
 2788SOL     OW 9262   0.459   4.124   6.786
 2788SOL    HW1 9263   0.378   4.112   6.728
 2788SOL    HW2 9264   0.506   4.036   6.795
 2789SOL     OW 9265   6.973   2.580   4.172
 2789SOL    HW1 9266   0.017   2.625   4.228
 2789SOL    HW2 9267   6.965   2.627   4.084
 2790SOL     OW 9268   3.382   6.274   3.971
 2790SOL    HW1 9269   3.480   6.279   3.955
 2790SOL    HW2 9270   3.336   6.347   3.920
 2791SOL     OW 9271   2.246   2.820   2.782
 2791SOL    HW1 9272   2.331   2.771   2.803
 2791SOL    HW2 9273   2.226   2.811   2.685
 2792SOL     OW 9274   1.442   2.302   4.877
 2792SOL    HW1 9275   1.488   2.222   4.915
 2792SOL    HW2 9276   1.353   2.275   4.840
 2793SOL     OW 9277   5.126   0.982   4.065
 2793SOL    HW1 9278   5.032   1.000   4.095
 2793SOL    HW2 9279   5.174   1.069   4.052
 2794SOL     OW 9280   0.643   1.307   1.698
 2794SOL    HW1 9281   0.633   1.255   1.613
 2794SOL    HW2 9282   0.648   1.404   1.678
 2795SOL     OW 9283   2.157   4.334   1.448
 2795SOL    HW1 9284   2.171   4.303   1.353
 2795SOL    HW2 9285   2.177   4.258   1.510
 2796SOL     OW 9286   5.757   4.510   2.344
 2796SOL    HW1 9287   5.799   4.470   2.263
 2796SOL    HW2 9288   5.792   4.464   2.426
 2797SOL     OW 9289   4.594   4.431   4.884
 2797SOL    HW1 9290   4.580   4.460   4.790
 2797SOL    HW2 9291   4.511   4.449   4.938
 2798SOL     OW 9292   1.869   3.573   3.705
 2798SOL    HW1 9293   1.791   3.608   3.757
 2798SOL    HW2 9294   1.908   3.648   3.650
 2799SOL     OW 9295   6.507   5.432   5.995
 2799SOL    HW1 9296   6.434   5.364   6.000
 2799SOL    HW2 9297   6.552   5.426   5.906
 2800SOL     OW 9298   2.754   1.778   6.886
 2800SOL    HW1 9299   2.853   1.791   6.893
 2800SOL    HW2 9300   2.732   1.742   6.795
 2801SOL     OW 9301   4.431   5.398   2.642
 2801SOL    HW1 9302   4.350   5.420   2.588
 2801SOL    HW2 9303   4.465   5.481   2.686
 2802SOL     OW 9304   5.912   1.007   6.338
 2802SOL    HW1 9305   5.987   1.045   6.284
 2802SOL    HW2 9306   5.947   0.973   6.425
 2803SOL     OW 9307   2.206   5.663   5.475
 2803SOL    HW1 9308   2.214   5.762   5.464
 2803SOL    HW2 9309   2.229   5.618   5.389
 2804SOL     OW 9310   0.331   4.716   2.520
 2804SOL    HW1 9311   0.390   4.797   2.522
 2804SOL    HW2 9312   0.283   4.711   2.433
 2805SOL     OW 9313   5.299   4.110   6.163
 2805SOL    HW1 9314   5.251   4.069   6.085
 2805SOL    HW2 9315   5.334   4.038   6.222
 2806SOL     OW 9316   6.856   5.142   2.791
 2806SOL    HW1 9317   6.827   5.130   2.696
 2806SOL    HW2 9318   6.775   5.147   2.850
 2807SOL     OW 9319   4.309   4.682   4.196
 2807SOL    HW1 9320   4.328   4.631   4.281
 2807SOL    HW2 9321   4.241   4.753   4.215
 2808SOL     OW 9322   4.368   5.658   3.965
 2808SOL    HW1 9323   4.285   5.602   3.968
 2808SOL    HW2 9324   4.343   5.752   3.945
 2809SOL     OW 9325   5.294   3.097   0.588
 2809SOL    HW1 9326   5.295   3.089   0.489
 2809SOL    HW2 9327   5.376   3.145   0.619
 2810SOL     OW 9328   1.506   0.440   5.751
 2810SOL    HW1 9329   1.515   0.540   5.754
 2810SOL    HW2 9330   1.453   0.414   5.670
 2811SOL     OW 9331   0.126   1.151   4.090
 2811SOL    HW1 9332   0.094   1.193   4.175
 2811SOL    HW2 9333   0.076   1.189   4.013
 2812SOL     OW 9334   5.064   3.588   2.601
 2812SOL    HW1 9335   5.105   3.612   2.513
 2812SOL    HW2 9336   5.066   3.489   2.613
 2813SOL     OW 9337   6.228   1.857   6.409
 2813SOL    HW1 9338   6.129   1.873   6.411
 2813SOL    HW2 9339   6.257   1.846   6.314
 2814SOL     OW 9340   5.188   4.583   5.159
 2814SOL    HW1 9341   5.109   4.589   5.098
 2814SOL    HW2 9342   5.270   4.611   5.109
 2815SOL     OW 9343   0.112   1.472   4.753
 2815SOL    HW1 9344   0.018   1.438   4.752
 2815SOL    HW2 9345   0.134   1.508   4.843
 2816SOL     OW 9346   5.686   6.694   3.438
 2816SOL    HW1 9347   5.706   6.615   3.380
 2816SOL    HW2 9348   5.591   6.691   3.468
 2817SOL     OW 9349   1.308   1.575   1.354
 2817SOL    HW1 9350   1.225   1.521   1.363
 2817SOL    HW2 9351   1.330   1.617   1.442
 2818SOL     OW 9352   0.612   3.616   6.011
 2818SOL    HW1 9353   0.668   3.548   5.965
 2818SOL    HW2 9354   0.633   3.616   6.109
 2819SOL     OW 9355   6.038   3.228   0.971
 2819SOL    HW1 9356   6.043   3.261   1.065
 2819SOL    HW2 9357   6.130   3.225   0.932
 2820SOL     OW 9358   5.657   2.748   4.156
 2820SOL    HW1 9359   5.669   2.682   4.230
 2820SOL    HW2 9360   5.642   2.699   4.070
 2821SOL     OW 9361   1.337   3.247   3.854
 2821SOL    HW1 9362   1.386   3.323   3.812
 2821SOL    HW2 9363   1.384   3.218   3.937
 2822SOL     OW 9364   2.966   1.852   0.320
 2822SOL    HW1 9365   2.916   1.766   0.312
 2822SOL    HW2 9366   2.901   1.927   0.334
 2823SOL     OW 9367   2.182   6.431   3.505
 2823SOL    HW1 9368   2.095   6.423   3.458
 2823SOL    HW2 9369   2.198   6.348   3.559
 2824SOL     OW 9370   2.991   1.582   4.781
 2824SOL    HW1 9371   2.976   1.681   4.785
 2824SOL    HW2 9372   2.939   1.538   4.854
 2825SOL     OW 9373   6.329   6.295   1.410
 2825SOL    HW1 9374   6.417   6.313   1.365
 2825SOL    HW2 9375   6.305   6.374   1.467
 2826SOL     OW 9376   4.639   2.663   4.035
 2826SOL    HW1 9377   4.607   2.622   4.121
 2826SOL    HW2 9378   4.567   2.656   3.966
 2827SOL     OW 9379   5.598   0.965   6.596
 2827SOL    HW1 9380   5.563   0.945   6.504
 2827SOL    HW2 9381   5.526   1.005   6.652
 2828SOL     OW 9382   3.428   1.928   6.828
 2828SOL    HW1 9383   3.524   1.912   6.805
 2828SOL    HW2 9384   3.414   1.914   6.926
 2829SOL     OW 9385   2.027   0.154   6.677
 2829SOL    HW1 9386   2.034   0.202   6.764
 2829SOL    HW2 9387   2.103   0.089   6.669
 2830SOL     OW 9388   3.257   3.929   6.591
 2830SOL    HW1 9389   3.282   4.001   6.526
 2830SOL    HW2 9390   3.214   3.853   6.542
 2831SOL     OW 9391   6.391   5.758   4.271
 2831SOL    HW1 9392   6.449   5.699   4.215
 2831SOL    HW2 9393   6.395   5.728   4.367
 2832SOL     OW 9394   0.188   0.664   1.848
 2832SOL    HW1 9395   0.184   0.762   1.865
 2832SOL    HW2 9396   0.204   0.647   1.751
 2833SOL     OW 9397   6.336   2.728   2.222
 2833SOL    HW1 9398   6.249   2.679   2.222
 2833SOL    HW2 9399   6.410   2.664   2.239
 2834SOL     OW 9400   4.032   0.867   6.046
 2834SOL    HW1 9401   4.092   0.903   5.975
 2834SOL    HW2 9402   3.954   0.820   6.003
 2835SOL     OW 9403   0.631   6.477   3.158
 2835SOL    HW1 9404   0.649   6.394   3.212
 2835SOL    HW2 9405   0.540   6.472   3.118
 2836SOL     OW 9406   6.549   0.988   1.063
 2836SOL    HW1 9407   6.601   1.056   1.114
 2836SOL    HW2 9408   6.536   1.020   0.969
 2837SOL     OW 9409   6.428   2.780   3.710
 2837SOL    HW1 9410   6.465   2.816   3.796
 2837SOL    HW2 9411   6.333   2.809   3.701
 2838SOL     OW 9412   1.721   4.963   3.929
 2838SOL    HW1 9413   1.815   4.977   3.897
 2838SOL    HW2 9414   1.715   4.989   4.025
 2839SOL     OW 9415   5.248   2.404   1.570
 2839SOL    HW1 9416   5.201   2.436   1.487
 2839SOL    HW2 9417   5.181   2.387   1.642
 2840SOL     OW 9418   6.881   2.530   5.430
 2840SOL    HW1 9419   6.804   2.492   5.481
 2840SOL    HW2 9420   6.967   2.504   5.473
 2841SOL     OW 9421   0.514   6.455   1.623
 2841SOL    HW1 9422   0.425   6.496   1.638
 2841SOL    HW2 9423   0.585   6.525   1.633
 2842SOL     OW 9424   6.078   2.920   3.007
 2842SOL    HW1 9425   6.007   2.949   3.071
 2842SOL    HW2 9426   6.121   3.000   2.966
 2843SOL     OW 9427   4.132   1.934   4.669
 2843SOL    HW1 9428   4.104   1.966   4.579
 2843SOL    HW2 9429   4.158   2.013   4.726
 2844SOL     OW 9430   0.113   3.881   5.099
 2844SOL    HW1 9431   0.107   3.963   5.042
 2844SOL    HW2 9432   0.196   3.886   5.155
 2845SOL     OW 9433   6.754   4.004   5.990
 2845SOL    HW1 9434   6.700   4.088   5.993
 2845SOL    HW2 9435   6.823   4.012   5.918
 2846SOL     OW 9436   4.765   1.140   6.467
 2846SOL    HW1 9437   4.709   1.206   6.518
 2846SOL    HW2 9438   4.809   1.187   6.390
 2847SOL     OW 9439   4.835   4.478   3.705
 2847SOL    HW1 9440   4.892   4.457   3.625
 2847SOL    HW2 9441   4.739   4.483   3.676
 2848SOL     OW 9442   1.399   6.392   5.219
 2848SOL    HW1 9443   1.354   6.311   5.255
 2848SOL    HW2 9444   1.498   6.384   5.232
 2849SOL     OW 9445   2.121   3.080   1.549
 2849SOL    HW1 9446   2.040   3.088   1.605
 2849SOL    HW2 9447   2.196   3.132   1.590
 2850SOL     OW 9448   3.233   0.951   0.568
 2850SOL    HW1 9449   3.264   1.035   0.612
 2850SOL    HW2 9450   3.288   0.874   0.599
 2851SOL     OW 9451   2.132   4.714   6.190
 2851SOL    HW1 9452   2.135   4.755   6.099
 2851SOL    HW2 9453   2.166   4.779   6.258
 2852SOL     OW 9454   0.449   3.161   6.196
 2852SOL    HW1 9455   0.373   3.139   6.257
 2852SOL    HW2 9456   0.416   3.218   6.120
 2853SOL     OW 9457   3.500   2.712   1.380
 2853SOL    HW1 9458   3.434   2.776   1.340
 2853SOL    HW2 9459   3.462   2.673   1.463
 2854SOL     OW 9460   1.219   0.872   3.557
 2854SOL    HW1 9461   1.312   0.838   3.544
 2854SOL    HW2 9462   1.175   0.822   3.632
 2855SOL     OW 9463   3.183   0.902   5.363
 2855SOL    HW1 9464   3.216   0.932   5.273
 2855SOL    HW2 9465   3.223   0.961   5.434
 2856SOL     OW 9466   2.518   1.278   5.302
 2856SOL    HW1 9467   2.465   1.196   5.283
 2856SOL    HW2 9468   2.491   1.316   5.390
 2857SOL     OW 9469   3.509   3.495   3.283
 2857SOL    HW1 9470   3.567   3.538   3.352
 2857SOL    HW2 9471   3.461   3.566   3.231
 2858SOL     OW 9472   5.715   2.367   2.786
 2858SOL    HW1 9473   5.716   2.315   2.872
 2858SOL    HW2 9474   5.621   2.381   2.756
 2859SOL     OW 9475   5.508   6.282   0.456
 2859SOL    HW1 9476   5.537   6.222   0.380
 2859SOL    HW2 9477   5.580   6.349   0.474
 2860SOL     OW 9478   4.370   2.307   1.512
 2860SOL    HW1 9479   4.394   2.314   1.610
 2860SOL    HW2 9480   4.280   2.266   1.503
 2861SOL     OW 9481   3.163   5.086   5.685
 2861SOL    HW1 9482   3.072   5.106   5.648
 2861SOL    HW2 9483   3.233   5.119   5.623
 2862SOL     OW 9484   6.232   0.248   4.562
 2862SOL    HW1 9485   6.252   0.165   4.614
 2862SOL    HW2 9486   6.316   0.300   4.550
 2863SOL     OW 9487   6.665   1.988   0.284
 2863SOL    HW1 9488   6.721   2.013   0.363
 2863SOL    HW2 9489   6.609   1.909   0.307
 2864SOL     OW 9490   3.246   1.463   0.120
 2864SOL    HW1 9491   3.286   1.376   0.091
 2864SOL    HW2 9492   3.243   1.467   0.220
 2865SOL     OW 9493   4.660   5.050   5.187
 2865SOL    HW1 9494   4.618   4.970   5.145
 2865SOL    HW2 9495   4.666   5.125   5.121
 2866SOL     OW 9496   6.852   6.938   6.531
 2866SOL    HW1 9497   6.906   6.992   6.467
 2866SOL    HW2 9498   6.771   6.990   6.558
 2867SOL     OW 9499   6.657   4.036   3.352
 2867SOL    HW1 9500   6.671   4.005   3.258
 2867SOL    HW2 9501   6.577   3.990   3.391
 2868SOL     OW 9502   1.757   4.730   5.347
 2868SOL    HW1 9503   1.670   4.745   5.394
 2868SOL    HW2 9504   1.759   4.784   5.263
 2869SOL     OW 9505   6.339   1.119   2.523
 2869SOL    HW1 9506   6.367   1.036   2.571
 2869SOL    HW2 9507   6.259   1.158   2.568
 2870SOL     OW 9508   5.128   2.003   2.414
 2870SOL    HW1 9509   5.162   1.971   2.326
 2870SOL    HW2 9510   5.153   2.099   2.427
 2871SOL     OW 9511   2.337   1.468   5.974
 2871SOL    HW1 9512   2.390   1.552   5.984
 2871SOL    HW2 9513   2.396   1.389   5.994
 2872SOL     OW 9514   2.419   6.461   4.244
 2872SOL    HW1 9515   2.422   6.386   4.309
 2872SOL    HW2 9516   2.329   6.462   4.198
 2873SOL     OW 9517   0.038   5.394   1.678
 2873SOL    HW1 9518   0.102   5.318   1.674
 2873SOL    HW2 9519   0.010   5.410   1.773
 2874SOL     OW 9520   5.453   1.797   3.143
 2874SOL    HW1 9521   5.529   1.859   3.124
 2874SOL    HW2 9522   5.367   1.846   3.136
 2875SOL     OW 9523   2.826   5.061   0.928
 2875SOL    HW1 9524   2.733   5.085   0.959
 2875SOL    HW2 9525   2.884   5.142   0.932
 2876SOL     OW 9526   0.225   1.594   2.565
 2876SOL    HW1 9527   0.166   1.514   2.572
 2876SOL    HW2 9528   0.228   1.641   2.654
 2877SOL     OW 9529   2.200   2.836   5.796
 2877SOL    HW1 9530   2.260   2.838   5.717
 2877SOL    HW2 9531   2.199   2.927   5.839
 2878SOL     OW 9532   3.293   4.997   0.238
 2878SOL    HW1 9533   3.230   5.059   0.286
 2878SOL    HW2 9534   3.321   5.039   0.152
 2879SOL     OW 9535   4.615   5.196   6.988
 2879SOL    HW1 9536   4.589   5.144   6.906
 2879SOL    HW2 9537   4.670   5.137   0.021
 2880SOL     OW 9538   1.091   6.566   1.787
 2880SOL    HW1 9539   1.157   6.561   1.862
 2880SOL    HW2 9540   1.065   6.661   1.771
 2881SOL     OW 9541   0.195   0.034   6.780
 2881SOL    HW1 9542   0.205   6.964   6.805
 2881SOL    HW2 9543   0.275   0.063   6.727
 2882SOL     OW 9544   6.752   3.234   3.611
 2882SOL    HW1 9545   6.797   3.155   3.571
 2882SOL    HW2 9546   6.810   3.272   3.684
 2883SOL     OW 9547   4.795   6.326   2.972
 2883SOL    HW1 9548   4.727   6.396   2.991
 2883SOL    HW2 9549   4.803   6.313   2.873
 2884SOL     OW 9550   1.885   5.976   3.261
 2884SOL    HW1 9551   1.822   5.901   3.282
 2884SOL    HW2 9552   1.834   6.051   3.219
 2885SOL     OW 9553   0.542   1.969   3.681
 2885SOL    HW1 9554   0.515   1.915   3.761
 2885SOL    HW2 9555   0.612   2.036   3.709
 2886SOL     OW 9556   2.355   2.812   6.128
 2886SOL    HW1 9557   2.412   2.807   6.210
 2886SOL    HW2 9558   2.413   2.807   6.047
 2887SOL     OW 9559   2.459   1.050   4.989
 2887SOL    HW1 9560   2.392   1.074   5.058
 2887SOL    HW2 9561   2.468   1.125   4.923
 2888SOL     OW 9562   6.743   4.961   6.983
 2888SOL    HW1 9563   6.840   4.989   6.985
 2888SOL    HW2 9564   6.708   4.958   0.050
 2889SOL     OW 9565   0.276   0.149   1.361
 2889SOL    HW1 9566   0.192   0.097   1.375
 2889SOL    HW2 9567   0.351   0.087   1.337
 2890SOL     OW 9568   2.936   6.842   0.604
 2890SOL    HW1 9569   2.870   6.895   0.551
 2890SOL    HW2 9570   3.000   6.904   0.649
 2891SOL     OW 9571   2.589   4.988   4.596
 2891SOL    HW1 9572   2.586   4.961   4.692
 2891SOL    HW2 9573   2.498   4.980   4.556
 2892SOL     OW 9574   4.483   4.422   5.591
 2892SOL    HW1 9575   4.545   4.380   5.658
 2892SOL    HW2 9576   4.469   4.518   5.615
 2893SOL     OW 9577   2.685   0.570   5.891
 2893SOL    HW1 9578   2.734   0.494   5.850
 2893SOL    HW2 9579   2.646   0.627   5.819
 2894SOL     OW 9580   3.525   2.673   0.939
 2894SOL    HW1 9581   3.461   2.614   0.988
 2894SOL    HW2 9582   3.475   2.746   0.893
 2895SOL     OW 9583   3.203   3.480   6.623
 2895SOL    HW1 9584   3.183   3.531   6.707
 2895SOL    HW2 9585   3.217   3.383   6.647
 2896SOL     OW 9586   2.402   5.611   1.070
 2896SOL    HW1 9587   2.491   5.646   1.100
 2896SOL    HW2 9588   2.351   5.685   1.027
 2897SOL     OW 9589   1.777   6.478   3.535
 2897SOL    HW1 9590   1.845   6.423   3.486
 2897SOL    HW2 9591   1.686   6.458   3.500
 2898SOL     OW 9592   2.555   5.177   2.831
 2898SOL    HW1 9593   2.503   5.243   2.777
 2898SOL    HW2 9594   2.536   5.084   2.798
 2899SOL     OW 9595   6.647   0.472   0.487
 2899SOL    HW1 9596   6.672   0.537   0.559
 2899SOL    HW2 9597   6.566   0.422   0.514
 2900SOL     OW 9598   2.800   5.547   6.071
 2900SOL    HW1 9599   2.863   5.512   6.140
 2900SOL    HW2 9600   2.709   5.559   6.111
 2901SOL     OW 9601   3.117   0.209   1.528
 2901SOL    HW1 9602   3.201   0.163   1.559
 2901SOL    HW2 9603   3.103   0.291   1.583
 2902SOL     OW 9604   5.624   5.604   1.849
 2902SOL    HW1 9605   5.590   5.679   1.793
 2902SOL    HW2 9606   5.585   5.611   1.941
 2903SOL     OW 9607   2.688   2.514   1.774
 2903SOL    HW1 9608   2.697   2.570   1.691
 2903SOL    HW2 9609   2.779   2.486   1.806
 2904SOL     OW 9610   1.860   3.426   4.823
 2904SOL    HW1 9611   1.811   3.340   4.841
 2904SOL    HW2 9612   1.879   3.471   4.910
 2905SOL     OW 9613   0.927   2.278   1.393
 2905SOL    HW1 9614   1.010   2.315   1.434
 2905SOL    HW2 9615   0.950   2.235   1.305
 2906SOL     OW 9616   5.298   6.044   2.467
 2906SOL    HW1 9617   5.298   5.945   2.453
 2906SOL    HW2 9618   5.247   6.088   2.394
 2907SOL     OW 9619   6.526   0.653   4.270
 2907SOL    HW1 9620   6.446   0.707   4.298
 2907SOL    HW2 9621   6.598   0.715   4.240
 2908SOL     OW 9622   4.207   6.033   4.969
 2908SOL    HW1 9623   4.168   6.015   5.060
 2908SOL    HW2 9624   4.191   6.128   4.945
 2909SOL     OW 9625   1.411   6.314   5.573
 2909SOL    HW1 9626   1.351   6.318   5.493
 2909SOL    HW2 9627   1.356   6.299   5.655
 2910SOL     OW 9628   5.005   6.506   5.851
 2910SOL    HW1 9629   5.033   6.450   5.773
 2910SOL    HW2 9630   5.064   6.486   5.929
 2911SOL     OW 9631   2.251   4.055   3.359
 2911SOL    HW1 9632   2.269   4.149   3.329
 2911SOL    HW2 9633   2.293   4.040   3.448
 2912SOL     OW 9634   2.681   5.308   0.750
 2912SOL    HW1 9635   2.762   5.270   0.706
 2912SOL    HW2 9636   2.655   5.251   0.829
 2913SOL     OW 9637   1.074   2.904   3.006
 2913SOL    HW1 9638   0.992   2.954   2.977
 2913SOL    HW2 9639   1.139   2.900   2.931
 2914SOL     OW 9640   5.192   5.378   5.384
 2914SOL    HW1 9641   5.206   5.373   5.285
 2914SOL    HW2 9642   5.227   5.295   5.427
 2915SOL     OW 9643   3.975   1.251   3.866
 2915SOL    HW1 9644   3.951   1.291   3.777
 2915SOL    HW2 9645   4.066   1.281   3.892
 2916SOL     OW 9646   4.365   5.537   4.242
 2916SOL    HW1 9647   4.277   5.571   4.208
 2916SOL    HW2 9648   4.349   5.463   4.307
 2917SOL     OW 9649   4.542   1.398   2.627
 2917SOL    HW1 9650   4.564   1.471   2.563
 2917SOL    HW2 9651   4.464   1.346   2.593
 2918SOL     OW 9652   0.509   3.622   3.977
 2918SOL    HW1 9653   0.464   3.674   4.050
 2918SOL    HW2 9654   0.471   3.649   3.888
 2919SOL     OW 9655   6.672   6.127   0.071
 2919SOL    HW1 9656   6.657   6.043   0.123
 2919SOL    HW2 9657   6.681   6.204   0.134
 2920SOL     OW 9658   4.283   2.333   3.032
 2920SOL    HW1 9659   4.339   2.313   3.113
 2920SOL    HW2 9660   4.292   2.429   3.009
 2921SOL     OW 9661   0.337   0.107   1.710
 2921SOL    HW1 9662   0.241   0.085   1.729
 2921SOL    HW2 9663   0.358   0.199   1.746
 2922SOL     OW 9664   4.205   6.312   5.547
 2922SOL    HW1 9665   4.208   6.360   5.634
 2922SOL    HW2 9666   4.170   6.219   5.561
 2923SOL     OW 9667   0.149   4.319   0.504
 2923SOL    HW1 9668   0.094   4.236   0.511
 2923SOL    HW2 9669   0.196   4.320   0.415
 2924SOL     OW 9670   5.864   0.372   5.907
 2924SOL    HW1 9671   5.795   0.428   5.860
 2924SOL    HW2 9672   5.946   0.427   5.924
 2925SOL     OW 9673   5.426   3.768   1.346
 2925SOL    HW1 9674   5.469   3.855   1.327
 2925SOL    HW2 9675   5.413   3.757   1.444
 2926SOL     OW 9676   6.813   1.602   3.726
 2926SOL    HW1 9677   6.882   1.663   3.764
 2926SOL    HW2 9678   6.771   1.550   3.801
 2927SOL     OW 9679   0.609   2.586   2.811
 2927SOL    HW1 9680   0.690   2.578   2.870
 2927SOL    HW2 9681   0.554   2.504   2.820
 2928SOL     OW 9682   5.301   6.460   0.861
 2928SOL    HW1 9683   5.292   6.425   0.954
 2928SOL    HW2 9684   5.321   6.385   0.799
 2929SOL     OW 9685   1.136   0.450   5.912
 2929SOL    HW1 9686   1.084   0.455   5.827
 2929SOL    HW2 9687   1.075   0.428   5.988
 2930SOL     OW 9688   3.737   6.470   4.804
 2930SOL    HW1 9689   3.808   6.515   4.859
 2930SOL    HW2 9690   3.777   6.392   4.756
 2931SOL     OW 9691   3.461   5.471   6.739
 2931SOL    HW1 9692   3.491   5.434   6.651
 2931SOL    HW2 9693   3.541   5.492   6.796
 2932SOL     OW 9694   1.371   4.320   1.930
 2932SOL    HW1 9695   1.425   4.397   1.965
 2932SOL    HW2 9696   1.382   4.315   1.830
 2933SOL     OW 9697   4.804   1.590   3.418
 2933SOL    HW1 9698   4.782   1.634   3.331
 2933SOL    HW2 9699   4.773   1.495   3.417
 2934SOL     OW 9700   2.688   0.686   0.136
 2934SOL    HW1 9701   2.734   0.767   0.099
 2934SOL    HW2 9702   2.589   0.697   0.128
 2935SOL     OW 9703   6.783   1.969   1.067
 2935SOL    HW1 9704   6.693   1.984   1.027
 2935SOL    HW2 9705   6.851   2.025   1.019
 2936SOL     OW 9706   3.352   6.202   1.101
 2936SOL    HW1 9707   3.260   6.203   1.062
 2936SOL    HW2 9708   3.393   6.112   1.087
 2937SOL     OW 9709   2.575   4.203   0.196
 2937SOL    HW1 9710   2.647   4.144   0.162
 2937SOL    HW2 9711   2.538   4.258   0.121
 2938SOL     OW 9712   5.222   5.159   5.577
 2938SOL    HW1 9713   5.140   5.106   5.553
 2938SOL    HW2 9714   5.223   5.177   5.675
 2939SOL     OW 9715   0.086   6.839   5.483
 2939SOL    HW1 9716   0.163   6.821   5.422
 2939SOL    HW2 9717   0.111   6.814   5.577
 2940SOL     OW 9718   4.242   0.392   5.694
 2940SOL    HW1 9719   4.268   0.455   5.621
 2940SOL    HW2 9720   4.229   0.300   5.656
 2941SOL     OW 9721   2.958   1.758   5.721
 2941SOL    HW1 9722   2.873   1.784   5.767
 2941SOL    HW2 9723   3.027   1.733   5.789
 2942SOL     OW 9724   3.788   6.248   4.647
 2942SOL    HW1 9725   3.825   6.157   4.628
 2942SOL    HW2 9726   3.691   6.252   4.622
 2943SOL     OW 9727   5.770   3.612   2.679
 2943SOL    HW1 9728   5.833   3.569   2.743
 2943SOL    HW2 9729   5.676   3.583   2.701
 2944SOL     OW 9730   4.086   6.105   6.541
 2944SOL    HW1 9731   4.176   6.075   6.508
 2944SOL    HW2 9732   4.077   6.083   6.638
 2945SOL     OW 9733   2.961   3.763   3.230
 2945SOL    HW1 9734   3.040   3.789   3.284
 2945SOL    HW2 9735   2.972   3.796   3.136
 2946SOL     OW 9736   0.156   6.047   5.770
 2946SOL    HW1 9737   0.192   6.131   5.730
 2946SOL    HW2 9738   0.101   6.070   5.851
 2947SOL     OW 9739   0.258   5.283   0.610
 2947SOL    HW1 9740   0.210   5.323   0.688
 2947SOL    HW2 9741   0.356   5.296   0.622
 2948SOL     OW 9742   5.921   4.206   5.285
 2948SOL    HW1 9743   5.899   4.280   5.221
 2948SOL    HW2 9744   6.014   4.219   5.320
 2949SOL     OW 9745   1.184   6.355   0.897
 2949SOL    HW1 9746   1.234   6.395   0.819
 2949SOL    HW2 9747   1.134   6.274   0.866
 2950SOL     OW 9748   5.316   3.734   4.476
 2950SOL    HW1 9749   5.304   3.735   4.377
 2950SOL    HW2 9750   5.229   3.755   4.521
 2951SOL     OW 9751   5.916   1.175   1.363
 2951SOL    HW1 9752   5.993   1.202   1.421
 2951SOL    HW2 9753   5.900   1.077   1.372
 2952SOL     OW 9754   1.805   3.625   2.239
 2952SOL    HW1 9755   1.827   3.707   2.292
 2952SOL    HW2 9756   1.850   3.631   2.150
 2953SOL     OW 9757   5.451   0.848   2.836
 2953SOL    HW1 9758   5.397   0.932   2.832
 2953SOL    HW2 9759   5.544   0.867   2.804
 2954SOL     OW 9760   5.883   6.326   1.588
 2954SOL    HW1 9761   5.789   6.361   1.585
 2954SOL    HW2 9762   5.898   6.264   1.511
 2955SOL     OW 9763   6.300   2.835   0.706
 2955SOL    HW1 9764   6.311   2.879   0.617
 2955SOL    HW2 9765   6.362   2.758   0.713
 2956SOL     OW 9766   6.579   5.494   2.667
 2956SOL    HW1 9767   6.500   5.510   2.608
 2956SOL    HW2 9768   6.628   5.413   2.636
 2957SOL     OW 9769   1.235   4.073   1.698
 2957SOL    HW1 9770   1.261   4.157   1.651
 2957SOL    HW2 9771   1.317   4.019   1.718
 2958SOL     OW 9772   3.601   4.720   6.402
 2958SOL    HW1 9773   3.582   4.818   6.413
 2958SOL    HW2 9774   3.537   4.681   6.336
 2959SOL     OW 9775   4.317   6.031   6.947
 2959SOL    HW1 9776   4.327   5.993   0.012
 2959SOL    HW2 9777   4.327   6.130   6.951
 2960SOL     OW 9778   2.660   1.452   6.684
 2960SOL    HW1 9779   2.598   1.411   6.752
 2960SOL    HW2 9780   2.633   1.547   6.668
 2961SOL     OW 9781   5.530   2.594   4.741
 2961SOL    HW1 9782   5.505   2.627   4.650
 2961SOL    HW2 9783   5.630   2.594   4.750
 2962SOL     OW 9784   3.511   1.225   3.307
 2962SOL    HW1 9785   3.483   1.259   3.217
 2962SOL    HW2 9786   3.551   1.133   3.297
 2963SOL     OW 9787   2.164   2.825   4.998
 2963SOL    HW1 9788   2.246   2.882   4.993
 2963SOL    HW2 9789   2.171   2.751   4.932
 2964SOL     OW 9790   2.970   5.802   0.392
 2964SOL    HW1 9791   2.900   5.858   0.349
 2964SOL    HW2 9792   2.941   5.706   0.389
 2965SOL     OW 9793   0.572   2.355   5.858
 2965SOL    HW1 9794   0.534   2.427   5.800
 2965SOL    HW2 9795   0.560   2.381   5.954
 2966SOL     OW 9796   4.526   4.392   3.329
 2966SOL    HW1 9797   4.502   4.466   3.393
 2966SOL    HW2 9798   4.473   4.404   3.245
 2967SOL     OW 9799   5.964   2.150   4.041
 2967SOL    HW1 9800   6.009   2.091   4.109
 2967SOL    HW2 9801   5.883   2.191   4.082
 2968SOL     OW 9802   6.633   4.237   3.524
 2968SOL    HW1 9803   6.664   4.172   3.455
 2968SOL    HW2 9804   6.543   4.272   3.498
 2969SOL     OW 9805   4.651   1.136   4.563
 2969SOL    HW1 9806   4.707   1.103   4.487
 2969SOL    HW2 9807   4.695   1.216   4.605
 2970SOL     OW 9808   1.109   4.580   6.531
 2970SOL    HW1 9809   1.044   4.516   6.572
 2970SOL    HW2 9810   1.063   4.633   6.459
 2971SOL     OW 9811   5.022   3.290   3.209
 2971SOL    HW1 9812   4.990   3.380   3.238
 2971SOL    HW2 9813   5.072   3.299   3.123
 2972SOL     OW 9814   0.834   4.021   6.058
 2972SOL    HW1 9815   0.784   4.025   6.145
 2972SOL    HW2 9816   0.920   3.970   6.072
 2973SOL     OW 9817   5.395   6.898   4.404
 2973SOL    HW1 9818   5.350   6.842   4.335
 2973SOL    HW2 9819   5.463   6.844   4.454
 2974SOL     OW 9820   0.436   3.891   2.717
 2974SOL    HW1 9821   0.396   3.935   2.637
 2974SOL    HW2 9822   0.394   3.801   2.730
 2975SOL     OW 9823   0.205   1.509   4.493
 2975SOL    HW1 9824   0.150   1.515   4.576
 2975SOL    HW2 9825   0.240   1.600   4.469
 2976SOL     OW 9826   3.090   6.165   1.795
 2976SOL    HW1 9827   3.038   6.195   1.715
 2976SOL    HW2 9828   3.149   6.239   1.827
 2977SOL     OW 9829   3.937   6.180   4.126
 2977SOL    HW1 9830   3.986   6.254   4.172
 2977SOL    HW2 9831   3.946   6.096   4.179
 2978SOL     OW 9832   3.918   6.226   6.913
 2978SOL    HW1 9833   3.828   6.194   6.884
 2978SOL    HW2 9834   3.936   6.316   6.874
 2979SOL     OW 9835   3.302   1.032   3.511
 2979SOL    HW1 9836   3.206   1.021   3.535
 2979SOL    HW2 9837   3.313   1.026   3.412
 2980SOL     OW 9838   6.843   6.053   3.913
 2980SOL    HW1 9839   6.763   6.016   3.865
 2980SOL    HW2 9840   6.892   6.116   3.853
 2981SOL     OW 9841   1.698   1.347   5.357
 2981SOL    HW1 9842   1.713   1.315   5.451
 2981SOL    HW2 9843   1.703   1.446   5.354
 2982SOL     OW 9844   5.014   6.891   3.186
 2982SOL    HW1 9845   5.033   6.857   3.278
 2982SOL    HW2 9846   5.062   6.978   3.173
 2983SOL     OW 9847   6.751   0.111   2.586
 2983SOL    HW1 9848   6.668   0.058   2.566
 2983SOL    HW2 9849   6.753   0.133   2.684
 2984SOL     OW 9850   5.930   5.341   1.861
 2984SOL    HW1 9851   5.839   5.308   1.883
 2984SOL    HW2 9852   5.995   5.265   1.862
 2985SOL     OW 9853   6.297   1.769   3.313
 2985SOL    HW1 9854   6.330   1.688   3.265
 2985SOL    HW2 9855   6.197   1.771   3.310
 2986SOL     OW 9856   2.326   3.693   5.252
 2986SOL    HW1 9857   2.365   3.784   5.235
 2986SOL    HW2 9858   2.299   3.652   5.165
 2987SOL     OW 9859   4.120   1.971   4.403
 2987SOL    HW1 9860   4.195   1.905   4.398
 2987SOL    HW2 9861   4.059   1.957   4.325
 2988SOL     OW 9862   0.417   0.347   1.783
 2988SOL    HW1 9863   0.514   0.361   1.767
 2988SOL    HW2 9864   0.384   0.413   1.850
 2989SOL     OW 9865   6.828   5.066   0.693
 2989SOL    HW1 9866   6.900   5.047   0.760
 2989SOL    HW2 9867   6.740   5.034   0.728
 2990SOL     OW 9868   3.285   0.218   1.036
 2990SOL    HW1 9869   3.362   0.198   1.097
 2990SOL    HW2 9870   3.319   0.257   0.951
 2991SOL     OW 9871   6.671   4.612   0.215
 2991SOL    HW1 9872   6.625   4.525   0.200
 2991SOL    HW2 9873   6.719   4.610   0.303
 2992SOL     OW 9874   4.219   4.727   6.729
 2992SOL    HW1 9875   4.248   4.819   6.755
 2992SOL    HW2 9876   4.129   4.707   6.768
 2993SOL     OW 9877   1.915   5.651   0.335
 2993SOL    HW1 9878   1.822   5.623   0.360
 2993SOL    HW2 9879   1.916   5.684   0.241
 2994SOL     OW 9880   4.156   6.592   6.911
 2994SOL    HW1 9881   4.123   6.656   6.980
 2994SOL    HW2 9882   4.254   6.607   6.897
 2995SOL     OW 9883   2.550   0.684   5.632
 2995SOL    HW1 9884   2.453   0.661   5.639
 2995SOL    HW2 9885   2.573   0.703   5.536
 2996SOL     OW 9886   4.123   5.466   5.831
 2996SOL    HW1 9887   4.080   5.468   5.741
 2996SOL    HW2 9888   4.054   5.450   5.901
 2997SOL     OW 9889   4.897   6.452   0.138
 2997SOL    HW1 9890   4.903   6.551   0.152
 2997SOL    HW2 9891   4.846   6.411   0.214
 2998SOL     OW 9892   6.016   5.349   5.282
 2998SOL    HW1 9893   5.991   5.267   5.333
 2998SOL    HW2 9894   6.051   5.418   5.345
 2999SOL     OW 9895   3.054   6.441   2.139
 2999SOL    HW1 9896   3.108   6.363   2.106
 2999SOL    HW2 9897   3.109   6.524   2.134
 3000SOL     OW 9898   1.702   2.542   4.527
 3000SOL    HW1 9899   1.649   2.535   4.612
 3000SOL    HW2 9900   1.659   2.608   4.467
 3001SOL     OW 9901   4.731   0.259   6.190
 3001SOL    HW1 9902   4.823   0.225   6.211
 3001SOL    HW2 9903   4.727   0.357   6.208
 3002SOL     OW 9904   3.408   6.973   5.843
 3002SOL    HW1 9905   3.500   7.007   5.823
 3002SOL    HW2 9906   3.365   0.006   5.911
 3003SOL     OW 9907   2.064   6.973   6.301
 3003SOL    HW1 9908   2.001   7.008   6.232
 3003SOL    HW2 9909   2.097   0.021   6.358
 3004SOL     OW 9910   6.338   4.007   5.059
 3004SOL    HW1 9911   6.374   4.016   5.152
 3004SOL    HW2 9912   6.291   3.920   5.050
 3005SOL     OW 9913   4.351   2.358   1.802
 3005SOL    HW1 9914   4.429   2.403   1.846
 3005SOL    HW2 9915   4.321   2.281   1.859
 3006SOL     OW 9916   5.028   0.727   1.082
 3006SOL    HW1 9917   5.053   0.682   1.167
 3006SOL    HW2 9918   5.073   0.816   1.076
 3007SOL     OW 9919   6.755   5.782   2.005
 3007SOL    HW1 9920   6.805   5.813   1.925
 3007SOL    HW2 9921   6.806   5.709   2.050
 3008SOL     OW 9922   4.114   5.802   5.895
 3008SOL    HW1 9923   4.016   5.815   5.875
 3008SOL    HW2 9924   4.151   5.731   5.835
 3009SOL     OW 9925   0.913   1.170   2.618
 3009SOL    HW1 9926   0.965   1.254   2.605
 3009SOL    HW2 9927   0.816   1.193   2.631
 3010SOL     OW 9928   3.176   6.565   2.646
 3010SOL    HW1 9929   3.159   6.499   2.574
 3010SOL    HW2 9930   3.233   6.640   2.610
 3011SOL     OW 9931   5.849   0.618   0.063
 3011SOL    HW1 9932   5.901   0.539   0.097
 3011SOL    HW2 9933   5.752   0.595   0.062
 3012SOL     OW 9934   0.257   4.680   2.260
 3012SOL    HW1 9935   0.171   4.731   2.263
 3012SOL    HW2 9936   0.297   4.687   2.168
 3013SOL     OW 9937   5.966   4.273   2.220
 3013SOL    HW1 9938   6.026   4.334   2.168
 3013SOL    HW2 9939   6.010   4.250   2.307
 3014SOL     OW 9940   5.191   0.551   4.965
 3014SOL    HW1 9941   5.167   0.645   4.939
 3014SOL    HW2 9942   5.174   0.538   5.063
 3015SOL     OW 9943   3.226   2.347   6.855
 3015SOL    HW1 9944   3.261   2.429   6.809
 3015SOL    HW2 9945   3.159   2.302   6.796
 3016SOL     OW 9946   3.544   6.015   3.658
 3016SOL    HW1 9947   3.591   6.094   3.619
 3016SOL    HW2 9948   3.446   6.035   3.665
 3017SOL     OW 9949   6.741   6.037   0.850
 3017SOL    HW1 9950   6.762   6.034   0.752
 3017SOL    HW2 9951   6.727   5.943   0.883
 3018SOL     OW 9952   3.913   0.075   6.218
 3018SOL    HW1 9953   3.895   0.140   6.292
 3018SOL    HW2 9954   3.838   0.078   6.152
 3019SOL     OW 9955   4.956   6.610   2.232
 3019SOL    HW1 9956   5.006   6.527   2.258
 3019SOL    HW2 9957   4.946   6.613   2.133
 3020SOL     OW 9958   1.812   1.628   1.062
 3020SOL    HW1 9959   1.819   1.590   1.154
 3020SOL    HW2 9960   1.745   1.576   1.009
 3021SOL     OW 9961   3.764   1.133   6.184
 3021SOL    HW1 9962   3.815   1.075   6.248
 3021SOL    HW2 9963   3.828   1.181   6.124
 3022SOL     OW 9964   5.780   6.838   2.127
 3022SOL    HW1 9965   5.865   6.854   2.077
 3022SOL    HW2 9966   5.795   6.768   2.197
 3023SOL     OW 9967   5.603   0.246   1.515
 3023SOL    HW1 9968   5.698   0.271   1.495
 3023SOL    HW2 9969   5.566   0.191   1.440
 3024SOL     OW 9970   3.065   6.679   6.828
 3024SOL    HW1 9971   3.095   6.626   6.907
 3024SOL    HW2 9972   2.980   6.641   6.792
 3025SOL     OW 9973   1.838   2.213   1.665
 3025SOL    HW1 9974   1.772   2.170   1.726
 3025SOL    HW2 9975   1.930   2.202   1.702
 3026SOL     OW 9976   1.873   5.073   0.709
 3026SOL    HW1 9977   1.889   4.976   0.726
 3026SOL    HW2 9978   1.959   5.123   0.717
 3027SOL     OW 9979   1.854   1.467   4.167
 3027SOL    HW1 9980   1.901   1.549   4.133
 3027SOL    HW2 9981   1.774   1.495   4.221
 3028SOL     OW 9982   1.566   0.683   4.447
 3028SOL    HW1 9983   1.549   0.586   4.430
 3028SOL    HW2 9984   1.665   0.698   4.455
 3029SOL     OW 9985   5.116   5.941   5.709
 3029SOL    HW1 9986   5.121   5.987   5.620
 3029SOL    HW2 9987   5.144   5.845   5.699
 3030SOL     OW 9988   1.224   1.549   5.709
 3030SOL    HW1 9989   1.204   1.455   5.681
 3030SOL    HW2 9990   1.246   1.603   5.628
 3031SOL     OW 9991   1.300   5.430   6.653
 3031SOL    HW1 9992   1.338   5.399   6.740
 3031SOL    HW2 9993   1.227   5.367   6.624
 3032SOL     OW 9994   4.121   0.645   5.848
 3032SOL    HW1 9995   4.177   0.664   5.928
 3032SOL    HW2 9996   4.157   0.564   5.801
 3033SOL     OW 9997   5.255   5.064   6.095
 3033SOL    HW1 9998   5.187   4.999   6.129
 3033SOL    HW2 9999   5.303   5.106   6.172
 3034SOL     OW10000   2.242   0.103   4.074
 3034SOL    HW110001   2.180   0.029   4.099
 3034SOL    HW210002   2.192   0.190   4.074
 3035SOL     OW10003   6.696   6.587   6.894
 3035SOL    HW110004   6.699   6.671   6.840
 3035SOL    HW210005   6.698   6.609   6.991
 3036SOL     OW10006   1.171   4.768   6.226
 3036SOL    HW110007   1.107   4.830   6.270
 3036SOL    HW210008   1.264   4.795   6.248
 3037SOL     OW10009   6.699   6.683   5.365
 3037SOL    HW110010   6.676   6.607   5.305
 3037SOL    HW210011   6.618   6.739   5.381
 3038SOL     OW10012   5.700   6.815   5.749
 3038SOL    HW110013   5.747   6.835   5.835
 3038SOL    HW210014   5.665   6.901   5.710
 3039SOL     OW10015   0.279   5.027   0.767
 3039SOL    HW110016   0.371   4.991   0.756
 3039SOL    HW210017   0.271   5.115   0.720
 3040SOL     OW10018   2.245   2.250   6.757
 3040SOL    HW110019   2.237   2.218   6.851
 3040SOL    HW210020   2.313   2.324   6.752
 3041SOL     OW10021   1.878   1.892   5.951
 3041SOL    HW110022   1.818   1.818   5.921
 3041SOL    HW210023   1.853   1.921   6.043
 3042SOL     OW10024   5.116   6.973   1.961
 3042SOL    HW110025   5.080   6.887   1.922
 3042SOL    HW210026   5.129   6.962   2.059
 3043SOL     OW10027   0.078   5.086   0.502
 3043SOL    HW110028   0.133   5.163   0.535
 3043SOL    HW210029   0.022   5.051   0.577
 3044SOL     OW10030   3.337   3.840   5.646
 3044SOL    HW110031   3.345   3.844   5.546
 3044SOL    HW210032   3.298   3.926   5.680
 3045SOL     OW10033   5.491   1.817   3.868
 3045SOL    HW110034   5.571   1.786   3.920
 3045SOL    HW210035   5.476   1.915   3.886
 3046SOL     OW10036   2.571   1.899   5.998
 3046SOL    HW110037   2.562   1.995   6.022
 3046SOL    HW210038   2.666   1.870   6.013
 3047SOL     OW10039   0.109   4.406   1.998
 3047SOL    HW110040   0.025   4.403   2.052
 3047SOL    HW210041   0.144   4.313   1.986
 3048SOL     OW10042   3.010   2.604   1.632
 3048SOL    HW110043   3.106   2.630   1.639
 3048SOL    HW210044   2.970   2.594   1.723
 3049SOL     OW10045   0.914   0.230   1.851
 3049SOL    HW110046   0.903   0.298   1.778
 3049SOL    HW210047   0.973   0.156   1.819
 3050SOL     OW10048   2.790   5.945   3.875
 3050SOL    HW110049   2.868   5.883   3.873
 3050SOL    HW210050   2.774   5.981   3.783
 3051SOL     OW10051   2.548   4.635   5.447
 3051SOL    HW110052   2.456   4.599   5.466
 3051SOL    HW210053   2.617   4.568   5.474
 3052SOL     OW10054   4.757   6.769   2.685
 3052SOL    HW110055   4.842   6.786   2.735
 3052SOL    HW210056   4.779   6.731   2.595
 3053SOL     OW10057   4.863   6.787   1.190
 3053SOL    HW110058   4.778   6.804   1.239
 3053SOL    HW210059   4.843   6.760   1.096
 3054SOL     OW10060   2.103   3.543   5.910
 3054SOL    HW110061   2.066   3.636   5.904
 3054SOL    HW210062   2.084   3.493   5.826
 3055SOL     OW10063   5.841   6.069   2.901
 3055SOL    HW110064   5.873   5.975   2.892
 3055SOL    HW210065   5.770   6.074   2.970
 3056SOL     OW10066   6.500   0.851   1.388
 3056SOL    HW110067   6.456   0.877   1.302
 3056SOL    HW210068   6.598   0.836   1.371
 3057SOL     OW10069   6.653   5.860   2.425
 3057SOL    HW110070   6.744   5.885   2.390
 3057SOL    HW210071   6.657   5.851   2.524
 3058SOL     OW10072   6.251   5.072   1.626
 3058SOL    HW110073   6.295   5.160   1.606
 3058SOL    HW210074   6.321   5.006   1.655
 3059SOL     OW10075   2.057   2.632   4.590
 3059SOL    HW110076   2.111   2.657   4.509
 3059SOL    HW210077   2.005   2.550   4.571
 3060SOL     OW10078   6.931   6.761   0.764
 3060SOL    HW110079   6.881   6.711   0.835
 3060SOL    HW210080   7.018   6.792   0.801
 3061SOL     OW10081   0.084   0.687   5.932
 3061SOL    HW110082   0.091   0.658   5.836
 3061SOL    HW210083   7.016   0.679   5.961
 3062SOL     OW10084   3.036   5.511   6.297
 3062SOL    HW110085   3.085   5.594   6.322
 3062SOL    HW210086   3.083   5.432   6.334
 3063SOL     OW10087   1.821   5.476   0.698
 3063SOL    HW110088   1.856   5.435   0.614
 3063SOL    HW210089   1.758   5.412   0.743
 3064SOL     OW10090   6.880   4.579   3.461
 3064SOL    HW110091   6.888   4.679   3.459
 3064SOL    HW210092   6.835   4.548   3.378
 3065SOL     OW10093   2.178   1.089   1.013
 3065SOL    HW110094   2.091   1.121   0.974
 3065SOL    HW210095   2.160   1.016   1.079
 3066SOL     OW10096   5.301   5.722   1.068
 3066SOL    HW110097   5.272   5.628   1.090
 3066SOL    HW210098   5.273   5.783   1.143
 3067SOL     OW10099   5.188   6.276   3.512
 3067SOL    HW110100   5.191   6.209   3.586
 3067SOL    HW210101   5.128   6.243   3.439
 3068SOL     OW10102   5.818   4.622   0.146
 3068SOL    HW110103   5.828   4.711   0.191
 3068SOL    HW210104   5.840   4.632   0.049
 3069SOL     OW10105   1.067   5.664   3.609
 3069SOL    HW110106   1.082   5.614   3.524
 3069SOL    HW210107   1.153   5.709   3.636
 3070SOL     OW10108   4.336   1.348   4.385
 3070SOL    HW110109   4.249   1.310   4.354
 3070SOL    HW210110   4.321   1.437   4.427
 3071SOL     OW10111   6.020   0.550   3.709
 3071SOL    HW110112   5.951   0.506   3.651
 3071SOL    HW210113   6.111   0.533   3.671
 3072SOL     OW10114   0.760   0.189   2.058
 3072SOL    HW110115   0.830   0.218   1.992
 3072SOL    HW210116   0.788   0.103   2.100
 3073SOL     OW10117   1.677   2.772   4.160
 3073SOL    HW110118   1.644   2.823   4.080
 3073SOL    HW210119   1.700   2.679   4.133
 3074SOL     OW10120   4.827   3.329   5.875
 3074SOL    HW110121   4.803   3.274   5.955
 3074SOL    HW210122   4.814   3.426   5.896
 3075SOL     OW10123   0.733   5.714   1.479
 3075SOL    HW110124   0.748   5.811   1.459
 3075SOL    HW210125   0.675   5.705   1.560
 3076SOL     OW10126   0.364   0.262   5.056
 3076SOL    HW110127   0.437   0.208   5.014
 3076SOL    HW210128   0.405   0.333   5.115
 3077SOL     OW10129   5.207   4.623   3.871
 3077SOL    HW110130   5.120   4.673   3.871
 3077SOL    HW210131   5.188   4.525   3.881
 3078SOL     OW10132   2.396   3.189   0.600
 3078SOL    HW110133   2.355   3.161   0.687
 3078SOL    HW210134   2.324   3.210   0.535
 3079SOL     OW10135   5.960   2.815   6.299
 3079SOL    HW110136   5.976   2.721   6.268
 3079SOL    HW210137   5.896   2.814   6.376
 3080SOL     OW10138   5.846   5.959   0.891
 3080SOL    HW110139   5.749   5.965   0.915
 3080SOL    HW210140   5.899   5.947   0.975
 3081SOL     OW10141   6.627   5.315   5.778
 3081SOL    HW110142   6.683   5.237   5.807
 3081SOL    HW210143   6.668   5.356   5.697
 3082SOL     OW10144   2.083   0.224   2.596
 3082SOL    HW110145   2.035   0.137   2.608
 3082SOL    HW210146   2.178   0.213   2.625
 3083SOL     OW10147   3.139   0.776   2.117
 3083SOL    HW110148   3.055   0.722   2.119
 3083SOL    HW210149   3.207   0.737   2.179
 3084SOL     OW10150   4.649   6.433   4.441
 3084SOL    HW110151   4.637   6.344   4.399
 3084SOL    HW210152   4.626   6.428   4.538
 3085SOL     OW10153   0.736   6.014   1.484
 3085SOL    HW110154   0.744   5.960   1.568
 3085SOL    HW210155   0.683   6.097   1.503
 3086SOL     OW10156   5.991   1.723   4.173
 3086SOL    HW110157   6.055   1.715   4.249
 3086SOL    HW210158   6.032   1.780   4.102
 3087SOL     OW10159   5.745   3.248   2.625
 3087SOL    HW110160   5.715   3.292   2.710
 3087SOL    HW210161   5.677   3.266   2.553
 3088SOL     OW10162   3.050   4.000   5.883
 3088SOL    HW110163   3.103   4.032   5.805
 3088SOL    HW210164   3.108   3.944   5.942
 3089SOL     OW10165   2.037   2.302   0.725
 3089SOL    HW110166   2.097   2.357   0.782
 3089SOL    HW210167   1.948   2.348   0.717
 3090SOL     OW10168   0.788   1.164   1.238
 3090SOL    HW110169   0.796   1.065   1.229
 3090SOL    HW210170   0.865   1.208   1.192
 3091SOL     OW10171   2.609   0.338   0.739
 3091SOL    HW110172   2.557   0.256   0.763
 3091SOL    HW210173   2.555   0.394   0.677
 3092SOL     OW10174   3.989   6.156   0.984
 3092SOL    HW110175   3.915   6.194   0.929
 3092SOL    HW210176   3.958   6.072   1.028
 3093SOL     OW10177   5.087   5.628   3.557
 3093SOL    HW110178   5.112   5.680   3.638
 3093SOL    HW210179   5.007   5.669   3.514
 3094SOL     OW10180   3.433   5.167   5.499
 3094SOL    HW110181   3.371   5.128   5.430
 3094SOL    HW210182   3.495   5.096   5.531
 3095SOL     OW10183   2.701   4.657   4.251
 3095SOL    HW110184   2.797   4.648   4.277
 3095SOL    HW210185   2.645   4.670   4.333
 3096SOL     OW10186   0.200   0.739   5.105
 3096SOL    HW110187   0.101   0.729   5.118
 3096SOL    HW210188   0.233   0.816   5.159
 3097SOL     OW10189   1.667   2.921   0.233
 3097SOL    HW110190   1.607   2.866   0.292
 3097SOL    HW210191   1.626   2.930   0.143
 3098SOL     OW10192   4.057   2.165   0.553
 3098SOL    HW110193   4.108   2.215   0.483
 3098SOL    HW210194   4.053   2.068   0.529
 3099SOL     OW10195   1.392   5.936   4.865
 3099SOL    HW110196   1.394   6.034   4.845
 3099SOL    HW210197   1.306   5.897   4.832
 3100SOL     OW10198   6.307   6.033   0.142
 3100SOL    HW110199   6.397   6.017   0.182
 3100SOL    HW210200   6.236   6.013   0.210
 3101SOL     OW10201   4.358   6.798   1.034
 3101SOL    HW110202   4.458   6.804   1.025
 3101SOL    HW210203   4.316   6.858   0.966
 3102SOL     OW10204   0.934   5.460   0.773
 3102SOL    HW110205   0.865   5.495   0.837
 3102SOL    HW210206   0.932   5.360   0.775
 3103SOL     OW10207   4.152   3.790   2.019
 3103SOL    HW110208   4.124   3.799   1.923
 3103SOL    HW210209   4.251   3.802   2.026
 3104SOL     OW10210   6.752   5.195   3.908
 3104SOL    HW110211   6.831   5.141   3.880
 3104SOL    HW210212   6.673   5.134   3.920
 3105SOL     OW10213   6.558   6.052   3.776
 3105SOL    HW110214   6.499   6.129   3.799
 3105SOL    HW210215   6.577   6.052   3.677
 3106SOL     OW10216   6.798   3.071   4.519
 3106SOL    HW110217   6.700   3.070   4.499
 3106SOL    HW210218   6.849   3.055   4.435
 3107SOL     OW10219   2.863   0.319   3.659
 3107SOL    HW110220   2.868   0.227   3.619
 3107SOL    HW210221   2.917   0.321   3.744
 3108SOL     OW10222   3.019   0.465   3.043
 3108SOL    HW110223   3.012   0.379   2.993
 3108SOL    HW210224   3.111   0.504   3.030
 3109SOL     OW10225   4.728   5.861   3.221
 3109SOL    HW110226   4.685   5.775   3.192
 3109SOL    HW210227   4.780   5.900   3.145
 3110SOL     OW10228   0.756   2.852   2.092
 3110SOL    HW110229   0.770   2.843   2.191
 3110SOL    HW210230   0.671   2.807   2.066
 3111SOL     OW10231   6.534   4.763   3.772
 3111SOL    HW110232   6.465   4.767   3.699
 3111SOL    HW210233   6.504   4.700   3.843
 3112SOL     OW10234   3.019   3.653   6.514
 3112SOL    HW110235   3.093   3.595   6.548
 3112SOL    HW210236   2.949   3.662   6.585
 3113SOL     OW10237   4.159   0.171   4.071
 3113SOL    HW110238   4.245   0.130   4.103
 3113SOL    HW210239   4.180   0.254   4.019
 3114SOL     OW10240   5.486   5.319   0.988
 3114SOL    HW110241   5.515   5.414   0.993
 3114SOL    HW210242   5.565   5.259   1.005
 3115SOL     OW10243   2.586   3.315   1.753
 3115SOL    HW110244   2.670   3.336   1.804
 3115SOL    HW210245   2.507   3.350   1.803
 3116SOL     OW10246   6.873   1.745   6.705
 3116SOL    HW110247   6.814   1.784   6.634
 3116SOL    HW210248   6.924   1.819   6.749
 3117SOL     OW10249   4.095   3.880   5.142
 3117SOL    HW110250   4.106   3.963   5.087
 3117SOL    HW210251   4.019   3.893   5.206
 3118SOL     OW10252   5.929   5.241   0.519
 3118SOL    HW110253   5.936   5.142   0.507
 3118SOL    HW210254   5.979   5.287   0.446
 3119SOL     OW10255   1.879   4.972   5.861
 3119SOL    HW110256   1.926   4.972   5.773
 3119SOL    HW210257   1.947   4.975   5.935
 3120SOL     OW10258   2.925   6.004   5.664
 3120SOL    HW110259   2.853   5.937   5.685
 3120SOL    HW210260   2.884   6.084   5.620
 3121SOL     OW10261   0.509   5.992   2.941
 3121SOL    HW110262   0.586   6.044   2.978
 3121SOL    HW210263   0.439   6.055   2.908
 3122SOL     OW10264   2.547   5.111   0.977
 3122SOL    HW110265   2.514   5.018   0.991
 3122SOL    HW210266   2.528   5.166   1.058
 3123SOL     OW10267   4.050   6.482   4.886
 3123SOL    HW110268   4.091   6.570   4.861
 3123SOL    HW210269   4.103   6.441   4.960
 3124SOL     OW10270   3.525   0.201   5.891
 3124SOL    HW110271   3.471   0.267   5.838
 3124SOL    HW210272   3.618   0.199   5.855
 3125SOL     OW10273   6.765   2.238   5.856
 3125SOL    HW110274   6.830   2.167   5.833
 3125SOL    HW210275   6.789   2.277   5.945
 3126SOL     OW10276   3.887   6.635   0.360
 3126SOL    HW110277   3.933   6.634   0.448
 3126SOL    HW210278   3.908   6.720   0.312
 3127SOL     OW10279   1.603   1.089   3.870
 3127SOL    HW110280   1.674   1.058   3.806
 3127SOL    HW210281   1.645   1.147   3.940
 3128SOL     OW10282   1.239   0.872   0.050
 3128SOL    HW110283   1.150   0.887   0.094
 3128SOL    HW210284   1.228   0.810   7.000
 3129SOL     OW10285   1.758   2.496   4.103
 3129SOL    HW110286   1.796   2.467   4.015
 3129SOL    HW210287   1.827   2.488   4.174
 3130SOL     OW10288   2.138   5.516   3.047
 3130SOL    HW110289   2.065   5.564   3.096
 3130SOL    HW210290   2.112   5.420   3.035
 3131SOL     OW10291   0.182   3.085   3.633
 3131SOL    HW110292   0.099   3.074   3.687
 3131SOL    HW210293   0.174   3.030   3.550
 3132SOL     OW10294   5.034   6.017   5.157
 3132SOL    HW110295   5.012   6.018   5.060
 3132SOL    HW210296   5.022   5.925   5.193
 3133SOL     OW10297   2.445   1.780   2.951
 3133SOL    HW110298   2.348   1.776   2.978
 3133SOL    HW210299   2.452   1.811   2.856
 3134SOL     OW10300   5.222   3.358   2.110
 3134SOL    HW110301   5.206   3.448   2.070
 3134SOL    HW210302   5.172   3.289   2.057
 3135SOL     OW10303   2.818   1.754   3.148
 3135SOL    HW110304   2.780   1.823   3.209
 3135SOL    HW210305   2.745   1.693   3.117
 3136SOL     OW10306   6.190   6.339   5.376
 3136SOL    HW110307   6.181   6.395   5.293
 3136SOL    HW210308   6.280   6.353   5.416
 3137SOL     OW10309   6.538   2.045   4.477
 3137SOL    HW110310   6.457   2.076   4.527
 3137SOL    HW210311   6.617   2.048   4.538
 3138SOL     OW10312   4.849   1.630   4.646
 3138SOL    HW110313   4.848   1.727   4.674
 3138SOL    HW210314   4.941   1.593   4.660
 3139SOL     OW10315   4.977   6.567   5.514
 3139SOL    HW110316   4.879   6.586   5.525
 3139SOL    HW210317   5.003   6.489   5.571
 3140SOL     OW10318   6.394   6.044   6.460
 3140SOL    HW110319   6.460   5.969   6.455
 3140SOL    HW210320   6.429   6.115   6.521
 3141SOL     OW10321   1.101   5.153   0.731
 3141SOL    HW110322   1.126   5.224   0.665
 3141SOL    HW210323   1.045   5.083   0.686
 3142SOL     OW10324   3.437   7.025   6.280
 3142SOL    HW110325   3.461   0.094   6.297
 3142SOL    HW210326   3.520   6.969   6.286
 3143SOL     OW10327   0.212   1.352   0.435
 3143SOL    HW110328   0.290   1.415   0.440
 3143SOL    HW210329   0.198   1.309   0.525
 3144SOL     OW10330   1.822   3.412   6.187
 3144SOL    HW110331   1.873   3.492   6.220
 3144SOL    HW210332   1.725   3.424   6.209
 3145SOL     OW10333   3.879   6.189   3.868
 3145SOL    HW110334   3.894   6.173   3.966
 3145SOL    HW210335   3.783   6.214   3.853
 3146SOL     OW10336   2.328   0.831   3.695
 3146SOL    HW110337   2.337   0.847   3.597
 3146SOL    HW210338   2.275   0.747   3.711
 3147SOL     OW10339   3.639   4.040   0.629
 3147SOL    HW110340   3.629   4.094   0.712
 3147SOL    HW210341   3.736   4.024   0.611
 3148SOL     OW10342   3.634   5.396   5.374
 3148SOL    HW110343   3.674   5.471   5.323
 3148SOL    HW210344   3.534   5.402   5.370
 3149SOL     OW10345   3.181   6.517   6.197
 3149SOL    HW110346   3.099   6.573   6.184
 3149SOL    HW210347   3.183   6.445   6.127
 3150SOL     OW10348   6.843   6.916   4.017
 3150SOL    HW110349   6.907   6.839   4.024
 3150SOL    HW210350   6.791   6.909   3.932
 3151SOL     OW10351   3.587   0.113   0.246
 3151SOL    HW110352   3.517   0.181   0.270
 3151SOL    HW210353   3.632   0.141   0.161
 3152SOL     OW10354   1.553   5.116   6.925
 3152SOL    HW110355   1.531   5.035   6.981
 3152SOL    HW210356   1.651   5.117   6.907
 3153SOL     OW10357   7.026   4.031   2.401
 3153SOL    HW110358   7.020   4.131   2.401
 3153SOL    HW210359   0.026   4.000   2.492
 3154SOL     OW10360   5.723   2.316   6.593
 3154SOL    HW110361   5.753   2.375   6.668
 3154SOL    HW210362   5.657   2.250   6.627
 3155SOL     OW10363   4.494   6.410   0.114
 3155SOL    HW110364   4.559   6.400   0.040
 3155SOL    HW210365   4.512   6.495   0.163
 3156SOL     OW10366   3.521   3.314   3.102
 3156SOL    HW110367   3.509   3.373   3.182
 3156SOL    HW210368   3.433   3.274   3.077
 3157SOL     OW10369   1.923   2.420   4.465
 3157SOL    HW110370   1.924   2.334   4.414
 3157SOL    HW210371   1.828   2.451   4.477
 3158SOL     OW10372   3.868   5.954   1.159
 3158SOL    HW110373   3.902   5.897   1.234
 3158SOL    HW210374   3.802   6.020   1.194
 3159SOL     OW10375   5.811   4.454   0.671
 3159SOL    HW110376   5.728   4.473   0.723
 3159SOL    HW210377   5.799   4.486   0.577
 3160SOL     OW10378   5.441   4.802   0.566
 3160SOL    HW110379   5.490   4.755   0.493
 3160SOL    HW210380   5.342   4.788   0.554
 3161SOL     OW10381   0.628   1.968   2.599
 3161SOL    HW110382   0.569   1.998   2.524
 3161SOL    HW210383   0.607   2.021   2.681
 3162SOL     OW10384   6.094   6.797   5.678
 3162SOL    HW110385   6.170   6.732   5.668
 3162SOL    HW210386   6.100   6.841   5.768
 3163SOL     OW10387   2.562   4.666   5.153
 3163SOL    HW110388   2.638   4.628   5.100
 3163SOL    HW210389   2.565   4.630   5.246
 3164SOL     OW10390   5.933   5.866   6.202
 3164SOL    HW110391   6.014   5.809   6.189
 3164SOL    HW210392   5.888   5.840   6.288
 3165SOL     OW10393   6.958   2.985   1.184
 3165SOL    HW110394   6.877   2.929   1.204
 3165SOL    HW210395   6.991   3.026   1.269
 3166SOL     OW10396   5.273   2.929   6.364
 3166SOL    HW110397   5.354   2.875   6.343
 3166SOL    HW210398   5.207   2.872   6.415
 3167SOL     OW10399   0.672   4.189   2.313
 3167SOL    HW110400   0.669   4.288   2.302
 3167SOL    HW210401   0.696   4.166   2.408
 3168SOL     OW10402   4.913   3.289   0.744
 3168SOL    HW110403   4.944   3.270   0.837
 3168SOL    HW210404   4.883   3.384   0.737
 3169SOL     OW10405   1.922   1.821   4.986
 3169SOL    HW110406   1.976   1.799   4.904
 3169SOL    HW210407   1.877   1.738   5.020
 3170SOL     OW10408   4.632   0.993   5.950
 3170SOL    HW110409   4.562   1.048   5.995
 3170SOL    HW210410   4.640   1.021   5.854
 3171SOL     OW10411   6.134   0.225   3.602
 3171SOL    HW110412   6.222   0.272   3.599
 3171SOL    HW210413   6.112   0.188   3.512
 3172SOL     OW10414   5.837   0.550   6.148
 3172SOL    HW110415   5.895   0.534   6.227
 3172SOL    HW210416   5.781   0.469   6.131
 3173SOL     OW10417   1.956   1.409   1.551
 3173SOL    HW110418   1.996   1.452   1.632
 3173SOL    HW210419   2.013   1.333   1.522
 3174SOL     OW10420   1.957   3.383   6.460
 3174SOL    HW110421   1.857   3.382   6.470
 3174SOL    HW210422   1.995   3.296   6.490
 3175SOL     OW10423   0.009   6.085   0.933
 3175SOL    HW110424   6.947   6.040   0.936
 3175SOL    HW210425   0.013   6.146   0.854
 3176SOL     OW10426   1.433   5.888   6.101
 3176SOL    HW110427   1.491   5.968   6.088
 3176SOL    HW210428   1.483   5.806   6.076
 3177SOL     OW10429   0.858   6.896   3.992
 3177SOL    HW110430   0.926   6.885   4.065
 3177SOL    HW210431   0.861   6.818   3.930
 3178SOL     OW10432   2.598   3.418   0.671
 3178SOL    HW110433   2.683   3.372   0.697
 3178SOL    HW210434   2.531   3.350   0.641
 3179SOL     OW10435   1.201   2.418   3.333
 3179SOL    HW110436   1.146   2.473   3.395
 3179SOL    HW210437   1.289   2.397   3.377
 3180SOL     OW10438   5.444   1.569   6.269
 3180SOL    HW110439   5.483   1.661   6.277
 3180SOL    HW210440   5.344   1.574   6.276
 3181SOL     OW10441   0.512   1.806   3.228
 3181SOL    HW110442   0.581   1.867   3.189
 3181SOL    HW210443   0.537   1.783   3.322
 3182SOL     OW10444   1.581   5.080   5.440
 3182SOL    HW110445   1.652   5.092   5.509
 3182SOL    HW210446   1.581   5.160   5.379
 3183SOL     OW10447   4.899   2.916   1.121
 3183SOL    HW110448   4.837   2.983   1.162
 3183SOL    HW210449   4.867   2.892   1.029
 3184SOL     OW10450   1.345   1.410   3.310
 3184SOL    HW110451   1.248   1.398   3.330
 3184SOL    HW210452   1.398   1.397   3.394
 3185SOL     OW10453   0.335   6.327   6.470
 3185SOL    HW110454   0.269   6.368   6.408
 3185SOL    HW210455   0.426   6.330   6.428
 3186SOL     OW10456   3.504   0.430   1.712
 3186SOL    HW110457   3.545   0.497   1.774
 3186SOL    HW210458   3.407   0.420   1.734
 3187SOL     OW10459   3.268   4.192   0.065
 3187SOL    HW110460   3.254   4.093   0.061
 3187SOL    HW210461   3.220   4.230   0.143
 3188SOL     OW10462   4.658   7.024   3.314
 3188SOL    HW110463   4.607   0.033   3.392
 3188SOL    HW210464   4.595   6.982   3.249
 3189SOL     OW10465   6.983   6.809   1.691
 3189SOL    HW110466   6.889   6.842   1.686
 3189SOL    HW210467   6.986   6.724   1.744
 3190SOL     OW10468   0.739   6.798   1.283
 3190SOL    HW110469   0.715   6.734   1.356
 3190SOL    HW210470   0.755   6.889   1.322
 3191SOL     OW10471   2.864   0.400   0.718
 3191SOL    HW110472   2.870   0.500   0.719
 3191SOL    HW210473   2.768   0.372   0.716
 3192SOL     OW10474   5.777   2.248   3.829
 3192SOL    HW110475   5.756   2.198   3.912
 3192SOL    HW210476   5.742   2.198   3.750
 3193SOL     OW10477   4.644   4.355   0.683
 3193SOL    HW110478   4.600   4.391   0.765
 3193SOL    HW210479   4.733   4.317   0.707
 3194SOL     OW10480   2.041   4.797   5.448
 3194SOL    HW110481   1.969   4.729   5.458
 3194SOL    HW210482   2.038   4.836   5.356
 3195SOL     OW10483   0.847   3.791   3.180
 3195SOL    HW110484   0.815   3.745   3.097
 3195SOL    HW210485   0.933   3.839   3.160
 3196SOL     OW10486   0.291   6.735   5.326
 3196SOL    HW110487   0.389   6.718   5.312
 3196SOL    HW210488   0.252   6.660   5.380
 3197SOL     OW10489   0.587   3.973   4.230
 3197SOL    HW110490   0.598   3.881   4.266
 3197SOL    HW210491   0.509   3.976   4.168
 3198SOL     OW10492   5.575   6.673   0.118
 3198SOL    HW110493   5.505   6.646   0.184
 3198SOL    HW210494   5.587   6.772   0.121
 3199SOL     OW10495   3.401   1.563   2.965
 3199SOL    HW110496   3.468   1.489   2.951
 3199SOL    HW210497   3.370   1.597   2.877
 3200SOL     OW10498   0.069   2.090   0.723
 3200SOL    HW110499   0.003   2.107   0.797
 3200SOL    HW210500   0.063   1.994   0.695
 3201SOL     OW10501   4.741   4.382   3.000
 3201SOL    HW110502   4.730   4.359   2.904
 3201SOL    HW210503   4.651   4.396   3.042
 3202SOL     OW10504   1.162   5.925   2.094
 3202SOL    HW110505   1.101   5.926   2.014
 3202SOL    HW210506   1.156   5.835   2.138
 3203SOL     OW10507   4.796   0.550   1.072
 3203SOL    HW110508   4.797   0.564   0.973
 3203SOL    HW210509   4.874   0.596   1.113
 3204SOL     OW10510   6.344   6.034   1.841
 3204SOL    HW110511   6.258   6.084   1.846
 3204SOL    HW210512   6.416   6.084   1.890
 3205SOL     OW10513   0.845   3.977   3.434
 3205SOL    HW110514   0.903   3.960   3.354
 3205SOL    HW210515   0.789   4.058   3.418
 3206SOL     OW10516   1.730   6.616   0.314
 3206SOL    HW110517   1.768   6.537   0.265
 3206SOL    HW210518   1.793   6.642   0.387
 3207SOL     OW10519   0.639   1.214   2.575
 3207SOL    HW110520   0.620   1.155   2.496
 3207SOL    HW210521   0.576   1.291   2.575
 3208SOL     OW10522   6.208   0.582   4.682
 3208SOL    HW110523   6.122   0.592   4.632
 3208SOL    HW210524   6.268   0.518   4.633
 3209SOL     OW10525   2.194   0.128   2.917
 3209SOL    HW110526   2.236   0.175   2.994
 3209SOL    HW210527   2.105   0.091   2.945
 3210SOL     OW10528   0.686   4.864   2.192
 3210SOL    HW110529   0.720   4.940   2.137
 3210SOL    HW210530   0.734   4.780   2.167
 3211SOL     OW10531   1.100   4.001   2.784
 3211SOL    HW110532   1.143   3.929   2.838
 3211SOL    HW210533   1.170   4.062   2.747
 3212SOL     OW10534   4.907   3.016   5.410
 3212SOL    HW110535   4.887   3.044   5.504
 3212SOL    HW210536   4.962   2.933   5.411
 3213SOL     OW10537   4.767   7.024   1.378
 3213SOL    HW110538   4.681   0.020   1.331
 3213SOL    HW210539   4.833   0.070   1.362
 3214SOL     OW10540   4.002   4.260   6.278
 3214SOL    HW110541   3.960   4.177   6.315
 3214SOL    HW210542   4.096   4.240   6.252
 3215SOL     OW10543   6.141   1.206   0.111
 3215SOL    HW110544   6.164   1.111   0.132
 3215SOL    HW210545   6.046   1.211   0.080
 3216SOL     OW10546   6.472   6.422   4.993
 3216SOL    HW110547   6.505   6.499   4.939
 3216SOL    HW210548   6.411   6.366   4.937
 3217SOL     OW10549   6.883   4.105   0.211
 3217SOL    HW110550   6.824   4.180   0.241
 3217SOL    HW210551   6.919   4.057   0.292
 3218SOL     OW10552   3.428   1.394   1.918
 3218SOL    HW110553   3.418   1.493   1.905
 3218SOL    HW210554   3.337   1.352   1.923
 3219SOL     OW10555   0.083   6.500   3.950
 3219SOL    HW110556   0.075   6.590   3.994
 3219SOL    HW210557   0.142   6.442   4.004
 3220SOL     OW10558   5.620   2.740   6.660
 3220SOL    HW110559   5.554   2.740   6.584
 3220SOL    HW210560   5.575   2.703   6.742
 3221SOL     OW10561   3.549   0.403   2.499
 3221SOL    HW110562   3.467   0.352   2.525
 3221SOL    HW210563   3.629   0.346   2.511
 3222SOL     OW10564   6.245   3.900   2.176
 3222SOL    HW110565   6.319   3.942   2.230
 3222SOL    HW210566   6.205   3.825   2.228
 3223SOL     OW10567   2.443   4.716   3.785
 3223SOL    HW110568   2.415   4.632   3.738
 3223SOL    HW210569   2.462   4.696   3.881
 3224SOL     OW10570   3.239   5.959   1.493
 3224SOL    HW110571   3.325   5.927   1.453
 3224SOL    HW210572   3.174   5.980   1.420
 3225SOL     OW10573   1.833   2.990   1.153
 3225SOL    HW110574   1.902   2.943   1.208
 3225SOL    HW210575   1.744   2.949   1.167
 3226SOL     OW10576   0.418   0.643   3.885
 3226SOL    HW110577   0.396   0.740   3.901
 3226SOL    HW210578   0.518   0.632   3.883
 3227SOL     OW10579   1.997   1.757   5.318
 3227SOL    HW110580   2.089   1.744   5.281
 3227SOL    HW210581   1.929   1.729   5.250
 3228SOL     OW10582   5.003   3.321   4.566
 3228SOL    HW110583   5.089   3.296   4.521
 3228SOL    HW210584   4.959   3.396   4.516
 3229SOL     OW10585   4.630   1.803   5.279
 3229SOL    HW110586   4.608   1.705   5.283
 3229SOL    HW210587   4.728   1.816   5.290
 3230SOL     OW10588   1.433   0.517   4.171
 3230SOL    HW110589   1.450   0.491   4.266
 3230SOL    HW210590   1.382   0.445   4.126
 3231SOL     OW10591   4.749   4.991   0.122
 3231SOL    HW110592   4.802   4.913   0.155
 3231SOL    HW210593   4.675   5.010   0.186
 3232SOL     OW10594   1.945   4.278   3.229
 3232SOL    HW110595   1.965   4.375   3.237
 3232SOL    HW210596   1.987   4.228   3.305
 3233SOL     OW10597   1.583   3.904   0.224
 3233SOL    HW110598   1.633   3.944   0.146
 3233SOL    HW210599   1.649   3.872   0.292
 3234SOL     OW10600   6.461   2.434   5.009
 3234SOL    HW110601   6.392   2.496   4.972
 3234SOL    HW210602   6.533   2.419   4.942
 3235SOL     OW10603   5.302   0.666   2.463
 3235SOL    HW110604   5.332   0.576   2.431
 3235SOL    HW210605   5.331   0.736   2.398
 3236SOL     OW10606   0.019   3.092   1.432
 3236SOL    HW110607   0.004   3.191   1.426
 3236SOL    HW210608   0.018   3.064   1.528
 3237SOL     OW10609   3.209   6.527   4.614
 3237SOL    HW110610   3.294   6.530   4.561
 3237SOL    HW210611   3.139   6.479   4.562
 3238SOL     OW10612   6.426   6.116   6.212
 3238SOL    HW110613   6.367   6.047   6.171
 3238SOL    HW210614   6.413   6.118   6.311
 3239SOL     OW10615   0.719   6.184   5.380
 3239SOL    HW110616   0.745   6.109   5.441
 3239SOL    HW210617   0.794   6.202   5.317
 3240SOL     OW10618   0.195   2.097   4.990
 3240SOL    HW110619   0.176   2.179   4.936
 3240SOL    HW210620   0.292   2.072   4.979
 3241SOL     OW10621   4.597   6.811   5.397
 3241SOL    HW110622   4.672   6.861   5.354
 3241SOL    HW210623   4.635   6.744   5.462
 3242SOL     OW10624   3.345   6.783   0.786
 3242SOL    HW110625   3.430   6.798   0.735
 3242SOL    HW210626   3.276   6.850   0.757
 3243SOL     OW10627   3.236   5.466   1.237
 3243SOL    HW110628   3.234   5.367   1.246
 3243SOL    HW210629   3.298   5.492   1.163
 3244SOL     OW10630   1.153   6.471   5.628
 3244SOL    HW110631   1.109   6.385   5.604
 3244SOL    HW210632   1.183   6.518   5.545
 3245SOL     OW10633   3.309   1.817   5.900
 3245SOL    HW110634   3.304   1.726   5.941
 3245SOL    HW210635   3.398   1.828   5.855
 3246SOL     OW10636   5.799   6.533   3.953
 3246SOL    HW110637   5.789   6.476   3.872
 3246SOL    HW210638   5.827   6.625   3.925
 3247SOL     OW10639   6.296   2.759   5.177
 3247SOL    HW110640   6.305   2.712   5.265
 3247SOL    HW210641   6.337   2.702   5.105
 3248SOL     OW10642   5.273   3.755   2.751
 3248SOL    HW110643   5.229   3.827   2.806
 3248SOL    HW210644   5.202   3.695   2.714
 3249SOL     OW10645   3.128   4.821   5.626
 3249SOL    HW110646   3.092   4.747   5.683
 3249SOL    HW210647   3.095   4.909   5.660
 3250SOL     OW10648   4.993   5.664   1.393
 3250SOL    HW110649   4.992   5.576   1.344
 3250SOL    HW210650   4.907   5.712   1.376
 3251SOL     OW10651   3.789   0.765   3.543
 3251SOL    HW110652   3.790   0.743   3.640
 3251SOL    HW210653   3.724   0.839   3.525
 3252SOL     OW10654   3.413   2.089   3.436
 3252SOL    HW110655   3.323   2.127   3.456
 3252SOL    HW210656   3.403   2.011   3.375
 3253SOL     OW10657   4.831   4.487   1.206
 3253SOL    HW110658   4.889   4.517   1.283
 3253SOL    HW210659   4.742   4.458   1.241
 3254SOL     OW10660   6.112   4.226   2.450
 3254SOL    HW110661   6.096   4.310   2.503
 3254SOL    HW210662   6.153   4.157   2.510
 3255SOL     OW10663   4.182   5.375   0.987
 3255SOL    HW110664   4.106   5.439   0.992
 3255SOL    HW210665   4.267   5.425   0.968
 3256SOL     OW10666   6.086   6.333   5.888
 3256SOL    HW110667   6.069   6.293   5.798
 3256SOL    HW210668   6.045   6.424   5.893
 3257SOL     OW10669   2.122   1.645   1.020
 3257SOL    HW110670   2.031   1.612   0.994
 3257SOL    HW210671   2.120   1.744   1.031
 3258SOL     OW10672   4.757   6.767   1.621
 3258SOL    HW110673   4.669   6.780   1.575
 3258SOL    HW210674   4.783   6.671   1.616
 3259SOL     OW10675   5.980   6.290   3.162
 3259SOL    HW110676   6.026   6.342   3.090
 3259SOL    HW210677   6.030   6.205   3.179
 3260SOL     OW10678   1.596   1.601   0.854
 3260SOL    HW110679   1.561   1.675   0.910
 3260SOL    HW210680   1.614   1.634   0.761
 3261SOL     OW10681   4.603   6.742   3.574
 3261SOL    HW110682   4.635   6.801   3.647
 3261SOL    HW210683   4.660   6.753   3.493
 3262SOL     OW10684   3.764   1.276   4.057
 3262SOL    HW110685   3.676   1.286   4.010
 3262SOL    HW210686   3.838   1.276   3.989
 3263SOL     OW10687   3.794   4.934   2.749
 3263SOL    HW110688   3.771   4.923   2.845
 3263SOL    HW210689   3.884   4.894   2.732
 3264SOL     OW10690   4.933   4.953   5.974
 3264SOL    HW110691   4.878   4.998   5.903
 3264SOL    HW210692   5.006   4.900   5.930
 3265SOL     OW10693   5.240   6.846   6.289
 3265SOL    HW110694   5.220   6.907   6.212
 3265SOL    HW210695   5.245   6.751   6.256
 3266SOL     OW10696   1.240   2.774   6.451
 3266SOL    HW110697   1.266   2.865   6.420
 3266SOL    HW210698   1.254   2.768   6.550
 3267SOL     OW10699   5.086   3.203   1.918
 3267SOL    HW110700   5.020   3.262   1.871
 3267SOL    HW210701   5.039   3.122   1.952
 3268SOL     OW10702   1.645   4.942   6.542
 3268SOL    HW110703   1.582   5.003   6.590
 3268SOL    HW210704   1.738   4.981   6.546
 3269SOL     OW10705   4.600   3.574   0.550
 3269SOL    HW110706   4.630   3.572   0.646
 3269SOL    HW210707   4.619   3.486   0.508
 3270SOL     OW10708   0.410   5.233   4.002
 3270SOL    HW110709   0.466   5.160   4.042
 3270SOL    HW210710   0.315   5.221   4.029
 3271SOL     OW10711   4.801   0.207   2.194
 3271SOL    HW110712   4.891   0.249   2.207
 3271SOL    HW210713   4.805   0.144   2.117
 3272SOL     OW10714   4.935   6.404   6.690
 3272SOL    HW110715   5.014   6.387   6.748
 3272SOL    HW210716   4.962   6.401   6.594
 3273SOL     OW10717   1.241   1.031   2.938
 3273SOL    HW110718   1.216   1.068   2.848
 3273SOL    HW210719   1.320   1.080   2.974
 3274SOL     OW10720   2.927   1.345   6.658
 3274SOL    HW110721   2.835   1.383   6.667
 3274SOL    HW210722   2.995   1.417   6.671
 3275SOL     OW10723   4.242   0.896   6.967
 3275SOL    HW110724   4.196   0.914   0.027
 3275SOL    HW210725   4.301   0.816   6.977
 3276SOL     OW10726   2.143   6.215   0.432
 3276SOL    HW110727   2.144   6.168   0.343
 3276SOL    HW210728   2.131   6.313   0.417
 3277SOL     OW10729   6.861   6.394   6.198
 3277SOL    HW110730   6.820   6.485   6.205
 3277SOL    HW210731   6.792   6.324   6.216
 3278SOL     OW10732   0.990   0.981   0.198
 3278SOL    HW110733   0.955   1.075   0.196
 3278SOL    HW210734   0.922   0.919   0.159
 3279SOL     OW10735   1.858   6.353   0.863
 3279SOL    HW110736   1.791   6.284   0.837
 3279SOL    HW210737   1.925   6.312   0.926
 3280SOL     OW10738   2.730   6.428   4.439
 3280SOL    HW110739   2.705   6.501   4.377
 3280SOL    HW210740   2.739   6.342   4.389
 3281SOL     OW10741   2.554   6.062   0.643
 3281SOL    HW110742   2.503   5.981   0.668
 3281SOL    HW210743   2.494   6.128   0.599
 3282SOL     OW10744   1.983   5.543   2.499
 3282SOL    HW110745   1.924   5.597   2.558
 3282SOL    HW210746   1.932   5.513   2.418
 3283SOL     OW10747   2.124   6.672   3.990
 3283SOL    HW110748   2.109   6.603   3.918
 3283SOL    HW210749   2.199   6.733   3.963
 3284SOL     OW10750   1.221   4.906   5.762
 3284SOL    HW110751   1.276   4.985   5.790
 3284SOL    HW210752   1.239   4.885   5.667
 3285SOL     OW10753   0.152   2.762   4.167
 3285SOL    HW110754   0.131   2.847   4.217
 3285SOL    HW210755   0.154   2.781   4.069
 3286SOL     OW10756   4.467   4.447   6.464
 3286SOL    HW110757   4.519   4.471   6.383
 3286SOL    HW210758   4.520   4.470   6.546
 3287SOL     OW10759   0.447   3.515   1.662
 3287SOL    HW110760   0.419   3.598   1.613
 3287SOL    HW210761   0.547   3.510   1.665
 3288SOL     OW10762   1.017   6.972   6.479
 3288SOL    HW110763   1.101   6.966   6.426
 3288SOL    HW210764   0.947   6.913   6.438
 3289SOL     OW10765   1.355   6.067   4.259
 3289SOL    HW110766   1.328   5.972   4.243
 3289SOL    HW210767   1.285   6.128   4.224
 3290SOL     OW10768   0.027   4.814   3.331
 3290SOL    HW110769   7.017   4.897   3.288
 3290SOL    HW210770   7.022   4.734   3.279
 3291SOL     OW10771   1.773   0.516   2.186
 3291SOL    HW110772   1.777   0.550   2.092
 3291SOL    HW210773   1.783   0.417   2.187
 3292SOL     OW10774   0.792   5.508   4.839
 3292SOL    HW110775   0.706   5.551   4.811
 3292SOL    HW210776   0.798   5.510   4.939
 3293SOL     OW10777   5.871   1.124   3.363
 3293SOL    HW110778   5.839   1.037   3.324
 3293SOL    HW210779   5.884   1.113   3.462
 3294SOL     OW10780   0.471   6.864   1.009
 3294SOL    HW110781   0.549   6.807   0.986
 3294SOL    HW210782   0.396   6.806   1.040
 3295SOL     OW10783   2.102   2.158   6.162
 3295SOL    HW110784   2.007   2.190   6.158
 3295SOL    HW210785   2.160   2.232   6.195
 3296SOL     OW10786   0.780   6.599   2.337
 3296SOL    HW110787   0.863   6.641   2.373
 3296SOL    HW210788   0.742   6.655   2.264
 3297SOL     OW10789   3.149   1.495   5.878
 3297SOL    HW110790   3.203   1.491   5.794
 3297SOL    HW210791   3.206   1.468   5.956
 3298SOL     OW10792   7.024   4.342   2.428
 3298SOL    HW110793   6.953   4.367   2.495
 3298SOL    HW210794   0.082   4.321   2.477
 3299SOL     OW10795   1.022   1.556   4.575
 3299SOL    HW110796   1.113   1.595   4.558
 3299SOL    HW210797   0.991   1.583   4.666
 3300SOL     OW10798   6.862   0.366   5.132
 3300SOL    HW110799   6.955   0.343   5.161
 3300SOL    HW210800   6.796   0.322   5.194
 3301SOL     OW10801   6.857   3.691   2.166
 3301SOL    HW110802   6.854   3.790   2.149
 3301SOL    HW210803   6.933   3.670   2.227
 3302SOL     OW10804   0.930   6.223   5.175
 3302SOL    HW110805   0.969   6.144   5.128
 3302SOL    HW210806   0.963   6.307   5.132
 3303SOL     OW10807   3.001   3.292   4.257
 3303SOL    HW110808   2.996   3.233   4.338
 3303SOL    HW210809   3.050   3.376   4.279
 3304SOL     OW10810   1.375   0.732   3.237
 3304SOL    HW110811   1.302   0.674   3.274
 3304SOL    HW210812   1.416   0.686   3.158
 3305SOL     OW10813   0.677   3.042   0.510
 3305SOL    HW110814   0.621   3.006   0.584
 3305SOL    HW210815   0.676   2.977   0.434
 3306SOL     OW10816   1.253   2.682   2.117
 3306SOL    HW110817   1.210   2.761   2.073
 3306SOL    HW210818   1.181   2.617   2.145
 3307SOL     OW10819   0.899   6.865   0.613
 3307SOL    HW110820   0.854   6.876   0.701
 3307SOL    HW210821   0.872   6.940   0.552
 3308SOL     OW10822   5.138   6.124   0.882
 3308SOL    HW110823   5.230   6.086   0.884
 3308SOL    HW210824   5.129   6.187   0.804
 3309SOL     OW10825   1.846   4.986   2.424
 3309SOL    HW110826   1.836   4.916   2.354
 3309SOL    HW210827   1.798   4.957   2.507
 3310SOL     OW10828   1.663   6.841   2.360
 3310SOL    HW110829   1.623   6.890   2.282
 3310SOL    HW210830   1.649   6.742   2.347
 3311SOL     OW10831   3.831   5.924   0.890
 3311SOL    HW110832   3.755   5.980   0.858
 3311SOL    HW210833   3.835   5.929   0.990
 3312SOL     OW10834   1.992   2.834   6.469
 3312SOL    HW110835   1.944   2.881   6.395
 3312SOL    HW210836   1.932   2.764   6.508
 3313SOL     OW10837   6.348   6.247   4.831
 3313SOL    HW110838   6.254   6.269   4.806
 3313SOL    HW210839   6.364   6.149   4.817
 3314SOL     OW10840   0.876   4.471   6.676
 3314SOL    HW110841   0.803   4.516   6.728
 3314SOL    HW210842   0.882   4.375   6.703
 3315SOL     OW10843   6.673   2.905   3.290
 3315SOL    HW110844   6.607   2.978   3.274
 3315SOL    HW210845   6.627   2.817   3.281
 3316SOL     OW10846   4.182   1.272   0.137
 3316SOL    HW110847   4.274   1.253   0.105
 3316SOL    HW210848   4.184   1.293   0.235
 3317SOL     OW10849   4.097   2.487   1.373
 3317SOL    HW110850   4.162   2.465   1.446
 3317SOL    HW210851   4.020   2.423   1.377
 3318SOL     OW10852   2.558   5.357   5.592
 3318SOL    HW110853   2.656   5.358   5.575
 3318SOL    HW210854   2.535   5.426   5.661
 3319SOL     OW10855   6.677   6.293   6.853
 3319SOL    HW110856   6.627   6.371   6.890
 3319SOL    HW210857   6.713   6.237   6.928
 3320SOL     OW10858   0.653   0.356   0.592
 3320SOL    HW110859   0.645   0.369   0.493
 3320SOL    HW210860   0.564   0.329   0.629
 3321SOL     OW10861   3.945   3.814   3.950
 3321SOL    HW110862   3.925   3.717   3.935
 3321SOL    HW210863   3.947   3.832   4.049
 3322SOL     OW10864   4.243   2.104   1.822
 3322SOL    HW110865   4.173   2.033   1.831
 3322SOL    HW210866   4.231   2.151   1.735
 3323SOL     OW10867   2.067   4.751   0.127
 3323SOL    HW110868   2.031   4.765   0.034
 3323SOL    HW210869   1.998   4.777   0.194
 3324SOL     OW10870   6.381   3.258   1.392
 3324SOL    HW110871   6.290   3.223   1.368
 3324SOL    HW210872   6.376   3.307   1.480
 3325SOL     OW10873   0.954   5.064   5.853
 3325SOL    HW110874   1.052   5.058   5.831
 3325SOL    HW210875   0.939   5.028   5.946
 3326SOL     OW10876   5.429   0.445   2.369
 3326SOL    HW110877   5.521   0.484   2.370
 3326SOL    HW210878   5.426   0.369   2.304
 3327SOL     OW10879   4.674   6.260   1.951
 3327SOL    HW110880   4.761   6.210   1.950
 3327SOL    HW210881   4.674   6.327   2.025
 3328SOL     OW10882   6.270   6.626   4.235
 3328SOL    HW110883   6.336   6.698   4.255
 3328SOL    HW210884   6.187   6.666   4.198
 3329SOL     OW10885   5.764   0.820   6.178
 3329SOL    HW110886   5.838   0.878   6.214
 3329SOL    HW210887   5.797   0.726   6.170
 3330SOL     OW10888   6.761   6.758   2.800
 3330SOL    HW110889   6.779   6.660   2.786
 3330SOL    HW210890   6.676   6.783   2.754
 3331SOL     OW10891   1.766   3.940   2.670
 3331SOL    HW110892   1.837   3.914   2.735
 3331SOL    HW210893   1.762   4.040   2.663
 3332SOL     OW10894   3.667   5.219   0.531
 3332SOL    HW110895   3.661   5.185   0.437
 3332SOL    HW210896   3.760   5.208   0.565
 3333SOL     OW10897   1.819   3.410   1.077
 3333SOL    HW110898   1.764   3.437   0.998
 3333SOL    HW210899   1.852   3.316   1.064
 3334SOL     OW10900   1.029   2.394   1.899
 3334SOL    HW110901   1.024   2.450   1.982
 3334SOL    HW210902   1.008   2.451   1.819
 3335SOL     OW10903   3.475   4.258   5.544
 3335SOL    HW110904   3.538   4.335   5.542
 3335SOL    HW210905   3.392   4.284   5.593
 3336SOL     OW10906   3.852   6.044   5.697
 3336SOL    HW110907   3.852   6.026   5.796
 3336SOL    HW210908   3.783   6.114   5.676
 3337SOL     OW10909   3.793   2.999   3.788
 3337SOL    HW110910   3.856   3.061   3.742
 3337SOL    HW210911   3.736   2.953   3.720
 3338SOL     OW10912   2.651   3.056   1.577
 3338SOL    HW110913   2.644   3.068   1.478
 3338SOL    HW210914   2.634   3.143   1.623
 3339SOL     OW10915   0.614   6.742   6.794
 3339SOL    HW110916   0.653   6.706   6.709
 3339SOL    HW210917   0.617   6.672   6.865
 3340SOL     OW10918   4.321   1.630   6.324
 3340SOL    HW110919   4.393   1.660   6.386
 3340SOL    HW210920   4.237   1.615   6.375
 3341SOL     OW10921   1.371   3.925   1.168
 3341SOL    HW110922   1.451   3.866   1.181
 3341SOL    HW210923   1.360   3.985   1.247
 3342SOL     OW10924   6.006   0.453   2.317
 3342SOL    HW110925   5.959   0.455   2.229
 3342SOL    HW210926   6.088   0.397   2.311
 3343SOL     OW10927   3.411   5.520   1.035
 3343SOL    HW110928   3.390   5.574   0.953
 3343SOL    HW210929   3.482   5.566   1.088
 3344SOL     OW10930   1.415   3.232   1.895
 3344SOL    HW110931   1.341   3.194   1.950
 3344SOL    HW210932   1.376   3.295   1.827
 3345SOL     OW10933   5.393   5.486   1.257
 3345SOL    HW110934   5.325   5.532   1.315
 3345SOL    HW210935   5.414   5.396   1.297
 3346SOL     OW10936   1.340   0.789   0.295
 3346SOL    HW110937   1.340   0.820   0.200
 3346SOL    HW210938   1.405   0.715   0.306
 3347SOL     OW10939   1.179   3.970   5.333
 3347SOL    HW110940   1.225   3.884   5.308
 3347SOL    HW210941   1.218   4.004   5.419
 3348SOL     OW10942   3.457   4.267   6.227
 3348SOL    HW110943   3.533   4.244   6.287
 3348SOL    HW210944   3.448   4.196   6.156
 3349SOL     OW10945   1.650   5.578   1.441
 3349SOL    HW110946   1.721   5.647   1.428
 3349SOL    HW210947   1.658   5.537   1.532
 3350SOL     OW10948   1.808   4.756   5.009
 3350SOL    HW110949   1.899   4.795   5.023
 3350SOL    HW210950   1.812   4.690   4.934
 3351SOL     OW10951   5.207   0.234   1.903
 3351SOL    HW110952   5.266   0.191   1.835
 3351SOL    HW210953   5.136   0.169   1.930
 3352SOL     OW10954   5.298   1.446   0.033
 3352SOL    HW110955   5.396   1.437   0.048
 3352SOL    HW210956   5.278   1.537   7.025
 3353SOL     OW10957   4.231   1.303   6.721
 3353SOL    HW110958   4.203   1.208   6.737
 3353SOL    HW210959   4.154   1.364   6.741
 3354SOL     OW10960   2.277   3.249   0.346
 3354SOL    HW110961   2.232   3.179   0.290
 3354SOL    HW210962   2.363   3.276   0.302
 3355SOL     OW10963   1.399   0.808   4.588
 3355SOL    HW110964   1.309   0.766   4.592
 3355SOL    HW210965   1.457   0.756   4.525
 3356SOL     OW10966   2.799   0.649   6.125
 3356SOL    HW110967   2.778   0.597   6.208
 3356SOL    HW210968   2.770   0.597   6.045
 3357SOL     OW10969   2.968   3.580   3.472
 3357SOL    HW110970   2.946   3.639   3.550
 3357SOL    HW210971   2.926   3.618   3.389
 3358SOL     OW10972   0.108   1.816   1.355
 3358SOL    HW110973   0.171   1.844   1.427
 3358SOL    HW210974   0.036   1.758   1.393
 3359SOL     OW10975   1.258   6.949   3.995
 3359SOL    HW110976   1.324   6.874   4.004
 3359SOL    HW210977   1.245   6.992   4.084
 3360SOL     OW10978   1.850   5.164   4.591
 3360SOL    HW110979   1.823   5.220   4.513
 3360SOL    HW210980   1.947   5.140   4.582
 3361SOL     OW10981   6.702   6.616   4.473
 3361SOL    HW110982   6.784   6.571   4.436
 3361SOL    HW210983   6.680   6.696   4.416
 3362SOL     OW10984   3.999   0.460   4.485
 3362SOL    HW110985   3.966   0.419   4.569
 3362SOL    HW210986   4.067   0.400   4.443
 3363SOL     OW10987   5.335   4.034   0.043
 3363SOL    HW110988   5.333   3.936   0.065
 3363SOL    HW210989   5.242   4.070   0.044
 3364SOL     OW10990   1.937   3.536   1.482
 3364SOL    HW110991   1.853   3.500   1.442
 3364SOL    HW210992   1.953   3.495   1.572
 3365SOL     OW10993   1.193   2.668   2.748
 3365SOL    HW110994   1.187   2.768   2.749
 3365SOL    HW210995   1.271   2.639   2.804
 3366SOL     OW10996   6.086   2.690   4.297
 3366SOL    HW110997   6.161   2.631   4.266
 3366SOL    HW210998   6.124   2.776   4.331
 3367SOL     OW10999   3.461   3.159   3.629
 3367SOL    HW111000   3.464   3.210   3.715
 3367SOL    HW211001   3.420   3.069   3.646
 3368SOL     OW11002   2.373   1.433   3.543
 3368SOL    HW111003   2.395   1.468   3.452
 3368SOL    HW211004   2.341   1.339   3.536
 3369SOL     OW11005   5.154   2.956   1.273
 3369SOL    HW111006   5.109   3.023   1.213
 3369SOL    HW211007   5.107   2.955   1.362
 3370SOL     OW11008   1.155   5.856   3.270
 3370SOL    HW111009   1.191   5.800   3.195
 3370SOL    HW211010   1.065   5.822   3.297
 3371SOL     OW11011   2.602   3.077   1.307
 3371SOL    HW111012   2.523   3.042   1.257
 3371SOL    HW211013   2.681   3.079   1.246
 3372SOL     OW11014   5.946   2.700   3.475
 3372SOL    HW111015   5.975   2.654   3.391
 3372SOL    HW211016   5.958   2.638   3.553
 3373SOL     OW11017   0.053   4.490   0.691
 3373SOL    HW111018   0.013   4.565   0.639
 3373SOL    HW211019   0.112   4.435   0.632
 3374SOL     OW11020   0.954   5.914   4.271
 3374SOL    HW111021   0.875   5.855   4.289
 3374SOL    HW211022   1.030   5.887   4.330
 3375SOL     OW11023   0.602   6.294   6.056
 3375SOL    HW111024   0.636   6.339   5.974
 3375SOL    HW211025   0.676   6.244   6.101
 3376SOL     OW11026   3.145   3.426   4.903
 3376SOL    HW111027   3.113   3.404   4.995
 3376SOL    HW211028   3.115   3.354   4.840
 3377SOL     OW11029   6.663   5.065   4.342
 3377SOL    HW111030   6.693   5.155   4.310
 3377SOL    HW211031   6.637   5.071   4.438
 3378SOL     OW11032   0.903   5.791   0.578
 3378SOL    HW111033   0.922   5.768   0.673
 3378SOL    HW211034   0.990   5.799   0.528
 3379SOL     OW11035   6.156   4.085   4.233
 3379SOL    HW111036   6.108   4.148   4.294
 3379SOL    HW211037   6.242   4.127   4.204
 3380SOL     OW11038   1.834   5.324   1.463
 3380SOL    HW111039   1.801   5.257   1.529
 3380SOL    HW211040   1.861   5.408   1.511
 3381SOL     OW11041   3.226   3.835   6.026
 3381SOL    HW111042   3.242   3.767   5.953
 3381SOL    HW211043   3.188   3.789   6.106
 3382SOL     OW11044   6.907   3.780   6.755
 3382SOL    HW111045   6.931   3.867   6.712
 3382SOL    HW211046   6.851   3.797   6.836
 3383SOL     OW11047   3.123   5.802   0.730
 3383SOL    HW111048   3.076   5.886   0.757
 3383SOL    HW211049   3.145   5.806   0.633
 3384SOL     OW11050   2.703   2.914   6.447
 3384SOL    HW111051   2.787   2.917   6.393
 3384SOL    HW211052   2.726   2.900   6.543
 3385SOL     OW11053   6.016   2.789   4.683
 3385SOL    HW111054   5.993   2.855   4.612
 3385SOL    HW211055   5.946   2.790   4.755
 3386SOL     OW11056   0.618   6.148   4.748
 3386SOL    HW111057   0.661   6.194   4.670
 3386SOL    HW211058   0.522   6.129   4.727
 3387SOL     OW11059   6.340   0.312   2.660
 3387SOL    HW111060   6.414   0.245   2.650
 3387SOL    HW211061   6.274   0.278   2.727
 3388SOL     OW11062   0.285   3.754   0.575
 3388SOL    HW111063   0.358   3.687   0.588
 3388SOL    HW211064   0.197   3.707   0.572
 3389SOL     OW11065   6.669   5.440   6.582
 3389SOL    HW111066   6.726   5.358   6.590
 3389SOL    HW211067   6.710   5.503   6.517
 3390SOL     OW11068   3.156   5.062   0.615
 3390SOL    HW111069   3.162   4.973   0.660
 3390SOL    HW211070   3.238   5.116   0.635
 3391SOL     OW11071   4.952   3.944   5.305
 3391SOL    HW111072   5.048   3.972   5.301
 3391SOL    HW211073   4.909   3.984   5.386
 3392SOL     OW11074   5.294   6.527   5.736
 3392SOL    HW111075   5.314   6.467   5.658
 3392SOL    HW211076   5.367   6.593   5.746
 3393SOL     OW11077   3.371   6.916   0.264
 3393SOL    HW111078   3.419   7.000   0.291
 3393SOL    HW211079   3.397   6.890   0.171
 3394SOL     OW11080   2.930   5.292   1.162
 3394SOL    HW111081   3.010   5.299   1.223
 3394SOL    HW211082   2.848   5.318   1.213
 3395SOL     OW11083   1.894   6.558   3.095
 3395SOL    HW111084   1.889   6.647   3.140
 3395SOL    HW211085   1.961   6.500   3.142
 3396SOL     OW11086   4.704   0.166   4.679
 3396SOL    HW111087   4.663   0.163   4.770
 3396SOL    HW211088   4.705   0.260   4.646
 3397SOL     OW11089   2.348   6.105   1.093
 3397SOL    HW111090   2.436   6.065   1.069
 3397SOL    HW211091   2.359   6.204   1.105
 3398SOL     OW11092   6.727   0.984   6.481
 3398SOL    HW111093   6.725   1.075   6.523
 3398SOL    HW211094   6.653   0.976   6.415
 3399SOL     OW11095   7.015   6.424   2.054
 3399SOL    HW111096   7.008   6.328   2.030
 3399SOL    HW211097   0.028   6.433   2.146
 3400SOL     OW11098   3.347   2.732   5.299
 3400SOL    HW111099   3.383   2.643   5.326
 3400SOL    HW211100   3.412   2.778   5.240
 3401SOL     OW11101   0.127   2.969   4.339
 3401SOL    HW111102   0.211   2.967   4.394
 3401SOL    HW211103   0.114   3.060   4.301
 3402SOL     OW11104   5.479   3.432   0.357
 3402SOL    HW111105   5.396   3.421   0.303
 3402SOL    HW211106   5.455   3.461   0.450
 3403SOL     OW11107   5.670   6.173   4.952
 3403SOL    HW111108   5.574   6.196   4.937
 3403SOL    HW211109   5.719   6.255   4.982
 3404SOL     OW11110   5.219   5.175   3.204
 3404SOL    HW111111   5.305   5.138   3.169
 3404SOL    HW211112   5.158   5.099   3.228
 3405SOL     OW11113   4.185   6.338   0.976
 3405SOL    HW111114   4.156   6.427   1.012
 3405SOL    HW211115   4.117   6.269   0.999
 3406SOL     OW11116   3.433   5.125   1.354
 3406SOL    HW111117   3.472   5.213   1.380
 3406SOL    HW211118   3.505   5.056   1.353
 3407SOL     OW11119   1.497   2.843   0.479
 3407SOL    HW111120   1.535   2.911   0.542
 3407SOL    HW211121   1.411   2.876   0.441
 3408SOL     OW11122   4.156   6.589   4.041
 3408SOL    HW111123   4.141   6.603   3.943
 3408SOL    HW211124   4.250   6.611   4.064
 3409SOL     OW11125   4.594   2.116   0.038
 3409SOL    HW111126   4.627   2.131   0.131
 3409SOL    HW211127   4.505   2.070   0.041
 3410SOL     OW11128   6.878   0.576   2.277
 3410SOL    HW111129   6.948   0.645   2.256
 3410SOL    HW211130   6.906   0.522   2.356
 3411SOL     OW11131   5.634   3.021   5.919
 3411SOL    HW111132   5.722   3.069   5.924
 3411SOL    HW211133   5.649   2.928   5.887
 3412SOL     OW11134   5.720   2.826   3.610
 3412SOL    HW111135   5.751   2.915   3.643
 3412SOL    HW211136   5.798   2.767   3.590
 3413SOL     OW11137   0.162   2.654   0.911
 3413SOL    HW111138   0.070   2.689   0.893
 3413SOL    HW211139   0.181   2.658   1.009
 3414SOL     OW11140   4.084   3.145   2.186
 3414SOL    HW111141   4.159   3.078   2.182
 3414SOL    HW211142   4.062   3.164   2.282
 3415SOL     OW11143   2.214   1.197   6.256
 3415SOL    HW111144   2.307   1.163   6.262
 3415SOL    HW211145   2.159   1.134   6.201
 3416SOL     OW11146   5.692   6.642   6.067
 3416SOL    HW111147   5.732   6.683   6.149
 3416SOL    HW211148   5.598   6.675   6.056
 3417SOL     OW11149   6.046   0.638   2.557
 3417SOL    HW111150   6.145   0.654   2.553
 3417SOL    HW211151   6.018   0.584   2.478
 3418SOL     OW11152   4.215   6.037   0.837
 3418SOL    HW111153   4.139   6.101   0.830
 3418SOL    HW211154   4.299   6.087   0.860
 3419SOL     OW11155   3.045   4.816   5.106
 3419SOL    HW111156   2.983   4.863   5.043
 3419SOL    HW211157   3.001   4.732   5.139
 3420SOL     OW11158   4.007   1.153   1.966
 3420SOL    HW111159   3.961   1.064   1.971
 3420SOL    HW211160   4.090   1.145   1.911
 3421SOL     OW11161   0.345   1.799   4.726
 3421SOL    HW111162   0.300   1.831   4.642
 3421SOL    HW211163   0.443   1.788   4.709
 3422SOL     OW11164   3.509   5.741   2.156
 3422SOL    HW111165   3.490   5.775   2.249
 3422SOL    HW211166   3.572   5.663   2.162
 3423SOL     OW11167   2.111   4.500   5.753
 3423SOL    HW111168   2.042   4.536   5.690
 3423SOL    HW211169   2.067   4.445   5.824
 3424SOL     OW11170   5.300   0.166   2.312
 3424SOL    HW111171   5.399   0.170   2.299
 3424SOL    HW211172   5.280   0.166   2.410
 3425SOL     OW11173   5.936   2.854   6.029
 3425SOL    HW111174   5.864   2.786   6.011
 3425SOL    HW211175   5.935   2.877   6.126
 3426SOL     OW11176   6.499   5.361   0.024
 3426SOL    HW111177   6.496   5.459   0.044
 3426SOL    HW211178   6.411   5.319   0.046
 3427SOL     OW11179   1.776   1.440   6.204
 3427SOL    HW111180   1.845   1.379   6.164
 3427SOL    HW211181   1.695   1.387   6.230
 3428SOL     OW11182   5.030   0.485   4.555
 3428SOL    HW111183   5.004   0.540   4.635
 3428SOL    HW211184   5.038   0.389   4.582
 3429SOL     OW11185   4.216   6.547   0.758
 3429SOL    HW111186   4.198   6.580   0.851
 3429SOL    HW211187   4.224   6.447   0.758
 3430SOL     OW11188   3.110   4.525   6.703
 3430SOL    HW111189   3.208   4.519   6.721
 3430SOL    HW211190   3.095   4.574   6.617
 3431SOL     OW11191   0.845   4.434   3.074
 3431SOL    HW111192   0.870   4.442   3.170
 3431SOL    HW211193   0.928   4.429   3.018
 3432SOL     OW11194   0.280   5.177   6.815
 3432SOL    HW111195   0.276   5.208   6.909
 3432SOL    HW211196   0.194   5.198   6.768
 3433SOL     OW11197   1.110   0.868   0.410
 3433SOL    HW111198   1.071   0.918   0.332
 3433SOL    HW211199   1.198   0.830   0.383
 3434SOL     OW11200   3.910   2.119   2.031
 3434SOL    HW111201   3.919   2.135   2.129
 3434SOL    HW211202   3.818   2.144   2.001
 3435SOL     OW11203   2.176   2.860   1.129
 3435SOL    HW111204   2.181   2.868   1.228
 3435SOL    HW211205   2.143   2.946   1.090
 3436SOL     OW11206   3.870   6.439   5.950
 3436SOL    HW111207   3.872   6.535   5.977
 3436SOL    HW211208   3.803   6.427   5.876
 3437SOL     OW11209   1.526   6.780   0.198
 3437SOL    HW111210   1.459   6.706   0.189
 3437SOL    HW211211   1.595   6.753   0.265
 3438SOL     OW11212   2.020   4.422   0.468
 3438SOL    HW111213   1.969   4.343   0.433
 3438SOL    HW211214   2.113   4.419   0.433
 3439SOL     OW11215   2.833   5.820   0.724
 3439SOL    HW111216   2.811   5.903   0.673
 3439SOL    HW211217   2.888   5.759   0.667
 3440SOL     OW11218   3.742   3.829   5.690
 3440SOL    HW111219   3.680   3.845   5.767
 3440SOL    HW211220   3.759   3.731   5.682
 3441SOL     OW11221   6.443   5.113   5.045
 3441SOL    HW111222   6.425   5.064   4.960
 3441SOL    HW211223   6.378   5.189   5.054
 3442SOL     OW11224   1.554   2.327   0.434
 3442SOL    HW111225   1.494   2.404   0.414
 3442SOL    HW211226   1.538   2.296   0.528
 3443SOL     OW11227   0.592   5.962   2.595
 3443SOL    HW111228   0.552   5.907   2.522
 3443SOL    HW211229   0.533   6.040   2.615
 3444SOL     OW11230   0.688   4.075   6.324
 3444SOL    HW111231   0.628   4.009   6.370
 3444SOL    HW211232   0.735   4.130   6.393
 3445SOL     OW11233   5.428   5.330   4.859
 3445SOL    HW111234   5.337   5.349   4.894
 3445SOL    HW211235   5.425   5.248   4.802
 3446SOL     OW11236   4.879   1.978   0.221
 3446SOL    HW111237   4.864   1.949   0.126
 3446SOL    HW211238   4.895   1.898   0.278
 3447SOL     OW11239   4.867   1.481   6.152
 3447SOL    HW111240   4.828   1.550   6.214
 3447SOL    HW211241   4.887   1.523   6.064
 3448SOL     OW11242   1.094   4.824   5.513
 3448SOL    HW111243   1.101   4.915   5.472
 3448SOL    HW211244   1.012   4.820   5.569
 3449SOL     OW11245   1.246   3.714   5.216
 3449SOL    HW111246   1.171   3.723   5.150
 3449SOL    HW211247   1.328   3.683   5.168
 3450SOL     OW11248   2.687   6.730   2.419
 3450SOL    HW111249   2.588   6.740   2.429
 3450SOL    HW211250   2.733   6.812   2.455
 3451SOL     OW11251   1.937   2.375   0.383
 3451SOL    HW111252   1.879   2.307   0.427
 3451SOL    HW211253   1.992   2.332   0.311
 3452SOL     OW11254   4.443   1.232   6.549
 3452SOL    HW111255   4.351   1.253   6.581
 3452SOL    HW211256   4.501   1.210   6.627
 3453SOL     OW11257   4.633   6.268   5.915
 3453SOL    HW111258   4.680   6.220   5.989
 3453SOL    HW211259   4.697   6.333   5.872
 3454SOL     OW11260   1.239   2.951   2.786
 3454SOL    HW111261   1.179   2.979   2.711
 3454SOL    HW211262   1.330   2.991   2.773
 3455SOL     OW11263   0.945   4.377   6.244
 3455SOL    HW111264   0.888   4.327   6.179
 3455SOL    HW211265   1.028   4.409   6.198
 3456SOL     OW11266   4.259   5.256   3.340
 3456SOL    HW111267   4.249   5.161   3.312
 3456SOL    HW211268   4.182   5.309   3.304
 3457SOL     OW11269   4.032   4.583   6.920
 3457SOL    HW111270   4.042   4.492   6.880
 3457SOL    HW211271   4.037   4.577   7.020
 3458SOL     OW11272   4.678   1.982   1.199
 3458SOL    HW111273   4.618   1.907   1.174
 3458SOL    HW211274   4.740   1.952   1.272
 3459SOL     OW11275   6.397   6.444   2.408
 3459SOL    HW111276   6.340   6.363   2.396
 3459SOL    HW211277   6.417   6.455   2.505
 3460SOL     OW11278   3.607   1.422   5.307
 3460SOL    HW111279   3.606   1.521   5.316
 3460SOL    HW211280   3.515   1.385   5.321
 3461SOL     OW11281   4.822   4.029   3.674
 3461SOL    HW111282   4.887   4.100   3.648
 3461SOL    HW211283   4.745   4.029   3.611
 3462SOL     OW11284   1.016   4.966   6.332
 3462SOL    HW111285   1.077   5.046   6.329
 3462SOL    HW211286   0.950   4.972   6.258
 3463SOL     OW11287   5.732   3.925   0.287
 3463SOL    HW111288   5.817   3.978   0.286
 3463SOL    HW211289   5.680   3.945   0.204
 3464SOL     OW11290   0.261   4.581   3.758
 3464SOL    HW111291   0.170   4.563   3.796
 3464SOL    HW211292   0.251   4.641   3.678
 3465SOL     OW11293   0.535   3.266   2.083
 3465SOL    HW111294   0.594   3.202   2.034
 3465SOL    HW211295   0.479   3.317   2.017
 3466SOL     OW11296   6.314   3.601   3.637
 3466SOL    HW111297   6.350   3.511   3.613
 3466SOL    HW211298   6.229   3.617   3.588
 3467SOL     OW11299   1.599   2.634   6.396
 3467SOL    HW111300   1.659   2.663   6.470
 3467SOL    HW211301   1.611   2.696   6.318
 3468SOL     OW11302   4.508   6.052   1.866
 3468SOL    HW111303   4.478   5.996   1.943
 3468SOL    HW211304   4.544   6.139   1.900
 3469SOL     OW11305   5.213   4.474   0.598
 3469SOL    HW111306   5.194   4.560   0.647
 3469SOL    HW211307   5.165   4.475   0.510
 3470SOL     OW11308   6.071   4.922   1.408
 3470SOL    HW111309   5.974   4.906   1.426
 3470SOL    HW211310   6.119   4.936   1.494
 3471SOL     OW11311   4.191   6.764   4.682
 3471SOL    HW111312   4.209   6.858   4.652
 3471SOL    HW211313   4.096   6.757   4.712
 3472SOL     OW11314   4.411   0.723   4.373
 3472SOL    HW111315   4.313   0.732   4.352
 3472SOL    HW211316   4.433   0.781   4.452
 3473SOL     OW11317   4.662   6.499   3.669
 3473SOL    HW111318   4.650   6.586   3.621
 3473SOL    HW211319   4.580   6.480   3.724
 3474SOL     OW11320   4.251   4.860   0.371
 3474SOL    HW111321   4.292   4.943   0.408
 3474SOL    HW211322   4.278   4.849   0.276
 3475SOL     OW11323   1.570   5.371   5.017
 3475SOL    HW111324   1.592   5.466   4.995
 3475SOL    HW211325   1.538   5.325   4.934
 3476SOL     OW11326   4.055   2.000   3.727
 3476SOL    HW111327   4.131   2.021   3.665
 3476SOL    HW211328   4.031   2.082   3.779
 3477SOL     OW11329   5.090   5.381   2.343
 3477SOL    HW111330   5.121   5.325   2.267
 3477SOL    HW211331   4.996   5.412   2.326
 3478SOL     OW11332   3.605   4.441   0.412
 3478SOL    HW111333   3.614   4.440   0.313
 3478SOL    HW211334   3.515   4.404   0.438
 3479SOL     OW11335   1.795   0.365   0.699
 3479SOL    HW111336   1.790   0.270   0.667
 3479SOL    HW211337   1.710   0.390   0.744
 3480SOL     OW11338   1.483   6.949   4.417
 3480SOL    HW111339   1.547   6.881   4.451
 3480SOL    HW211340   1.520   6.992   4.334
 3481SOL     OW11341   2.212   5.794   0.164
 3481SOL    HW111342   2.129   5.748   0.132
 3481SOL    HW211343   2.229   5.770   0.259
 3482SOL     OW11344   0.353   2.500   1.206
 3482SOL    HW111345   0.446   2.472   1.184
 3482SOL    HW211346   0.292   2.421   1.198
 3483SOL     OW11347   3.935   1.038   0.851
 3483SOL    HW111348   3.852   1.003   0.895
 3483SOL    HW211349   3.947   0.995   0.761
 3484SOL     OW11350   3.579   4.156   3.412
 3484SOL    HW111351   3.604   4.248   3.382
 3484SOL    HW211352   3.535   4.161   3.502
 3485SOL     OW11353   6.099   2.202   5.156
 3485SOL    HW111354   5.999   2.198   5.155
 3485SOL    HW211355   6.136   2.110   5.166
 3486SOL     OW11356   5.750   0.745   3.548
 3486SOL    HW111357   5.710   0.689   3.621
 3486SOL    HW211358   5.724   0.841   3.562
 3487SOL     OW11359   1.135   6.930   0.850
 3487SOL    HW111360   1.060   6.949   0.913
 3487SOL    HW211361   1.131   6.834   0.823
 3488SOL     OW11362   6.227   3.794   4.429
 3488SOL    HW111363   6.276   3.872   4.467
 3488SOL    HW211364   6.143   3.826   4.384
 3489SOL     OW11365   2.746   5.655   0.016
 3489SOL    HW111366   2.653   5.649   0.050
 3489SOL    HW211367   2.778   5.750   0.022
 3490SOL     OW11368   4.612   4.002   0.377
 3490SOL    HW111369   4.520   4.041   0.377
 3490SOL    HW211370   4.609   3.908   0.345
 3491SOL     OW11371   5.727   2.638   5.088
 3491SOL    HW111372   5.728   2.673   5.181
 3491SOL    HW211373   5.754   2.710   5.025
 3492SOL     OW11374   6.284   4.685   6.825
 3492SOL    HW111375   6.302   4.682   6.727
 3492SOL    HW211376   6.221   4.759   6.845
 3493SOL     OW11377   6.492   4.581   1.218
 3493SOL    HW111378   6.561   4.591   1.290
 3493SOL    HW211379   6.536   4.580   1.129
 3494SOL     OW11380   2.781   6.408   1.009
 3494SOL    HW111381   2.798   6.455   1.096
 3494SOL    HW211382   2.683   6.388   1.001
 3495SOL     OW11383   5.820   4.457   6.430
 3495SOL    HW111384   5.816   4.369   6.476
 3495SOL    HW211385   5.735   4.473   6.380
 3496SOL     OW11386   0.779   5.403   1.089
 3496SOL    HW111387   0.703   5.393   1.024
 3496SOL    HW211388   0.758   5.476   1.154
 3497SOL     OW11389   3.965   6.914   4.824
 3497SOL    HW111390   3.948   6.835   4.884
 3497SOL    HW211391   4.012   6.985   4.875
 3498SOL     OW11392   1.069   1.815   0.452
 3498SOL    HW111393   1.077   1.716   0.436
 3498SOL    HW211394   1.110   1.865   0.376
 3499SOL     OW11395   7.003   4.175   4.157
 3499SOL    HW111396   6.973   4.234   4.232
 3499SOL    HW211397   6.926   4.158   4.096
 3500SOL     OW11398   5.825   3.015   0.974
 3500SOL    HW111399   5.889   3.092   0.980
 3500SOL    HW211400   5.798   3.001   0.879
 3501SOL     OW11401   0.614   4.836   3.051
 3501SOL    HW111402   0.621   4.742   3.016
 3501SOL    HW211403   0.524   4.849   3.091
 3502SOL     OW11404   0.579   5.042   1.598
 3502SOL    HW111405   0.659   4.998   1.638
 3502SOL    HW211406   0.512   5.062   1.669
 3503SOL     OW11407   3.608   7.022   3.564
 3503SOL    HW111408   3.580   0.083   3.525
 3503SOL    HW211409   3.613   0.003   3.664
 3504SOL     OW11410   2.061   3.201   2.288
 3504SOL    HW111411   2.006   3.120   2.309
 3504SOL    HW211412   2.074   3.255   2.370
 3505SOL     OW11413   4.682   6.564   4.752
 3505SOL    HW111414   4.652   6.617   4.832
 3505SOL    HW211415   4.736   6.621   4.691
 3506SOL     OW11416   6.569   4.639   2.373
 3506SOL    HW111417   6.656   4.651   2.324
 3506SOL    HW211418   6.550   4.721   2.427
 3507SOL     OW11419   6.912   0.274   6.100
 3507SOL    HW111420   6.967   0.225   6.032
 3507SOL    HW211421   6.840   0.326   6.054
 3508SOL     OW11422   6.489   4.416   6.707
 3508SOL    HW111423   6.533   4.327   6.697
 3508SOL    HW211424   6.399   4.414   6.663
 3509SOL     OW11425   5.619   6.603   6.899
 3509SOL    HW111426   5.579   6.620   6.989
 3509SOL    HW211427   5.678   6.522   6.904
 3510SOL     OW11428   1.849   1.292   1.869
 3510SOL    HW111429   1.856   1.248   1.959
 3510SOL    HW211430   1.933   1.344   1.851
 3511SOL     OW11431   1.129   0.728   4.576
 3511SOL    HW111432   1.055   0.701   4.637
 3511SOL    HW211433   1.125   0.827   4.560
 3512SOL     OW11434   4.021   3.335   1.216
 3512SOL    HW111435   4.060   3.266   1.276
 3512SOL    HW211436   3.990   3.292   1.131
 3513SOL     OW11437   6.007   4.189   1.112
 3513SOL    HW111438   6.014   4.202   1.013
 3513SOL    HW211439   6.036   4.273   1.159
 3514SOL     OW11440   2.283   5.998   2.144
 3514SOL    HW111441   2.183   5.997   2.137
 3514SOL    HW211442   2.310   6.051   2.225
 3515SOL     OW11443   3.659   5.896   3.376
 3515SOL    HW111444   3.720   5.955   3.323
 3515SOL    HW211445   3.707   5.813   3.402
 3516SOL     OW11446   1.971   0.644   0.135
 3516SOL    HW111447   1.884   0.639   0.086
 3516SOL    HW211448   1.970   0.580   0.212
 3517SOL     OW11449   0.426   0.878   6.834
 3517SOL    HW111450   0.427   0.808   6.906
 3517SOL    HW211451   0.360   0.852   6.764
 3518SOL     OW11452   4.375   3.432   6.388
 3518SOL    HW111453   4.339   3.414   6.297
 3518SOL    HW211454   4.466   3.391   6.397
 3519SOL     OW11455   3.190   6.989   0.707
 3519SOL    HW111456   3.177   0.037   0.772
 3519SOL    HW211457   3.248   7.020   0.632
 3520SOL     OW11458   3.652   5.022   1.649
 3520SOL    HW111459   3.565   5.071   1.645
 3520SOL    HW211460   3.726   5.082   1.617
 3521SOL     OW11461   6.608   1.997   5.994
 3521SOL    HW111462   6.673   2.064   5.958
 3521SOL    HW211463   6.623   1.909   5.949
 3522SOL     OW11464   2.872   0.657   0.775
 3522SOL    HW111465   2.799   0.700   0.723
 3522SOL    HW211466   2.840   0.634   0.867
 3523SOL     OW11467   2.045   4.877   5.028
 3523SOL    HW111468   2.033   4.933   5.110
 3523SOL    HW211469   2.142   4.856   5.016
 3524SOL     OW11470   2.483   1.144   3.322
 3524SOL    HW111471   2.408   1.187   3.273
 3524SOL    HW211472   2.454   1.120   3.414
 3525SOL     OW11473   1.617   3.121   3.502
 3525SOL    HW111474   1.669   3.035   3.509
 3525SOL    HW211475   1.541   3.119   3.566
 3526SOL     OW11476   3.447   6.478   3.628
 3526SOL    HW111477   3.465   6.504   3.533
 3526SOL    HW211478   3.501   6.535   3.689
 3527SOL     OW11479   5.664   3.735   0.027
 3527SOL    HW111480   5.644   3.832   0.017
 3527SOL    HW211481   5.763   3.720   0.025
 3528SOL     OW11482   2.104   0.054   4.641
 3528SOL    HW111483   2.028   0.018   4.695
 3528SOL    HW211484   2.081   0.145   4.606
 3529SOL     OW11485   3.885   5.491   0.395
 3529SOL    HW111486   3.957   5.493   0.325
 3529SOL    HW211487   3.927   5.495   0.485
 3530SOL     OW11488   1.932   5.790   2.967
 3530SOL    HW111489   1.982   5.843   2.898
 3530SOL    HW211490   1.836   5.816   2.966
 3531SOL     OW11491   5.200   4.836   0.153
 3531SOL    HW111492   5.222   4.932   0.138
 3531SOL    HW211493   5.233   4.807   0.243
 3532SOL     OW11494   2.221   6.474   1.121
 3532SOL    HW111495   2.306   6.494   1.170
 3532SOL    HW211496   2.238   6.470   1.023
 3533SOL     OW11497   1.236   1.012   3.288
 3533SOL    HW111498   1.286   0.926   3.283
 3533SOL    HW211499   1.173   1.019   3.211
 3534SOL     OW11500   4.989   6.776   5.045
 3534SOL    HW111501   4.997   6.876   5.047
 3534SOL    HW211502   4.956   6.748   4.954
 3535SOL     OW11503   4.715   6.353   6.927
 3535SOL    HW111504   4.772   6.391   6.999
 3535SOL    HW211505   4.738   6.398   6.840
 3536SOL     OW11506   1.262   3.365   2.607
 3536SOL    HW111507   1.331   3.293   2.599
 3536SOL    HW211508   1.253   3.412   2.520
 3537SOL     OW11509   2.696   5.149   1.618
 3537SOL    HW111510   2.658   5.220   1.677
 3537SOL    HW211511   2.777   5.109   1.661
 3538SOL     OW11512   3.919   0.952   3.742
 3538SOL    HW111513   3.837   0.909   3.781
 3538SOL    HW211514   3.980   0.882   3.707
 3539SOL     OW11515   4.803   5.455   5.151
 3539SOL    HW111516   4.827   5.503   5.235
 3539SOL    HW211517   4.774   5.521   5.082
 3540SOL     OW11518   3.704   4.996   6.421
 3540SOL    HW111519   3.630   5.032   6.364
 3540SOL    HW211520   3.688   5.020   6.516
 3541SOL     OW11521   0.614   2.781   2.562
 3541SOL    HW111522   0.530   2.826   2.531
 3541SOL    HW211523   0.593   2.724   2.641
 3542SOL     OW11524   5.792   1.950   6.928
 3542SOL    HW111525   5.722   1.897   6.975
 3542SOL    HW211526   5.875   1.894   6.918
 3543SOL     OW11527   0.120   2.582   3.544
 3543SOL    HW111528   0.065   2.514   3.496
 3543SOL    HW211529   0.205   2.540   3.577
 3544SOL     OW11530   2.570   4.443   6.590
 3544SOL    HW111531   2.628   4.515   6.628
 3544SOL    HW211532   2.623   4.388   6.526
 3545SOL     OW11533   3.535   6.635   0.931
 3545SOL    HW111534   3.624   6.682   0.934
 3545SOL    HW211535   3.467   6.696   0.890
 3546SOL     OW11536   6.123   4.662   1.591
 3546SOL    HW111537   6.138   4.569   1.623
 3546SOL    HW211538   6.165   4.674   1.501
 3547SOL     OW11539   0.752   3.773   4.035
 3547SOL    HW111540   0.822   3.787   3.965
 3547SOL    HW211541   0.689   3.702   4.005
 3548SOL     OW11542   6.747   0.477   5.621
 3548SOL    HW111543   6.700   0.558   5.655
 3548SOL    HW211544   6.834   0.504   5.580
 3549SOL     OW11545   2.144   6.426   6.742
 3549SOL    HW111546   2.115   6.420   6.646
 3549SOL    HW211547   2.081   6.485   6.792
 3550SOL     OW11548   5.938   2.177   6.220
 3550SOL    HW111549   5.906   2.220   6.304
 3550SOL    HW211550   6.023   2.221   6.190
 3551SOL     OW11551   5.517   1.472   5.301
 3551SOL    HW111552   5.597   1.518   5.339
 3551SOL    HW211553   5.434   1.504   5.347
 3552SOL     OW11554   0.180   0.189   3.297
 3552SOL    HW111555   0.099   0.145   3.257
 3552SOL    HW211556   0.235   0.121   3.344
 3553SOL     OW11557   6.302   5.943   6.028
 3553SOL    HW111558   6.311   5.845   6.044
 3553SOL    HW211559   6.338   5.965   5.936
 3554SOL     OW11560   4.896   4.466   6.815
 3554SOL    HW111561   4.962   4.418   6.873
 3554SOL    HW211562   4.943   4.537   6.764
 3555SOL     OW11563   2.720   1.034   5.134
 3555SOL    HW111564   2.747   1.099   5.205
 3555SOL    HW211565   2.632   1.061   5.096
 3556SOL     OW11566   6.483   0.689   0.385
 3556SOL    HW111567   6.554   0.619   0.396
 3556SOL    HW211568   6.501   0.765   0.447
 3557SOL     OW11569   4.894   6.498   1.930
 3557SOL    HW111570   4.833   6.478   1.853
 3557SOL    HW211571   4.860   6.451   2.011
 3558SOL     OW11572   4.282   5.710   2.252
 3558SOL    HW111573   4.274   5.611   2.265
 3558SOL    HW211574   4.197   5.745   2.212
 3559SOL     OW11575   3.632   6.795   6.446
 3559SOL    HW111576   3.719   6.786   6.493
 3559SOL    HW211577   3.578   6.712   6.459
 3560SOL     OW11578   2.401   6.201   4.382
 3560SOL    HW111579   2.393   6.117   4.434
 3560SOL    HW211580   2.408   6.179   4.284
 3561SOL     OW11581   3.915   2.930   5.617
 3561SOL    HW111582   4.001   2.959   5.660
 3561SOL    HW211583   3.924   2.835   5.587
 3562SOL     OW11584   2.507   0.963   0.575
 3562SOL    HW111585   2.537   1.037   0.516
 3562SOL    HW211586   2.437   0.998   0.639
 3563SOL     OW11587   0.415   2.482   0.072
 3563SOL    HW111588   0.427   2.521   7.008
 3563SOL    HW211589   0.396   2.384   0.064
 3564SOL     OW11590   6.430   3.889   2.660
 3564SOL    HW111591   6.422   3.842   2.572
 3564SOL    HW211592   6.396   3.830   2.733
 3565SOL     OW11593   4.721   6.277   5.378
 3565SOL    HW111594   4.774   6.260   5.295
 3565SOL    HW211595   4.760   6.355   5.427
 3566SOL     OW11596   0.985   0.820   5.766
 3566SOL    HW111597   1.018   0.783   5.853
 3566SOL    HW211598   1.064   0.845   5.709
 3567SOL     OW11599   6.997   4.467   6.790
 3567SOL    HW111600   0.016   4.549   6.825
 3567SOL    HW211601   6.975   4.407   6.867
 3568SOL     OW11602   4.184   3.873   5.520
 3568SOL    HW111603   4.087   3.890   5.540
 3568SOL    HW211604   4.239   3.951   5.550
 3569SOL     OW11605   1.760   0.198   3.383
 3569SOL    HW111606   1.710   0.261   3.325
 3569SOL    HW211607   1.778   0.241   3.472
 3570SOL     OW11608   5.903   1.817   4.603
 3570SOL    HW111609   5.849   1.900   4.587
 3570SOL    HW211610   5.845   1.746   4.642
 3571SOL     OW11611   5.821   5.797   4.390
 3571SOL    HW111612   5.904   5.818   4.443
 3571SOL    HW211613   5.838   5.813   4.293
 3572SOL     OW11614   6.204   6.960   5.348
 3572SOL    HW111615   6.112   6.966   5.387
 3572SOL    HW211616   6.243   0.025   5.340
 3573SOL     OW11617   0.415   2.092   1.195
 3573SOL    HW111618   0.403   2.136   1.106
 3573SOL    HW211619   0.467   2.152   1.256
 3574SOL     OW11620   5.949   3.765   6.725
 3574SOL    HW111621   6.008   3.706   6.780
 3574SOL    HW211622   5.944   3.729   6.631
 3575SOL     OW11623   6.506   6.763   1.689
 3575SOL    HW111624   6.465   6.846   1.727
 3575SOL    HW211625   6.464   6.683   1.732
 3576SOL     OW11626   6.844   0.265   7.022
 3576SOL    HW111627   6.924   0.243   0.050
 3576SOL    HW211628   6.863   0.243   6.926
 3577SOL     OW11629   2.201   4.313   6.947
 3577SOL    HW111630   2.141   4.350   7.018
 3577SOL    HW211631   2.222   4.385   6.881
 3578SOL     OW11632   3.681   4.494   1.653
 3578SOL    HW111633   3.596   4.478   1.703
 3578SOL    HW211634   3.726   4.407   1.636
 3579SOL     OW11635   1.801   3.906   5.496
 3579SOL    HW111636   1.894   3.939   5.478
 3579SOL    HW211637   1.739   3.938   5.425
 3580SOL     OW11638   6.450   2.594   0.723
 3580SOL    HW111639   6.485   2.587   0.817
 3580SOL    HW211640   6.524   2.619   0.662
 3581SOL     OW11641   6.924   0.863   3.347
 3581SOL    HW111642   6.920   0.766   3.369
 3581SOL    HW211643   7.016   0.899   3.365
 3582SOL     OW11644   0.184   0.058   5.631
 3582SOL    HW111645   0.116   0.029   5.564
 3582SOL    HW211646   0.160   0.021   5.721
 3583SOL     OW11647   0.932   5.436   1.739
 3583SOL    HW111648   0.940   5.426   1.639
 3583SOL    HW211649   0.836   5.437   1.764
 3584SOL     OW11650   5.975   0.720   5.348
 3584SOL    HW111651   5.947   0.747   5.256
 3584SOL    HW211652   5.928   0.636   5.375
 3585SOL     OW11653   2.146   4.813   3.304
 3585SOL    HW111654   2.223   4.864   3.264
 3585SOL    HW211655   2.176   4.771   3.390
 3586SOL     OW11656   0.858   1.059   6.174
 3586SOL    HW111657   0.862   0.994   6.098
 3586SOL    HW211658   0.785   1.125   6.156
 3587SOL     OW11659   3.460   6.601   6.474
 3587SOL    HW111660   3.427   6.507   6.464
 3587SOL    HW211661   3.391   6.655   6.522
 3588SOL     OW11662   2.574   2.304   5.613
 3588SOL    HW111663   2.499   2.369   5.604
 3588SOL    HW211664   2.563   2.230   5.547
 3589SOL     OW11665   3.390   6.884   4.299
 3589SOL    HW111666   3.337   6.800   4.292
 3589SOL    HW211667   3.422   6.895   4.393
 3590SOL     OW11668   1.172   5.671   6.483
 3590SOL    HW111669   1.209   5.751   6.436
 3590SOL    HW211670   1.245   5.627   6.536
 3591SOL     OW11671   5.142   1.994   4.995
 3591SOL    HW111672   5.104   2.024   5.083
 3591SOL    HW211673   5.207   2.063   4.962
 3592SOL     OW11674   5.793   1.887   1.730
 3592SOL    HW111675   5.832   1.899   1.822
 3592SOL    HW211676   5.808   1.793   1.700
 3593SOL     OW11677   1.128   5.561   4.494
 3593SOL    HW111678   1.085   5.514   4.571
 3593SOL    HW211679   1.183   5.637   4.528
 3594SOL     OW11680   4.241   1.562   4.562
 3594SOL    HW111681   4.147   1.534   4.543
 3594SOL    HW211682   4.254   1.568   4.661
 3595SOL     OW11683   2.200   6.328   5.563
 3595SOL    HW111684   2.104   6.316   5.589
 3595SOL    HW211685   2.208   6.406   5.501
 3596SOL     OW11686   0.424   3.468   3.559
 3596SOL    HW111687   0.391   3.494   3.468
 3596SOL    HW211688   0.436   3.368   3.562
 3597SOL     OW11689   3.909   0.087   3.889
 3597SOL    HW111690   3.891   0.002   3.841
 3597SOL    HW211691   3.990   0.076   3.947
 3598SOL     OW11692   1.494   0.403   6.788
 3598SOL    HW111693   1.580   0.450   6.810
 3598SOL    HW211694   1.514   0.320   6.735
 3599SOL     OW11695   6.766   1.857   4.240
 3599SOL    HW111696   6.713   1.776   4.263
 3599SOL    HW211697   6.767   1.921   4.317
 3600SOL     OW11698   6.298   0.294   1.116
 3600SOL    HW111699   6.234   0.248   1.177
 3600SOL    HW211700   6.352   0.361   1.168
 3601SOL     OW11701   5.942   3.883   5.858
 3601SOL    HW111702   6.009   3.862   5.787
 3601SOL    HW211703   5.972   3.964   5.909
 3602SOL     OW11704   2.787   2.015   1.294
 3602SOL    HW111705   2.791   1.989   1.197
 3602SOL    HW211706   2.877   2.045   1.325
 3603SOL     OW11707   4.460   4.951   4.608
 3603SOL    HW111708   4.376   5.004   4.615
 3603SOL    HW211709   4.529   5.004   4.559
 3604SOL     OW11710   6.211   4.111   3.296
 3604SOL    HW111711   6.200   4.020   3.256
 3604SOL    HW211712   6.127   4.165   3.281
 3605SOL     OW11713   6.304   2.406   6.422
 3605SOL    HW111714   6.258   2.492   6.445
 3605SOL    HW211715   6.244   2.329   6.446
 3606SOL     OW11716   2.089   3.933   3.179
 3606SOL    HW111717   2.144   3.923   3.096
 3606SOL    HW211718   2.147   3.965   3.254
 3607SOL     OW11719   4.202   0.149   6.839
 3607SOL    HW111720   4.165   0.072   6.893
 3607SOL    HW211721   4.215   0.120   6.744
 3608SOL     OW11722   0.779   3.057   3.271
 3608SOL    HW111723   0.778   2.957   3.268
 3608SOL    HW211724   0.868   3.090   3.242
 3609SOL     OW11725   6.918   0.134   4.208
 3609SOL    HW111726   6.919   0.116   4.306
 3609SOL    HW211727   6.872   0.060   4.160
 3610SOL     OW11728   1.648   5.376   5.930
 3610SOL    HW111729   1.677   5.297   5.984
 3610SOL    HW211730   1.718   5.397   5.862
 3611SOL     OW11731   4.452   5.521   5.390
 3611SOL    HW111732   4.544   5.547   5.422
 3611SOL    HW211733   4.429   5.575   5.309
 3612SOL     OW11734   2.031   6.170   1.006
 3612SOL    HW111735   2.120   6.126   0.995
 3612SOL    HW211736   1.993   6.148   1.096
 3613SOL     OW11737   4.872   5.163   5.751
 3613SOL    HW111738   4.964   5.189   5.779
 3613SOL    HW211739   4.809   5.174   5.829
 3614SOL     OW11740   3.351   2.879   4.719
 3614SOL    HW111741   3.450   2.892   4.715
 3614SOL    HW211742   3.315   2.866   4.627
 3615SOL     OW11743   5.601   6.391   6.131
 3615SOL    HW111744   5.636   6.307   6.088
 3615SOL    HW211745   5.666   6.466   6.115
 3616SOL     OW11746   6.147   0.864   4.491
 3616SOL    HW111747   6.115   0.793   4.554
 3616SOL    HW211748   6.070   0.921   4.463
 3617SOL     OW11749   0.025   0.743   6.959
 3617SOL    HW111750   0.093   0.702   6.899
 3617SOL    HW211751   6.966   0.691   6.953
 3618SOL     OW11752   2.699   6.119   5.981
 3618SOL    HW111753   2.708   6.027   6.019
 3618SOL    HW211754   2.647   6.176   6.044
 3619SOL     OW11755   5.222   3.791   3.456
 3619SOL    HW111756   5.240   3.868   3.518
 3619SOL    HW211757   5.285   3.796   3.378
 3620SOL     OW11758   5.870   1.453   5.112
 3620SOL    HW111759   5.904   1.441   5.206
 3620SOL    HW211760   5.860   1.363   5.070
 3621SOL     OW11761   1.556   2.991   5.511
 3621SOL    HW111762   1.650   3.018   5.490
 3621SOL    HW211763   1.553   2.892   5.531
 3622SOL     OW11764   0.532   3.694   1.219
 3622SOL    HW111765   0.629   3.709   1.238
 3622SOL    HW211766   0.500   3.612   1.266
 3623SOL     OW11767   6.967   5.049   4.183
 3623SOL    HW111768   6.876   5.019   4.155
 3623SOL    HW211769   6.976   5.041   4.283
 3624SOL     OW11770   2.250   0.900   1.882
 3624SOL    HW111771   2.196   0.886   1.965
 3624SOL    HW211772   2.203   0.858   1.805
 3625SOL     OW11773   1.030   3.288   4.388
 3625SOL    HW111774   0.958   3.231   4.349
 3625SOL    HW211775   1.065   3.349   4.317
 3626SOL     OW11776   2.459   4.222   5.472
 3626SOL    HW111777   2.409   4.242   5.556
 3626SOL    HW211778   2.545   4.274   5.472
 3627SOL     OW11779   3.076   3.138   4.053
 3627SOL    HW111780   3.030   3.208   4.109
 3627SOL    HW211781   3.035   3.137   3.962
 3628SOL     OW11782   3.274   5.793   4.012
 3628SOL    HW111783   3.369   5.822   4.023
 3628SOL    HW211784   3.262   5.751   3.921
 3629SOL     OW11785   5.504   3.115   5.404
 3629SOL    HW111786   5.522   3.178   5.328
 3629SOL    HW211787   5.436   3.155   5.465
 3630SOL     OW11788   5.440   1.131   4.946
 3630SOL    HW111789   5.462   1.177   5.032
 3630SOL    HW211790   5.444   1.197   4.871
 3631SOL     OW11791   2.069   1.182   3.945
 3631SOL    HW111792   2.161   1.220   3.930
 3631SOL    HW211793   2.001   1.250   3.919
 3632SOL     OW11794   4.304   6.755   6.176
 3632SOL    HW111795   4.222   6.780   6.228
 3632SOL    HW211796   4.346   6.674   6.216
 3633SOL     OW11797   1.181   3.321   5.528
 3633SOL    HW111798   1.187   3.420   5.534
 3633SOL    HW211799   1.165   3.294   5.433
 3634SOL     OW11800   2.926   4.999   5.866
 3634SOL    HW111801   2.912   5.060   5.945
 3634SOL    HW211802   2.987   5.044   5.800
 3635SOL     OW11803   1.766   1.119   5.080
 3635SOL    HW111804   1.814   1.125   5.168
 3635SOL    HW211805   1.683   1.065   5.091
 3636SOL     OW11806   1.223   6.126   0.170
 3636SOL    HW111807   1.153   6.147   0.102
 3636SOL    HW211808   1.310   6.168   0.144
 3637SOL     OW11809   4.746   0.872   1.610
 3637SOL    HW111810   4.774   0.794   1.554
 3637SOL    HW211811   4.818   0.893   1.676
 3638SOL     OW11812   6.256   4.785   3.505
 3638SOL    HW111813   6.167   4.807   3.544
 3638SOL    HW211814   6.244   4.736   3.419
 3639SOL     OW11815   2.793   6.008   0.283
 3639SOL    HW111816   2.809   5.973   0.190
 3639SOL    HW211817   2.700   6.042   0.290
 3640SOL     OW11818   2.107   6.836   1.622
 3640SOL    HW111819   2.131   6.757   1.566
 3640SOL    HW211820   2.100   6.917   1.563
 3641SOL     OW11821   2.532   0.773   4.577
 3641SOL    HW111822   2.546   0.689   4.525
 3641SOL    HW211823   2.437   0.803   4.568
 3642SOL     OW11824   5.820   6.641   2.322
 3642SOL    HW111825   5.819   6.541   2.328
 3642SOL    HW211826   5.870   6.678   2.400
 3643SOL     OW11827   3.836   5.278   5.519
 3643SOL    HW111828   3.830   5.292   5.618
 3643SOL    HW211829   3.751   5.309   5.476
 3644SOL     OW11830   6.747   0.316   1.176
 3644SOL    HW111831   6.823   0.254   1.191
 3644SOL    HW211832   6.736   0.376   1.256
 3645SOL     OW11833   3.870   6.006   2.927
 3645SOL    HW111834   3.868   6.079   2.995
 3645SOL    HW211835   3.869   6.046   2.835
 3646SOL     OW11836   6.805   5.622   4.625
 3646SOL    HW111837   6.890   5.629   4.677
 3646SOL    HW211838   6.801   5.532   4.582
 3647SOL     OW11839   2.920   2.616   1.222
 3647SOL    HW111840   2.915   2.554   1.300
 3647SOL    HW211841   2.984   2.579   1.154
 3648SOL     OW11842   3.153   6.515   3.406
 3648SOL    HW111843   3.061   6.552   3.390
 3648SOL    HW211844   3.218   6.591   3.410
 3649SOL     OW11845   3.178   3.328   2.320
 3649SOL    HW111846   3.091   3.349   2.275
 3649SOL    HW211847   3.210   3.408   2.369
 3650SOL     OW11848   5.446   0.054   1.385
 3650SOL    HW111849   5.363   0.019   1.429
 3650SOL    HW211850   5.431   0.061   1.287
 3651SOL     OW11851   1.245   6.139   2.401
 3651SOL    HW111852   1.180   6.122   2.327
 3651SOL    HW211853   1.281   6.052   2.434
 3652SOL     OW11854   4.723   5.184   2.979
 3652SOL    HW111855   4.630   5.216   2.995
 3652SOL    HW211856   4.731   5.088   3.006
 3653SOL     OW11857   6.241   3.161   4.773
 3653SOL    HW111858   6.218   3.079   4.824
 3653SOL    HW211859   6.341   3.169   4.765
 3654SOL     OW11860   1.212   6.746   1.549
 3654SOL    HW111861   1.268   6.667   1.526
 3654SOL    HW211862   1.235   6.779   1.640
 3655SOL     OW11863   6.828   1.031   3.517
 3655SOL    HW111864   6.847   0.960   3.449
 3655SOL    HW211865   6.886   1.111   3.498
 3656SOL     OW11866   2.655   1.601   3.004
 3656SOL    HW111867   2.645   1.530   3.074
 3656SOL    HW211868   2.566   1.639   2.982
 3657SOL     OW11869   4.797   5.030   2.459
 3657SOL    HW111870   4.809   5.072   2.369
 3657SOL    HW211871   4.731   5.083   2.512
 3658SOL     OW11872   1.851   5.446   5.769
 3658SOL    HW111873   1.901   5.459   5.855
 3658SOL    HW211874   1.877   5.517   5.703
 3659SOL     OW11875   1.315   3.645   0.432
 3659SOL    HW111876   1.376   3.684   0.501
 3659SOL    HW211877   1.348   3.668   0.340
 3660SOL     OW11878   4.000   5.039   1.036
 3660SOL    HW111879   3.963   5.132   1.034
 3660SOL    HW211880   4.061   5.025   0.958
 3661SOL     OW11881   5.040   1.584   1.396
 3661SOL    HW111882   4.972   1.649   1.364
 3661SOL    HW211883   5.130   1.608   1.358
 3662SOL     OW11884   2.425   6.032   4.751
 3662SOL    HW111885   2.519   6.058   4.775
 3662SOL    HW211886   2.420   6.007   4.655
 3663SOL     OW11887   1.585   3.351   5.472
 3663SOL    HW111888   1.632   3.330   5.558
 3663SOL    HW211889   1.532   3.435   5.482
 3664SOL     OW11890   3.594   0.105   2.093
 3664SOL    HW111891   3.656   0.177   2.123
 3664SOL    HW211892   3.537   0.076   2.170
 3665SOL     OW11893   1.803   0.609   5.310
 3665SOL    HW111894   1.870   0.603   5.237
 3665SOL    HW211895   1.821   0.538   5.378
 3666SOL     OW11896   0.730   4.628   4.095
 3666SOL    HW111897   0.820   4.668   4.082
 3666SOL    HW211898   0.715   4.556   4.028
 3667SOL     OW11899   0.760   1.437   6.507
 3667SOL    HW111900   0.821   1.415   6.430
 3667SOL    HW211901   0.699   1.359   6.524
 3668SOL     OW11902   1.617   5.712   1.910
 3668SOL    HW111903   1.658   5.638   1.857
 3668SOL    HW211904   1.688   5.773   1.944
 3669SOL     OW11905   5.737   1.648   3.953
 3669SOL    HW111906   5.729   1.558   3.909
 3669SOL    HW211907   5.772   1.637   4.046
 3670SOL     OW11908   2.194   5.470   6.407
 3670SOL    HW111909   2.294   5.463   6.407
 3670SOL    HW211910   2.161   5.467   6.501
 3671SOL     OW11911   1.917   0.725   3.411
 3671SOL    HW111912   1.863   0.665   3.351
 3671SOL    HW211913   1.982   0.669   3.463
 3672SOL     OW11914   6.411   0.045   0.568
 3672SOL    HW111915   6.313   0.025   0.578
 3672SOL    HW211916   6.452   0.056   0.658
 3673SOL     OW11917   4.459   0.510   6.839
 3673SOL    HW111918   4.501   0.419   6.838
 3673SOL    HW211919   4.515   0.573   6.786
 3674SOL     OW11920   1.406   6.421   0.755
 3674SOL    HW111921   1.372   6.450   0.665
 3674SOL    HW211922   1.470   6.345   0.744
 3675SOL     OW11923   1.901   1.929   4.406
 3675SOL    HW111924   1.885   1.982   4.490
 3675SOL    HW211925   1.977   1.970   4.355
 3676SOL     OW11926   1.816   4.859   2.704
 3676SOL    HW111927   1.869   4.779   2.732
 3676SOL    HW211928   1.809   4.923   2.781
 3677SOL     OW11929   6.671   6.804   3.838
 3677SOL    HW111930   6.651   6.737   3.909
 3677SOL    HW211931   6.592   6.812   3.777
 3678SOL     OW11932   1.638   1.926   3.467
 3678SOL    HW111933   1.704   1.854   3.446
 3678SOL    HW211934   1.547   1.899   3.435
 3679SOL     OW11935   6.992   0.906   1.526
 3679SOL    HW111936   0.055   0.934   1.559
 3679SOL    HW211937   7.001   0.852   1.443
 3680SOL     OW11938   6.087   4.529   4.820
 3680SOL    HW111939   6.139   4.475   4.886
 3680SOL    HW211940   6.102   4.626   4.837
 3681SOL     OW11941   5.254   6.180   4.658
 3681SOL    HW111942   5.211   6.090   4.645
 3681SOL    HW211943   5.243   6.235   4.575
 3682SOL     OW11944   0.595   2.351   6.489
 3682SOL    HW111945   0.594   2.263   6.442
 3682SOL    HW211946   0.537   2.347   6.570
 3683SOL     OW11947   5.310   6.078   3.704
 3683SOL    HW111948   5.366   6.051   3.626
 3683SOL    HW211949   5.294   5.999   3.763
 3684SOL     OW11950   1.973   3.168   0.986
 3684SOL    HW111951   1.904   3.100   0.961
 3684SOL    HW211952   2.011   3.145   1.076
 3685SOL     OW11953   6.505   6.822   6.824
 3685SOL    HW111954   6.596   6.852   6.799
 3685SOL    HW211955   6.503   6.801   6.922
 3686SOL     OW11956   6.788   4.409   1.503
 3686SOL    HW111957   6.784   4.320   1.458
 3686SOL    HW211958   6.869   4.414   1.561
 3687SOL     OW11959   3.440   1.184   0.244
 3687SOL    HW111960   3.531   1.163   0.280
 3687SOL    HW211961   3.393   1.246   0.306
 3688SOL     OW11962   6.989   3.429   0.145
 3688SOL    HW111963   6.968   3.355   0.081
 3688SOL    HW211964   6.920   3.430   0.218
 3689SOL     OW11965   3.284   6.981   3.501
 3689SOL    HW111966   3.231   6.995   3.585
 3689SOL    HW211967   3.358   0.021   3.498
 3690SOL     OW11968   4.414   5.874   5.287
 3690SOL    HW111969   4.367   5.889   5.374
 3690SOL    HW211970   4.424   5.962   5.240
 3691SOL     OW11971   3.297   2.924   6.215
 3691SOL    HW111972   3.217   2.919   6.156
 3691SOL    HW211973   3.353   3.003   6.189
 3692SOL     OW11974   0.650   0.107   6.303
 3692SOL    HW111975   0.735   0.151   6.331
 3692SOL    HW211976   0.613   0.154   6.222
 3693SOL     OW11977   2.069   1.350   3.371
 3693SOL    HW111978   2.040   1.326   3.464
 3693SOL    HW211979   2.010   1.305   3.305
 3694SOL     OW11980   2.181   5.377   2.523
 3694SOL    HW111981   2.123   5.455   2.499
 3694SOL    HW211982   2.131   5.292   2.504
 3695SOL     OW11983   1.510   2.745   1.206
 3695SOL    HW111984   1.532   2.768   1.301
 3695SOL    HW211985   1.520   2.827   1.149
 3696SOL     OW11986   3.270   5.861   6.040
 3696SOL    HW111987   3.259   5.805   6.121
 3696SOL    HW211988   3.260   5.804   5.958
 3697SOL     OW11989   5.368   0.531   4.157
 3697SOL    HW111990   5.294   0.529   4.090
 3697SOL    HW211991   5.374   0.442   4.204
 3698SOL     OW11992   3.183   0.305   6.209
 3698SOL    HW111993   3.273   0.342   6.186
 3698SOL    HW211994   3.119   0.380   6.224
 3699SOL     OW11995   1.426   4.502   2.298
 3699SOL    HW111996   1.463   4.594   2.288
 3699SOL    HW211997   1.340   4.494   2.247
 3700SOL     OW11998   0.453   0.286   3.260
 3700SOL    HW111999   0.474   0.367   3.315
 3700SOL    HW212000   0.355   0.266   3.266
 3701SOL     OW12001   5.436   0.472   3.421
 3701SOL    HW112002   5.406   0.546   3.480
 3701SOL    HW212003   5.419   0.496   3.325
 3702SOL     OW12004   4.826   0.876   6.423
 3702SOL    HW112005   4.807   0.969   6.455
 3702SOL    HW212006   4.814   0.872   6.323
 3703SOL     OW12007   4.083   4.580   0.161
 3703SOL    HW112008   4.019   4.517   0.206
 3703SOL    HW212009   4.087   4.665   0.213
 3704SOL     OW12010   2.533   0.017   2.095
 3704SOL    HW112011   2.523   0.116   2.080
 3704SOL    HW212012   2.618   7.013   2.053
 3705SOL     OW12013   5.762   1.232   4.529
 3705SOL    HW112014   5.846   1.287   4.523
 3705SOL    HW212015   5.699   1.260   4.457
 3706SOL     OW12016   2.504   2.580   3.573
 3706SOL    HW112017   2.555   2.576   3.659
 3706SOL    HW212018   2.408   2.601   3.593
 3707SOL     OW12019   4.199   2.245   5.456
 3707SOL    HW112020   4.192   2.188   5.538
 3707SOL    HW212021   4.110   2.248   5.410
 3708SOL     OW12022   6.219   0.059   6.132
 3708SOL    HW112023   6.217   6.990   6.103
 3708SOL    HW212024   6.305   0.101   6.101
 3709SOL     OW12025   5.145   0.883   0.333
 3709SOL    HW112026   5.176   0.853   0.242
 3709SOL    HW212027   5.131   0.982   0.332
 3710SOL     OW12028   0.124   4.785   0.089
 3710SOL    HW112029   0.069   4.724   0.146
 3710SOL    HW212030   0.128   4.749   7.023
 3711SOL     OW12031   6.965   5.075   2.223
 3711SOL    HW112032   6.924   5.032   2.143
 3711SOL    HW212033   0.027   5.114   2.198
 3712SOL     OW12034   1.546   0.368   0.448
 3712SOL    HW112035   1.642   0.350   0.469
 3712SOL    HW212036   1.488   0.312   0.507
 3713SOL     OW12037   3.705   5.270   6.103
 3713SOL    HW112038   3.606   5.262   6.102
 3713SOL    HW212039   3.746   5.186   6.067
 3714SOL     OW12040   4.678   1.492   5.525
 3714SOL    HW112041   4.727   1.577   5.545
 3714SOL    HW212042   4.637   1.498   5.434
 3715SOL     OW12043   5.773   3.975   4.025
 3715SOL    HW112044   5.695   3.914   4.038
 3715SOL    HW212045   5.767   4.052   4.088
 3716SOL     OW12046   0.842   1.546   4.144
 3716SOL    HW112047   0.784   1.465   4.148
 3716SOL    HW212048   0.934   1.523   4.177
 3717SOL     OW12049   6.447   0.536   0.158
 3717SOL    HW112050   6.376   0.564   0.093
 3717SOL    HW212051   6.458   0.606   0.228
 3718SOL     OW12052   0.981   5.443   0.500
 3718SOL    HW112053   0.989   5.447   0.599
 3718SOL    HW212054   0.901   5.388   0.475
 3719SOL     OW12055   3.920   4.997   6.842
 3719SOL    HW112056   3.913   5.092   6.872
 3719SOL    HW212057   3.917   4.993   6.742
 3720SOL     OW12058   0.072   1.379   5.850
 3720SOL    HW112059   0.112   1.445   5.914
 3720SOL    HW212060   7.009   1.350   5.883
 3721SOL     OW12061   4.601   3.737   0.342
 3721SOL    HW112062   4.625   3.686   0.424
 3721SOL    HW212063   4.528   3.689   0.293
 3722SOL     OW12064   5.625   6.134   1.221
 3722SOL    HW112065   5.539   6.161   1.266
 3722SOL    HW212066   5.701   6.184   1.262
 3723SOL     OW12067   4.683   0.945   0.559
 3723SOL    HW112068   4.762   1.006   0.547
 3723SOL    HW212069   4.670   0.892   0.475
 3724SOL     OW12070   0.104   4.911   5.523
 3724SOL    HW112071   0.176   4.956   5.470
 3724SOL    HW212072   0.145   4.839   5.579
 3725SOL     OW12073   6.378   6.345   0.680
 3725SOL    HW112074   6.477   6.357   0.670
 3725SOL    HW212075   6.360   6.266   0.739
 3726SOL     OW12076   6.043   3.512   1.427
 3726SOL    HW112077   6.080   3.518   1.520
 3726SOL    HW212078   5.951   3.553   1.426
 3727SOL     OW12079   2.437   2.731   5.124
 3727SOL    HW112080   2.477   2.822   5.117
 3727SOL    HW212081   2.360   2.733   5.188
 3728SOL     OW12082   0.706   3.534   6.721
 3728SOL    HW112083   0.696   3.602   6.649
 3728SOL    HW212084   0.630   3.469   6.716
 3729SOL     OW12085   0.611   2.430   3.144
 3729SOL    HW112086   0.674   2.377   3.086
 3729SOL    HW212087   0.649   2.436   3.237
 3730SOL     OW12088   2.264   0.447   0.893
 3730SOL    HW112089   2.178   0.496   0.903
 3730SOL    HW212090   2.246   0.349   0.884
 3731SOL     OW12091   3.195   5.998   6.398
 3731SOL    HW112092   3.143   6.072   6.355
 3731SOL    HW212093   3.276   6.035   6.442
 3732SOL     OW12094   2.014   3.680   4.631
 3732SOL    HW112095   2.000   3.594   4.679
 3732SOL    HW212096   2.074   3.739   4.685
 3733SOL     OW12097   3.381   3.091   0.901
 3733SOL    HW112098   3.406   3.067   0.995
 3733SOL    HW212099   3.338   3.012   0.857
 3734SOL     OW12100   5.117   6.764   3.923
 3734SOL    HW112101   5.025   6.790   3.953
 3734SOL    HW212102   5.157   6.838   3.868
 3735SOL     OW12103   3.370   2.019   1.642
 3735SOL    HW112104   3.402   1.944   1.700
 3735SOL    HW212105   3.328   2.089   1.698
 3736SOL     OW12106   4.998   1.153   5.779
 3736SOL    HW112107   5.044   1.221   5.835
 3736SOL    HW212108   4.933   1.198   5.718
 3737SOL     OW12109   3.624   6.671   3.818
 3737SOL    HW112110   3.627   6.735   3.741
 3737SOL    HW212111   3.677   6.710   3.894
 3738SOL     OW12112   0.150   0.189   4.446
 3738SOL    HW112113   0.233   0.136   4.466
 3738SOL    HW212114   0.072   0.146   4.491
 3739SOL     OW12115   0.996   3.354   2.048
 3739SOL    HW112116   1.062   3.289   2.009
 3739SOL    HW212117   0.987   3.337   2.146
 3740SOL     OW12118   5.644   0.459   6.958
 3740SOL    HW112119   5.644   0.374   7.011
 3740SOL    HW212120   5.550   0.482   6.933
 3741SOL     OW12121   3.479   2.279   6.919
 3741SOL    HW112122   3.517   2.344   6.854
 3741SOL    HW212123   3.382   2.265   6.901
 3742SOL     OW12124   3.378   3.439   5.497
 3742SOL    HW112125   3.343   3.354   5.457
 3742SOL    HW212126   3.411   3.498   5.423
 3743SOL     OW12127   1.260   5.750   5.879
 3743SOL    HW112128   1.190   5.750   5.950
 3743SOL    HW212129   1.343   5.794   5.914
 3744SOL     OW12130   6.909   5.342   3.158
 3744SOL    HW112131   6.991   5.370   3.108
 3744SOL    HW212132   6.855   5.423   3.181
 3745SOL     OW12133   5.247   6.031   1.608
 3745SOL    HW112134   5.260   6.125   1.639
 3745SOL    HW212135   5.234   6.030   1.509
 3746SOL     OW12136   4.364   1.503   1.864
 3746SOL    HW112137   4.413   1.485   1.778
 3746SOL    HW212138   4.297   1.431   1.880
 3747SOL     OW12139   2.419   0.108   0.774
 3747SOL    HW112140   2.359   0.156   0.710
 3747SOL    HW212141   2.455   0.025   0.729
 3748SOL     OW12142   5.328   0.563   1.936
 3748SOL    HW112143   5.230   0.580   1.941
 3748SOL    HW212144   5.355   0.502   2.010
 3749SOL     OW12145   1.787   0.552   4.067
 3749SOL    HW112146   1.820   0.645   4.054
 3749SOL    HW212147   1.712   0.534   4.004
 3750SOL     OW12148   0.142   4.315   6.336
 3750SOL    HW112149   0.223   4.320   6.394
 3750SOL    HW212150   0.098   4.404   6.332
 3751SOL     OW12151   1.643   4.083   1.522
 3751SOL    HW112152   1.715   4.036   1.471
 3751SOL    HW212153   1.682   4.122   1.606
 3752SOL     OW12154   5.244   6.057   0.169
 3752SOL    HW112155   5.296   5.982   0.128
 3752SOL    HW212156   5.290   6.144   0.148
 3753SOL     OW12157   0.406   6.885   3.283
 3753SOL    HW112158   0.479   6.952   3.265
 3753SOL    HW212159   0.345   6.921   3.353
 3754SOL     OW12160   2.302   1.565   1.560
 3754SOL    HW112161   2.329   1.589   1.653
 3754SOL    HW212162   2.358   1.617   1.495
 3755SOL     OW12163   3.194   5.442   4.518
 3755SOL    HW112164   3.127   5.498   4.470
 3755SOL    HW212165   3.187   5.457   4.616
 3756SOL     OW12166   1.382   6.993   0.955
 3756SOL    HW112167   1.474   6.965   0.929
 3756SOL    HW212168   1.315   6.949   0.894
 3757SOL     OW12169   0.453   4.190   1.192
 3757SOL    HW112170   0.375   4.250   1.176
 3757SOL    HW212171   0.536   4.233   1.155
 3758SOL     OW12172   1.702   6.856   3.864
 3758SOL    HW112173   1.724   6.858   3.962
 3758SOL    HW212174   1.664   6.767   3.840
 3759SOL     OW12175   5.477   0.219   4.199
 3759SOL    HW112176   5.417   0.140   4.183
 3759SOL    HW212177   5.567   0.201   4.161
 3760SOL     OW12178   0.942   0.955   2.796
 3760SOL    HW112179   1.039   0.943   2.815
 3760SOL    HW212180   0.926   1.049   2.763
 3761SOL     OW12181   4.143   2.074   5.662
 3761SOL    HW112182   4.082   1.995   5.662
 3761SOL    HW212183   4.234   2.047   5.695
 3762SOL     OW12184   0.563   3.006   3.868
 3762SOL    HW112185   0.580   3.096   3.828
 3762SOL    HW212186   0.558   2.937   3.796
 3763SOL     OW12187   0.538   5.269   6.723
 3763SOL    HW112188   0.596   5.207   6.670
 3763SOL    HW212189   0.448   5.228   6.734
 3764SOL     OW12190   2.754   1.103   2.488
 3764SOL    HW112191   2.778   1.153   2.571
 3764SOL    HW212192   2.656   1.082   2.489
 3765SOL     OW12193   5.695   2.642   2.796
 3765SOL    HW112194   5.718   2.685   2.708
 3765SOL    HW212195   5.717   2.545   2.793
 3766SOL     OW12196   1.414   2.988   2.128
 3766SOL    HW112197   1.437   3.006   2.223
 3766SOL    HW212198   1.497   2.964   2.077
 3767SOL     OW12199   1.539   5.897   5.781
 3767SOL    HW112200   1.510   5.802   5.769
 3767SOL    HW212201   1.549   5.941   5.692
 3768SOL     OW12202   1.694   6.707   2.684
 3768SOL    HW112203   1.632   6.752   2.748
 3768SOL    HW212204   1.642   6.649   2.621
 3769SOL     OW12205   5.142   5.539   4.214
 3769SOL    HW112206   5.169   5.504   4.124
 3769SOL    HW212207   5.207   5.609   4.244
 3770SOL     OW12208   2.940   0.739   1.784
 3770SOL    HW112209   2.889   0.733   1.870
 3770SOL    HW212210   2.943   0.648   1.742
 3771SOL     OW12211   7.014   6.030   5.494
 3771SOL    HW112212   0.041   6.003   5.574
 3771SOL    HW212213   6.920   5.998   5.505
 3772SOL     OW12214   1.391   6.282   1.988
 3772SOL    HW112215   1.339   6.222   1.927
 3772SOL    HW212216   1.401   6.237   2.077
 3773SOL     OW12217   5.011   5.211   0.083
 3773SOL    HW112218   5.096   5.160   0.091
 3773SOL    HW212219   4.933   5.149   0.096
 3774SOL     OW12220   6.749   4.685   1.901
 3774SOL    HW112221   6.718   4.672   1.807
 3774SOL    HW212222   6.690   4.633   1.963
 3775SOL     OW12223   5.135   5.051   4.802
 3775SOL    HW112224   5.176   5.125   4.748
 3775SOL    HW212225   5.192   5.032   4.882
 3776SOL     OW12226   4.416   3.125   6.573
 3776SOL    HW112227   4.367   3.113   6.486
 3776SOL    HW212228   4.424   3.222   6.594
 3777SOL     OW12229   2.952   5.193   4.047
 3777SOL    HW112230   2.925   5.108   4.002
 3777SOL    HW212231   3.039   5.179   4.095
 3778SOL     OW12232   3.252   5.063   6.743
 3778SOL    HW112233   3.157   5.090   6.756
 3778SOL    HW212234   3.293   5.120   6.671
 3779SOL     OW12235   6.745   4.719   6.869
 3779SOL    HW112236   6.731   4.816   6.886
 3779SOL    HW212237   6.744   4.669   6.956
 3780SOL     OW12238   5.873   3.459   1.914
 3780SOL    HW112239   5.827   3.543   1.886
 3780SOL    HW212240   5.805   3.388   1.934
 3781SOL     OW12241   1.447   6.622   5.646
 3781SOL    HW112242   1.540   6.634   5.612
 3781SOL    HW212243   1.447   6.555   5.720
 3782SOL     OW12244   4.140   5.501   0.605
 3782SOL    HW112245   4.053   5.509   0.653
 3782SOL    HW212246   4.153   5.406   0.575
 3783SOL     OW12247   4.666   5.249   5.017
 3783SOL    HW112248   4.740   5.233   4.952
 3783SOL    HW212249   4.679   5.338   5.062
 3784SOL     OW12250   5.111   2.839   5.502
 3784SOL    HW112251   5.169   2.759   5.486
 3784SOL    HW212252   5.148   2.892   5.579
 3785SOL     OW12253   1.090   2.405   2.922
 3785SOL    HW112254   1.088   2.341   3.000
 3785SOL    HW212255   1.184   2.435   2.907
 3786SOL     OW12256   1.829   3.510   4.480
 3786SOL    HW112257   1.913   3.456   4.480
 3786SOL    HW212258   1.850   3.604   4.507
 3787SOL     OW12259   5.429   6.333   4.065
 3787SOL    HW112260   5.400   6.422   4.101
 3787SOL    HW212261   5.446   6.341   3.966
 3788SOL     OW12262   5.052   3.163   5.918
 3788SOL    HW112263   4.959   3.193   5.939
 3788SOL    HW212264   5.104   3.155   6.003
 3789SOL     OW12265   2.127   3.134   1.247
 3789SOL    HW112266   2.159   3.092   1.333
 3789SOL    HW212267   2.166   3.225   1.239
 3790SOL     OW12268   0.885   6.839   1.574
 3790SOL    HW112269   0.983   6.853   1.562
 3790SOL    HW212270   0.841   6.925   1.600
 3791SOL     OW12271   4.899   0.570   4.778
 3791SOL    HW112272   4.901   0.670   4.774
 3791SOL    HW212273   4.904   0.540   4.873
 3792SOL     OW12274   6.680   0.317   3.971
 3792SOL    HW112275   6.611   0.387   3.991
 3792SOL    HW212276   6.767   0.343   4.011
 3793SOL     OW12277   3.908   4.695   0.757
 3793SOL    HW112278   3.845   4.626   0.721
 3793SOL    HW212279   3.988   4.701   0.697
 3794SOL     OW12280   1.656   5.141   6.095
 3794SOL    HW112281   1.565   5.147   6.135
 3794SOL    HW212282   1.670   5.049   6.058
 3795SOL     OW12283   3.014   6.347   0.782
 3795SOL    HW112284   3.094   6.400   0.812
 3795SOL    HW212285   2.939   6.361   0.846
 3796SOL     OW12286   4.994   1.204   0.090
 3796SOL    HW112287   5.036   1.117   0.064
 3796SOL    HW212288   4.979   1.260   0.009
 3797SOL     OW12289   0.008   3.364   1.421
 3797SOL    HW112290   0.054   3.429   1.360
 3797SOL    HW212291   0.046   3.371   1.513
 3798SOL     OW12292   1.142   5.244   3.953
 3798SOL    HW112293   1.089   5.323   3.981
 3798SOL    HW212294   1.224   5.236   4.011
 3799SOL     OW12295   0.264   0.806   3.680
 3799SOL    HW112296   0.289   0.881   3.741
 3799SOL    HW212297   0.340   0.787   3.617
 3800SOL     OW12298   5.503   2.524   3.123
 3800SOL    HW112299   5.531   2.465   3.199
 3800SOL    HW212300   5.566   2.601   3.115
 3801SOL     OW12301   5.942   0.822   0.844
 3801SOL    HW112302   5.964   0.737   0.795
 3801SOL    HW212303   6.022   0.882   0.845
 3802SOL     OW12304   6.621   3.320   1.864
 3802SOL    HW112305   6.543   3.382   1.869
 3802SOL    HW212306   6.644   3.289   1.957
 3803SOL     OW12307   4.395   3.847   5.307
 3803SOL    HW112308   4.347   3.870   5.391
 3803SOL    HW212309   4.339   3.784   5.253
 3804SOL     OW12310   3.868   6.538   3.605
 3804SOL    HW112311   3.792   6.504   3.550
 3804SOL    HW212312   3.856   6.636   3.622
 3805SOL     OW12313   2.576   2.298   6.451
 3805SOL    HW112314   2.585   2.231   6.525
 3805SOL    HW212315   2.569   2.390   6.490
 3806SOL     OW12316   2.166   5.094   1.551
 3806SOL    HW112317   2.230   5.035   1.501
 3806SOL    HW212318   2.148   5.056   1.642
 3807SOL     OW12319   1.491   4.208   3.601
 3807SOL    HW112320   1.404   4.221   3.552
 3807SOL    HW212321   1.566   4.207   3.535
 3808SOL     OW12322   2.779   6.555   6.063
 3808SOL    HW112323   2.706   6.624   6.061
 3808SOL    HW212324   2.866   6.597   6.040
 3809SOL     OW12325   5.457   1.801   1.706
 3809SOL    HW112326   5.551   1.827   1.685
 3809SOL    HW212327   5.417   1.868   1.769
 3810SOL     OW12328   4.634   2.300   2.899
 3810SOL    HW112329   4.623   2.242   2.818
 3810SOL    HW212330   4.638   2.242   2.981
 3811SOL     OW12331   0.071   5.911   5.258
 3811SOL    HW112332   0.043   5.983   5.321
 3811SOL    HW212333   0.164   5.930   5.225
 3812SOL     OW12334   4.344   5.930   0.177
 3812SOL    HW112335   4.381   5.838   0.164
 3812SOL    HW212336   4.255   5.924   0.221
 3813SOL     OW12337   5.854   4.254   6.925
 3813SOL    HW112338   5.842   4.353   6.911
 3813SOL    HW212339   5.831   4.231   7.020
 3814SOL     OW12340   0.170   0.204   4.828
 3814SOL    HW112341   0.194   0.274   4.761
 3814SOL    HW212342   0.244   0.194   4.894
 3815SOL     OW12343   5.972   3.569   6.181
 3815SOL    HW112344   6.003   3.656   6.219
 3815SOL    HW212345   5.883   3.546   6.220
 3816SOL     OW12346   6.384   6.263   1.092
 3816SOL    HW112347   6.473   6.232   1.060
 3816SOL    HW212348   6.393   6.305   1.182
 3817SOL     OW12349   4.336   3.680   1.677
 3817SOL    HW112350   4.421   3.733   1.683
 3817SOL    HW212351   4.279   3.718   1.604
 3818SOL     OW12352   5.596   6.452   2.366
 3818SOL    HW112353   5.570   6.355   2.363
 3818SOL    HW212354   5.609   6.479   2.461
 3819SOL     OW12355   6.301   3.439   3.241
 3819SOL    HW112356   6.338   3.525   3.206
 3819SOL    HW212357   6.348   3.415   3.327
 3820SOL     OW12358   3.485   6.403   5.551
 3820SOL    HW112359   3.446   6.415   5.460
 3820SOL    HW212360   3.451   6.474   5.612
 3821SOL     OW12361   1.785   0.097   0.679
 3821SOL    HW112362   1.769   0.006   0.642
 3821SOL    HW212363   1.787   0.093   0.779
 3822SOL     OW12364   4.864   6.889   2.221
 3822SOL    HW112365   4.956   6.865   2.253
 3822SOL    HW212366   4.863   6.888   2.121
 3823SOL     OW12367   5.299   6.372   5.501
 3823SOL    HW112368   5.290   6.454   5.444
 3823SOL    HW212369   5.318   6.293   5.443
 3824SOL     OW12370   2.405   2.834   0.508
 3824SOL    HW112371   2.367   2.785   0.587
 3824SOL    HW212372   2.358   2.921   0.498
 3825SOL     OW12373   0.248   5.141   5.851
 3825SOL    HW112374   0.177   5.071   5.840
 3825SOL    HW212375   0.295   5.154   5.764
 3826SOL     OW12376   5.452   3.507   3.154
 3826SOL    HW112377   5.388   3.506   3.077
 3826SOL    HW212378   5.402   3.527   3.239
 3827SOL     OW12379   0.142   1.659   0.105
 3827SOL    HW112380   0.073   1.644   0.176
 3827SOL    HW212381   0.117   1.739   0.051
 3828SOL     OW12382   4.129   3.326   3.720
 3828SOL    HW112383   4.138   3.341   3.819
 3828SOL    HW212384   4.172   3.240   3.695
 3829SOL     OW12385   0.653   3.605   1.984
 3829SOL    HW112386   0.743   3.637   2.013
 3829SOL    HW212387   0.663   3.530   1.919
 3830SOL     OW12388   5.893   0.470   3.397
 3830SOL    HW112389   5.903   0.569   3.413
 3830SOL    HW212390   5.864   0.426   3.482
 3831SOL     OW12391   4.697   2.165   3.127
 3831SOL    HW112392   4.774   2.229   3.121
 3831SOL    HW212393   4.725   2.085   3.180
 3832SOL     OW12394   6.660   0.774   3.768
 3832SOL    HW112395   6.725   0.834   3.814
 3832SOL    HW212396   6.704   0.734   3.687
 3833SOL     OW12397   1.762   2.757   5.249
 3833SOL    HW112398   1.726   2.750   5.156
 3833SOL    HW212399   1.690   2.734   5.315
 3834SOL     OW12400   5.204   4.580   1.055
 3834SOL    HW112401   5.185   4.622   1.144
 3834SOL    HW212402   5.128   4.521   1.029
 3835SOL     OW12403   4.134   5.466   5.372
 3835SOL    HW112404   4.229   5.494   5.382
 3835SOL    HW212405   4.087   5.475   5.460
 3836SOL     OW12406   6.676   6.126   5.055
 3836SOL    HW112407   6.629   6.154   5.139
 3836SOL    HW212408   6.735   6.201   5.024
 3837SOL     OW12409   4.308   4.788   6.021
 3837SOL    HW112410   4.319   4.753   6.114
 3837SOL    HW212411   4.241   4.732   5.972
 3838SOL     OW12412   6.903   0.402   4.151
 3838SOL    HW112413   6.912   0.305   4.173
 3838SOL    HW212414   6.961   0.456   4.213
 3839SOL     OW12415   5.074   0.771   3.751
 3839SOL    HW112416   5.095   0.867   3.768
 3839SOL    HW212417   5.133   0.713   3.806
 3840SOL     OW12418   3.361   1.079   6.474
 3840SOL    HW112419   3.284   1.139   6.453
 3840SOL    HW212420   3.446   1.122   6.446
 3841SOL     OW12421   5.961   4.241   3.880
 3841SOL    HW112422   5.951   4.193   3.968
 3841SOL    HW212423   6.009   4.327   3.895
 3842SOL     OW12424   2.039   4.106   5.644
 3842SOL    HW112425   2.088   4.019   5.634
 3842SOL    HW212426   1.979   4.101   5.724
 3843SOL     OW12427   5.172   2.126   6.433
 3843SOL    HW112428   5.174   2.194   6.507
 3843SOL    HW212429   5.093   2.066   6.446
 3844SOL     OW12430   7.007   0.690   1.043
 3844SOL    HW112431   6.978   0.605   1.001
 3844SOL    HW212432   0.029   0.746   0.976
 3845SOL     OW12433   1.636   5.811   0.587
 3845SOL    HW112434   1.702   5.804   0.661
 3845SOL    HW212435   1.649   5.735   0.523
 3846SOL     OW12436   0.469   3.109   2.657
 3846SOL    HW112437   0.489   3.172   2.581
 3846SOL    HW212438   0.399   3.044   2.628
 3847SOL     OW12439   0.284   1.740   6.696
 3847SOL    HW112440   0.361   1.790   6.656
 3847SOL    HW212441   0.200   1.765   6.648
 3848SOL     OW12442   6.074   4.220   1.813
 3848SOL    HW112443   6.104   4.129   1.844
 3848SOL    HW212444   6.006   4.210   1.741
 3849SOL     OW12445   6.895   4.797   6.028
 3849SOL    HW112446   6.941   4.708   6.023
 3849SOL    HW212447   6.876   4.820   6.123
 3850SOL     OW12448   2.956   2.430   1.401
 3850SOL    HW112449   2.919   2.401   1.489
 3850SOL    HW212450   2.969   2.349   1.342
 3851SOL     OW12451   0.250   6.449   2.822
 3851SOL    HW112452   0.300   6.512   2.763
 3851SOL    HW212453   0.154   6.448   2.796
 3852SOL     OW12454   1.451   0.215   4.590
 3852SOL    HW112455   1.517   0.143   4.567
 3852SOL    HW212456   1.373   0.174   4.637
 3853SOL     OW12457   3.082   0.647   3.492
 3853SOL    HW112458   3.017   0.723   3.484
 3853SOL    HW212459   3.051   0.571   3.436
 3854SOL     OW12460   0.135   2.293   1.885
 3854SOL    HW112461   0.151   2.367   1.819
 3854SOL    HW212462   0.199   2.218   1.865
 3855SOL     OW12463   3.384   6.873   0.010
 3855SOL    HW112464   3.298   6.924   0.002
 3855SOL    HW212465   3.450   6.909   6.971
 3856SOL     OW12466   0.471   2.569   6.374
 3856SOL    HW112467   0.515   2.486   6.408
 3856SOL    HW212468   0.511   2.594   6.286
 3857SOL     OW12469   2.128   0.295   6.137
 3857SOL    HW112470   2.139   0.238   6.218
 3857SOL    HW212471   2.031   0.311   6.120
 3858SOL     OW12472   4.811   1.051   4.370
 3858SOL    HW112473   4.867   0.990   4.426
 3858SOL    HW212474   4.831   1.035   4.274
 3859SOL     OW12475   5.899   6.841   1.390
 3859SOL    HW112476   5.826   6.885   1.442
 3859SOL    HW212477   5.860   6.781   1.320
 3860SOL     OW12478   1.715   6.807   4.148
 3860SOL    HW112479   1.637   6.754   4.181
 3860SOL    HW212480   1.719   6.894   4.198
 3861SOL     OW12481   2.560   5.276   1.830
 3861SOL    HW112482   2.588   5.360   1.877
 3861SOL    HW212483   2.474   5.292   1.782
 3862SOL     OW12484   1.835   0.634   4.506
 3862SOL    HW112485   1.828   0.566   4.433
 3862SOL    HW212486   1.929   0.636   4.541
 3863SOL     OW12487   3.145   0.289   0.673
 3863SOL    HW112488   3.180   0.232   0.599
 3863SOL    HW212489   3.045   0.280   0.677
 3864SOL     OW12490   1.926   0.207   4.944
 3864SOL    HW112491   1.897   0.222   5.038
 3864SOL    HW212492   1.880   0.273   4.884
 3865SOL     OW12493   4.585   1.151   0.736
 3865SOL    HW112494   4.515   1.104   0.790
 3865SOL    HW212495   4.603   1.099   0.652
 3866SOL     OW12496   2.789   1.719   6.342
 3866SOL    HW112497   2.876   1.769   6.350
 3866SOL    HW212498   2.803   1.639   6.284
 3867SOL     OW12499   0.315   2.987   1.911
 3867SOL    HW112500   0.336   3.082   1.933
 3867SOL    HW212501   0.299   2.936   1.996
 3868SOL     OW12502   4.652   0.786   0.321
 3868SOL    HW112503   4.649   0.850   0.243
 3868SOL    HW212504   4.748   0.767   0.344
 3869SOL     OW12505   4.763   1.670   4.074
 3869SOL    HW112506   4.800   1.640   3.986
 3869SOL    HW212507   4.707   1.752   4.059
 3870SOL     OW12508   0.167   0.812   4.851
 3870SOL    HW112509   0.182   0.760   4.936
 3870SOL    HW212510   0.173   0.910   4.871
 3871SOL     OW12511   2.706   5.850   4.300
 3871SOL    HW112512   2.705   5.826   4.397
 3871SOL    HW212513   2.633   5.801   4.253
 3872SOL     OW12514   3.106   3.601   5.446
 3872SOL    HW112515   3.165   3.571   5.522
 3872SOL    HW212516   3.079   3.696   5.460
 3873SOL     OW12517   4.329   1.664   0.528
 3873SOL    HW112518   4.340   1.726   0.451
 3873SOL    HW212519   4.386   1.582   0.513
 3874SOL     OW12520   2.312   1.239   0.336
 3874SOL    HW112521   2.394   1.183   0.345
 3874SOL    HW212522   2.281   1.267   0.427
 3875SOL     OW12523   1.252   2.010   6.118
 3875SOL    HW112524   1.304   2.081   6.069
 3875SOL    HW212525   1.314   1.936   6.143
 3876SOL     OW12526   3.685   5.304   2.275
 3876SOL    HW112527   3.642   5.264   2.356
 3876SOL    HW212528   3.777   5.334   2.299
 3877SOL     OW12529   0.111   1.875   6.477
 3877SOL    HW112530   0.038   1.808   6.463
 3877SOL    HW212531   0.145   1.907   6.388
 3878SOL     OW12532   5.317   0.843   4.460
 3878SOL    HW112533   5.235   0.806   4.416
 3878SOL    HW212534   5.364   0.771   4.510
 3879SOL     OW12535   5.705   5.544   0.489
 3879SOL    HW112536   5.799   5.552   0.522
 3879SOL    HW212537   5.650   5.496   0.557
 3880SOL     OW12538   4.621   4.446   3.909
 3880SOL    HW112539   4.614   4.348   3.893
 3880SOL    HW212540   4.706   4.466   3.958
 3881SOL     OW12541   0.914   3.350   0.022
 3881SOL    HW112542   0.842   3.287   7.020
 3881SOL    HW212543   0.875   3.421   0.080
 3882SOL     OW12544   0.592   2.122   6.264
 3882SOL    HW112545   0.540   2.038   6.279
 3882SOL    HW212546   0.690   2.103   6.274
 3883SOL     OW12547   4.603   5.715   3.618
 3883SOL    HW112548   4.647   5.675   3.698
 3883SOL    HW212549   4.621   5.657   3.538
 3884SOL     OW12550   0.340   4.187   2.054
 3884SOL    HW112551   0.325   4.136   2.139
 3884SOL    HW212552   0.436   4.179   2.026
 3885SOL     OW12553   5.360   5.655   2.757
 3885SOL    HW112554   5.285   5.632   2.694
 3885SOL    HW212555   5.376   5.754   2.754
 3886SOL     OW12556   2.879   6.357   5.911
 3886SOL    HW112557   2.825   6.277   5.938
 3886SOL    HW212558   2.835   6.440   5.944
 3887SOL     OW12559   0.996   6.365   2.497
 3887SOL    HW112560   0.912   6.339   2.544
 3887SOL    HW212561   0.996   6.464   2.481
 3888SOL     OW12562   5.471   5.003   3.968
 3888SOL    HW112563   5.472   5.099   3.938
 3888SOL    HW212564   5.423   4.996   4.055
 3889SOL     OW12565   5.253   4.083   0.960
 3889SOL    HW112566   5.297   3.993   0.952
 3889SOL    HW212567   5.323   4.154   0.962
 3890SOL     OW12568   5.346   3.227   4.585
 3890SOL    HW112569   5.390   3.182   4.507
 3890SOL    HW212570   5.346   3.326   4.571
 3891SOL     OW12571   5.353   5.729   3.401
 3891SOL    HW112572   5.279   5.704   3.463
 3891SOL    HW212573   5.389   5.819   3.428
 3892SOL     OW12574   6.988   2.525   1.246
 3892SOL    HW112575   0.049   2.571   1.252
 3892SOL    HW212576   6.981   2.478   1.158
 3893SOL     OW12577   3.813   3.856   2.830
 3893SOL    HW112578   3.751   3.780   2.852
 3893SOL    HW212579   3.851   3.893   2.915
 3894SOL     OW12580   4.710   0.502   5.583
 3894SOL    HW112581   4.749   0.541   5.666
 3894SOL    HW212582   4.644   0.430   5.608
 3895SOL     OW12583   1.052   0.403   4.107
 3895SOL    HW112584   1.084   0.416   4.201
 3895SOL    HW212585   1.047   0.491   4.061
 3896SOL     OW12586   1.148   1.417   6.580
 3896SOL    HW112587   1.118   1.362   6.657
 3896SOL    HW212588   1.106   1.382   6.496
 3897SOL     OW12589   3.904   6.580   1.478
 3897SOL    HW112590   3.849   6.499   1.458
 3897SOL    HW212591   3.897   6.601   1.576
 3898SOL     OW12592   3.741   3.014   1.009
 3898SOL    HW112593   3.743   2.915   1.016
 3898SOL    HW212594   3.656   3.043   0.964
 3899SOL     OW12595   3.320   0.354   5.408
 3899SOL    HW112596   3.379   0.316   5.480
 3899SOL    HW212597   3.260   0.424   5.448
 3900SOL     OW12598   5.074   3.678   3.102
 3900SOL    HW112599   5.047   3.721   3.016
 3900SOL    HW212600   5.152   3.727   3.141
 3901SOL     OW12601   2.680   0.349   6.841
 3901SOL    HW112602   2.644   0.423   6.898
 3901SOL    HW212603   2.674   0.375   6.744
 3902SOL     OW12604   6.249   2.842   2.465
 3902SOL    HW112605   6.316   2.821   2.394
 3902SOL    HW212606   6.225   2.939   2.461
 3903SOL     OW12607   3.154   4.336   6.229
 3903SOL    HW112608   3.118   4.429   6.222
 3903SOL    HW212609   3.085   4.271   6.197
 3904SOL     OW12610   1.592   0.655   0.635
 3904SOL    HW112611   1.570   0.604   0.718
 3904SOL    HW212612   1.590   0.594   0.556
 3905SOL     OW12613   6.441   5.774   5.182
 3905SOL    HW112614   6.526   5.781   5.130
 3905SOL    HW212615   6.376   5.842   5.151
 3906SOL     OW12616   6.753   6.645   4.771
 3906SOL    HW112617   6.728   6.607   4.682
 3906SOL    HW212618   6.784   6.739   4.759
 3907SOL     OW12619   6.607   1.828   3.793
 3907SOL    HW112620   6.624   1.789   3.703
 3907SOL    HW212621   6.694   1.843   3.840
 3908SOL     OW12622   2.001   3.178   6.188
 3908SOL    HW112623   1.937   3.249   6.217
 3908SOL    HW212624   2.093   3.203   6.216
 3909SOL     OW12625   5.797   5.145   3.865
 3909SOL    HW112626   5.807   5.124   3.767
 3909SOL    HW212627   5.716   5.202   3.879
 3910SOL     OW12628   3.978   3.748   2.638
 3910SOL    HW112629   3.983   3.806   2.557
 3910SOL    HW212630   3.919   3.792   2.706
 3911SOL     OW12631   6.565   2.273   5.496
 3911SOL    HW112632   6.589   2.176   5.492
 3911SOL    HW212633   6.636   2.322   5.546
 3912SOL     OW12634   5.294   2.696   7.011
 3912SOL    HW112635   5.297   2.640   6.928
 3912SOL    HW212636   5.299   2.793   6.986
 3913SOL     OW12637   0.966   6.634   1.207
 3913SOL    HW112638   1.014   6.577   1.274
 3913SOL    HW212639   0.898   6.690   1.253
 3914SOL     OW12640   3.119   5.381   5.773
 3914SOL    HW112641   3.180   5.430   5.834
 3914SOL    HW212642   3.170   5.349   5.693
 3915SOL     OW12643   6.827   6.167   1.260
 3915SOL    HW112644   6.870   6.080   1.235
 3915SOL    HW212645   6.894   6.241   1.252
 3916SOL     OW12646   0.969   0.157   3.079
 3916SOL    HW112647   0.934   0.131   3.169
 3916SOL    HW212648   0.894   0.164   3.014
 3917SOL     OW12649   1.950   0.219   0.258
 3917SOL    HW112650   2.044   0.184   0.257
 3917SOL    HW212651   1.887   0.146   0.233
 3918SOL     OW12652   5.426   3.503   0.649
 3918SOL    HW112653   5.439   3.405   0.664
 3918SOL    HW212654   5.412   3.549   0.737
 3919SOL     OW12655   3.513   6.837   0.562
 3919SOL    HW112656   3.544   6.919   0.514
 3919SOL    HW212657   3.529   6.756   0.504
 3920SOL     OW12658   1.967   1.589   6.735
 3920SOL    HW112659   1.983   1.560   6.641
 3920SOL    HW212660   1.963   1.689   6.739
 3921SOL     OW12661   1.746   3.796   1.868
 3921SOL    HW112662   1.654   3.756   1.873
 3921SOL    HW212663   1.813   3.731   1.905
 3922SOL     OW12664   1.265   4.806   1.219
 3922SOL    HW112665   1.317   4.756   1.150
 3922SOL    HW212666   1.175   4.763   1.230
 3923SOL     OW12667   6.420   0.349   0.578
 3923SOL    HW112668   6.376   0.360   0.666
 3923SOL    HW212669   6.427   0.252   0.555
 3924SOL     OW12670   6.838   5.083   4.650
 3924SOL    HW112671   6.740   5.089   4.632
 3924SOL    HW212672   6.853   5.029   4.733
 3925SOL     OW12673   1.454   5.038   2.228
 3925SOL    HW112674   1.500   4.950   2.241
 3925SOL    HW212675   1.371   5.041   2.285
 3926SOL     OW12676   3.747   4.908   2.478
 3926SOL    HW112677   3.740   4.896   2.577
 3926SOL    HW212678   3.676   4.855   2.433
 3927SOL     OW12679   0.745   3.371   5.958
 3927SOL    HW112680   0.657   3.324   5.965
 3927SOL    HW212681   0.813   3.322   6.013
 3928SOL     OW12682   5.424   5.832   6.247
 3928SOL    HW112683   5.417   5.920   6.294
 3928SOL    HW212684   5.465   5.764   6.308
 3929SOL     OW12685   1.225   2.135   4.820
 3929SOL    HW112686   1.183   2.179   4.900
 3929SOL    HW212687   1.157   2.077   4.775
 3930SOL     OW12688   2.240   1.435   3.891
 3930SOL    HW112689   2.330   1.471   3.917
 3930SOL    HW212690   2.224   1.452   3.794
 3931SOL     OW12691   5.054   0.551   1.947
 3931SOL    HW112692   4.981   0.616   1.966
 3931SOL    HW212693   5.042   0.513   1.855
 3932SOL     OW12694   1.905   1.782   3.694
 3932SOL    HW112695   1.927   1.807   3.599
 3932SOL    HW212696   1.830   1.716   3.695
 3933SOL     OW12697   0.618   0.041   5.251
 3933SOL    HW112698   0.608   6.969   5.259
 3933SOL    HW212699   0.580   0.085   5.333
 3934SOL     OW12700   5.440   6.821   6.908
 3934SOL    HW112701   5.435   6.723   6.930
 3934SOL    HW212702   5.509   6.864   6.967
 3935SOL     OW12703   4.680   0.457   0.648
 3935SOL    HW112704   4.602   0.477   0.708
 3935SOL    HW212705   4.765   0.467   0.700
 3936SOL     OW12706   0.341   4.811   3.188
 3936SOL    HW112707   0.311   4.733   3.134
 3936SOL    HW212708   0.381   4.779   3.274
 3937SOL     OW12709   0.451   1.415   2.579
 3937SOL    HW112710   0.445   1.508   2.544
 3937SOL    HW212711   0.431   1.415   2.677
 3938SOL     OW12712   0.323   2.274   2.352
 3938SOL    HW112713   0.232   2.301   2.322
 3938SOL    HW212714   0.335   2.297   2.448
 3939SOL     OW12715   2.581   1.887   1.606
 3939SOL    HW112716   2.678   1.872   1.625
 3939SOL    HW212717   2.540   1.939   1.681
 3940SOL     OW12718   4.433   3.208   1.368
 3940SOL    HW112719   4.475   3.249   1.450
 3940SOL    HW212720   4.404   3.115   1.389
 3941SOL     OW12721   4.869   4.053   6.809
 3941SOL    HW112722   4.850   3.970   6.756
 3941SOL    HW212723   4.800   4.122   6.789
 3942SOL     OW12724   6.793   6.829   6.770
 3942SOL    HW112725   6.825   6.856   6.679
 3942SOL    HW212726   6.854   6.865   6.840
 3943SOL     OW12727   0.078   3.378   4.667
 3943SOL    HW112728   0.037   3.401   4.579
 3943SOL    HW212729   0.006   3.366   4.736
 3944SOL     OW12730   5.074   2.495   4.795
 3944SOL    HW112731   5.114   2.445   4.718
 3944SOL    HW212732   5.145   2.546   4.843
 3945SOL     OW12733   0.061   0.763   0.523
 3945SOL    HW112734   0.136   0.822   0.493
 3945SOL    HW212735   0.083   0.722   0.612
 3946SOL     OW12736   4.265   4.717   2.900
 3946SOL    HW112737   4.298   4.623   2.896
 3946SOL    HW212738   4.319   4.768   2.967
 3947SOL     OW12739   6.042   5.411   6.890
 3947SOL    HW112740   5.953   5.455   6.875
 3947SOL    HW212741   6.115   5.475   6.868
 3948SOL     OW12742   6.356   4.180   0.682
 3948SOL    HW112743   6.307   4.241   0.744
 3948SOL    HW212744   6.305   4.094   0.674
 3949SOL     OW12745   5.688   6.159   3.305
 3949SOL    HW112746   5.762   6.223   3.323
 3949SOL    HW212747   5.618   6.204   3.249
 3950SOL     OW12748   1.453   6.267   0.415
 3950SOL    HW112749   1.368   6.228   0.451
 3950SOL    HW212750   1.509   6.194   0.375
 3951SOL     OW12751   5.298   7.022   1.774
 3951SOL    HW112752   5.235   7.007   1.850
 3951SOL    HW212753   5.311   6.937   1.724
 3952SOL     OW12754   5.836   2.206   7.026
 3952SOL    HW112755   5.810   2.116   6.991
 3952SOL    HW212756   5.783   2.225   0.082
 3953SOL     OW12757   3.425   4.172   2.913
 3953SOL    HW112758   3.499   4.209   2.970
 3953SOL    HW212759   3.347   4.147   2.971
 3954SOL     OW12760   4.097   5.055   5.757
 3954SOL    HW112761   4.032   5.080   5.829
 3954SOL    HW212762   4.188   5.042   5.797
 3955SOL     OW12763   4.095   0.994   4.523
 3955SOL    HW112764   4.131   0.901   4.518
 3955SOL    HW212765   4.007   0.993   4.570
 3956SOL     OW12766   1.839   1.521   1.320
 3956SOL    HW112767   1.743   1.495   1.328
 3956SOL    HW212768   1.886   1.503   1.406
 3957SOL     OW12769   3.900   0.674   4.791
 3957SOL    HW112770   3.990   0.689   4.832
 3957SOL    HW212771   3.891   0.728   4.707
 3958SOL     OW12772   5.697   0.552   5.796
 3958SOL    HW112773   5.737   0.579   5.708
 3958SOL    HW212774   5.701   0.630   5.859
 3959SOL     OW12775   4.434   5.584   0.307
 3959SOL    HW112776   4.524   5.627   0.300
 3959SOL    HW212777   4.376   5.616   0.232
 3960SOL     OW12778   5.496   2.195   4.525
 3960SOL    HW112779   5.439   2.113   4.533
 3960SOL    HW212780   5.592   2.169   4.530
 3961SOL     OW12781   5.766   6.428   3.712
 3961SOL    HW112782   5.725   6.392   3.628
 3961SOL    HW212783   5.865   6.415   3.710
 3962SOL     OW12784   0.304   5.509   5.371
 3962SOL    HW112785   0.205   5.524   5.366
 3962SOL    HW212786   0.333   5.506   5.466
 3963SOL     OW12787   4.418   6.813   1.954
 3963SOL    HW112788   4.451   6.734   2.006
 3963SOL    HW212789   4.382   6.783   1.866
 3964SOL     OW12790   5.469   3.211   3.090
 3964SOL    HW112791   5.448   3.306   3.110
 3964SOL    HW212792   5.505   3.166   3.172
 3965SOL     OW12793   4.941   3.958   4.393
 3965SOL    HW112794   4.994   3.910   4.463
 3965SOL    HW212795   4.876   4.020   4.437
 3966SOL     OW12796   2.700   6.209   6.503
 3966SOL    HW112797   2.701   6.126   6.446
 3966SOL    HW212798   2.612   6.217   6.550
 3967SOL     OW12799   1.976   4.557   2.983
 3967SOL    HW112800   2.009   4.463   2.992
 3967SOL    HW212801   1.909   4.563   2.910
 3968SOL     OW12802   3.882   6.880   0.755
 3968SOL    HW112803   3.887   6.791   0.711
 3968SOL    HW212804   3.830   6.873   0.840
 3969SOL     OW12805   0.983   5.429   2.786
 3969SOL    HW112806   0.930   5.494   2.732
 3969SOL    HW212807   0.970   5.337   2.749
 3970SOL     OW12808   4.949   6.298   2.725
 3970SOL    HW112809   4.983   6.314   2.632
 3970SOL    HW212810   4.935   6.200   2.739
 3971SOL     OW12811   2.383   5.794   3.546
 3971SOL    HW112812   2.333   5.864   3.496
 3971SOL    HW212813   2.479   5.796   3.520
 3972SOL     OW12814   2.277   3.729   0.150
 3972SOL    HW112815   2.229   3.787   0.084
 3972SOL    HW212816   2.276   3.634   0.117
 3973SOL     OW12817   1.494   5.529   0.612
 3973SOL    HW112818   1.430   5.455   0.591
 3973SOL    HW212819   1.477   5.564   0.704
 3974SOL     OW12820   2.243   0.848   4.919
 3974SOL    HW112821   2.144   0.858   4.906
 3974SOL    HW212822   2.272   0.906   4.995
 3975SOL     OW12823   6.037   2.512   6.187
 3975SOL    HW112824   6.130   2.537   6.211
 3975SOL    HW212825   6.000   2.450   6.256
 3976SOL     OW12826   1.845   5.167   2.066
 3976SOL    HW112827   1.936   5.185   2.103
 3976SOL    HW212828   1.837   5.070   2.042
 3977SOL     OW12829   1.193   3.583   6.675
 3977SOL    HW112830   1.255   3.513   6.711
 3977SOL    HW212831   1.211   3.596   6.578
 3978SOL     OW12832   6.736   4.452   3.655
 3978SOL    HW112833   6.810   4.486   3.597
 3978SOL    HW212834   6.686   4.380   3.608
 3979SOL     OW12835   4.028   7.012   6.473
 3979SOL    HW112836   4.122   0.016   6.486
 3979SOL    HW212837   4.004   7.018   6.376
 3980SOL     OW12838   5.765   6.136   5.761
 3980SOL    HW112839   5.759   6.172   5.854
 3980SOL    HW212840   5.698   6.183   5.703
 3981SOL     OW12841   4.573   6.633   0.235
 3981SOL    HW112842   4.637   6.682   0.175
 3981SOL    HW212843   4.549   6.691   0.313
 3982SOL     OW12844   3.270   6.471   3.120
 3982SOL    HW112845   3.186   6.476   3.174
 3982SOL    HW212846   3.343   6.430   3.175
 3983SOL     OW12847   3.683   6.074   4.172
 3983SOL    HW112848   3.739   6.153   4.144
 3983SOL    HW212849   3.741   5.993   4.178
 3984SOL     OW12850   6.450   2.493   2.696
 3984SOL    HW112851   6.389   2.508   2.618
 3984SOL    HW212852   6.540   2.531   2.675
 3985SOL     OW12853   3.739   5.276   6.752
 3985SOL    HW112854   3.664   5.220   6.718
 3985SOL    HW212855   3.707   5.369   6.768
 3986SOL     OW12856   4.977   0.666   2.440
 3986SOL    HW112857   4.979   0.572   2.406
 3986SOL    HW212858   5.064   0.687   2.484
 3987SOL     OW12859   3.416   5.263   4.862
 3987SOL    HW112860   3.479   5.281   4.786
 3987SOL    HW212861   3.443   5.179   4.908
 3988SOL     OW12862   4.037   5.898   0.543
 3988SOL    HW112863   4.050   5.843   0.625
 3988SOL    HW212864   4.026   5.994   0.569
 3989SOL     OW12865   5.641   2.211   0.257
 3989SOL    HW112866   5.611   2.120   0.284
 3989SOL    HW212867   5.693   2.253   0.331
 3990SOL     OW12868   6.519   1.750   2.479
 3990SOL    HW112869   6.560   1.830   2.435
 3990SOL    HW212870   6.575   1.669   2.460
 3991SOL     OW12871   7.002   0.587   3.101
 3991SOL    HW112872   6.918   0.595   3.154
 3991SOL    HW212873   6.981   0.548   3.011
 3992SOL     OW12874   2.875   1.661   0.989
 3992SOL    HW112875   2.804   1.629   1.052
 3992SOL    HW212876   2.890   1.759   1.002
 3993SOL     OW12877   1.234   3.059   1.359
 3993SOL    HW112878   1.320   3.107   1.339
 3993SOL    HW212879   1.246   2.961   1.342
 3994SOL     OW12880   2.684   6.131   4.790
 3994SOL    HW112881   2.723   6.212   4.746
 3994SOL    HW212882   2.748   6.055   4.782
 3995SOL     OW12883   1.565   2.355   5.137
 3995SOL    HW112884   1.583   2.366   5.039
 3995SOL    HW212885   1.651   2.336   5.184
 3996SOL     OW12886   0.094   6.376   4.568
 3996SOL    HW112887   0.089   6.371   4.468
 3996SOL    HW212888   0.043   6.299   4.607
 3997SOL     OW12889   4.726   0.464   4.577
 3997SOL    HW112890   4.734   0.495   4.482
 3997SOL    HW212891   4.796   0.508   4.632
 3998SOL     OW12892   4.795   2.159   3.440
 3998SOL    HW112893   4.827   2.090   3.376
 3998SOL    HW212894   4.871   2.219   3.466
 3999SOL     OW12895   5.126   2.259   4.184
 3999SOL    HW112896   5.173   2.172   4.170
 3999SOL    HW212897   5.157   2.325   4.115
 4000SOL     OW12898   4.064   6.844   4.111
 4000SOL    HW112899   4.119   6.896   4.046
 4000SOL    HW212900   4.091   6.748   4.108
 4001SOL     OW12901   1.192   2.040   4.185
 4001SOL    HW112902   1.278   2.090   4.176
 4001SOL    HW212903   1.134   2.057   4.105
 4002SOL     OW12904   2.442   3.934   1.659
 4002SOL    HW112905   2.376   3.891   1.596
 4002SOL    HW212906   2.520   3.873   1.671
 4003SOL     OW12907   3.877   1.909   5.189
 4003SOL    HW112908   3.892   1.990   5.132
 4003SOL    HW212909   3.794   1.862   5.159
 4004SOL     OW12910   0.062   1.702   5.410
 4004SOL    HW112911   0.047   1.701   5.311
 4004SOL    HW212912   0.115   1.622   5.437
 4005SOL     OW12913   6.339   5.428   5.503
 4005SOL    HW112914   6.389   5.354   5.548
 4005SOL    HW212915   6.392   5.461   5.425
 4006SOL     OW12916   3.813   5.695   2.676
 4006SOL    HW112917   3.808   5.719   2.773
 4006SOL    HW212918   3.754   5.616   2.659
 4007SOL     OW12919   6.702   1.870   6.514
 4007SOL    HW112920   6.612   1.829   6.503
 4007SOL    HW212921   6.693   1.968   6.532
 4008SOL     OW12922   2.631   2.334   4.931
 4008SOL    HW112923   2.637   2.312   5.028
 4008SOL    HW212924   2.590   2.425   4.920
 4009SOL     OW12925   3.297   3.068   2.817
 4009SOL    HW112926   3.352   2.993   2.780
 4009SOL    HW212927   3.349   3.153   2.813
 4010SOL     OW12928   1.900   2.817   6.764
 4010SOL    HW112929   1.883   2.836   6.860
 4010SOL    HW212930   1.853   2.885   6.708
 4011SOL     OW12931   0.959   2.600   1.050
 4011SOL    HW112932   0.875   2.626   1.096
 4011SOL    HW212933   0.960   2.639   0.958
 4012SOL     OW12934   6.171   2.931   3.844
 4012SOL    HW112935   6.210   2.871   3.913
 4012SOL    HW212936   6.077   2.954   3.868
 4013SOL     OW12937   4.504   2.357   3.210
 4013SOL    HW112938   4.562   2.279   3.191
 4013SOL    HW212939   4.475   2.355   3.306
 4014SOL     OW12940   5.485   6.411   2.099
 4014SOL    HW112941   5.510   6.389   2.193
 4014SOL    HW212942   5.388   6.387   2.084
 4015SOL     OW12943   4.846   3.489   6.600
 4015SOL    HW112944   4.934   3.442   6.609
 4015SOL    HW212945   4.832   3.548   6.680
 4016SOL     OW12946   3.191   6.055   4.783
 4016SOL    HW112947   3.229   6.057   4.875
 4016SOL    HW212948   3.253   6.003   4.723
 4017SOL     OW12949   6.203   6.685   0.037
 4017SOL    HW112950   6.147   6.768   0.037
 4017SOL    HW212951   6.293   6.707   7.025
 4018SOL     OW12952   2.426   6.245   0.483
 4018SOL    HW112953   2.469   6.335   0.493
 4018SOL    HW212954   2.328   6.256   0.467
 4019SOL     OW12955   5.144   5.437   3.107
 4019SOL    HW112956   5.180   5.354   3.150
 4019SOL    HW212957   5.084   5.412   3.032
 4020SOL     OW12958   5.034   2.072   5.247
 4020SOL    HW112959   5.108   2.136   5.269
 4020SOL    HW212960   4.946   2.117   5.260
 4021SOL     OW12961   4.376   4.584   0.179
 4021SOL    HW112962   4.276   4.579   0.177
 4021SOL    HW212963   4.405   4.617   0.269
 4022SOL     OW12964   5.482   0.695   0.847
 4022SOL    HW112965   5.504   0.648   0.761
 4022SOL    HW212966   5.391   0.736   0.841
 4023SOL     OW12967   0.090   0.394   5.722
 4023SOL    HW112968   0.007   0.379   5.776
 4023SOL    HW212969   0.089   0.334   5.642
 4024SOL     OW12970   4.439   4.557   4.409
 4024SOL    HW112971   4.458   4.458   4.411
 4024SOL    HW212972   4.417   4.589   4.501
 4025SOL     OW12973   1.192   3.910   3.363
 4025SOL    HW112974   1.145   3.917   3.451
 4025SOL    HW212975   1.285   3.876   3.377
 4026SOL     OW12976   4.817   0.042   5.001
 4026SOL    HW112977   4.761   7.023   4.932
 4026SOL    HW212978   4.869   0.116   4.957
 4027SOL     OW12979   4.090   4.861   2.285
 4027SOL    HW112980   4.039   4.823   2.207
 4027SOL    HW212981   4.055   4.952   2.306
 4028SOL     OW12982   2.653   6.438   3.511
 4028SOL    HW112983   2.568   6.452   3.562
 4028SOL    HW212984   2.701   6.358   3.548
 4029SOL     OW12985   1.679   3.795   3.793
 4029SOL    HW112986   1.684   3.742   3.878
 4029SOL    HW212987   1.605   3.861   3.800
 4030SOL     OW12988   1.130   1.660   6.031
 4030SOL    HW112989   1.222   1.656   5.992
 4030SOL    HW212990   1.127   1.605   6.115
 4031SOL     OW12991   5.912   5.817   4.086
 4031SOL    HW112992   6.009   5.829   4.064
 4031SOL    HW212993   5.889   5.719   4.084
 4032SOL     OW12994   4.169   6.877   5.009
 4032SOL    HW112995   4.113   6.905   5.086
 4032SOL    HW212996   4.215   6.956   4.969
 4033SOL     OW12997   3.399   3.400   5.810
 4033SOL    HW112998   3.376   3.391   5.713
 4033SOL    HW212999   3.492   3.435   5.819
 4034SOL     OW13000   5.773   2.829   4.863
 4034SOL    HW113001   5.839   2.893   4.902
 4034SOL    HW213002   5.683   2.874   4.858
 4035SOL     OW13003   0.183   5.095   1.385
 4035SOL    HW113004   0.101   5.076   1.330
 4035SOL    HW213005   0.248   5.020   1.374
 4036SOL     OW13006   6.578   6.233   2.613
 4036SOL    HW113007   6.517   6.183   2.675
 4036SOL    HW213008   6.567   6.198   2.520
 4037SOL     OW13009   6.868   4.016   6.351
 4037SOL    HW113010   6.802   3.945   6.323
 4037SOL    HW213011   6.842   4.104   6.311
 4038SOL     OW13012   6.852   5.175   3.472
 4038SOL    HW113013   6.900   5.140   3.392
 4038SOL    HW213014   6.887   5.265   3.497
 4039SOL     OW13015   3.596   6.181   1.251
 4039SOL    HW113016   3.560   6.119   1.322
 4039SOL    HW213017   3.519   6.229   1.208
 4040SOL     OW13018   3.476   6.349   0.616
 4040SOL    HW113019   3.415   6.405   0.672
 4040SOL    HW213020   3.423   6.283   0.563
 4041SOL     OW13021   1.115   6.657   2.990
 4041SOL    HW113022   1.048   6.628   3.058
 4041SOL    HW213023   1.165   6.736   3.025
 4042SOL     OW13024   6.098   6.078   2.150
 4042SOL    HW113025   6.107   5.985   2.117
 4042SOL    HW213026   6.185   6.110   2.187
 4043SOL     OW13027   6.334   3.930   1.737
 4043SOL    HW113028   6.291   3.970   1.657
 4043SOL    HW213029   6.294   3.969   1.820
 4044SOL     OW13030   6.246   5.602   3.297
 4044SOL    HW113031   6.252   5.524   3.359
 4044SOL    HW213032   6.154   5.606   3.258
 4045SOL     OW13033   2.408   4.596   5.864
 4045SOL    HW113034   2.314   4.616   5.838
 4045SOL    HW213035   2.408   4.537   5.945
 4046SOL     OW13036   0.299   3.010   0.659
 4046SOL    HW113037   0.300   3.091   0.718
 4046SOL    HW213038   0.381   2.956   0.676
 4047SOL     OW13039   2.959   3.890   2.517
 4047SOL    HW113040   2.969   3.791   2.511
 4047SOL    HW213041   2.864   3.916   2.495
 4048SOL     OW13042   4.722   2.443   0.902
 4048SOL    HW113043   4.682   2.394   0.980
 4048SOL    HW213044   4.671   2.528   0.887
 4049SOL     OW13045   6.855   0.431   5.873
 4049SOL    HW113046   6.862   0.514   5.929
 4049SOL    HW213047   6.813   0.454   5.785
 4050SOL     OW13048   2.567   0.873   1.738
 4050SOL    HW113049   2.526   0.784   1.722
 4050SOL    HW213050   2.524   0.917   1.817
 4051SOL     OW13051   1.207   4.126   1.033
 4051SOL    HW113052   1.293   4.152   0.990
 4051SOL    HW213053   1.224   4.051   1.098
 4052SOL     OW13054   1.523   6.807   1.327
 4052SOL    HW113055   1.495   6.758   1.410
 4052SOL    HW213056   1.563   6.741   1.263
 4053SOL     OW13057   3.440   5.284   3.510
 4053SOL    HW113058   3.346   5.272   3.479
 4053SOL    HW213059   3.483   5.357   3.457
 4054SOL     OW13060   5.401   1.558   6.685
 4054SOL    HW113061   5.415   1.490   6.613
 4054SOL    HW213062   5.315   1.540   6.732
 4055SOL     OW13063   4.812   2.625   0.553
 4055SOL    HW113064   4.812   2.719   0.521
 4055SOL    HW213065   4.722   2.584   0.536
 4056SOL     OW13066   4.527   2.621   0.873
 4056SOL    HW113067   4.486   2.711   0.857
 4056SOL    HW213068   4.473   2.571   0.940
 4057SOL     OW13069   6.397   2.330   0.145
 4057SOL    HW113070   6.435   2.399   0.207
 4057SOL    HW213071   6.305   2.357   0.118
 4058SOL     OW13072   1.255   1.686   4.463
 4058SOL    HW113073   1.311   1.662   4.384
 4058SOL    HW213074   1.205   1.771   4.444
 4059SOL     OW13075   6.673   2.016   5.479
 4059SOL    HW113076   6.739   2.085   5.452
 4059SOL    HW213077   6.721   1.937   5.518
 4060SOL     OW13078   3.340   5.754   5.766
 4060SOL    HW113079   3.399   5.833   5.784
 4060SOL    HW213080   3.264   5.783   5.708
 4061SOL     OW13081   2.252   2.876   1.387
 4061SOL    HW113082   2.329   2.935   1.412
 4061SOL    HW213083   2.178   2.889   1.453
 4062SOL     OW13084   3.612   6.395   2.318
 4062SOL    HW113085   3.660   6.390   2.405
 4062SOL    HW213086   3.676   6.385   2.242
 4063SOL     OW13087   2.326   5.123   6.588
 4063SOL    HW113088   2.275   5.072   6.519
 4063SOL    HW213089   2.374   5.059   6.648
 4064SOL     OW13090   5.969   6.959   4.269
 4064SOL    HW113091   5.902   7.006   4.211
 4064SOL    HW213092   5.991   6.870   4.228
 4065SOL     OW13093   0.042   4.544   6.268
 4065SOL    HW113094   6.994   4.577   6.325
 4065SOL    HW213095   0.119   4.608   6.274
 4066SOL     OW13096   6.079   5.410   1.598
 4066SOL    HW113097   6.169   5.368   1.590
 4066SOL    HW213098   6.029   5.367   1.673
 4067SOL     OW13099   5.694   1.416   1.830
 4067SOL    HW113100   5.728   1.392   1.921
 4067SOL    HW213101   5.686   1.333   1.774
 4068SOL     OW13102   5.093   1.562   4.731
 4068SOL    HW113103   5.165   1.509   4.687
 4068SOL    HW213104   5.130   1.650   4.762
 4069SOL     OW13105   0.065   6.312   0.743
 4069SOL    HW113106   0.138   6.246   0.729
 4069SOL    HW213107   0.052   6.365   0.658
 4070SOL     OW13108   0.337   3.520   3.285
 4070SOL    HW113109   0.432   3.547   3.272
 4070SOL    HW213110   0.285   3.538   3.201
 4071SOL     OW13111   2.799   0.616   3.937
 4071SOL    HW113112   2.763   0.616   3.844
 4071SOL    HW213113   2.888   0.570   3.938
 4072SOL     OW13114   1.129   6.883   3.682
 4072SOL    HW113115   1.177   6.930   3.756
 4072SOL    HW213116   1.190   6.876   3.603
 4073SOL     OW13117   2.371   5.092   1.967
 4073SOL    HW113118   2.282   5.139   1.967
 4073SOL    HW213119   2.430   5.133   1.898
 4074SOL     OW13120   0.525   2.777   0.064
 4074SOL    HW113121   0.506   2.693   0.114
 4074SOL    HW213122   0.519   2.856   0.126
 4075SOL     OW13123   5.306   0.229   3.451
 4075SOL    HW113124   5.336   0.323   3.465
 4075SOL    HW213125   5.214   0.229   3.411
 4076SOL     OW13126   2.222   2.453   2.686
 4076SOL    HW113127   2.306   2.473   2.636
 4076SOL    HW213128   2.217   2.512   2.767
 4077SOL     OW13129   3.648   0.893   0.726
 4077SOL    HW113130   3.649   0.929   0.819
 4077SOL    HW213131   3.561   0.847   0.708
 4078SOL     OW13132   4.839   3.772   2.607
 4078SOL    HW113133   4.918   3.713   2.588
 4078SOL    HW213134   4.781   3.778   2.526
 4079SOL     OW13135   5.816   0.300   4.299
 4079SOL    HW113136   5.840   0.343   4.212
 4079SOL    HW213137   5.785   0.206   4.281
 4080SOL     OW13138   3.677   2.932   3.530
 4080SOL    HW113139   3.595   2.986   3.507
 4080SOL    HW213140   3.719   2.898   3.446
 4081SOL     OW13141   2.914   2.038   6.495
 4081SOL    HW113142   2.845   2.079   6.555
 4081SOL    HW213143   2.912   2.083   6.406
 4082SOL     OW13144   1.017   2.211   5.607
 4082SOL    HW113145   1.046   2.187   5.514
 4082SOL    HW213146   1.097   2.235   5.662
 4083SOL     OW13147   6.345   5.302   2.793
 4083SOL    HW113148   6.416   5.372   2.799
 4083SOL    HW213149   6.305   5.303   2.701
 4084SOL     OW13150   4.934   0.236   1.706
 4084SOL    HW113151   5.010   0.295   1.735
 4084SOL    HW213152   4.866   0.292   1.658
 4085SOL     OW13153   2.458   4.435   2.897
 4085SOL    HW113154   2.547   4.439   2.943
 4085SOL    HW213155   2.394   4.382   2.953
 4086SOL     OW13156   5.911   5.154   5.535
 4086SOL    HW113157   5.870   5.245   5.533
 4086SOL    HW213158   5.842   5.086   5.512
 4087SOL     OW13159   1.884   0.843   1.754
 4087SOL    HW113160   1.909   0.876   1.845
 4087SOL    HW213161   1.818   0.907   1.713
 4088SOL     OW13162   0.289   1.542   5.705
 4088SOL    HW113163   0.388   1.534   5.716
 4088SOL    HW213164   0.244   1.506   5.787
 4089SOL     OW13165   1.462   0.903   2.607
 4089SOL    HW113166   1.435   0.999   2.600
 4089SOL    HW213167   1.562   0.896   2.608
 4090SOL     OW13168   2.925   2.527   5.910
 4090SOL    HW113169   2.891   2.539   5.816
 4090SOL    HW213170   3.025   2.526   5.909
 4091SOL     OW13171   3.136   6.126   2.661
 4091SOL    HW113172   3.039   6.099   2.656
 4091SOL    HW213173   3.148   6.192   2.735
 4092SOL     OW13174   5.756   1.845   5.791
 4092SOL    HW113175   5.819   1.820   5.717
 4092SOL    HW213176   5.699   1.766   5.814
 4093SOL     OW13177   5.713   4.038   3.126
 4093SOL    HW113178   5.734   3.977   3.050
 4093SOL    HW213179   5.715   4.133   3.093
 4094SOL     OW13180   6.801   6.985   0.648
 4094SOL    HW113181   6.723   7.009   0.706
 4094SOL    HW213182   6.835   6.894   0.674
 4095SOL     OW13183   1.910   5.357   0.467
 4095SOL    HW113184   1.828   5.301   0.456
 4095SOL    HW213185   1.923   5.413   0.385
 4096SOL     OW13186   0.169   0.466   6.727
 4096SOL    HW113187   0.119   0.403   6.786
 4096SOL    HW213188   0.268   0.454   6.741
 4097SOL     OW13189   0.703   3.957   5.175
 4097SOL    HW113190   0.615   3.959   5.223
 4097SOL    HW213191   0.722   4.047   5.135
 4098SOL     OW13192   1.078   6.169   2.185
 4098SOL    HW113193   1.116   6.094   2.131
 4098SOL    HW213194   1.002   6.136   2.240
 4099SOL     OW13195   6.598   3.498   5.396
 4099SOL    HW113196   6.592   3.451   5.484
 4099SOL    HW213197   6.519   3.474   5.339
 4100SOL     OW13198   2.431   0.906   3.149
 4100SOL    HW113199   2.463   0.962   3.226
 4100SOL    HW213200   2.484   0.929   3.067
 4101SOL     OW13201   6.393   5.664   6.362
 4101SOL    HW113202   6.332   5.659   6.283
 4101SOL    HW213203   6.488   5.675   6.331
 4102SOL     OW13204   1.132   5.851   0.447
 4102SOL    HW113205   1.080   5.892   0.373
 4102SOL    HW213206   1.193   5.781   0.410
 4103SOL     OW13207   2.716   5.436   2.869
 4103SOL    HW113208   2.627   5.438   2.915
 4103SOL    HW213209   2.783   5.390   2.928
 4104SOL     OW13210   1.332   5.996   5.131
 4104SOL    HW113211   1.309   5.913   5.182
 4104SOL    HW213212   1.338   5.975   5.034
 4105SOL     OW13213   3.838   6.660   2.203
 4105SOL    HW113214   3.805   6.743   2.248
 4105SOL    HW213215   3.788   6.645   2.118
 4106SOL     OW13216   1.424   0.118   2.315
 4106SOL    HW113217   1.480   0.076   2.386
 4106SOL    HW213218   1.474   0.194   2.274
 4107SOL     OW13219   1.557   0.986   0.792
 4107SOL    HW113220   1.657   0.992   0.791
 4107SOL    HW213221   1.529   0.903   0.744
 4108SOL     OW13222   6.453   6.664   5.939
 4108SOL    HW113223   6.485   6.588   5.994
 4108SOL    HW213224   6.399   6.630   5.862
 4109SOL     OW13225   4.843   6.318   4.750
 4109SOL    HW113226   4.795   6.402   4.774
 4109SOL    HW213227   4.942   6.334   4.756
 4110SOL     OW13228   4.434   3.250   0.378
 4110SOL    HW113229   4.476   3.232   0.467
 4110SOL    HW213230   4.499   3.298   0.320
 4111SOL     OW13231   5.326   4.908   4.215
 4111SOL    HW113232   5.312   4.810   4.199
 4111SOL    HW213233   5.354   4.923   4.310
 4112SOL     OW13234   4.405   5.734   4.435
 4112SOL    HW113235   4.407   5.643   4.395
 4112SOL    HW213236   4.492   5.780   4.416
 4113SOL     OW13237   4.611   4.980   4.853
 4113SOL    HW113238   4.545   4.961   4.780
 4113SOL    HW213239   4.577   5.055   4.910
 4114SOL     OW13240   0.186   0.899   2.042
 4114SOL    HW113241   0.138   0.812   2.049
 4114SOL    HW213242   0.205   0.934   2.134
 4115SOL     OW13243   4.101   5.865   4.042
 4115SOL    HW113244   4.059   5.876   3.952
 4115SOL    HW213245   4.189   5.913   4.044
 4116SOL     OW13246   6.045   3.334   3.273
 4116SOL    HW113247   6.140   3.363   3.262
 4116SOL    HW213248   6.041   3.234   3.271
 4117SOL     OW13249   0.081   1.136   3.171
 4117SOL    HW113250   7.011   1.111   3.183
 4117SOL    HW213251   0.129   1.061   3.125
 4118SOL     OW13252   1.279   0.534   1.354
 4118SOL    HW113253   1.291   0.633   1.342
 4118SOL    HW213254   1.284   0.489   1.266
 4119SOL     OW13255   0.070   0.764   4.617
 4119SOL    HW113256   0.124   0.792   4.697
 4119SOL    HW213257   7.017   0.713   4.648
 4120SOL     OW13258   2.009   0.628   6.369
 4120SOL    HW113259   2.094   0.678   6.380
 4120SOL    HW213260   2.012   0.543   6.422
 4121SOL     OW13261   6.500   1.021   1.995
 4121SOL    HW113262   6.477   0.944   2.055
 4121SOL    HW213263   6.431   1.093   2.004
 4122SOL     OW13264   1.030   5.273   3.214
 4122SOL    HW113265   1.100   5.201   3.207
 4122SOL    HW213266   0.942   5.231   3.238
 4123SOL     OW13267   5.470   4.525   1.468
 4123SOL    HW113268   5.551   4.512   1.526
 4123SOL    HW213269   5.415   4.442   1.468
 4124SOL     OW13270   6.508   6.977   0.146
 4124SOL    HW113271   6.546   6.887   0.125
 4124SOL    HW213272   6.541   7.007   0.236
 4125SOL     OW13273   7.012   2.871   6.968
 4125SOL    HW113274   0.047   2.940   6.929
 4125SOL    HW213275   6.939   2.851   6.903
 4126SOL     OW13276   1.423   3.717   4.354
 4126SOL    HW113277   1.463   3.794   4.303
 4126SOL    HW213278   1.329   3.703   4.323
 4127SOL     OW13279   5.519   2.313   3.967
 4127SOL    HW113280   5.458   2.286   3.892
 4127SOL    HW213281   5.472   2.303   4.054
 4128SOL     OW13282   6.573   2.303   6.421
 4128SOL    HW113283   6.505   2.302   6.495
 4128SOL    HW213284   6.527   2.288   6.334
 4129SOL     OW13285   3.014   1.284   1.114
 4129SOL    HW113286   3.034   1.379   1.089
 4129SOL    HW213287   2.982   1.281   1.209
 4130SOL     OW13288   5.978   2.699   0.483
 4130SOL    HW113289   5.933   2.769   0.539
 4130SOL    HW213290   5.911   2.659   0.420
 4131SOL     OW13291   4.851   6.447   3.847
 4131SOL    HW113292   4.940   6.452   3.800
 4131SOL    HW213293   4.778   6.460   3.780
 4132SOL     OW13294   6.648   4.299   3.030
 4132SOL    HW113295   6.617   4.207   3.057
 4132SOL    HW213296   6.649   4.305   2.931
 4133SOL     OW13297   5.513   6.355   3.195
 4133SOL    HW113298   5.474   6.353   3.103
 4133SOL    HW213299   5.576   6.432   3.203
 4134SOL     OW13300   1.549   3.585   1.513
 4134SOL    HW113301   1.602   3.666   1.536
 4134SOL    HW213302   1.608   3.517   1.470
 4135SOL     OW13303   6.300   1.269   1.037
 4135SOL    HW113304   6.307   1.212   0.955
 4135SOL    HW213305   6.263   1.215   1.112
 4136SOL     OW13306   0.757   4.431   0.518
 4136SOL    HW113307   0.667   4.463   0.547
 4136SOL    HW213308   0.792   4.366   0.586
 4137SOL     OW13309   0.294   3.027   5.690
 4137SOL    HW113310   0.381   3.027   5.640
 4137SOL    HW213311   0.312   3.016   5.787
 4138SOL     OW13312   4.947   6.766   6.624
 4138SOL    HW113313   5.042   6.795   6.608
 4138SOL    HW213314   4.917   6.708   6.549
 4139SOL     OW13315   1.632   4.326   2.273
 4139SOL    HW113316   1.547   4.377   2.284
 4139SOL    HW213317   1.641   4.261   2.349
 4140SOL     OW13318   2.213   6.946   6.927
 4140SOL    HW113319   2.286   6.910   6.869
 4140SOL    HW213320   2.195   0.014   6.902
 4141SOL     OW13321   5.195   0.753   5.931
 4141SOL    HW113322   5.276   0.803   5.960
 4141SOL    HW213323   5.160   0.791   5.846
 4142SOL     OW13324   6.356   5.696   1.148
 4142SOL    HW113325   6.304   5.708   1.063
 4142SOL    HW213326   6.422   5.771   1.158
 4143SOL     OW13327   5.617   3.826   6.417
 4143SOL    HW113328   5.694   3.834   6.354
 4143SOL    HW213329   5.537   3.792   6.368
 4144SOL     OW13330   4.281   0.426   1.614
 4144SOL    HW113331   4.271   0.522   1.589
 4144SOL    HW213332   4.323   0.419   1.704
 4145SOL     OW13333   5.347   0.434   1.224
 4145SOL    HW113334   5.428   0.439   1.166
 4145SOL    HW213335   5.267   0.411   1.168
 4146SOL     OW13336   4.131   0.018   1.924
 4146SOL    HW113337   4.222   0.020   1.966
 4146SOL    HW213338   4.127   6.970   1.858
 4147SOL     OW13339   4.297   5.025   6.907
 4147SOL    HW113340   4.219   5.077   6.873
 4147SOL    HW213341   4.373   5.031   6.842
 4148SOL     OW13342   2.717   1.384   5.961
 4148SOL    HW113343   2.783   1.312   5.983
 4148SOL    HW213344   2.735   1.419   5.869
 4149SOL     OW13345   1.390   3.624   5.898
 4149SOL    HW113346   1.485   3.596   5.895
 4149SOL    HW213347   1.346   3.584   5.979
 4150SOL     OW13348   5.618   1.375   0.303
 4150SOL    HW113349   5.610   1.300   0.369
 4150SOL    HW213350   5.574   1.457   0.340
 4151SOL     OW13351   2.701   5.677   4.847
 4151SOL    HW113352   2.626   5.618   4.876
 4151SOL    HW213353   2.788   5.637   4.875
 4152SOL     OW13354   3.065   3.875   1.154
 4152SOL    HW113355   3.098   3.889   1.247
 4152SOL    HW213356   2.972   3.911   1.146
 4153SOL     OW13357   6.929   5.609   2.134
 4153SOL    HW113358   0.001   5.609   2.121
 4153SOL    HW213359   6.902   5.527   2.184
 4154SOL     OW13360   0.247   6.798   3.700
 4154SOL    HW113361   0.236   6.827   3.795
 4154SOL    HW213362   0.329   6.742   3.692
 4155SOL     OW13363   6.411   0.826   2.159
 4155SOL    HW113364   6.404   0.861   2.253
 4155SOL    HW213365   6.334   0.859   2.105
 4156SOL     OW13366   0.494   4.849   5.407
 4156SOL    HW113367   0.564   4.915   5.435
 4156SOL    HW213368   0.530   4.790   5.335
 4157SOL     OW13369   4.792   6.023   0.805
 4157SOL    HW113370   4.865   6.019   0.873
 4157SOL    HW213371   4.803   5.948   0.740
 4158SOL     OW13372   0.686   2.716   0.540
 4158SOL    HW113373   0.618   2.774   0.585
 4158SOL    HW213374   0.759   2.694   0.604
 4159SOL     OW13375   3.269   0.666   4.049
 4159SOL    HW113376   3.187   0.705   4.008
 4159SOL    HW213377   3.346   0.673   3.985
 4160SOL     OW13378   1.574   6.677   6.113
 4160SOL    HW113379   1.510   6.657   6.187
 4160SOL    HW213380   1.667   6.684   6.151
 4161SOL     OW13381   3.464   3.002   3.320
 4161SOL    HW113382   3.444   2.930   3.254
 4161SOL    HW213383   3.450   3.092   3.277
 4162SOL     OW13384   5.384   6.192   1.350
 4162SOL    HW113385   5.311   6.128   1.327
 4162SOL    HW213386   5.402   6.187   1.448
 4163SOL     OW13387   3.939   5.603   1.632
 4163SOL    HW113388   3.916   5.678   1.695
 4163SOL    HW213389   3.865   5.537   1.631
 4164SOL     OW13390   5.371   1.946   6.404
 4164SOL    HW113391   5.309   2.023   6.413
 4164SOL    HW213392   5.424   1.936   6.489
 4165SOL     OW13393   3.768   1.723   4.439
 4165SOL    HW113394   3.819   1.643   4.408
 4165SOL    HW213395   3.683   1.730   4.387
 4166SOL     OW13396   6.146   2.235   1.654
 4166SOL    HW113397   6.214   2.307   1.647
 4166SOL    HW213398   6.169   2.174   1.730
 4167SOL     OW13399   3.656   5.216   4.689
 4167SOL    HW113400   3.639   5.249   4.596
 4167SOL    HW213401   3.690   5.122   4.685
 4168SOL     OW13402   5.603   4.308   0.286
 4168SOL    HW113403   5.542   4.340   0.213
 4168SOL    HW213404   5.559   4.321   0.375
 4169SOL     OW13405   5.239   3.364   6.817
 4169SOL    HW113406   5.301   3.442   6.827
 4169SOL    HW213407   5.266   3.292   6.881
 4170SOL     OW13408   0.844   2.564   5.252
 4170SOL    HW113409   0.778   2.501   5.294
 4170SOL    HW213410   0.802   2.610   5.175
 4171SOL     OW13411   0.456   1.679   5.974
 4171SOL    HW113412   0.509   1.656   5.893
 4171SOL    HW213413   0.486   1.623   6.051
 4172SOL     OW13414   2.813   2.384   6.333
 4172SOL    HW113415   2.718   2.372   6.363
 4172SOL    HW213416   2.845   2.301   6.288
 4173SOL     OW13417   4.829   1.688   5.581
 4173SOL    HW113418   4.855   1.734   5.496
 4173SOL    HW213419   4.901   1.699   5.649
 4174SOL     OW13420   3.806   6.436   4.448
 4174SOL    HW113421   3.732   6.402   4.391
 4174SOL    HW213422   3.821   6.372   4.524
 4175SOL     OW13423   1.306   4.762   6.583
 4175SOL    HW113424   1.241   4.686   6.583
 4175SOL    HW213425   1.399   4.725   6.581
 4176SOL     OW13426   4.903   6.938   5.625
 4176SOL    HW113427   4.986   6.992   5.613
 4176SOL    HW213428   4.907   6.856   5.568
 4177SOL     OW13429   4.404   5.074   2.788
 4177SOL    HW113430   4.485   5.019   2.769
 4177SOL    HW213431   4.425   5.171   2.771
 4178SOL     OW13432   3.644   6.271   1.618
 4178SOL    HW113433   3.722   6.282   1.558
 4178SOL    HW213434   3.570   6.333   1.590
 4179SOL     OW13435   4.532   2.433   0.186
 4179SOL    HW113436   4.542   2.522   0.230
 4179SOL    HW213437   4.448   2.389   0.217
 4180SOL     OW13438   3.981   3.764   0.394
 4180SOL    HW113439   4.073   3.760   0.435
 4180SOL    HW213440   3.973   3.691   0.326
 4181SOL     OW13441   5.893   6.627   5.599
 4181SOL    HW113442   5.826   6.688   5.642
 4181SOL    HW213443   5.985   6.663   5.614
 4182SOL     OW13444   0.839   6.036   5.610
 4182SOL    HW113445   0.741   6.027   5.624
 4182SOL    HW213446   0.888   5.993   5.686
 4183SOL     OW13447   4.491   2.092   0.606
 4183SOL    HW113448   4.500   2.096   0.705
 4183SOL    HW213449   4.547   2.016   0.571
 4184SOL     OW13450   3.489   5.595   3.185
 4184SOL    HW113451   3.403   5.575   3.136
 4184SOL    HW213452   3.505   5.693   3.184
 4185SOL     OW13453   4.899   3.588   3.536
 4185SOL    HW113454   4.892   3.687   3.541
 4185SOL    HW213455   4.922   3.561   3.443
 4186SOL     OW13456   1.697   5.459   6.975
 4186SOL    HW113457   1.655   5.521   0.015
 4186SOL    HW213458   1.734   5.379   7.022
 4187SOL     OW13459   2.220   3.884   5.652
 4187SOL    HW113460   2.300   3.871   5.711
 4187SOL    HW213461   2.207   3.802   5.596
 4188SOL     OW13462   4.642   0.161   0.039
 4188SOL    HW113463   4.594   0.233   0.089
 4188SOL    HW213464   4.716   0.201   7.012
 4189SOL     OW13465   4.673   5.107   3.322
 4189SOL    HW113466   4.587   5.076   3.364
 4189SOL    HW213467   4.692   5.051   3.241
 4190SOL     OW13468   6.116   6.820   1.605
 4190SOL    HW113469   6.032   6.805   1.553
 4190SOL    HW213470   6.195   6.799   1.547
 4191SOL     OW13471   4.367   3.368   6.716
 4191SOL    HW113472   4.362   3.364   6.816
 4191SOL    HW213473   4.278   3.343   6.677
 4192SOL     OW13474   1.621   3.753   6.567
 4192SOL    HW113475   1.654   3.792   6.481
 4192SOL    HW213476   1.690   3.691   6.604
 4193SOL     OW13477   0.232   0.497   0.017
 4193SOL    HW113478   0.205   0.486   0.112
 4193SOL    HW213479   0.199   0.419   6.990
 4194SOL     OW13480   5.519   1.306   6.217
 4194SOL    HW113481   5.503   1.405   6.218
 4194SOL    HW213482   5.616   1.288   6.231
 4195SOL     OW13483   2.687   6.946   0.990
 4195SOL    HW113484   2.649   7.026   1.036
 4195SOL    HW213485   2.769   6.973   0.940
 4196SOL     OW13486   6.831   2.288   2.948
 4196SOL    HW113487   6.773   2.239   3.013
 4196SOL    HW213488   6.921   2.244   2.943
 4197SOL     OW13489   3.270   0.978   0.270
 4197SOL    HW113490   3.347   1.039   0.252
 4197SOL    HW213491   3.245   0.984   0.367
 4198SOL     OW13492   6.153   2.159   2.299
 4198SOL    HW113493   6.083   2.199   2.239
 4198SOL    HW213494   6.188   2.230   2.360
 4199SOL     OW13495   0.413   3.609   6.496
 4199SOL    HW113496   0.485   3.553   6.455
 4199SOL    HW213497   0.346   3.550   6.541
 4200SOL     OW13498   4.699   1.572   3.685
 4200SOL    HW113499   4.603   1.586   3.708
 4200SOL    HW213500   4.716   1.603   3.591
 4201SOL     OW13501   6.236   6.567   4.866
 4201SOL    HW113502   6.221   6.569   4.965
 4201SOL    HW213503   6.183   6.492   4.826
 4202SOL     OW13504   4.648   4.089   1.729
 4202SOL    HW113505   4.656   4.153   1.653
 4202SOL    HW213506   4.558   4.099   1.773
 4203SOL     OW13507   5.727   4.345   5.534
 4203SOL    HW113508   5.688   4.388   5.615
 4203SOL    HW213509   5.807   4.291   5.561
 4204SOL     OW13510   1.879   4.107   6.133
 4204SOL    HW113511   1.892   4.098   6.034
 4204SOL    HW213512   1.785   4.135   6.152
 4205SOL     OW13513   4.673   6.634   6.455
 4205SOL    HW113514   4.721   6.708   6.408
 4205SOL    HW213515   4.675   6.551   6.399
 4206SOL     OW13516   2.049   1.600   4.027
 4206SOL    HW113517   2.100   1.641   4.103
 4206SOL    HW213518   2.108   1.534   3.979
 4207SOL     OW13519   1.143   2.404   2.594
 4207SOL    HW113520   1.113   2.431   2.685
 4207SOL    HW213521   1.180   2.484   2.546
 4208SOL     OW13522   2.222   2.272   3.945
 4208SOL    HW113523   2.214   2.206   4.020
 4208SOL    HW213524   2.205   2.226   3.858
 4209SOL     OW13525   6.882   5.832   1.763
 4209SOL    HW113526   6.980   5.843   1.778
 4209SOL    HW213527   6.866   5.749   1.708
 4210SOL     OW13528   2.919   4.362   5.360
 4210SOL    HW113529   2.900   4.416   5.279
 4210SOL    HW213530   3.011   4.382   5.393
 4211SOL     OW13531   3.665   2.825   5.265
 4211SOL    HW113532   3.610   2.858   5.342
 4211SOL    HW213533   3.737   2.765   5.298
 4212SOL     OW13534   0.010   1.961   2.989
 4212SOL    HW113535   0.077   1.951   3.062
 4212SOL    HW213536   6.955   1.909   3.012
 4213SOL     OW13537   3.752   0.331   3.860
 4213SOL    HW113538   3.809   0.251   3.881
 4213SOL    HW213539   3.751   0.345   3.761
 4214SOL     OW13540   6.536   5.800   3.152
 4214SOL    HW113541   6.513   5.749   3.069
 4214SOL    HW213542   6.539   5.737   3.230
 4215SOL     OW13543   5.921   0.162   6.100
 4215SOL    HW113544   5.916   0.235   6.031
 4215SOL    HW213545   6.016   0.134   6.112
 4216SOL     OW13546   2.572   5.152   2.182
 4216SOL    HW113547   2.558   5.120   2.089
 4216SOL    HW213548   2.497   5.214   2.207
 4217SOL     OW13549   1.464   0.007   3.226
 4217SOL    HW113550   1.466   0.087   3.285
 4217SOL    HW213551   1.442   6.953   3.280
 4218SOL     OW13552   2.327   1.057   1.656
 4218SOL    HW113553   2.304   0.998   1.734
 4218SOL    HW213554   2.381   1.006   1.590
 4219SOL     OW13555   3.782   4.908   3.270
 4219SOL    HW113556   3.855   4.867   3.325
 4219SOL    HW213557   3.695   4.865   3.293
 4220SOL     OW13558   6.372   2.123   1.044
 4220SOL    HW113559   6.401   2.142   0.951
 4220SOL    HW213560   6.378   2.207   1.099
 4221SOL     OW13561   0.520   6.095   0.771
 4221SOL    HW113562   0.550   6.189   0.753
 4221SOL    HW213563   0.530   6.075   0.868
 4222SOL     OW13564   5.009   3.317   4.261
 4222SOL    HW113565   5.032   3.339   4.167
 4222SOL    HW213566   5.000   3.401   4.314
 4223SOL     OW13567   3.414   3.702   3.147
 4223SOL    HW113568   3.322   3.724   3.178
 4223SOL    HW213569   3.450   3.779   3.093
 4224SOL     OW13570   4.597   4.761   4.395
 4224SOL    HW113571   4.521   4.697   4.402
 4224SOL    HW213572   4.565   4.847   4.356
 4225SOL     OW13573   1.103   1.940   5.694
 4225SOL    HW113574   1.091   1.931   5.793
 4225SOL    HW213575   1.159   2.021   5.675
 4226SOL     OW13576   0.282   5.462   4.818
 4226SOL    HW113577   0.257   5.450   4.722
 4226SOL    HW213578   0.306   5.373   4.858
 4227SOL     OW13579   4.879   5.428   1.909
 4227SOL    HW113580   4.916   5.339   1.933
 4227SOL    HW213581   4.884   5.440   1.809
 4228SOL     OW13582   1.394   4.612   3.865
 4228SOL    HW113583   1.390   4.512   3.861
 4228SOL    HW213584   1.464   4.640   3.930
 4229SOL     OW13585   5.472   5.795   5.058
 4229SOL    HW113586   5.527   5.717   5.085
 4229SOL    HW213587   5.389   5.762   5.012
 4230SOL     OW13588   6.647   1.369   1.422
 4230SOL    HW113589   6.740   1.364   1.458
 4230SOL    HW213590   6.596   1.287   1.450
 4231SOL     OW13591   0.265   0.864   6.021
 4231SOL    HW113592   0.220   0.778   5.995
 4231SOL    HW213593   0.350   0.873   5.970
 4232SOL     OW13594   1.364   4.707   4.226
 4232SOL    HW113595   1.347   4.793   4.275
 4232SOL    HW213596   1.446   4.717   4.169
 4233SOL     OW13597   5.323   5.510   2.423
 4233SOL    HW113598   5.328   5.608   2.408
 4233SOL    HW213599   5.232   5.477   2.396
 4234SOL     OW13600   3.474   5.186   5.852
 4234SOL    HW113601   3.498   5.254   5.783
 4234SOL    HW213602   3.380   5.200   5.881
 4235SOL     OW13603   6.989   5.869   6.280
 4235SOL    HW113604   0.060   5.880   6.298
 4235SOL    HW213605   6.938   5.940   6.328
 4236SOL     OW13606   0.147   5.687   3.057
 4236SOL    HW113607   0.192   5.690   3.146
 4236SOL    HW213608   0.198   5.744   2.992
 4237SOL     OW13609   0.106   4.716   4.100
 4237SOL    HW113610   0.108   4.665   4.014
 4237SOL    HW213611   0.159   4.800   4.091
 4238SOL     OW13612   2.701   5.915   2.255
 4238SOL    HW113613   2.652   5.896   2.340
 4238SOL    HW213614   2.767   5.988   2.270
 4239SOL     OW13615   4.262   1.064   3.941
 4239SOL    HW113616   4.280   1.155   3.978
 4239SOL    HW213617   4.269   0.996   4.014
 4240SOL     OW13618   5.640   6.915   1.478
 4240SOL    HW113619   5.562   6.974   1.458
 4240SOL    HW213620   5.655   6.912   1.577
 4241SOL     OW13621   6.434   3.990   0.169
 4241SOL    HW113622   6.376   4.056   0.216
 4241SOL    HW213623   6.492   3.942   0.235
 4242SOL     OW13624   2.970   2.246   3.267
 4242SOL    HW113625   3.069   2.239   3.254
 4242SOL    HW213626   2.950   2.276   3.360
 4243SOL     OW13627   4.488   1.434   2.890
 4243SOL    HW113628   4.513   1.435   2.793
 4243SOL    HW213629   4.547   1.370   2.939
 4244SOL     OW13630   3.059   3.020   4.953
 4244SOL    HW113631   3.088   2.967   5.033
 4244SOL    HW213632   2.979   2.976   4.912
 4245SOL     OW13633   6.028   0.452   0.197
 4245SOL    HW113634   6.046   0.416   0.289
 4245SOL    HW213635   6.109   0.440   0.140
 4246SOL     OW13636   6.947   4.024   6.638
 4246SOL    HW113637   6.922   4.104   6.693
 4246SOL    HW213638   6.925   4.041   6.542
 4247SOL     OW13639   0.720   5.924   5.218
 4247SOL    HW113640   0.718   5.972   5.131
 4247SOL    HW213641   0.773   5.840   5.208
 4248SOL     OW13642   2.270   3.919   6.324
 4248SOL    HW113643   2.369   3.930   6.320
 4248SOL    HW213644   2.240   3.852   6.256
 4249SOL     OW13645   5.285   4.054   5.209
 4249SOL    HW113646   5.306   4.120   5.136
 4249SOL    HW213647   5.348   3.976   5.202
 4250SOL     OW13648   1.432   4.149   3.242
 4250SOL    HW113649   1.411   4.070   3.299
 4250SOL    HW213650   1.518   4.190   3.273
 4251SOL     OW13651   5.236   4.504   0.102
 4251SOL    HW113652   5.178   4.467   0.030
 4251SOL    HW213653   5.304   4.566   0.062
 4252SOL     OW13654   0.162   5.575   5.851
 4252SOL    HW113655   0.152   5.659   5.904
 4252SOL    HW213656   0.214   5.508   5.904
 4253SOL     OW13657   3.811   6.134   2.682
 4253SOL    HW113658   3.783   6.219   2.637
 4253SOL    HW213659   3.910   6.122   2.671
 4254SOL     OW13660   3.060   4.119   1.694
 4254SOL    HW113661   2.971   4.135   1.651
 4254SOL    HW213662   3.057   4.033   1.746
 4255SOL     OW13663   0.673   2.235   4.247
 4255SOL    HW113664   0.663   2.217   4.149
 4255SOL    HW213665   0.770   2.243   4.270
 4256SOL     OW13666   1.492   0.930   2.056
 4256SOL    HW113667   1.436   0.993   2.110
 4256SOL    HW213668   1.511   0.970   1.966
 4257SOL     OW13669   4.151   2.209   4.950
 4257SOL    HW113670   4.173   2.300   4.984
 4257SOL    HW213671   4.171   2.204   4.852
 4258SOL     OW13672   5.202   6.562   2.910
 4258SOL    HW113673   5.204   6.628   2.985
 4258SOL    HW213674   5.187   6.470   2.945
 4259SOL     OW13675   1.677   2.993   0.662
 4259SOL    HW113676   1.715   2.956   0.747
 4259SOL    HW213677   1.686   3.092   0.662
 4260SOL     OW13678   3.956   5.925   3.778
 4260SOL    HW113679   3.953   6.023   3.800
 4260SOL    HW213680   3.865   5.895   3.747
 4261SOL     OW13681   1.303   1.558   2.858
 4261SOL    HW113682   1.287   1.493   2.784
 4261SOL    HW213683   1.292   1.651   2.824
 4262SOL     OW13684   6.599   6.770   6.549
 4262SOL    HW113685   6.650   6.785   6.464
 4262SOL    HW213686   6.601   6.673   6.573
 4263SOL     OW13687   3.971   5.343   6.560
 4263SOL    HW113688   3.909   5.318   6.634
 4263SOL    HW213689   4.059   5.370   6.598
 4264SOL     OW13690   0.008   0.732   1.339
 4264SOL    HW113691   0.013   0.634   1.361
 4264SOL    HW213692   7.008   0.743   1.244
 4265SOL     OW13693   1.152   2.631   0.263
 4265SOL    HW113694   1.073   2.576   0.237
 4265SOL    HW213695   1.169   2.700   0.193
 4266SOL     OW13696   3.063   4.650   1.540
 4266SOL    HW113697   3.080   4.589   1.617
 4266SOL    HW213698   3.064   4.745   1.571
 4267SOL     OW13699   1.860   4.115   5.848
 4267SOL    HW113700   1.780   4.080   5.799
 4267SOL    HW213701   1.864   4.214   5.841
 4268SOL     OW13702   1.779   0.699   0.374
 4268SOL    HW113703   1.697   0.663   0.330
 4268SOL    HW213704   1.851   0.631   0.372
 4269SOL     OW13705   3.148   4.099   0.686
 4269SOL    HW113706   3.184   4.158   0.759
 4269SOL    HW213707   3.072   4.045   0.722
 4270SOL     OW13708   3.869   2.767   6.280
 4270SOL    HW113709   3.855   2.681   6.330
 4270SOL    HW213710   3.794   2.830   6.299
 4271SOL     OW13711   1.353   0.202   0.586
 4271SOL    HW113712   1.356   0.116   0.535
 4271SOL    HW213713   1.275   0.201   0.648
 4272SOL     OW13714   6.960   4.257   3.677
 4272SOL    HW113715   6.990   4.278   3.585
 4272SOL    HW213716   6.885   4.318   3.703
 4273SOL     OW13717   5.479   5.917   4.341
 4273SOL    HW113718   5.534   5.938   4.422
 4273SOL    HW213719   5.493   5.987   4.271
 4274SOL     OW13720   1.817   0.282   3.625
 4274SOL    HW113721   1.794   0.211   3.692
 4274SOL    HW213722   1.750   0.356   3.629
 4275SOL     OW13723   1.317   0.272   6.460
 4275SOL    HW113724   1.288   0.251   6.367
 4275SOL    HW213725   1.238   0.299   6.515
 4276SOL     OW13726   2.013   4.563   2.316
 4276SOL    HW113727   1.966   4.651   2.310
 4276SOL    HW213728   2.069   4.550   2.235
 4277SOL     OW13729   1.010   5.444   4.707
 4277SOL    HW113730   0.936   5.485   4.760
 4277SOL    HW213731   0.986   5.351   4.681
 4278SOL     OW13732   1.047   6.874   5.828
 4278SOL    HW113733   1.112   6.802   5.800
 4278SOL    HW213734   0.978   6.834   5.888
 4279SOL     OW13735   3.316   6.088   4.218
 4279SOL    HW113736   3.376   6.072   4.140
 4279SOL    HW213737   3.249   6.013   4.224
 4280SOL     OW13738   4.814   3.014   3.798
 4280SOL    HW113739   4.878   3.051   3.730
 4280SOL    HW213740   4.742   2.962   3.752
 4281SOL     OW13741   2.600   3.989   5.385
 4281SOL    HW113742   2.565   4.065   5.439
 4281SOL    HW213743   2.536   3.970   5.310
 4282SOL     OW13744   0.848   3.243   0.972
 4282SOL    HW113745   0.936   3.291   0.965
 4282SOL    HW213746   0.833   3.191   0.888
 4283SOL     OW13747   2.377   0.412   4.482
 4283SOL    HW113748   2.469   0.445   4.459
 4283SOL    HW213749   2.374   0.387   4.579
 4284SOL     OW13750   6.573   1.717   3.015
 4284SOL    HW113751   6.527   1.806   3.019
 4284SOL    HW213752   6.539   1.666   2.937
 4285SOL     OW13753   0.954   6.482   4.713
 4285SOL    HW113754   1.024   6.539   4.670
 4285SOL    HW213755   0.869   6.487   4.659
 4286SOL     OW13756   5.602   5.662   6.915
 4286SOL    HW113757   5.619   5.748   6.963
 4286SOL    HW213758   5.525   5.673   6.853
 4287SOL     OW13759   3.885   6.319   5.487
 4287SOL    HW113760   3.882   6.391   5.417
 4287SOL    HW213761   3.973   6.272   5.481
 4288SOL     OW13762   1.622   6.505   2.992
 4288SOL    HW113763   1.590   6.411   3.005
 4288SOL    HW213764   1.718   6.512   3.018
 4289SOL     OW13765   6.433   3.609   0.115
 4289SOL    HW113766   6.471   3.581   0.027
 4289SOL    HW213767   6.352   3.666   0.101
 4290SOL     OW13768   2.443   1.318   3.035
 4290SOL    HW113769   2.368   1.306   3.100
 4290SOL    HW213770   2.408   1.359   2.951
 4291SOL     OW13771   6.726   4.611   1.350
 4291SOL    HW113772   6.781   4.695   1.340
 4291SOL    HW213773   6.784   4.538   1.387
 4292SOL     OW13774   5.598   5.593   5.960
 4292SOL    HW113775   5.684   5.542   5.951
 4292SOL    HW213776   5.547   5.560   6.039
 4293SOL     OW13777   0.315   2.635   6.052
 4293SOL    HW113778   0.414   2.626   6.066
 4293SOL    HW213779   0.267   2.603   6.134
 4294SOL     OW13780   5.045   2.356   5.825
 4294SOL    HW113781   5.048   2.354   5.725
 4294SOL    HW213782   5.045   2.451   5.857
 4295SOL     OW13783   3.882   6.091   5.190
 4295SOL    HW113784   3.799   6.096   5.247
 4295SOL    HW213785   3.876   6.010   5.131
 4296SOL     OW13786   2.591   1.236   2.209
 4296SOL    HW113787   2.688   1.223   2.187
 4296SOL    HW213788   2.580   1.311   2.273
 4297SOL     OW13789   5.799   1.018   0.046
 4297SOL    HW113790   5.810   0.960   6.992
 4297SOL    HW213791   5.836   0.970   0.126
 4298SOL     OW13792   2.638   5.111   1.344
 4298SOL    HW113793   2.575   5.185   1.321
 4298SOL    HW213794   2.664   5.118   1.440
 4299SOL     OW13795   1.130   4.706   5.968
 4299SOL    HW113796   1.149   4.743   6.059
 4299SOL    HW213797   1.168   4.767   5.899
 4300SOL     OW13798   5.703   0.160   5.819
 4300SOL    HW113799   5.758   0.078   5.834
 4300SOL    HW213800   5.749   0.239   5.861
 4301SOL     OW13801   2.589   1.203   0.414
 4301SOL    HW113802   2.621   1.291   0.379
 4301SOL    HW213803   2.601   1.133   0.344
 4302SOL     OW13804   0.982   6.948   6.932
 4302SOL    HW113805   1.076   6.936   6.965
 4302SOL    HW213806   0.919   6.908   6.998
 4303SOL     OW13807   7.004   4.027   1.739
 4303SOL    HW113808   0.041   4.008   1.813
 4303SOL    HW213809   0.027   4.048   1.655
 4304SOL     OW13810   3.159   2.886   5.158
 4304SOL    HW113811   3.198   2.812   5.211
 4304SOL    HW213812   3.225   2.918   5.090
 4305SOL     OW13813   5.878   1.176   5.029
 4305SOL    HW113814   5.962   1.186   5.082
 4305SOL    HW213815   5.809   1.130   5.085
 4306SOL     OW13816   5.998   5.732   6.610
 4306SOL    HW113817   6.079   5.790   6.618
 4306SOL    HW213818   5.976   5.693   6.699
 4307SOL     OW13819   5.091   3.539   0.380
 4307SOL    HW113820   5.141   3.463   0.338
 4307SOL    HW213821   5.048   3.594   0.308
 4308SOL     OW13822   3.876   6.504   5.295
 4308SOL    HW113823   3.815   6.549   5.231
 4308SOL    HW213824   3.964   6.552   5.297
 4309SOL     OW13825   1.371   1.008   1.472
 4309SOL    HW113826   1.347   0.982   1.378
 4309SOL    HW213827   1.375   1.108   1.479
 4310SOL     OW13828   1.770   0.696   2.717
 4310SOL    HW113829   1.696   0.649   2.668
 4310SOL    HW213830   1.792   0.782   2.670
 4311SOL     OW13831   1.675   5.787   4.138
 4311SOL    HW113832   1.587   5.760   4.177
 4311SOL    HW213833   1.730   5.833   4.208
 4312SOL     OW13834   1.353   5.614   1.485
 4312SOL    HW113835   1.270   5.572   1.448
 4312SOL    HW213836   1.424   5.543   1.494
 4313SOL     OW13837   4.704   0.501   1.895
 4313SOL    HW113838   4.668   0.412   1.922
 4313SOL    HW213839   4.757   0.491   1.811
 4314SOL     OW13840   5.479   3.560   2.654
 4314SOL    HW113841   5.464   3.461   2.655
 4314SOL    HW213842   5.411   3.604   2.712
 4315SOL     OW13843   2.339   1.262   2.101
 4315SOL    HW113844   2.288   1.326   2.159
 4315SOL    HW213845   2.435   1.261   2.129
 4316SOL     OW13846   0.599   0.707   2.048
 4316SOL    HW113847   0.680   0.710   1.990
 4316SOL    HW213848   0.545   0.790   2.035
 4317SOL     OW13849   3.955   0.529   3.913
 4317SOL    HW113850   3.889   0.454   3.907
 4317SOL    HW213851   3.982   0.542   4.008
 4318SOL     OW13852   6.946   2.924   4.060
 4318SOL    HW113853   6.938   2.937   4.159
 4318SOL    HW213854   6.885   2.989   4.014
 4319SOL     OW13855   2.782   3.075   5.601
 4319SOL    HW113856   2.776   3.081   5.701
 4319SOL    HW213857   2.752   3.161   5.561
 4320SOL     OW13858   0.537   5.745   3.111
 4320SOL    HW113859   0.565   5.773   3.020
 4320SOL    HW213860   0.520   5.646   3.112
 4321SOL     OW13861   0.329   0.882   4.614
 4321SOL    HW113862   0.261   0.810   4.600
 4321SOL    HW213863   0.368   0.874   4.706
 4322SOL     OW13864   5.897   1.219   0.831
 4322SOL    HW113865   5.923   1.182   0.920
 4322SOL    HW213866   5.965   1.192   0.763
 4323SOL     OW13867   6.979   2.180   3.819
 4323SOL    HW113868   6.932   2.222   3.741
 4323SOL    HW213869   6.924   2.103   3.853
 4324SOL     OW13870   6.121   3.038   6.253
 4324SOL    HW113871   6.095   3.134   6.268
 4324SOL    HW213872   6.050   2.978   6.288
 4325SOL     OW13873   2.002   1.416   5.591
 4325SOL    HW113874   2.087   1.410   5.643
 4325SOL    HW213875   1.932   1.461   5.647
 4326SOL     OW13876   6.445   2.420   5.301
 4326SOL    HW113877   6.463   2.387   5.208
 4326SOL    HW213878   6.499   2.366   5.366
 4327SOL     OW13879   5.127   0.520   3.149
 4327SOL    HW113880   5.104   0.600   3.204
 4327SOL    HW213881   5.227   0.515   3.140
 4328SOL     OW13882   5.181   5.120   0.526
 4328SOL    HW113883   5.119   5.186   0.482
 4328SOL    HW213884   5.276   5.150   0.512
 4329SOL     OW13885   4.735   1.612   6.361
 4329SOL    HW113886   4.656   1.555   6.383
 4329SOL    HW213887   4.712   1.708   6.377
 4330SOL     OW13888   0.456   0.522   6.749
 4330SOL    HW113889   0.463   0.568   6.837
 4330SOL    HW213890   0.541   0.473   6.729
 4331SOL     OW13891   5.165   2.614   0.233
 4331SOL    HW113892   5.184   2.704   0.273
 4331SOL    HW213893   5.216   2.604   0.147
 4332SOL     OW13894   5.190   3.586   1.693
 4332SOL    HW113895   5.205   3.594   1.791
 4332SOL    HW213896   5.219   3.496   1.662
 4333SOL     OW13897   5.755   1.583   5.490
 4333SOL    HW113898   5.684   1.549   5.551
 4333SOL    HW213899   5.817   1.643   5.541
 4334SOL     OW13900   4.555   0.193   1.838
 4334SOL    HW113901   4.488   0.146   1.895
 4334SOL    HW213902   4.647   0.178   1.875
 4335SOL     OW13903   3.700   4.430   5.626
 4335SOL    HW113904   3.737   4.510   5.578
 4335SOL    HW213905   3.735   4.428   5.719
 4336SOL     OW13906   1.691   6.260   5.026
 4336SOL    HW113907   1.658   6.197   5.097
 4336SOL    HW213908   1.712   6.208   4.943
 4337SOL     OW13909   0.808   4.932   0.348
 4337SOL    HW113910   0.811   4.940   0.249
 4337SOL    HW213911   0.831   4.838   0.375
 4338SOL     OW13912   6.150   6.000   3.702
 4338SOL    HW113913   6.081   6.008   3.630
 4338SOL    HW213914   6.191   6.089   3.718
 4339SOL     OW13915   6.434   1.207   6.230
 4339SOL    HW113916   6.470   1.117   6.257
 4339SOL    HW213917   6.429   1.266   6.311
 4340SOL     OW13918   4.878   3.150   2.161
 4340SOL    HW113919   4.843   3.241   2.138
 4340SOL    HW213920   4.821   3.080   2.117
 4341SOL     OW13921   0.847   3.748   6.890
 4341SOL    HW113922   0.944   3.753   6.866
 4341SOL    HW213923   0.806   3.668   6.847
 4342SOL     OW13924   6.971   1.809   2.695
 4342SOL    HW113925   6.892   1.751   2.672
 4342SOL    HW213926   6.971   1.826   2.793
 4343SOL     OW13927   2.233   1.823   1.262
 4343SOL    HW113928   2.310   1.792   1.319
 4343SOL    HW213929   2.231   1.922   1.260
 4344SOL     OW13930   2.139   4.088   2.679
 4344SOL    HW113931   2.076   4.164   2.661
 4344SOL    HW213932   2.161   4.042   2.593
 4345SOL     OW13933   2.489   1.254   6.028
 4345SOL    HW113934   2.562   1.296   5.974
 4345SOL    HW213935   2.529   1.185   6.089
 4346SOL     OW13936   0.277   3.113   1.338
 4346SOL    HW113937   0.285   3.180   1.411
 4346SOL    HW213938   0.182   3.082   1.330
 4347SOL     OW13939   5.991   6.236   2.756
 4347SOL    HW113940   5.932   6.285   2.692
 4347SOL    HW213941   5.936   6.175   2.813
 4348SOL     OW13942   1.054   4.012   6.871
 4348SOL    HW113943   1.019   3.920   6.888
 4348SOL    HW213944   1.153   4.012   6.879
 4349SOL     OW13945   0.032   0.352   2.381
 4349SOL    HW113946   0.032   0.252   2.373
 4349SOL    HW213947   0.124   0.387   2.367
 4350SOL     OW13948   4.702   0.999   3.484
 4350SOL    HW113949   4.649   1.083   3.473
 4350SOL    HW213950   4.683   0.959   3.574
 4351SOL     OW13951   2.809   6.050   0.575
 4351SOL    HW113952   2.794   6.045   0.476
 4351SOL    HW213953   2.724   6.074   0.620
 4352SOL     OW13954   6.217   1.340   2.723
 4352SOL    HW113955   6.281   1.381   2.658
 4352SOL    HW213956   6.124   1.354   2.691
 4353SOL     OW13957   2.869   5.705   1.565
 4353SOL    HW113958   2.887   5.802   1.581
 4353SOL    HW213959   2.956   5.655   1.562
 4354SOL     OW13960   1.833   0.729   1.201
 4354SOL    HW113961   1.846   0.692   1.293
 4354SOL    HW213962   1.805   0.825   1.208
 4355SOL     OW13963   4.776   0.819   0.911
 4355SOL    HW113964   4.677   0.814   0.906
 4355SOL    HW213965   4.805   0.813   1.007
 4356SOL     OW13966   3.609   4.409   0.123
 4356SOL    HW113967   3.625   4.501   0.087
 4356SOL    HW213968   3.562   4.354   0.055
 4357SOL     OW13969   6.661   0.740   6.680
 4357SOL    HW113970   6.685   0.753   6.584
 4357SOL    HW213971   6.745   0.730   6.734
 4358SOL     OW13972   6.281   1.050   1.354
 4358SOL    HW113973   6.232   1.108   1.419
 4358SOL    HW213974   6.217   1.013   1.287
 4359SOL     OW13975   6.570   2.772   4.074
 4359SOL    HW113976   6.629   2.710   4.021
 4359SOL    HW213977   6.558   2.736   4.166
 4360SOL     OW13978   2.313   3.348   1.255
 4360SOL    HW113979   2.397   3.358   1.308
 4360SOL    HW213980   2.326   3.389   1.165
 4361SOL     OW13981   5.324   1.559   2.023
 4361SOL    HW113982   5.408   1.550   2.077
 4361SOL    HW213983   5.254   1.605   2.077
 4362SOL     OW13984   5.465   4.212   3.247
 4362SOL    HW113985   5.376   4.242   3.213
 4362SOL    HW213986   5.524   4.187   3.170
 4363SOL     OW13987   5.370   1.078   6.168
 4363SOL    HW113988   5.405   1.171   6.162
 4363SOL    HW213989   5.274   1.080   6.196
 4364SOL     OW13990   3.575   3.981   5.056
 4364SOL    HW113991   3.513   3.911   5.020
 4364SOL    HW213992   3.554   4.069   5.014
 4365SOL     OW13993   3.523   1.564   0.573
 4365SOL    HW113994   3.503   1.467   0.580
 4365SOL    HW213995   3.563   1.584   0.484
 4366SOL     OW13996   5.193   5.006   1.294
 4366SOL    HW113997   5.229   5.036   1.383
 4366SOL    HW213998   5.247   5.048   1.221
 4367SOL     OW13999   0.260   6.735   0.624
 4367SOL    HW114000   0.230   6.741   0.719
 4367SOL    HW214001   0.360   6.736   0.621
 4368SOL     OW14002   4.854   4.030   1.988
 4368SOL    HW114003   4.899   4.115   2.012
 4368SOL    HW214004   4.791   4.045   1.912
 4369SOL     OW14005   3.197   5.860   1.751
 4369SOL    HW114006   3.100   5.876   1.767
 4369SOL    HW214007   3.226   5.913   1.671
 4370SOL     OW14008   5.845   4.374   2.560
 4370SOL    HW114009   5.867   4.284   2.598
 4370SOL    HW214010   5.864   4.445   2.629
 4371SOL     OW14011   0.476   2.375   2.146
 4371SOL    HW114012   0.419   2.364   2.064
 4371SOL    HW214013   0.429   2.336   2.225
 4372SOL     OW14014   4.540   0.176   3.495
 4372SOL    HW114015   4.611   0.232   3.453
 4372SOL    HW214016   4.466   0.236   3.527
 4373SOL     OW14017   6.695   1.637   6.152
 4373SOL    HW114018   6.761   1.685   6.210
 4373SOL    HW214019   6.685   1.542   6.185
 4374SOL     OW14020   3.417   1.454   1.316
 4374SOL    HW114021   3.412   1.406   1.229
 4374SOL    HW214022   3.377   1.397   1.388
 4375SOL     OW14023   3.762   6.504   4.169
 4375SOL    HW114024   3.847   6.462   4.200
 4375SOL    HW214025   3.782   6.593   4.128
 4376SOL     OW14026   6.597   2.090   4.089
 4376SOL    HW114027   6.549   2.088   4.001
 4376SOL    HW214028   6.583   2.003   4.136
 4377SOL     OW14029   6.616   5.052   6.343
 4377SOL    HW114030   6.527   5.008   6.349
 4377SOL    HW214031   6.605   5.147   6.314
 4378SOL     OW14032   2.492   1.548   3.984
 4378SOL    HW114033   2.481   1.607   3.904
 4378SOL    HW214034   2.589   1.527   3.997
 4379SOL     OW14035   3.062   1.774   5.474
 4379SOL    HW114036   3.027   1.856   5.429
 4379SOL    HW214037   3.040   1.778   5.571
 4380SOL     OW14038   0.394   1.990   2.426
 4380SOL    HW114039   0.342   2.070   2.395
 4380SOL    HW214040   0.433   1.943   2.346
 4381SOL     OW14041   1.892   6.194   6.427
 4381SOL    HW114042   1.858   6.186   6.521
 4381SOL    HW214043   1.862   6.114   6.374
 4382SOL     OW14044   0.467   4.857   4.503
 4382SOL    HW114045   0.454   4.769   4.549
 4382SOL    HW214046   0.499   4.842   4.410
 4383SOL     OW14047   6.130   3.665   6.931
 4383SOL    HW114048   6.175   3.754   6.920
 4383SOL    HW214049   6.193   3.593   6.904
 4384SOL     OW14050   5.547   0.024   3.837
 4384SOL    HW114051   5.477   0.051   3.903
 4384SOL    HW214052   5.543   0.085   3.758
 4385SOL     OW14053   4.795   1.878   6.005
 4385SOL    HW114054   4.894   1.890   6.010
 4385SOL    HW214055   4.773   1.781   5.996
 4386SOL     OW14056   2.139   3.648   4.964
 4386SOL    HW114057   2.160   3.727   5.022
 4386SOL    HW214058   2.057   3.602   4.999
 4387SOL     OW14059   5.705   2.157   0.802
 4387SOL    HW114060   5.623   2.213   0.791
 4387SOL    HW214061   5.694   2.072   0.751
 4388SOL     OW14062   5.041   4.092   0.032
 4388SOL    HW114063   5.034   4.018   0.099
 4388SOL    HW214064   4.967   4.083   6.992
 4389SOL     OW14065   1.052   2.931   0.540
 4389SOL    HW114066   1.073   2.836   0.563
 4389SOL    HW214067   0.987   2.933   0.464
 4390SOL     OW14068   0.020   1.413   0.739
 4390SOL    HW114069   0.041   1.413   0.837
 4390SOL    HW214070   7.000   1.328   0.715
 4391SOL     OW14071   1.210   5.832   0.804
 4391SOL    HW114072   1.292   5.875   0.767
 4391SOL    HW214073   1.169   5.772   0.735
 4392SOL     OW14074   0.913   3.214   5.668
 4392SOL    HW114075   0.941   3.181   5.578
 4392SOL    HW214076   0.983   3.276   5.704
 4393SOL     OW14077   4.985   0.832   1.775
 4393SOL    HW114078   5.033   0.906   1.822
 4393SOL    HW214079   4.919   0.789   1.837
 4394SOL     OW14080   1.107   0.186   2.718
 4394SOL    HW114081   1.016   0.228   2.718
 4394SOL    HW214082   1.120   0.134   2.633
 4395SOL     OW14083   1.767   4.613   2.067
 4395SOL    HW114084   1.787   4.520   2.097
 4395SOL    HW214085   1.792   4.623   1.971
 4396SOL     OW14086   3.150   1.203   2.811
 4396SOL    HW114087   3.235   1.179   2.766
 4396SOL    HW214088   3.170   1.256   2.894
 4397SOL     OW14089   3.215   1.466   4.680
 4397SOL    HW114090   3.204   1.374   4.717
 4397SOL    HW214091   3.130   1.517   4.694
 4398SOL     OW14092   1.845   3.039   5.507
 4398SOL    HW114093   1.907   3.102   5.459
 4398SOL    HW214094   1.897   2.961   5.542
 4399SOL     OW14095   2.434   6.382   2.068
 4399SOL    HW114096   2.440   6.294   2.019
 4399SOL    HW214097   2.461   6.369   2.163
 4400SOL     OW14098   1.755   5.773   4.557
 4400SOL    HW114099   1.752   5.801   4.653
 4400SOL    HW214100   1.837   5.809   4.514
 4401SOL     OW14101   3.274   6.754   6.594
 4401SOL    HW114102   3.223   6.693   6.654
 4401SOL    HW214103   3.317   6.826   6.649
 4402SOL     OW14104   2.087   0.643   3.164
 4402SOL    HW114105   2.079   0.563   3.104
 4402SOL    HW214106   1.999   0.689   3.170
 4403SOL     OW14107   0.401   5.124   1.802
 4403SOL    HW114108   0.443   5.073   1.877
 4403SOL    HW214109   0.370   5.213   1.835
 4404SOL     OW14110   0.062   6.802   6.118
 4404SOL    HW114111   0.006   6.741   6.063
 4404SOL    HW214112   0.036   6.793   6.214
 4405SOL     OW14113   1.829   5.448   2.297
 4405SOL    HW114114   1.765   5.376   2.268
 4405SOL    HW214115   1.791   5.537   2.273
 4406SOL     OW14116   5.857   4.117   2.023
 4406SOL    HW114117   5.868   4.181   2.099
 4406SOL    HW214118   5.945   4.107   1.975
 4407SOL     OW14119   6.272   6.674   1.198
 4407SOL    HW114120   6.317   6.699   1.112
 4407SOL    HW214121   6.210   6.597   1.182
 4408SOL     OW14122   3.970   0.763   0.139
 4408SOL    HW114123   3.948   0.683   0.194
 4408SOL    HW214124   4.030   0.824   0.191
 4409SOL     OW14125   3.223   0.749   3.208
 4409SOL    HW114126   3.253   0.676   3.270
 4409SOL    HW214127   3.291   0.823   3.209
 4410SOL     OW14128   0.172   0.290   0.957
 4410SOL    HW114129   0.256   0.325   0.999
 4410SOL    HW214130   0.126   0.364   0.907
 4411SOL     OW14131   4.366   4.637   5.304
 4411SOL    HW114132   4.303   4.588   5.243
 4411SOL    HW214133   4.314   4.703   5.359
 4412SOL     OW14134   4.102   6.269   1.974
 4412SOL    HW114135   4.099   6.368   1.960
 4412SOL    HW214136   4.134   6.224   1.891
 4413SOL     OW14137   4.810   5.220   4.106
 4413SOL    HW114138   4.818   5.290   4.036
 4413SOL    HW214139   4.713   5.203   4.126
 4414SOL     OW14140   5.485   3.913   1.788
 4414SOL    HW114141   5.408   3.950   1.735
 4414SOL    HW214142   5.543   3.988   1.819
 4415SOL     OW14143   1.606   3.174   1.676
 4415SOL    HW114144   1.607   3.074   1.667
 4415SOL    HW214145   1.511   3.207   1.669
 4416SOL     OW14146   5.055   2.711   3.278
 4416SOL    HW114147   5.005   2.770   3.215
 4416SOL    HW214148   4.991   2.644   3.318
 4417SOL     OW14149   0.137   3.980   1.956
 4417SOL    HW114150   0.191   4.054   1.996
 4417SOL    HW214151   0.085   3.934   2.028
 4418SOL     OW14152   6.570   0.230   5.561
 4418SOL    HW114153   6.540   0.195   5.650
 4418SOL    HW214154   6.607   0.322   5.572
 4419SOL     OW14155   6.665   5.498   6.854
 4419SOL    HW114156   6.597   5.448   6.907
 4419SOL    HW214157   6.657   5.475   6.757
 4420SOL     OW14158   3.716   1.646   1.085
 4420SOL    HW114159   3.691   1.670   0.991
 4420SOL    HW214160   3.634   1.646   1.142
 4421SOL     OW14161   1.771   3.174   0.275
 4421SOL    HW114162   1.840   3.139   0.338
 4421SOL    HW214163   1.698   3.107   0.266
 4422SOL     OW14164   6.349   3.311   6.222
 4422SOL    HW114165   6.401   3.357   6.294
 4422SOL    HW214166   6.411   3.254   6.168
 4423SOL     OW14167   6.557   4.216   5.155
 4423SOL    HW114168   6.510   4.162   5.226
 4423SOL    HW214169   6.513   4.305   5.148
 4424SOL     OW14170   4.769   5.962   2.869
 4424SOL    HW114171   4.837   5.905   2.822
 4424SOL    HW214172   4.809   5.997   2.954
 4425SOL     OW14173   0.879   5.685   1.177
 4425SOL    HW114174   0.794   5.667   1.226
 4425SOL    HW214175   0.931   5.756   1.224
 4426SOL     OW14176   0.427   0.722   4.354
 4426SOL    HW114177   0.461   0.765   4.438
 4426SOL    HW214178   0.332   0.696   4.365
 4427SOL     OW14179   2.056   5.332   2.187
 4427SOL    HW114180   2.149   5.307   2.214
 4427SOL    HW214181   2.002   5.355   2.269
 4428SOL     OW14182   6.440   5.182   3.093
 4428SOL    HW114183   6.374   5.256   3.084
 4428SOL    HW214184   6.392   5.095   3.106
 4429SOL     OW14185   3.056   6.540   3.658
 4429SOL    HW114186   3.102   6.524   3.571
 4429SOL    HW214187   3.066   6.636   3.684
 4430SOL     OW14188   5.861   3.718   5.121
 4430SOL    HW114189   5.851   3.817   5.127
 4430SOL    HW214190   5.923   3.687   5.193
 4431SOL     OW14191   4.125   6.352   4.638
 4431SOL    HW114192   4.110   6.432   4.580
 4431SOL    HW214193   4.102   6.374   4.733
 4432SOL     OW14194   0.716   3.668   5.703
 4432SOL    HW114195   0.662   3.684   5.620
 4432SOL    HW214196   0.683   3.727   5.776
 4433SOL     OW14197   0.721   1.308   4.377
 4433SOL    HW114198   0.686   1.328   4.285
 4433SOL    HW214199   0.701   1.213   4.400
 4434SOL     OW14200   0.028   0.382   2.089
 4434SOL    HW114201   7.004   0.423   2.165
 4434SOL    HW214202   0.117   0.351   2.121
 4435SOL     OW14203   2.485   4.173   0.714
 4435SOL    HW114204   2.580   4.164   0.744
 4435SOL    HW214205   2.479   4.162   0.615
 4436SOL     OW14206   4.474   2.350   2.141
 4436SOL    HW114207   4.399   2.295   2.103
 4436SOL    HW214208   4.473   2.343   2.241
 4437SOL     OW14209   6.511   4.408   0.168
 4437SOL    HW114210   6.469   4.369   0.249
 4437SOL    HW214211   6.460   4.379   0.087
 4438SOL     OW14212   4.428   0.895   4.867
 4438SOL    HW114213   4.348   0.835   4.860
 4438SOL    HW214214   4.400   0.990   4.852
 4439SOL     OW14215   2.691   6.151   3.048
 4439SOL    HW114216   2.602   6.188   3.074
 4439SOL    HW214217   2.679   6.060   3.008
 4440SOL     OW14218   1.701   4.560   6.015
 4440SOL    HW114219   1.714   4.537   6.112
 4440SOL    HW214220   1.604   4.566   5.995
 4441SOL     OW14221   6.959   2.415   0.993
 4441SOL    HW114222   0.031   2.408   0.978
 4441SOL    HW214223   6.928   2.505   0.964
 4442SOL     OW14224   1.673   5.071   0.220
 4442SOL    HW114225   1.728   5.133   0.165
 4442SOL    HW214226   1.617   5.013   0.161
 4443SOL     OW14227   0.557   5.795   6.000
 4443SOL    HW114228   0.522   5.862   5.935
 4443SOL    HW214229   0.641   5.830   6.042
 4444SOL     OW14230   5.743   5.172   1.040
 4444SOL    HW114231   5.777   5.265   1.024
 4444SOL    HW214232   5.747   5.121   0.954
 4445SOL     OW14233   1.331   4.309   0.384
 4445SOL    HW114234   1.322   4.224   0.436
 4445SOL    HW214235   1.282   4.301   0.297
 4446SOL     OW14236   4.403   1.726   1.620
 4446SOL    HW114237   4.406   1.708   1.719
 4446SOL    HW214238   4.432   1.820   1.603
 4447SOL     OW14239   3.844   5.867   5.932
 4447SOL    HW114240   3.794   5.788   5.967
 4447SOL    HW214241   3.812   5.950   5.979
 4448SOL     OW14242   3.312   6.344   1.877
 4448SOL    HW114243   3.288   6.293   1.959
 4448SOL    HW214244   3.408   6.326   1.853
 4449SOL     OW14245   3.663   1.616   5.638
 4449SOL    HW114246   3.656   1.645   5.542
 4449SOL    HW214247   3.652   1.516   5.643
 4450SOL     OW14248   2.426   6.478   0.172
 4450SOL    HW114249   2.448   6.552   0.236
 4450SOL    HW214250   2.506   6.459   0.115
 4451SOL     OW14251   4.522   5.334   3.267
 4451SOL    HW114252   4.423   5.316   3.272
 4451SOL    HW214253   4.572   5.257   3.306
 4452SOL     OW14254   4.864   5.509   4.279
 4452SOL    HW114255   4.945   5.524   4.222
 4452SOL    HW214256   4.834   5.414   4.268
 4453SOL     OW14257   6.918   4.744   0.681
 4453SOL    HW114258   7.003   4.779   0.721
 4453SOL    HW214259   6.860   4.820   0.653
 4454SOL     OW14260   1.353   2.517   0.408
 4454SOL    HW114261   1.317   2.428   0.436
 4454SOL    HW214262   1.280   2.570   0.364
 4455SOL     OW14263   1.880   0.434   4.306
 4455SOL    HW114264   1.849   0.441   4.211
 4455SOL    HW214265   1.979   0.420   4.308
 4456SOL     OW14266   2.172   6.175   3.910
 4456SOL    HW114267   2.194   6.269   3.935
 4456SOL    HW214268   2.073   6.161   3.920
 4457SOL     OW14269   1.581   1.973   4.519
 4457SOL    HW114270   1.599   2.070   4.504
 4457SOL    HW214271   1.508   1.962   4.587
 4458SOL     OW14272   1.272   3.268   6.413
 4458SOL    HW114273   1.306   3.181   6.377
 4458SOL    HW214274   1.177   3.257   6.440
 4459SOL     OW14275   0.930   3.094   2.904
 4459SOL    HW114276   0.835   3.123   2.909
 4459SOL    HW214277   0.984   3.163   2.855
 4460SOL     OW14278   7.009   2.711   4.520
 4460SOL    HW114279   7.019   2.794   4.574
 4460SOL    HW214280   7.021   2.733   4.423
 4461SOL     OW14281   1.877   0.642   0.650
 4461SOL    HW114282   1.857   0.544   0.657
 4461SOL    HW214283   1.795   0.690   0.619
 4462SOL     OW14284   6.323   4.212   2.771
 4462SOL    HW114285   6.323   4.133   2.710
 4462SOL    HW214286   6.228   4.238   2.792
 4463SOL     OW14287   5.547   1.712   0.368
 4463SOL    HW114288   5.466   1.691   0.313
 4463SOL    HW214289   5.542   1.662   0.454
 4464SOL     OW14290   0.548   4.029   1.602
 4464SOL    HW114291   0.621   3.993   1.660
 4464SOL    HW214292   0.461   4.022   1.651
 4465SOL     OW14293   3.701   5.159   2.048
 4465SOL    HW114294   3.618   5.105   2.035
 4465SOL    HW214295   3.692   5.215   2.130
 4466SOL     OW14296   0.408   2.925   2.394
 4466SOL    HW114297   0.475   2.997   2.374
 4466SOL    HW214298   0.386   2.876   2.309
 4467SOL     OW14299   5.352   4.669   2.093
 4467SOL    HW114300   5.358   4.725   2.176
 4467SOL    HW214301   5.442   4.628   2.076
 4468SOL     OW14302   1.453   3.223   1.345
 4468SOL    HW114303   1.499   3.271   1.419
 4468SOL    HW214304   1.428   3.289   1.273
 4469SOL     OW14305   2.216   5.481   1.401
 4469SOL    HW114306   2.154   5.404   1.390
 4469SOL    HW214307   2.171   5.551   1.457
 4470SOL     OW14308   0.891   0.274   2.579
 4470SOL    HW114309   0.832   0.345   2.539
 4470SOL    HW214310   0.838   0.221   2.645
 4471SOL     OW14311   0.922   0.180   6.330
 4471SOL    HW114312   0.969   0.250   6.276
 4471SOL    HW214313   0.986   0.138   6.394
 4472SOL     OW14314   1.838   2.918   0.892
 4472SOL    HW114315   1.818   2.940   0.988
 4472SOL    HW214316   1.874   2.825   0.887
 4473SOL     OW14317   0.354   3.471   4.842
 4473SOL    HW114318   0.432   3.533   4.838
 4473SOL    HW214319   0.307   3.471   4.754
 4474SOL     OW14320   2.715   6.037   1.320
 4474SOL    HW114321   2.649   5.979   1.272
 4474SOL    HW214322   2.672   6.074   1.403
 4475SOL     OW14323   0.911   3.724   0.648
 4475SOL    HW114324   0.877   3.704   0.739
 4475SOL    HW214325   0.835   3.727   0.583
 4476SOL     OW14326   5.616   1.233   3.531
 4476SOL    HW114327   5.605   1.222   3.432
 4476SOL    HW214328   5.609   1.329   3.555
 4477SOL     OW14329   0.150   1.171   4.932
 4477SOL    HW114330   0.106   1.261   4.931
 4477SOL    HW214331   0.186   1.150   4.842
 4478SOL     OW14332   1.606   0.491   1.918
 4478SOL    HW114333   1.702   0.514   1.908
 4478SOL    HW214334   1.563   0.486   1.828
 4479SOL     OW14335   2.031   2.416   6.938
 4479SOL    HW114336   2.064   2.504   6.970
 4479SOL    HW214337   2.053   2.346   7.007
 4480SOL     OW14338   0.785   6.784   3.170
 4480SOL    HW114339   0.775   6.746   3.262
 4480SOL    HW214340   0.824   6.714   3.110
 4481SOL     OW14341   1.855   3.507   5.442
 4481SOL    HW114342   1.824   3.560   5.521
 4481SOL    HW214343   1.826   3.412   5.452
 4482SOL     OW14344   1.913   0.210   1.399
 4482SOL    HW114345   1.851   0.132   1.401
 4482SOL    HW214346   1.882   0.279   1.464
 4483SOL     OW14347   1.625   3.616   0.529
 4483SOL    HW114348   1.673   3.695   0.491
 4483SOL    HW214349   1.633   3.538   0.466
 4484SOL     OW14350   2.849   0.846   6.752
 4484SOL    HW114351   2.943   0.812   6.760
 4484SOL    HW214352   2.850   0.935   6.707
 4485SOL     OW14353   0.063   3.364   4.974
 4485SOL    HW114354   0.057   3.344   5.072
 4485SOL    HW214355   0.157   3.353   4.943
 4486SOL     OW14356   5.087   4.377   3.842
 4486SOL    HW114357   5.164   4.319   3.814
 4486SOL    HW214358   5.005   4.349   3.792
 4487SOL     OW14359   0.550   2.922   6.620
 4487SOL    HW114360   0.452   2.902   6.618
 4487SOL    HW214361   0.594   2.878   6.542
 4488SOL     OW14362   0.002   3.811   3.485
 4488SOL    HW114363   6.988   3.722   3.502
 4488SOL    HW214364   6.960   3.882   3.492
 4489SOL     OW14365   3.364   6.114   6.599
 4489SOL    HW114366   3.369   6.020   6.631
 4489SOL    HW214367   3.437   6.168   6.641
 4490SOL     OW14368   5.220   1.527   1.759
 4490SOL    HW114369   5.236   1.527   1.858
 4490SOL    HW214370   5.307   1.541   1.711
 4491SOL     OW14371   1.143   3.300   3.059
 4491SOL    HW114372   1.098   3.381   3.096
 4491SOL    HW214373   1.112   3.285   2.965
 4492SOL     OW14374   6.702   1.137   2.519
 4492SOL    HW114375   6.632   1.067   2.506
 4492SOL    HW214376   6.676   1.196   2.595
 4493SOL     OW14377   5.083   1.626   5.713
 4493SOL    HW114378   5.182   1.636   5.725
 4493SOL    HW214379   5.062   1.531   5.691
 4494SOL     OW14380   1.732   0.715   2.356
 4494SOL    HW114381   1.769   0.648   2.292
 4494SOL    HW214382   1.689   0.667   2.432
 4495SOL     OW14383   3.796   6.467   1.063
 4495SOL    HW114384   3.887   6.431   1.084
 4495SOL    HW214385   3.754   6.412   0.991
 4496SOL     OW14386   2.625   6.507   5.605
 4496SOL    HW114387   2.552   6.440   5.618
 4496SOL    HW214388   2.708   6.475   5.652
 4497SOL     OW14389   4.238   0.695   6.128
 4497SOL    HW114390   4.267   0.783   6.165
 4497SOL    HW214391   4.139   0.696   6.115
 4498SOL     OW14392   0.631   4.979   4.716
 4498SOL    HW114393   0.631   5.079   4.721
 4498SOL    HW214394   0.579   4.950   4.636
 4499SOL     OW14395   6.103   1.013   2.665
 4499SOL    HW114396   6.049   1.031   2.747
 4499SOL    HW214397   6.173   0.945   2.686
 4500SOL     OW14398   3.766   6.298   0.560
 4500SOL    HW114399   3.789   6.362   0.486
 4500SOL    HW214400   3.668   6.306   0.582
 4501SOL     OW14401   5.642   0.638   2.335
 4501SOL    HW114402   5.664   0.636   2.433
 4501SOL    HW214403   5.721   0.674   2.285
 4502SOL     OW14404   0.762   3.716   6.508
 4502SOL    HW114405   0.860   3.725   6.522
 4502SOL    HW214406   0.720   3.806   6.499
 4503SOL     OW14407   3.663   1.617   2.269
 4503SOL    HW114408   3.679   1.665   2.183
 4503SOL    HW214409   3.738   1.635   2.332
 4504SOL     OW14410   0.806   2.159   3.518
 4504SOL    HW114411   0.794   2.206   3.606
 4504SOL    HW214412   0.892   2.188   3.477
 4505SOL     OW14413   6.270   2.706   3.416
 4505SOL    HW114414   6.331   2.785   3.430
 4505SOL    HW214415   6.249   2.697   3.319
 4506SOL     OW14416   4.252   4.012   6.723
 4506SOL    HW114417   4.232   4.091   6.664
 4506SOL    HW214418   4.235   4.036   6.818
 4507SOL     OW14419   6.076   2.173   3.360
 4507SOL    HW114420   6.085   2.078   3.392
 4507SOL    HW214421   6.018   2.174   3.278
 4508SOL     OW14422   6.485   5.022   0.692
 4508SOL    HW114423   6.492   5.074   0.778
 4508SOL    HW214424   6.413   5.060   0.635
 4509SOL     OW14425   5.553   2.110   2.398
 4509SOL    HW114426   5.491   2.187   2.385
 4509SOL    HW214427   5.560   2.058   2.313
 4510SOL     OW14428   4.325   1.795   4.423
 4510SOL    HW114429   4.296   1.726   4.490
 4510SOL    HW214430   4.413   1.768   4.384
 4511SOL     OW14431   6.937   4.895   6.687
 4511SOL    HW114432   6.935   4.911   6.786
 4511SOL    HW214433   6.876   4.960   6.641
 4512SOL     OW14434   3.272   3.218   5.408
 4512SOL    HW114435   3.274   3.118   5.406
 4512SOL    HW214436   3.191   3.250   5.456
 4513SOL     OW14437   7.015   0.597   0.332
 4513SOL    HW114438   0.030   0.665   0.392
 4513SOL    HW214439   6.916   0.598   0.345
 4514SOL     OW14440   4.676   5.035   6.530
 4514SOL    HW114441   4.654   4.955   6.475
 4514SOL    HW214442   4.756   5.081   6.491
 4515SOL     OW14443   3.950   0.937   6.311
 4515SOL    HW114444   4.019   0.970   6.375
 4515SOL    HW214445   3.989   0.935   6.218
 4516SOL     OW14446   3.173   2.547   5.890
 4516SOL    HW114447   3.226   2.516   5.811
 4516SOL    HW214448   3.181   2.646   5.899
 4517SOL     OW14449   4.389   0.479   4.544
 4517SOL    HW114450   4.374   0.552   4.478
 4517SOL    HW214451   4.487   0.461   4.553
 4518SOL     OW14452   0.163   6.816   0.869
 4518SOL    HW114453   0.211   6.797   0.954
 4518SOL    HW214454   0.153   6.914   0.857
 4519SOL     OW14455   4.700   6.533   6.707
 4519SOL    HW114456   4.790   6.493   6.690
 4519SOL    HW214457   4.659   6.562   6.621
 4520SOL     OW14458   5.004   5.006   5.582
 4520SOL    HW114459   4.943   5.049   5.648
 4520SOL    HW214460   4.975   5.028   5.489
 4521SOL     OW14461   4.500   2.505   3.843
 4521SOL    HW114462   4.548   2.467   3.923
 4521SOL    HW214463   4.424   2.447   3.818
 4522SOL     OW14464   5.694   3.642   3.344
 4522SOL    HW114465   5.600   3.611   3.333
 4522SOL    HW214466   5.744   3.577   3.401
 4523SOL     OW14467   7.011   3.293   6.172
 4523SOL    HW114468   0.049   3.249   6.109
 4523SOL    HW214469   0.023   3.379   6.204
 4524SOL     OW14470   2.172   3.755   2.231
 4524SOL    HW114471   2.190   3.670   2.180
 4524SOL    HW214472   2.163   3.830   2.166
 4525SOL     OW14473   3.769   2.528   5.536
 4525SOL    HW114474   3.815   2.440   5.537
 4525SOL    HW214475   3.789   2.577   5.621
 4526SOL     OW14476   1.312   0.358   5.557
 4526SOL    HW114477   1.338   0.306   5.475
 4526SOL    HW214478   1.245   0.428   5.532
 4527SOL     OW14479   0.310   1.428   3.053
 4527SOL    HW114480   0.252   1.508   3.037
 4527SOL    HW214481   0.253   1.353   3.087
 4528SOL     OW14482   4.986   0.928   4.516
 4528SOL    HW114483   5.018   0.842   4.475
 4528SOL    HW214484   5.061   0.994   4.517
 4529SOL     OW14485   2.309   1.906   3.905
 4529SOL    HW114486   2.334   1.809   3.904
 4529SOL    HW214487   2.270   1.931   3.816
 4530SOL     OW14488   3.627   5.571   6.506
 4530SOL    HW114489   3.697   5.627   6.551
 4530SOL    HW214490   3.669   5.491   6.465
 4531SOL     OW14491   1.636   6.834   5.309
 4531SOL    HW114492   1.541   6.858   5.293
 4531SOL    HW214493   1.647   6.803   5.403
 4532SOL     OW14494   6.489   1.178   2.317
 4532SOL    HW114495   6.504   1.277   2.314
 4532SOL    HW214496   6.461   1.151   2.410
 4533SOL     OW14497   2.848   6.509   1.539
 4533SOL    HW114498   2.920   6.576   1.520
 4533SOL    HW214499   2.810   6.526   1.630
 4534SOL     OW14500   5.627   1.408   4.380
 4534SOL    HW114501   5.674   1.496   4.395
 4534SOL    HW214502   5.592   1.406   4.287
 4535SOL     OW14503   1.719   0.654   0.008
 4535SOL    HW114504   1.715   0.746   0.049
 4535SOL    HW214505   1.630   0.609   0.020
 4536SOL     OW14506   3.963   1.052   5.807
 4536SOL    HW114507   3.917   1.049   5.896
 4536SOL    HW214508   4.059   1.026   5.818
 4537SOL     OW14509   3.319   3.272   3.407
 4537SOL    HW114510   3.376   3.218   3.470
 4537SOL    HW214511   3.349   3.367   3.408
 4538SOL     OW14512   0.881   2.380   0.488
 4538SOL    HW114513   0.798   2.436   0.482
 4538SOL    HW214514   0.909   2.373   0.584
 4539SOL     OW14515   1.685   5.887   4.816
 4539SOL    HW114516   1.753   5.960   4.822
 4539SOL    HW214517   1.601   5.915   4.863
 4540SOL     OW14518   1.659   1.795   0.259
 4540SOL    HW114519   1.626   1.700   0.262
 4540SOL    HW214520   1.726   1.805   0.185
 4541SOL     OW14521   3.930   3.550   0.256
 4541SOL    HW114522   3.935   3.562   0.157
 4541SOL    HW214523   3.930   3.452   0.277
 4542SOL     OW14524   0.521   1.597   6.522
 4542SOL    HW114525   0.541   1.693   6.543
 4542SOL    HW214526   0.607   1.546   6.520
 4543SOL     OW14527   4.248   1.823   0.760
 4543SOL    HW114528   4.282   1.786   0.846
 4543SOL    HW214529   4.249   1.752   0.690
 4544SOL     OW14530   4.615   6.669   0.530
 4544SOL    HW114531   4.577   6.747   0.579
 4544SOL    HW214532   4.710   6.654   0.559
 4545SOL     OW14533   2.764   2.530   5.686
 4545SOL    HW114534   2.740   2.619   5.647
 4545SOL    HW214535   2.689   2.466   5.671
 4546SOL     OW14536   4.140   0.223   6.372
 4546SOL    HW114537   4.173   0.158   6.304
 4546SOL    HW214538   4.217   0.279   6.404
 4547SOL     OW14539   0.683   0.252   0.277
 4547SOL    HW114540   0.587   0.246   0.303
 4547SOL    HW214541   0.693   0.225   0.181
 4548SOL     OW14542   3.175   1.293   1.985
 4548SOL    HW114543   3.188   1.355   2.062
 4548SOL    HW214544   3.147   1.204   2.019
 4549SOL     OW14545   0.094   3.237   4.259
 4549SOL    HW114546   0.192   3.217   4.257
 4549SOL    HW214547   0.060   3.248   4.165
 4550SOL     OW14548   1.852   5.886   5.331
 4550SOL    HW114549   1.836   5.863   5.235
 4550SOL    HW214550   1.945   5.858   5.357
 4551SOL     OW14551   3.333   2.276   5.961
 4551SOL    HW114552   3.391   2.229   6.027
 4551SOL    HW214553   3.308   2.366   5.996
 4552SOL     OW14554   4.725   1.008   6.945
 4552SOL    HW114555   4.705   0.928   7.001
 4552SOL    HW214556   4.769   1.078   7.002
 4553SOL     OW14557   0.525   6.062   0.475
 4553SOL    HW114558   0.535   6.049   0.573
 4553SOL    HW214559   0.475   5.984   0.437
 4554SOL     OW14560   5.973   0.219   3.254
 4554SOL    HW114561   5.908   0.195   3.182
 4554SOL    HW214562   5.942   0.303   3.299
 4555SOL     OW14563   0.815   0.819   1.701
 4555SOL    HW114564   0.844   0.897   1.646
 4555SOL    HW214565   0.768   0.752   1.642
 4556SOL     OW14566   5.337   4.249   3.844
 4556SOL    HW114567   5.419   4.284   3.888
 4556SOL    HW214568   5.312   4.161   3.884
 4557SOL     OW14569   6.891   4.661   4.205
 4557SOL    HW114570   6.974   4.664   4.148
 4557SOL    HW214571   6.839   4.746   4.193
 4558SOL     OW14572   1.311   3.857   4.910
 4558SOL    HW114573   1.250   3.778   4.902
 4558SOL    HW214574   1.336   3.889   4.819
 4559SOL     OW14575   0.221   2.839   3.885
 4559SOL    HW114576   0.292   2.832   3.815
 4559SOL    HW214577   0.137   2.873   3.845
 4560SOL     OW14578   6.284   4.535   3.066
 4560SOL    HW114579   6.346   4.458   3.078
 4560SOL    HW214580   6.330   4.620   3.093
 4561SOL     OW14581   4.289   2.335   4.154
 4561SOL    HW114582   4.359   2.285   4.104
 4561SOL    HW214583   4.301   2.433   4.139
 4562SOL     OW14584   3.852   1.220   0.436
 4562SOL    HW114585   3.794   1.199   0.514
 4562SOL    HW214586   3.809   1.188   0.351
 4563SOL     OW14587   0.762   3.976   1.755
 4563SOL    HW114588   0.845   3.944   1.710
 4563SOL    HW214589   0.775   3.974   1.854
 4564SOL     OW14590   1.934   4.340   2.453
 4564SOL    HW114591   1.873   4.277   2.404
 4564SOL    HW214592   1.966   4.411   2.390
 4565SOL     OW14593   1.533   0.073   5.739
 4565SOL    HW114594   1.540   0.136   5.817
 4565SOL    HW214595   1.591   7.020   5.756
 4566SOL     OW14596   6.883   3.961   3.091
 4566SOL    HW114597   6.892   3.968   2.992
 4566SOL    HW214598   6.924   4.041   3.134
 4567SOL     OW14599   0.042   6.672   6.686
 4567SOL    HW114600   0.003   6.629   6.768
 4567SOL    HW214601   0.034   6.771   6.694
 4568SOL     OW14602   0.988   5.426   4.068
 4568SOL    HW114603   1.000   5.472   4.156
 4568SOL    HW214604   1.001   5.492   3.994
 4569SOL     OW14605   1.619   1.968   2.846
 4569SOL    HW114606   1.527   1.958   2.883
 4569SOL    HW214607   1.683   1.989   2.920
 4570SOL     OW14608   5.052   5.538   1.042
 4570SOL    HW114609   5.037   5.634   1.019
 4570SOL    HW214610   4.971   5.502   1.088
 4571SOL     OW14611   2.558   3.670   5.457
 4571SOL    HW114612   2.488   3.721   5.407
 4571SOL    HW214613   2.567   3.708   5.549
 4572SOL     OW14614   4.007   3.121   1.771
 4572SOL    HW114615   4.092   3.073   1.751
 4572SOL    HW214616   3.930   3.061   1.748
 4573SOL     OW14617   2.432   4.683   0.479
 4573SOL    HW114618   2.436   4.587   0.453
 4573SOL    HW214619   2.395   4.737   0.404
 4574SOL     OW14620   4.525   1.109   2.064
 4574SOL    HW114621   4.577   1.163   1.998
 4574SOL    HW214622   4.513   1.161   2.148
 4575SOL     OW14623   7.000   0.867   5.489
 4575SOL    HW114624   0.057   0.884   5.541
 4575SOL    HW214625   6.967   0.775   5.508
 4576SOL     OW14626   3.551   3.768   6.771
 4576SOL    HW114627   3.477   3.832   6.794
 4576SOL    HW214628   3.528   3.720   6.687
 4577SOL     OW14629   0.635   1.646   1.769
 4577SOL    HW114630   0.653   1.629   1.672
 4577SOL    HW214631   0.560   1.711   1.779
 4578SOL     OW14632   1.842   0.648   3.032
 4578SOL    HW114633   1.857   0.661   2.934
 4578SOL    HW214634   1.836   0.550   3.052
 4579SOL     OW14635   4.514   0.665   3.802
 4579SOL    HW114636   4.520   0.765   3.798
 4579SOL    HW214637   4.605   0.625   3.791
 4580SOL     OW14638   0.563   1.156   0.637
 4580SOL    HW114639   0.528   1.109   0.718
 4580SOL    HW214640   0.663   1.148   0.635
 4581SOL     OW14641   2.734   0.561   0.981
 4581SOL    HW114642   2.648   0.549   1.030
 4581SOL    HW214643   2.750   0.481   0.924
 4582SOL     OW14644   6.893   0.626   3.511
 4582SOL    HW114645   6.984   0.602   3.547
 4582SOL    HW214646   6.823   0.599   3.578
 4583SOL     OW14647   2.158   6.837   0.315
 4583SOL    HW114648   2.073   6.890   0.304
 4583SOL    HW214649   2.224   6.891   0.366
 4584SOL     OW14650   0.291   1.957   3.913
 4584SOL    HW114651   0.242   1.962   4.000
 4584SOL    HW214652   0.367   1.892   3.921
 4585SOL     OW14653   1.734   2.953   2.765
 4585SOL    HW114654   1.790   2.889   2.712
 4585SOL    HW214655   1.770   2.959   2.858
 4586SOL     OW14656   6.368   4.890   6.335
 4586SOL    HW114657   6.386   4.829   6.412
 4586SOL    HW214658   6.276   4.928   6.343
 4587SOL     OW14659   4.218   4.350   5.704
 4587SOL    HW114660   4.133   4.314   5.664
 4587SOL    HW214661   4.289   4.354   5.634
 4588SOL     OW14662   3.021   4.120   6.672
 4588SOL    HW114663   3.033   4.164   6.761
 4588SOL    HW214664   3.102   4.135   6.616
 4589SOL     OW14665   5.751   6.383   2.588
 4589SOL    HW114666   5.686   6.335   2.647
 4589SOL    HW214667   5.782   6.321   2.516
 4590SOL     OW14668   2.761   5.536   1.291
 4590SOL    HW114669   2.662   5.535   1.300
 4590SOL    HW214670   2.800   5.593   1.364
 4591SOL     OW14671   2.524   0.805   4.869
 4591SOL    HW114672   2.504   0.895   4.907
 4591SOL    HW214673   2.502   0.805   4.772
 4592SOL     OW14674   2.475   1.699   3.762
 4592SOL    HW114675   2.551   1.764   3.773
 4592SOL    HW214676   2.456   1.686   3.665
 4593SOL     OW14677   1.336   6.429   4.552
 4593SOL    HW114678   1.365   6.511   4.603
 4593SOL    HW214679   1.259   6.386   4.600
 4594SOL     OW14680   2.021   6.323   4.246
 4594SOL    HW114681   2.019   6.254   4.318
 4594SOL    HW214682   1.995   6.412   4.284
 4595SOL     OW14683   5.993   1.887   6.276
 4595SOL    HW114684   5.998   1.982   6.247
 4595SOL    HW214685   5.988   1.828   6.195
 4596SOL     OW14686   1.113   1.118   2.197
 4596SOL    HW114687   1.073   1.210   2.187
 4596SOL    HW214688   1.066   1.069   2.270
 4597SOL     OW14689   2.446   5.803   0.709
 4597SOL    HW114690   2.351   5.792   0.738
 4597SOL    HW214691   2.503   5.740   0.762
 4598SOL     OW14692   0.851   3.890   0.132
 4598SOL    HW114693   0.786   3.958   0.164
 4598SOL    HW214694   0.822   3.855   0.043
 4599SOL     OW14695   3.518   6.650   2.247
 4599SOL    HW114696   3.530   6.551   2.253
 4599SOL    HW214697   3.561   6.683   2.163
 4600SOL     OW14698   7.020   6.738   6.378
 4600SOL    HW114699   6.926   6.772   6.370
 4600SOL    HW214700   0.007   6.699   6.469
 4601SOL     OW14701   1.824   0.566   5.745
 4601SOL    HW114702   1.747   0.526   5.793
 4601SOL    HW214703   1.906   0.560   5.802
 4602SOL     OW14704   3.488   1.664   6.690
 4602SOL    HW114705   3.445   1.753   6.710
 4602SOL    HW214706   3.432   1.614   6.624
 4603SOL     OW14707   3.958   6.907   1.125
 4603SOL    HW114708   3.974   6.837   1.195
 4603SOL    HW214709   4.003   6.992   1.153
 4604SOL     OW14710   0.096   6.639   3.533
 4604SOL    HW114711   0.134   6.724   3.567
 4604SOL    HW214712   0.084   6.645   3.434
 4605SOL     OW14713   4.321   0.871   1.395
 4605SOL    HW114714   4.277   0.946   1.346
 4605SOL    HW214715   4.379   0.908   1.468
 4606SOL     OW14716   7.004   6.629   5.084
 4606SOL    HW114717   6.949   6.648   5.166
 4606SOL    HW214718   0.033   6.548   5.101
 4607SOL     OW14719   2.314   1.608   0.678
 4607SOL    HW114720   2.374   1.624   0.756
 4607SOL    HW214721   2.225   1.650   0.694
 4608SOL     OW14722   6.982   2.892   4.717
 4608SOL    HW114723   6.902   2.926   4.668
 4608SOL    HW214724   7.024   2.967   4.768
 4609SOL     OW14725   5.107   5.267   6.424
 4609SOL    HW114726   5.157   5.344   6.463
 4609SOL    HW214727   5.086   5.286   6.328
 4610SOL     OW14728   5.015   5.296   0.385
 4610SOL    HW114729   4.961   5.278   0.467
 4610SOL    HW214730   4.959   5.279   0.304
 4611SOL     OW14731   0.045   1.427   6.440
 4611SOL    HW114732   0.113   1.355   6.450
 4611SOL    HW214733   0.040   1.480   6.524
 4612SOL     OW14734   2.534   1.269   2.622
 4612SOL    HW114735   2.506   1.198   2.557
 4612SOL    HW214736   2.568   1.227   2.706
 4613SOL     OW14737   1.345   5.352   1.821
 4613SOL    HW114738   1.379   5.337   1.727
 4613SOL    HW214739   1.359   5.269   1.875
 4614SOL     OW14740   0.044   4.385   3.450
 4614SOL    HW114741   0.125   4.365   3.506
 4614SOL    HW214742   0.012   4.478   3.470
 4615SOL     OW14743   1.401   4.467   6.392
 4615SOL    HW114744   1.365   4.436   6.480
 4615SOL    HW214745   1.478   4.529   6.408
 4616SOL     OW14746   1.620   3.760   6.221
 4616SOL    HW114747   1.703   3.740   6.274
 4616SOL    HW214748   1.601   3.858   6.227
 4617SOL     OW14749   6.619   3.318   3.394
 4617SOL    HW114750   6.527   3.281   3.406
 4617SOL    HW214751   6.675   3.294   3.474
 4618SOL     OW14752   2.292   3.275   5.690
 4618SOL    HW114753   2.313   3.270   5.592
 4618SOL    HW214754   2.204   3.320   5.703
 4619SOL     OW14755   4.395   5.978   6.183
 4619SOL    HW114756   4.348   6.042   6.123
 4619SOL    HW214757   4.490   6.008   6.195
 4620SOL     OW14758   0.697   4.139   1.397
 4620SOL    HW114759   0.651   4.134   1.486
 4620SOL    HW214760   0.658   4.071   1.336
 4621SOL     OW14761   3.122   0.504   2.632
 4621SOL    HW114762   3.209   0.497   2.680
 4621SOL    HW214763   3.128   0.574   2.561
 4622SOL     OW14764   5.215   0.166   0.558
 4622SOL    HW114765   5.222   0.085   0.499
 4622SOL    HW214766   5.307   0.203   0.575
 4623SOL     OW14767   3.148   4.871   2.500
 4623SOL    HW114768   3.206   4.896   2.422
 4623SOL    HW214769   3.067   4.930   2.502
 4624SOL     OW14770   5.042   1.385   1.621
 4624SOL    HW114771   5.114   1.423   1.680
 4624SOL    HW214772   5.026   1.446   1.544
 4625SOL     OW14773   1.461   6.060   1.643
 4625SOL    HW114774   1.435   6.010   1.726
 4625SOL    HW214775   1.380   6.084   1.590
 4626SOL     OW14776   4.191   3.371   2.074
 4626SOL    HW114777   4.120   3.302   2.091
 4626SOL    HW214778   4.281   3.326   2.072
 4627SOL     OW14779   5.362   0.091   4.738
 4627SOL    HW114780   5.313   0.072   4.653
 4627SOL    HW214781   5.459   0.074   4.725
 4628SOL     OW14782   6.004   4.591   2.989
 4628SOL    HW114783   5.951   4.607   3.072
 4628SOL    HW214784   6.096   4.561   3.013
 4629SOL     OW14785   1.504   5.540   0.141
 4629SOL    HW114786   1.453   5.577   0.064
 4629SOL    HW214787   1.442   5.488   0.200
 4630SOL     OW14788   1.992   3.747   1.330
 4630SOL    HW114789   1.963   3.668   1.384
 4630SOL    HW214790   2.013   3.718   1.237
 4631SOL     OW14791   6.515   0.763   3.112
 4631SOL    HW114792   6.612   0.782   3.100
 4631SOL    HW214793   6.492   0.677   3.068
 4632SOL     OW14794   2.971   4.873   3.329
 4632SOL    HW114795   3.004   4.868   3.235
 4632SOL    HW214796   3.047   4.898   3.389
 4633SOL     OW14797   4.514   2.514   4.508
 4633SOL    HW114798   4.492   2.491   4.603
 4633SOL    HW214799   4.567   2.599   4.506
 4634SOL     OW14800   3.813   3.041   4.584
 4634SOL    HW114801   3.804   2.994   4.671
 4634SOL    HW214802   3.757   2.995   4.515
 4635SOL     OW14803   4.706   6.078   2.618
 4635SOL    HW114804   4.630   6.018   2.593
 4635SOL    HW214805   4.740   6.052   2.709
 4636SOL     OW14806   1.584   6.093   6.367
 4636SOL    HW114807   1.539   6.178   6.339
 4636SOL    HW214808   1.544   6.062   6.453
 4637SOL     OW14809   2.174   2.187   3.084
 4637SOL    HW114810   2.128   2.247   3.150
 4637SOL    HW214811   2.268   2.171   3.114
 4638SOL     OW14812   3.814   4.687   0.334
 4638SOL    HW114813   3.815   4.593   0.367
 4638SOL    HW214814   3.839   4.689   0.237
 4639SOL     OW14815   3.785   1.959   1.721
 4639SOL    HW114816   3.788   2.039   1.661
 4639SOL    HW214817   3.702   1.963   1.777
 4640SOL     OW14818   6.149   3.201   0.562
 4640SOL    HW114819   6.178   3.247   0.646
 4640SOL    HW214820   6.058   3.234   0.536
 4641SOL     OW14821   1.882   5.511   4.505
 4641SOL    HW114822   1.819   5.577   4.546
 4641SOL    HW214823   1.937   5.468   4.577
 4642SOL     OW14824   6.108   1.359   5.590
 4642SOL    HW114825   6.131   1.274   5.636
 4642SOL    HW214826   6.156   1.435   5.634
 4643SOL     OW14827   0.384   1.579   0.423
 4643SOL    HW114828   0.373   1.641   0.500
 4643SOL    HW214829   0.410   1.632   0.342
 4644SOL     OW14830   0.903   0.225   0.658
 4644SOL    HW114831   0.894   0.144   0.600
 4644SOL    HW214832   0.826   0.286   0.642
 4645SOL     OW14833   6.214   2.087   4.868
 4645SOL    HW114834   6.164   2.167   4.834
 4645SOL    HW214835   6.206   2.012   4.802
 4646SOL     OW14836   2.195   4.001   2.926
 4646SOL    HW114837   2.192   4.038   2.833
 4646SOL    HW214838   2.261   4.053   2.980
 4647SOL     OW14839   1.914   6.208   1.918
 4647SOL    HW114840   1.845   6.212   1.846
 4647SOL    HW214841   1.870   6.220   2.007
 4648SOL     OW14842   3.102   0.998   4.606
 4648SOL    HW114843   3.149   1.055   4.538
 4648SOL    HW214844   3.003   1.008   4.596
 4649SOL     OW14845   5.922   1.888   0.530
 4649SOL    HW114846   5.844   1.894   0.593
 4649SOL    HW214847   5.901   1.823   0.458
 4650SOL     OW14848   4.525   5.800   1.386
 4650SOL    HW114849   4.609   5.766   1.344
 4650SOL    HW214850   4.546   5.833   1.478
 4651SOL     OW14851   0.373   4.029   6.317
 4651SOL    HW114852   0.426   4.104   6.279
 4651SOL    HW214853   0.290   4.015   6.263
 4652SOL     OW14854   6.954   0.250   5.526
 4652SOL    HW114855   6.912   0.198   5.451
 4652SOL    HW214856   6.883   0.281   5.589
 4653SOL     OW14857   7.017   5.694   0.976
 4653SOL    HW114858   7.001   5.607   1.022
 4653SOL    HW214859   0.083   5.695   0.939
 4654SOL     OW14860   0.958   1.104   5.784
 4654SOL    HW114861   1.009   1.018   5.776
 4654SOL    HW214862   0.867   1.086   5.821
 4655SOL     OW14863   5.381   3.316   2.690
 4655SOL    HW114864   5.367   3.218   2.684
 4655SOL    HW214865   5.295   3.361   2.715
 4656SOL     OW14866   6.174   1.111   2.246
 4656SOL    HW114867   6.227   1.112   2.161
 4656SOL    HW214868   6.235   1.122   2.324
 4657SOL     OW14869   3.603   1.744   3.106
 4657SOL    HW114870   3.699   1.757   3.081
 4657SOL    HW214871   3.546   1.751   3.025
 4658SOL     OW14872   1.427   1.871   6.435
 4658SOL    HW114873   1.467   1.868   6.344
 4658SOL    HW214874   1.498   1.852   6.503
 4659SOL     OW14875   2.011   4.408   0.729
 4659SOL    HW114876   2.089   4.467   0.749
 4659SOL    HW214877   2.001   4.398   0.630
 4660SOL     OW14878   0.795   5.323   3.772
 4660SOL    HW114879   0.807   5.237   3.821
 4660SOL    HW214880   0.739   5.386   3.826
 4661SOL     OW14881   0.949   1.720   5.627
 4661SOL    HW114882   0.911   1.691   5.715
 4661SOL    HW214883   0.996   1.808   5.638
 4662SOL     OW14884   2.537   0.208   6.039
 4662SOL    HW114885   2.500   0.135   6.097
 4662SOL    HW214886   2.464   0.272   6.016
 4663SOL     OW14887   1.009   6.608   0.566
 4663SOL    HW114888   0.927   6.561   0.532
 4663SOL    HW214889   0.985   6.703   0.589
 4664SOL     OW14890   5.882   6.929   5.946
 4664SOL    HW114891   5.895   6.997   6.019
 4664SOL    HW214892   5.954   6.860   5.953
 4665SOL     OW14893   0.439   0.367   2.995
 4665SOL    HW114894   0.464   0.334   3.086
 4665SOL    HW214895   0.380   0.447   3.003
 4666SOL     OW14896   1.612   2.574   5.931
 4666SOL    HW114897   1.604   2.491   5.987
 4666SOL    HW214898   1.529   2.628   5.941
 4667SOL     OW14899   6.756   3.241   0.829
 4667SOL    HW114900   6.707   3.288   0.904
 4667SOL    HW214901   6.850   3.225   0.856
 4668SOL     OW14902   4.520   2.236   4.540
 4668SOL    HW114903   4.525   2.332   4.513
 4668SOL    HW214904   4.493   2.180   4.462
 4669SOL     OW14905   5.208   6.798   0.043
 4669SOL    HW114906   5.202   6.699   0.051
 4669SOL    HW214907   5.296   6.823   0.002
 4670SOL     OW14908   0.231   3.502   6.643
 4670SOL    HW114909   0.224   3.517   6.742
 4670SOL    HW214910   0.141   3.475   6.608
 4671SOL     OW14911   0.040   2.767   2.046
 4671SOL    HW114912   6.980   2.795   2.087
 4671SOL    HW214913   0.022   2.701   1.973
 4672SOL     OW14914   2.907   3.775   6.999
 4672SOL    HW114915   2.938   3.768   0.067
 4672SOL    HW214916   2.827   3.834   6.994
 4673SOL     OW14917   6.011   0.629   0.671
 4673SOL    HW114918   6.081   0.673   0.614
 4673SOL    HW214919   6.046   0.543   0.706
 4674SOL     OW14920   1.200   3.187   0.893
 4674SOL    HW114921   1.292   3.209   0.925
 4674SOL    HW214922   1.200   3.097   0.849
 4675SOL     OW14923   1.872   5.662   6.734
 4675SOL    HW114924   1.847   5.724   6.808
 4675SOL    HW214925   1.953   5.697   6.687
 4676SOL     OW14926   0.693   5.871   4.339
 4676SOL    HW114927   0.650   5.834   4.258
 4676SOL    HW214928   0.643   5.843   4.421
 4677SOL     OW14929   4.169   6.743   0.119
 4677SOL    HW114930   4.211   6.658   0.149
 4677SOL    HW214931   4.115   6.782   0.194
 4678SOL     OW14932   2.243   4.358   0.334
 4678SOL    HW114933   2.247   4.263   0.365
 4678SOL    HW214934   2.336   4.396   0.330
 4679SOL     OW14935   2.322   6.718   5.801
 4679SOL    HW114936   2.414   6.726   5.764
 4679SOL    HW214937   2.326   6.697   5.898
 4680SOL     OW14938   1.249   4.791   0.000
 4680SOL    HW114939   1.238   4.889   7.013
 4680SOL    HW214940   1.172   4.742   6.987
 4681SOL     OW14941   6.447   5.602   4.945
 4681SOL    HW114942   6.428   5.583   5.041
 4681SOL    HW214943   6.542   5.631   4.934
 4682SOL     OW14944   2.663   6.352   0.645
 4682SOL    HW114945   2.762   6.341   0.642
 4682SOL    HW214946   2.621   6.268   0.681
 4683SOL     OW14947   0.271   4.582   3.041
 4683SOL    HW114948   0.177   4.561   3.015
 4683SOL    HW214949   0.331   4.509   3.010
 4684SOL     OW14950   1.586   1.360   5.084
 4684SOL    HW114951   1.647   1.334   5.159
 4684SOL    HW214952   1.542   1.279   5.046
 4685SOL     OW14953   5.171   4.879   5.196
 4685SOL    HW114954   5.235   4.946   5.159
 4685SOL    HW214955   5.192   4.789   5.158
 4686SOL     OW14956   4.884   6.037   0.293
 4686SOL    HW114957   4.912   6.031   0.389
 4686SOL    HW214958   4.897   5.947   0.250
 4687SOL     OW14959   4.991   6.698   4.772
 4687SOL    HW114960   5.034   6.669   4.686
 4687SOL    HW214961   4.930   6.626   4.804
 4688SOL     OW14962   0.370   1.749   0.630
 4688SOL    HW114963   0.468   1.736   0.645
 4688SOL    HW214964   0.340   1.834   0.672
 4689SOL     OW14965   1.635   4.955   4.948
 4689SOL    HW114966   1.552   4.906   4.921
 4689SOL    HW214967   1.710   4.890   4.960
 4690SOL     OW14968   1.180   1.564   0.377
 4690SOL    HW114969   1.184   1.464   0.371
 4690SOL    HW214970   1.223   1.604   0.296
 4691SOL     OW14971   3.944   4.833   0.040
 4691SOL    HW114972   3.953   4.743   7.024
 4691SOL    HW214973   3.920   4.901   6.997
 4692SOL     OW14974   0.524   5.866   3.387
 4692SOL    HW114975   0.482   5.940   3.334
 4692SOL    HW214976   0.592   5.905   3.450
 4693SOL     OW14977   0.775   0.647   3.401
 4693SOL    HW114978   0.724   0.649   3.316
 4693SOL    HW214979   0.836   0.726   3.406
 4694SOL     OW14980   1.390   0.993   5.742
 4694SOL    HW114981   1.339   1.043   5.812
 4694SOL    HW214982   1.474   1.044   5.719
 4695SOL     OW14983   3.145   2.890   2.131
 4695SOL    HW114984   3.066   2.858   2.078
 4695SOL    HW214985   3.172   2.981   2.099
 4696SOL     OW14986   5.837   3.405   0.141
 4696SOL    HW114987   5.738   3.418   0.132
 4696SOL    HW214988   5.863   3.320   0.094
 4697SOL     OW14989   1.428   6.028   6.570
 4697SOL    HW114990   1.452   5.984   6.656
 4697SOL    HW214991   1.390   6.119   6.589
 4698SOL     OW14992   6.239   3.094   2.414
 4698SOL    HW114993   6.153   3.141   2.436
 4698SOL    HW214994   6.310   3.123   2.478
 4699SOL     OW14995   6.735   6.741   3.226
 4699SOL    HW114996   6.734   6.828   3.177
 4699SOL    HW214997   6.733   6.757   3.325
 4700SOL     OW14998   5.717   6.440   0.179
 4700SOL    HW114999   5.782   6.417   0.107
 4700SOL    HW215000   5.689   6.536   0.170
 4701SOL     OW15001   0.812   0.729   0.087
 4701SOL    HW115002   0.738   0.763   0.146
 4701SOL    HW215003   0.786   0.742   7.018
 4702SOL     OW15004   2.736   3.576   0.188
 4702SOL    HW115005   2.813   3.640   0.191
 4702SOL    HW215006   2.696   3.568   0.279
 4703SOL     OW15007   0.861   1.247   1.845
 4703SOL    HW115008   0.800   1.269   1.769
 4703SOL    HW215009   0.846   1.152   1.873
 4704SOL     OW15010   4.554   6.930   0.040
 4704SOL    HW115011   4.534   6.905   0.135
 4704SOL    HW215012   4.615   7.009   0.038
 4705SOL     OW15013   3.074   4.058   4.359
 4705SOL    HW115014   3.165   4.098   4.346
 4705SOL    HW215015   3.016   4.121   4.411
 4706SOL     OW15016   4.789   4.931   0.833
 4706SOL    HW115017   4.885   4.935   0.861
 4706SOL    HW215018   4.731   4.960   0.910
 4707SOL     OW15019   3.073   5.903   1.092
 4707SOL    HW115020   3.039   5.810   1.077
 4707SOL    HW215021   3.039   5.936   1.181
 4708SOL     OW15022   1.890   3.204   2.557
 4708SOL    HW115023   1.837   3.276   2.512
 4708SOL    HW215024   1.876   3.118   2.509
 4709SOL     OW15025   2.965   4.258   0.560
 4709SOL    HW115026   3.047   4.234   0.611
 4709SOL    HW215027   2.952   4.192   0.485
 4710SOL     OW15028   4.642   3.014   1.178
 4710SOL    HW115029   4.640   3.008   1.278
 4710SOL    HW215030   4.551   3.036   1.145
 4711SOL     OW15031   2.784   0.077   3.079
 4711SOL    HW115032   2.793   7.004   3.085
 4711SOL    HW215033   2.700   0.099   3.030
 4712SOL     OW15034   1.557   4.248   6.668
 4712SOL    HW115035   1.482   4.313   6.662
 4712SOL    HW215036   1.550   4.183   6.592
 4713SOL     OW15037   1.526   5.610   0.882
 4713SOL    HW115038   1.490   5.616   0.975
 4713SOL    HW215039   1.596   5.538   0.878
 4714SOL     OW15040   3.772   1.967   0.739
 4714SOL    HW115041   3.851   1.922   0.697
 4714SOL    HW215042   3.709   1.999   0.668
 4715SOL     OW15043   5.151   4.085   4.871
 4715SOL    HW115044   5.166   4.012   4.937
 4715SOL    HW215045   5.124   4.046   4.783
 4716SOL     OW15046   2.476   4.978   0.124
 4716SOL    HW115047   2.505   5.021   0.039
 4716SOL    HW215048   2.532   5.013   0.200
 4717SOL     OW15049   1.954   5.191   3.735
 4717SOL    HW115050   1.991   5.117   3.791
 4717SOL    HW215051   1.988   5.183   3.642
 4718SOL     OW15052   5.535   1.101   6.979
 4718SOL    HW115053   5.618   1.069   7.026
 4718SOL    HW215054   5.504   1.186   7.022
 4719SOL     OW15055   4.674   3.228   1.645
 4719SOL    HW115056   4.658   3.164   1.720
 4719SOL    HW215057   4.703   3.178   1.564
 4720SOL     OW15058   3.119   1.161   3.812
 4720SOL    HW115059   3.098   1.138   3.907
 4720SOL    HW215060   3.048   1.125   3.753
 4721SOL     OW15061   1.290   1.653   1.088
 4721SOL    HW115062   1.364   1.707   1.049
 4721SOL    HW215063   1.311   1.634   1.184
 4722SOL     OW15064   3.186   0.910   2.453
 4722SOL    HW115065   3.250   0.948   2.388
 4722SOL    HW215066   3.173   0.812   2.435
 4723SOL     OW15067   3.152   0.406   5.745
 4723SOL    HW115068   3.125   0.472   5.676
 4723SOL    HW215069   3.093   0.326   5.740
 4724SOL     OW15070   4.541   4.798   1.454
 4724SOL    HW115071   4.582   4.781   1.364
 4724SOL    HW215072   4.443   4.781   1.449
 4725SOL     OW15073   5.682   5.221   3.276
 4725SOL    HW115074   5.740   5.191   3.200
 4725SOL    HW215075   5.591   5.180   3.266
 4726SOL     OW15076   0.206   6.213   4.989
 4726SOL    HW115077   0.232   6.274   4.915
 4726SOL    HW215078   0.287   6.167   5.024
 4727SOL     OW15079   6.065   6.005   0.739
 4727SOL    HW115080   5.993   5.988   0.806
 4727SOL    HW215081   6.072   5.927   0.677
 4728SOL     OW15082   7.011   1.021   6.840
 4728SOL    HW115083   0.024   1.006   6.930
 4728SOL    HW215084   0.041   1.085   6.788
 4729SOL     OW15085   2.849   0.765   0.349
 4729SOL    HW115086   2.813   0.783   0.440
 4729SOL    HW215087   2.774   0.740   0.288
 4730SOL     OW15088   2.193   0.448   5.389
 4730SOL    HW115089   2.159   0.362   5.427
 4730SOL    HW215090   2.197   0.442   5.289
 4731SOL     OW15091   5.363   1.902   6.712
 4731SOL    HW115092   5.290   1.837   6.690
 4731SOL    HW215093   5.421   1.865   6.783
 4732SOL     OW15094   6.834   1.370   7.003
 4732SOL    HW115095   6.934   1.372   6.999
 4732SOL    HW215096   6.797   1.442   6.944
 4733SOL     OW15097   7.001   3.344   3.696
 4733SOL    HW115098   0.014   3.308   3.780
 4733SOL    HW215099   6.962   3.434   3.713
 4734SOL     OW15100   5.018   4.455   5.939
 4734SOL    HW115101   5.115   4.477   5.939
 4734SOL    HW215102   4.965   4.538   5.955
 4735SOL     OW15103   0.309   4.235   3.759
 4735SOL    HW115104   0.347   4.279   3.841
 4735SOL    HW215105   0.359   4.266   3.678
 4736SOL     OW15106   2.110   0.027   1.144
 4736SOL    HW115107   2.055   0.108   1.123
 4736SOL    HW215108   2.128   7.004   1.059
 4737SOL     OW15109   3.381   5.082   1.765
 4737SOL    HW115110   3.338   5.168   1.794
 4737SOL    HW215111   3.368   5.013   1.835
 4738SOL     OW15112   7.003   6.430   2.781
 4738SOL    HW115113   6.932   6.388   2.725
 4738SOL    HW215114   6.976   6.427   2.877
 4739SOL     OW15115   4.247   6.743   1.780
 4739SOL    HW115116   4.150   6.720   1.776
 4739SOL    HW215117   4.301   6.658   1.780
 4740SOL     OW15118   0.525   1.805   3.928
 4740SOL    HW115119   0.510   1.707   3.945
 4740SOL    HW215120   0.600   1.838   3.985
 4741SOL     OW15121   3.963   3.568   1.459
 4741SOL    HW115122   3.865   3.547   1.462
 4741SOL    HW215123   4.010   3.515   1.529
 4742SOL     OW15124   4.328   0.699   0.474
 4742SOL    HW115125   4.410   0.644   0.457
 4742SOL    HW215126   4.270   0.652   0.541
 4743SOL     OW15127   1.676   6.365   0.548
 4743SOL    HW115128   1.592   6.338   0.501
 4743SOL    HW215129   1.735   6.416   0.485
 4744SOL     OW15130   1.871   5.773   1.453
 4744SOL    HW115131   1.780   5.809   1.432
 4744SOL    HW215132   1.896   5.704   1.385
 4745SOL     OW15133   1.867   3.551   0.126
 4745SOL    HW115134   1.897   3.583   0.216
 4745SOL    HW215135   1.842   3.629   0.069
 4746SOL     OW15136   5.140   5.731   3.823
 4746SOL    HW115137   5.059   5.694   3.867
 4746SOL    HW215138   5.181   5.802   3.881
 4747SOL     OW15139   3.070   0.732   6.482
 4747SOL    HW115140   3.167   0.749   6.461
 4747SOL    HW215141   3.063   0.692   6.573
 4748SOL     OW15142   1.800   6.945   1.953
 4748SOL    HW115143   1.800   6.911   1.859
 4748SOL    HW215144   1.877   6.905   2.003
 4749SOL     OW15145   2.062   1.780   0.708
 4749SOL    HW115146   2.010   1.795   0.624
 4749SOL    HW215147   2.061   1.863   0.763
 4750SOL     OW15148   4.490   3.348   5.900
 4750SOL    HW115149   4.453   3.436   5.869
 4750SOL    HW215150   4.556   3.364   5.974
 4751SOL     OW15151   4.703   1.717   3.171
 4751SOL    HW115152   4.769   1.754   3.106
 4751SOL    HW215153   4.617   1.698   3.124
 4752SOL     OW15154   5.808   1.556   6.635
 4752SOL    HW115155   5.903   1.569   6.607
 4752SOL    HW215156   5.756   1.639   6.616
 4753SOL     OW15157   2.990   6.354   4.845
 4753SOL    HW115158   2.999   6.448   4.879
 4753SOL    HW215159   3.075   6.305   4.860
 4754SOL     OW15160   4.704   4.321   0.206
 4754SOL    HW115161   4.753   4.403   0.177
 4754SOL    HW215162   4.727   4.301   0.301
 4755SOL     OW15163   0.701   1.351   0.834
 4755SOL    HW115164   0.681   1.406   0.916
 4755SOL    HW215165   0.724   1.258   0.862
 4756SOL     OW15166   6.981   3.973   5.376
 4756SOL    HW115167   6.891   4.019   5.379
 4756SOL    HW215168   0.006   4.008   5.298
 4757SOL     OW15169   2.300   3.449   0.084
 4757SOL    HW115170   2.228   3.457   0.015
 4757SOL    HW215171   2.353   3.367   0.067
 4758SOL     OW15172   2.353   5.378   3.329
 4758SOL    HW115173   2.306   5.295   3.299
 4758SOL    HW215174   2.286   5.443   3.367
 4759SOL     OW15175   0.507   6.201   2.288
 4759SOL    HW115176   0.553   6.290   2.294
 4759SOL    HW215177   0.575   6.128   2.302
 4760SOL     OW15178   1.765   5.945   0.977
 4760SOL    HW115179   1.736   5.942   1.073
 4760SOL    HW215180   1.718   6.019   0.930
 4761SOL     OW15181   5.063   6.731   1.843
 4761SOL    HW115182   4.987   6.669   1.865
 4761SOL    HW215183   5.150   6.686   1.863
 4762SOL     OW15184   1.713   0.384   3.005
 4762SOL    HW115185   1.633   0.325   3.013
 4762SOL    HW215186   1.721   0.417   2.911
 4763SOL     OW15187   5.515   5.627   2.090
 4763SOL    HW115188   5.592   5.567   2.110
 4763SOL    HW215189   5.504   5.693   2.164
 4764SOL     OW15190   4.916   3.142   0.206
 4764SOL    HW115191   4.866   3.195   0.137
 4764SOL    HW215192   4.918   3.193   0.292
 4765SOL     OW15193   4.087   2.233   5.881
 4765SOL    HW115194   4.059   2.161   5.944
 4765SOL    HW215195   4.123   2.191   5.797
 4766SOL     OW15196   0.940   0.933   4.437
 4766SOL    HW115197   0.931   0.839   4.470
 4766SOL    HW215198   0.941   0.996   4.515
 4767SOL     OW15199   1.924   4.895   3.456
 4767SOL    HW115200   1.999   4.880   3.392
 4767SOL    HW215201   1.948   4.969   3.519
 4768SOL     OW15202   4.725   2.382   6.280
 4768SOL    HW115203   4.774   2.326   6.213
 4768SOL    HW215204   4.782   2.460   6.306
 4769SOL     OW15205   1.481   3.287   0.746
 4769SOL    HW115206   1.404   3.282   0.682
 4769SOL    HW215207   1.560   3.241   0.706
 4770SOL     OW15208   6.785   1.514   3.488
 4770SOL    HW115209   6.812   1.588   3.426
 4770SOL    HW215210   6.781   1.548   3.582
 4771SOL     OW15211   1.982   0.433   3.817
 4771SOL    HW115212   1.911   0.447   3.886
 4771SOL    HW215213   1.940   0.399   3.733
 4772SOL     OW15214   2.911   5.333   3.085
 4772SOL    HW115215   2.857   5.261   3.127
 4772SOL    HW215216   2.921   5.409   3.150
 4773SOL     OW15217   2.999   5.196   4.773
 4773SOL    HW115218   3.054   5.276   4.750
 4773SOL    HW215219   3.057   5.115   4.777
 4774SOL     OW15220   0.948   4.167   0.969
 4774SOL    HW115221   1.047   4.151   0.970
 4774SOL    HW215222   0.900   4.079   0.964
 4775SOL     OW15223   5.663   5.608   5.065
 4775SOL    HW115224   5.705   5.636   4.979
 4775SOL    HW215225   5.707   5.657   5.141
 4776SOL     OW15226   0.270   1.760   4.985
 4776SOL    HW115227   0.296   1.791   4.894
 4776SOL    HW215228   0.171   1.746   4.990
 4777SOL     OW15229   1.552   6.670   3.304
 4777SOL    HW115230   1.569   6.572   3.320
 4777SOL    HW215231   1.572   6.721   3.388
 4778SOL     OW15232   1.762   0.545   6.772
 4778SOL    HW115233   1.716   0.629   6.743
 4778SOL    HW215234   1.773   0.545   6.871
 4779SOL     OW15235   4.932   0.840   4.775
 4779SOL    HW115236   4.950   0.872   4.682
 4779SOL    HW215237   4.845   0.878   4.807
 4780SOL     OW15238   4.949   2.998   4.552
 4780SOL    HW115239   4.938   2.927   4.622
 4780SOL    HW215240   4.993   3.078   4.592
 4781SOL     OW15241   1.153   4.985   1.879
 4781SOL    HW115242   1.070   5.019   1.835
 4781SOL    HW215243   1.133   4.962   1.974
 4782SOL     OW15244   0.525   6.295   3.949
 4782SOL    HW115245   0.514   6.239   4.030
 4782SOL    HW215246   0.447   6.281   3.888
 4783SOL     OW15247   0.088   3.548   6.239
 4783SOL    HW115248   0.039   3.635   6.246
 4783SOL    HW215249   0.186   3.566   6.229
 4784SOL     OW15250   5.465   3.264   0.032
 4784SOL    HW115251   5.499   3.354   0.059
 4784SOL    HW215252   5.482   3.198   0.106
 4785SOL     OW15253   0.643   0.003   3.885
 4785SOL    HW115254   0.602   6.942   3.860
 4785SOL    HW215255   0.738   7.015   3.913
 4786SOL     OW15256   0.730   5.769   0.283
 4786SOL    HW115257   0.711   5.728   0.372
 4786SOL    HW215258   0.648   5.818   0.251
 4787SOL     OW15259   5.024   1.255   4.807
 4787SOL    HW115260   5.039   1.310   4.889
 4787SOL    HW215261   4.961   1.180   4.828
 4788SOL     OW15262   6.684   5.835   0.641
 4788SOL    HW115263   6.748   5.776   0.690
 4788SOL    HW215264   6.595   5.833   0.687
 4789SOL     OW15265   6.234   0.837   2.806
 4789SOL    HW115266   6.205   0.861   2.899
 4789SOL    HW215267   6.219   0.739   2.791
 4790SOL     OW15268   0.022   2.261   4.427
 4790SOL    HW115269   0.009   2.278   4.329
 4790SOL    HW215270   0.100   2.200   4.440
 4791SOL     OW15271   0.714   0.147   0.021
 4791SOL    HW115272   0.804   0.190   0.011
 4791SOL    HW215273   0.725   0.048   0.027
 4792SOL     OW15274   1.294   3.876   2.163
 4792SOL    HW115275   1.376   3.920   2.198
 4792SOL    HW215276   1.241   3.840   2.240
 4793SOL     OW15277   1.395   4.029   5.122
 4793SOL    HW115278   1.356   3.976   5.047
 4793SOL    HW215279   1.325   4.046   5.192
 4794SOL     OW15280   5.081   2.068   5.633
 4794SOL    HW115281   5.154   2.081   5.700
 4794SOL    HW215282   5.001   2.030   5.678
 4795SOL     OW15283   6.640   1.393   6.251
 4795SOL    HW115284   6.713   1.341   6.295
 4795SOL    HW215285   6.561   1.333   6.236
 4796SOL     OW15286   4.865   1.275   5.570
 4796SOL    HW115287   4.883   1.201   5.505
 4796SOL    HW215288   4.784   1.326   5.541
 4797SOL     OW15289   2.311   5.240   6.006
 4797SOL    HW115290   2.289   5.184   5.925
 4797SOL    HW215291   2.388   5.299   5.986
 4798SOL     OW15292   3.388   6.125   0.252
 4798SOL    HW115293   3.375   6.217   0.216
 4798SOL    HW215294   3.464   6.081   0.204
 4799SOL     OW15295   4.070   2.942   0.352
 4799SOL    HW115296   4.049   3.017   0.289
 4799SOL    HW215297   4.133   2.974   0.422
 4800SOL     OW15298   0.743   4.453   0.210
 4800SOL    HW115299   0.743   4.470   0.309
 4800SOL    HW215300   0.764   4.538   0.162
 4801SOL     OW15301   5.254   2.348   3.473
 4801SOL    HW115302   5.290   2.433   3.436
 4801SOL    HW215303   5.329   2.290   3.504
 4802SOL     OW15304   7.019   0.422   4.579
 4802SOL    HW115305   6.997   0.483   4.656
 4802SOL    HW215306   6.995   0.328   4.605
 4803SOL     OW15307   4.827   4.084   5.501
 4803SOL    HW115308   4.750   4.078   5.564
 4803SOL    HW215309   4.822   4.169   5.450
 4804SOL     OW15310   5.497   2.307   0.681
 4804SOL    HW115311   5.439   2.227   0.694
 4804SOL    HW215312   5.460   2.364   0.608
 4805SOL     OW15313   5.706   1.724   0.047
 4805SOL    HW115314   5.720   1.734   0.145
 4805SOL    HW215315   5.745   1.637   0.016
 4806SOL     OW15316   1.108   1.809   2.917
 4806SOL    HW115317   1.075   1.895   2.879
 4806SOL    HW215318   1.104   1.738   2.847
 4807SOL     OW15319   6.771   4.278   6.326
 4807SOL    HW115320   6.830   4.292   6.406
 4807SOL    HW215321   6.688   4.230   6.355
 4808SOL     OW15322   3.490   5.911   2.365
 4808SOL    HW115323   3.576   5.880   2.407
 4808SOL    HW215324   3.424   5.933   2.437
 4809SOL     OW15325   3.039   3.719   1.483
 4809SOL    HW115326   2.996   3.637   1.445
 4809SOL    HW215327   3.025   3.721   1.582
 4810SOL     OW15328   1.732   4.920   4.311
 4810SOL    HW115329   1.821   4.939   4.352
 4810SOL    HW215330   1.700   5.000   4.261
 4811SOL     OW15331   3.652   3.274   4.663
 4811SOL    HW115332   3.588   3.290   4.588
 4811SOL    HW215333   3.722   3.209   4.633
 4812SOL     OW15334   1.936   6.393   2.629
 4812SOL    HW115335   1.909   6.464   2.694
 4812SOL    HW215336   1.855   6.350   2.590
 4813SOL     OW15337   0.743   2.687   5.025
 4813SOL    HW115338   0.772   2.616   4.962
 4813SOL    HW215339   0.778   2.775   4.995
 4814SOL     OW15340   6.596   3.027   0.659
 4814SOL    HW115341   6.526   2.993   0.723
 4814SOL    HW215342   6.642   3.106   0.699
 4815SOL     OW15343   6.169   4.441   2.146
 4815SOL    HW115344   6.211   4.351   2.160
 4815SOL    HW215345   6.158   4.487   2.234
 4816SOL     OW15346   2.743   0.532   2.549
 4816SOL    HW115347   2.644   0.537   2.534
 4816SOL    HW215348   2.781   0.458   2.493
 4817SOL     OW15349   4.365   2.465   1.058
 4817SOL    HW115350   4.405   2.430   1.143
 4817SOL    HW215351   4.267   2.479   1.071
 4818SOL     OW15352   4.378   6.687   4.216
 4818SOL    HW115353   4.340   6.617   4.278
 4818SOL    HW215354   4.395   6.771   4.267
 4819SOL     OW15355   2.592   0.995   0.237
 4819SOL    HW115356   2.505   0.948   0.249
 4819SOL    HW215357   2.638   0.959   0.155
 4820SOL     OW15358   6.567   4.032   1.611
 4820SOL    HW115359   6.492   3.994   1.665
 4820SOL    HW215360   6.564   3.995   1.518
 4821SOL     OW15361   6.914   5.606   1.603
 4821SOL    HW115362   6.941   5.636   1.511
 4821SOL    HW215363   6.974   5.532   1.633
 4822SOL     OW15364   0.969   3.664   1.783
 4822SOL    HW115365   0.979   3.741   1.719
 4822SOL    HW215366   0.882   3.617   1.765
 4823SOL     OW15367   0.712   1.443   3.482
 4823SOL    HW115368   0.738   1.531   3.443
 4823SOL    HW215369   0.652   1.394   3.418
 4824SOL     OW15370   5.949   2.026   2.578
 4824SOL    HW115371   5.987   2.118   2.577
 4824SOL    HW215372   5.863   2.026   2.629
 4825SOL     OW15373   1.064   3.162   3.902
 4825SOL    HW115374   1.155   3.203   3.894
 4825SOL    HW215375   1.061   3.104   3.983
 4826SOL     OW15376   6.899   6.752   0.174
 4826SOL    HW115377   6.984   6.727   0.128
 4826SOL    HW215378   6.905   6.847   0.206
 4827SOL     OW15379   5.145   1.675   6.727
 4827SOL    HW115380   5.149   1.660   6.628
 4827SOL    HW215381   5.050   1.677   6.756
 4828SOL     OW15382   5.245   3.819   6.478
 4828SOL    HW115383   5.327   3.848   6.527
 4828SOL    HW215384   5.252   3.723   6.454
 4829SOL     OW15385   3.849   0.205   5.073
 4829SOL    HW115386   3.773   0.220   5.137
 4829SOL    HW215387   3.936   0.213   5.121
 4830SOL     OW15388   4.594   5.584   4.971
 4830SOL    HW115389   4.599   5.650   4.896
 4830SOL    HW215390   4.548   5.626   5.049
 4831SOL     OW15391   6.134   2.552   6.987
 4831SOL    HW115392   6.149   2.464   6.941
 4831SOL    HW215393   6.222   2.587   7.021
 4832SOL     OW15394   1.912   2.437   6.084
 4832SOL    HW115395   1.863   2.453   5.998
 4832SOL    HW215396   1.984   2.506   6.095
 4833SOL     OW15397   6.030   1.354   3.594
 4833SOL    HW115398   6.044   1.360   3.496
 4833SOL    HW215399   5.982   1.269   3.616
 4834SOL     OW15400   6.116   0.580   3.193
 4834SOL    HW115401   6.176   0.650   3.233
 4834SOL    HW215402   6.062   0.538   3.266
 4835SOL     OW15403   1.839   1.182   5.891
 4835SOL    HW115404   1.878   1.201   5.982
 4835SOL    HW215405   1.739   1.190   5.896
 4836SOL     OW15406   5.617   2.856   2.251
 4836SOL    HW115407   5.630   2.876   2.154
 4836SOL    HW215408   5.693   2.800   2.284
 4837SOL     OW15409   0.577   4.348   0.914
 4837SOL    HW115410   0.511   4.370   0.843
 4837SOL    HW215411   0.643   4.282   0.879
 4838SOL     OW15412   2.875   5.350   2.430
 4838SOL    HW115413   2.895   5.442   2.464
 4838SOL    HW215414   2.873   5.286   2.507
 4839SOL     OW15415   0.425   0.165   6.666
 4839SOL    HW115416   0.509   0.180   6.719
 4839SOL    HW215417   0.406   0.245   6.610
 4840SOL     OW15418   6.416   6.581   6.237
 4840SOL    HW115419   6.388   6.541   6.324
 4840SOL    HW215420   6.444   6.676   6.251
 4841SOL     OW15421   2.123   5.705   1.543
 4841SOL    HW115422   2.029   5.741   1.537
 4841SOL    HW215423   2.151   5.703   1.639
 4842SOL     OW15424   3.146   6.600   1.320
 4842SOL    HW115425   3.222   6.629   1.378
 4842SOL    HW215426   3.180   6.582   1.227
 4843SOL     OW15427   1.389   3.425   6.799
 4843SOL    HW115428   1.419   3.346   6.746
 4843SOL    HW215429   1.457   3.445   6.870
 4844SOL     OW15430   0.840   1.762   5.390
 4844SOL    HW115431   0.780   1.682   5.395
 4844SOL    HW215432   0.913   1.755   5.458
 4845SOL     OW15433   5.894   5.581   3.797
 4845SOL    HW115434   5.994   5.574   3.795
 4845SOL    HW215435   5.867   5.677   3.795
 4846SOL     OW15436   0.268   4.900   6.787
 4846SOL    HW115437   0.245   4.881   6.691
 4846SOL    HW215438   0.263   4.998   6.804
 4847SOL     OW15439   4.812   3.038   4.872
 4847SOL    HW115440   4.740   3.095   4.831
 4847SOL    HW215441   4.797   2.942   4.848
 4848SOL     OW15442   2.612   2.410   1.459
 4848SOL    HW115443   2.620   2.315   1.490
 4848SOL    HW215444   2.657   2.470   1.524
 4849SOL     OW15445   1.705   6.347   5.936
 4849SOL    HW115446   1.774   6.342   6.008
 4849SOL    HW215447   1.641   6.270   5.946
 4850SOL     OW15448   3.685   0.097   3.253
 4850SOL    HW115449   3.608   0.046   3.215
 4850SOL    HW215450   3.654   0.186   3.285
 4851SOL     OW15451   4.897   1.442   5.213
 4851SOL    HW115452   4.960   1.513   5.183
 4851SOL    HW215453   4.879   1.379   5.138
 4852SOL     OW15454   1.698   2.036   1.808
 4852SOL    HW115455   1.690   2.029   1.907
 4852SOL    HW215456   1.737   1.951   1.772
 4853SOL     OW15457   3.523   1.988   1.400
 4853SOL    HW115458   3.472   1.991   1.486
 4853SOL    HW215459   3.597   2.056   1.404
 4854SOL     OW15460   3.489   0.350   6.948
 4854SOL    HW115461   3.472   0.448   6.948
 4854SOL    HW215462   3.422   0.304   7.007
 4855SOL     OW15463   6.609   3.040   2.287
 4855SOL    HW115464   6.517   3.019   2.255
 4855SOL    HW215465   6.606   3.070   2.382
 4856SOL     OW15466   1.287   4.150   2.715
 4856SOL    HW115467   1.348   4.087   2.668
 4856SOL    HW215468   1.309   4.152   2.813
 4857SOL     OW15469   0.477   1.145   5.722
 4857SOL    HW115470   0.403   1.108   5.666
 4857SOL    HW215471   0.437   1.190   5.803
 4858SOL     OW15472   1.568   0.554   3.923
 4858SOL    HW115473   1.575   0.650   3.949
 4858SOL    HW215474   1.520   0.504   3.994
 4859SOL     OW15475   3.702   5.715   6.141
 4859SOL    HW115476   3.621   5.774   6.138
 4859SOL    HW215477   3.772   5.759   6.198
 4860SOL     OW15478   3.809   4.451   0.597
 4860SOL    HW115479   3.776   4.435   0.690
 4860SOL    HW215480   3.732   4.456   0.534
 4861SOL     OW15481   4.518   3.952   6.541
 4861SOL    HW115482   4.529   4.046   6.507
 4861SOL    HW215483   4.435   3.947   6.597
 4862SOL     OW15484   0.453   0.112   0.951
 4862SOL    HW115485   0.431   0.140   1.045
 4862SOL    HW215486   0.465   0.012   0.948
 4863SOL     OW15487   4.952   4.563   6.559
 4863SOL    HW115488   5.013   4.496   6.516
 4863SOL    HW215489   4.987   4.655   6.544
 4864SOL     OW15490   3.414   1.402   4.128
 4864SOL    HW115491   3.445   1.314   4.091
 4864SOL    HW215492   3.342   1.439   4.069
 4865SOL     OW15493   1.358   0.215   5.319
 4865SOL    HW115494   1.266   0.216   5.282
 4865SOL    HW215495   1.416   0.154   5.264
 4866SOL     OW15496   6.521   4.150   6.437
 4866SOL    HW115497   6.491   4.063   6.397
 4866SOL    HW215498   6.449   4.218   6.427
 4867SOL     OW15499   4.580   1.241   3.055
 4867SOL    HW115500   4.493   1.205   3.089
 4867SOL    HW215501   4.638   1.166   3.025
 4868SOL     OW15502   6.733   4.571   0.495
 4868SOL    HW115503   6.693   4.659   0.520
 4868SOL    HW215504   6.803   4.547   0.562
 4869SOL     OW15505   0.815   1.576   0.706
 4869SOL    HW115506   0.780   1.492   0.747
 4869SOL    HW215507   0.914   1.574   0.704
 4870SOL     OW15508   0.408   0.418   1.063
 4870SOL    HW115509   0.505   0.442   1.066
 4870SOL    HW215510   0.373   0.408   1.156
 4871SOL     OW15511   1.076   1.385   3.379
 4871SOL    HW115512   1.083   1.301   3.433
 4871SOL    HW215513   1.039   1.458   3.436
 4872SOL     OW15514   5.893   6.558   2.804
 4872SOL    HW115515   5.846   6.645   2.789
 4872SOL    HW215516   5.845   6.485   2.755
 4873SOL     OW15517   6.674   5.350   4.824
 4873SOL    HW115518   6.587   5.376   4.781
 4873SOL    HW215519   6.684   5.396   4.912
 4874SOL     OW15520   4.901   3.030   3.043
 4874SOL    HW115521   4.878   3.053   3.137
 4874SOL    HW215522   4.905   2.931   3.032
 4875SOL     OW15523   5.918   6.396   5.208
 4875SOL    HW115524   5.883   6.413   5.300
 4875SOL    HW215525   6.001   6.449   5.193
 4876SOL     OW15526   0.297   1.698   2.011
 4876SOL    HW115527   0.282   1.654   2.100
 4876SOL    HW215528   0.237   1.778   2.003
 4877SOL     OW15529   6.372   1.360   6.447
 4877SOL    HW115530   6.395   1.360   6.545
 4877SOL    HW215531   6.390   1.450   6.408
 4878SOL     OW15532   6.436   3.359   2.259
 4878SOL    HW115533   6.367   3.327   2.194
 4878SOL    HW215534   6.512   3.401   2.209
 4879SOL     OW15535   5.225   0.854   3.104
 4879SOL    HW115536   5.127   0.871   3.119
 4879SOL    HW215537   5.245   0.862   3.006
 4880SOL     OW15538   0.276   2.910   6.521
 4880SOL    HW115539   0.319   2.848   6.455
 4880SOL    HW215540   0.224   2.980   6.472
 4881SOL     OW15541   1.595   2.907   1.650
 4881SOL    HW115542   1.671   2.847   1.678
 4881SOL    HW215543   1.510   2.856   1.652
 4882SOL     OW15544   4.700   2.275   4.217
 4882SOL    HW115545   4.780   2.323   4.253
 4882SOL    HW215546   4.700   2.180   4.249
 4883SOL     OW15547   6.178   4.016   0.424
 4883SOL    HW115548   6.130   3.965   0.352
 4883SOL    HW215549   6.149   4.111   0.421
 4884SOL     OW15550   1.460   1.260   1.499
 4884SOL    HW115551   1.515   1.236   1.579
 4884SOL    HW215552   1.510   1.325   1.443
 4885SOL     OW15553   1.251   4.401   6.918
 4885SOL    HW115554   1.228   4.341   6.995
 4885SOL    HW215555   1.197   4.485   6.924
 4886SOL     OW15556   2.705   0.708   1.938
 4886SOL    HW115557   2.688   0.749   1.849
 4886SOL    HW215558   2.629   0.729   2.000
 4887SOL     OW15559   4.773   6.278   0.330
 4887SOL    HW115560   4.684   6.245   0.299
 4887SOL    HW215561   4.839   6.204   0.326
 4888SOL     OW15562   4.378   0.646   3.153
 4888SOL    HW115563   4.324   0.601   3.224
 4888SOL    HW215564   4.341   0.737   3.135
 4889SOL     OW15565   6.496   3.145   3.645
 4889SOL    HW115566   6.479   3.092   3.728
 4889SOL    HW215567   6.589   3.180   3.646
 4890SOL     OW15568   6.754   1.772   4.823
 4890SOL    HW115569   6.700   1.794   4.905
 4890SOL    HW215570   6.750   1.848   4.759
 4891SOL     OW15571   2.556   5.600   0.474
 4891SOL    HW115572   2.477   5.594   0.413
 4891SOL    HW215573   2.529   5.650   0.557
 4892SOL     OW15574   5.245   4.958   2.963
 4892SOL    HW115575   5.341   4.984   2.954
 4892SOL    HW215576   5.189   5.039   2.977
 4893SOL     OW15577   1.095   3.181   1.136
 4893SOL    HW115578   1.127   3.182   1.042
 4893SOL    HW215579   1.157   3.125   1.192
 4894SOL     OW15580   4.711   6.453   1.373
 4894SOL    HW115581   4.684   6.375   1.428
 4894SOL    HW215582   4.632   6.513   1.360
 4895SOL     OW15583   0.286   4.370   5.557
 4895SOL    HW115584   0.296   4.465   5.586
 4895SOL    HW215585   0.280   4.311   5.638
 4896SOL     OW15586   2.935   5.180   5.053
 4896SOL    HW115587   2.884   5.102   5.088
 4896SOL    HW215588   2.956   5.166   4.956
 4897SOL     OW15589   1.999   0.892   4.812
 4897SOL    HW115590   2.003   0.982   4.855
 4897SOL    HW215591   1.956   0.900   4.722
 4898SOL     OW15592   4.842   1.925   3.875
 4898SOL    HW115593   4.897   1.992   3.826
 4898SOL    HW215594   4.887   1.901   3.961
 4899SOL     OW15595   6.103   6.662   2.076
 4899SOL    HW115596   6.114   6.733   2.006
 4899SOL    HW215597   6.140   6.694   2.163
 4900SOL     OW15598   3.772   6.076   6.076
 4900SOL    HW115599   3.690   6.132   6.090
 4900SOL    HW215600   3.835   6.091   6.153
 4901SOL     OW15601   1.329   0.851   6.612
 4901SOL    HW115602   1.317   0.752   6.608
 4901SOL    HW215603   1.343   0.886   6.520
 4902SOL     OW15604   2.938   0.173   5.676
 4902SOL    HW115605   2.862   0.170   5.612
 4902SOL    HW215606   2.977   0.082   5.686
 4903SOL     OW15607   5.233   3.489   2.989
 4903SOL    HW115608   5.188   3.401   2.976
 4903SOL    HW215609   5.172   3.550   3.040
 4904SOL     OW15610   1.623   0.529   1.528
 4904SOL    HW115611   1.582   0.614   1.561
 4904SOL    HW215612   1.552   0.471   1.488
 4905SOL     OW15613   2.358   0.268   3.150
 4905SOL    HW115614   2.410   0.207   3.209
 4905SOL    HW215615   2.282   0.307   3.201
 4906SOL     OW15616   5.261   3.806   4.949
 4906SOL    HW115617   5.233   3.721   4.905
 4906SOL    HW215618   5.258   3.795   5.048
 4907SOL     OW15619   3.859   2.686   0.033
 4907SOL    HW115620   3.899   2.680   6.968
 4907SOL    HW215621   3.928   2.663   0.101
 4908SOL     OW15622   3.578   7.025   6.580
 4908SOL    HW115623   3.479   7.019   6.594
 4908SOL    HW215624   3.608   6.952   6.519
 4909SOL     OW15625   4.959   4.998   4.010
 4909SOL    HW115626   4.927   4.977   3.917
 4909SOL    HW215627   4.938   5.094   4.031
 4910SOL     OW15628   4.044   2.455   6.580
 4910SOL    HW115629   4.091   2.543   6.570
 4910SOL    HW215630   3.989   2.437   6.499
 4911SOL     OW15631   6.676   4.009   2.617
 4911SOL    HW115632   6.592   3.970   2.653
 4911SOL    HW215633   6.721   4.065   2.687
 4912SOL     OW15634   5.794   2.569   4.651
 4912SOL    HW115635   5.869   2.624   4.689
 4912SOL    HW215636   5.778   2.596   4.555
 4913SOL     OW15637   0.423   3.960   4.664
 4913SOL    HW115638   0.484   3.939   4.741
 4913SOL    HW215639   0.335   3.914   4.678
 4914SOL     OW15640   3.931   0.052   4.257
 4914SOL    HW115641   3.982   7.020   4.195
 4914SOL    HW215642   3.974   0.142   4.260
 4915SOL     OW15643   3.971   5.547   5.578
 4915SOL    HW115644   3.907   5.624   5.578
 4915SOL    HW215645   3.923   5.465   5.546
 4916SOL     OW15646   5.042   2.134   3.802
 4916SOL    HW115647   5.128   2.181   3.786
 4916SOL    HW215648   4.987   2.186   3.867
 4917SOL     OW15649   3.897   6.790   6.565
 4917SOL    HW115650   3.895   6.750   6.656
 4917SOL    HW215651   3.953   6.873   6.566
 4918SOL     OW15652   5.811   5.051   3.619
 4918SOL    HW115653   5.851   5.120   3.558
 4918SOL    HW215654   5.730   5.012   3.576
 4919SOL     OW15655   3.494   3.727   1.952
 4919SOL    HW115656   3.590   3.702   1.966
 4919SOL    HW215657   3.488   3.819   1.915
 4920SOL     OW15658   5.869   1.543   6.318
 4920SOL    HW115659   5.937   1.572   6.251
 4920SOL    HW215660   5.894   1.578   6.408
 4921SOL     OW15661   6.963   6.574   1.827
 4921SOL    HW115662   6.916   6.505   1.772
 4921SOL    HW215663   6.960   6.548   1.923
 4922SOL     OW15664   3.861   1.529   5.823
 4922SOL    HW115665   3.789   1.569   5.766
 4922SOL    HW215666   3.892   1.596   5.890
 4923SOL     OW15667   3.742   1.714   1.618
 4923SOL    HW115668   3.816   1.666   1.665
 4923SOL    HW215669   3.750   1.812   1.634
 4924SOL     OW15670   2.198   0.441   5.095
 4924SOL    HW115671   2.266   0.506   5.062
 4924SOL    HW215672   2.108   0.486   5.100
 4925SOL     OW15673   4.978   5.421   3.383
 4925SOL    HW115674   5.013   5.418   3.289
 4925SOL    HW215675   5.029   5.488   3.436
 4926SOL     OW15676   5.824   2.925   1.774
 4926SOL    HW115677   5.742   2.946   1.720
 4926SOL    HW215678   5.806   2.946   1.870
 4927SOL     OW15679   2.636   1.549   7.024
 4927SOL    HW115680   2.671   1.629   6.975
 4927SOL    HW215681   2.602   1.578   0.086
 4928SOL     OW15682   0.002   2.112   0.329
 4928SOL    HW115683   7.005   2.085   0.236
 4928SOL    HW215684   6.950   2.098   0.389
 4929SOL     OW15685   6.948   0.204   4.717
 4929SOL    HW115686   6.871   0.222   4.778
 4929SOL    HW215687   0.005   0.194   4.771
 4930SOL     OW15688   5.043   5.349   2.637
 4930SOL    HW115689   5.049   5.367   2.539
 4930SOL    HW215690   4.956   5.304   2.658
 4931SOL     OW15691   6.516   0.153   1.071
 4931SOL    HW115692   6.582   0.226   1.052
 4931SOL    HW215693   6.426   0.192   1.088
 4932SOL     OW15694   3.318   3.417   2.570
 4932SOL    HW115695   3.280   3.394   2.659
 4932SOL    HW215696   3.405   3.371   2.557
 4933SOL     OW15697   1.017   0.467   5.654
 4933SOL    HW115698   1.019   0.422   5.565
 4933SOL    HW215699   0.939   0.529   5.658
 4934SOL     OW15700   3.443   6.727   2.506
 4934SOL    HW115701   3.373   6.795   2.483
 4934SOL    HW215702   3.469   6.677   2.424
 4935SOL     OW15703   0.536   1.083   5.187
 4935SOL    HW115704   0.599   1.009   5.212
 4935SOL    HW215705   0.445   1.044   5.171
 4936SOL     OW15706   4.861   2.021   0.868
 4936SOL    HW115707   4.850   2.113   0.830
 4936SOL    HW215708   4.927   2.024   0.944
 4937SOL     OW15709   4.314   2.811   5.465
 4937SOL    HW115710   4.270   2.722   5.461
 4937SOL    HW215711   4.264   2.876   5.407
 4938SOL     OW15712   3.734   4.328   6.586
 4938SOL    HW115713   3.768   4.289   6.671
 4938SOL    HW215714   3.805   4.383   6.543
 4939SOL     OW15715   4.694   4.107   6.316
 4939SOL    HW115716   4.683   4.023   6.263
 4939SOL    HW215717   4.789   4.137   6.312
 4940SOL     OW15718   2.429   5.828   4.024
 4940SOL    HW115719   2.454   5.777   4.106
 4940SOL    HW215720   2.512   5.847   3.971
 4941SOL     OW15721   5.834   0.258   0.669
 4941SOL    HW115722   5.766   0.285   0.737
 4941SOL    HW215723   5.803   0.287   0.578
 4942SOL     OW15724   4.618   2.906   6.056
 4942SOL    HW115725   4.687   2.860   6.114
 4942SOL    HW215726   4.539   2.846   6.046
 4943SOL     OW15727   5.763   3.224   1.459
 4943SOL    HW115728   5.694   3.295   1.473
 4943SOL    HW215729   5.828   3.254   1.389
 4944SOL     OW15730   2.278   4.044   1.871
 4944SOL    HW115731   2.338   3.979   1.824
 4944SOL    HW215732   2.311   4.137   1.855
 4945SOL     OW15733   6.917   5.864   4.456
 4945SOL    HW115734   7.012   5.838   4.436
 4945SOL    HW215735   6.878   5.802   4.523
 4946SOL     OW15736   0.242   4.030   2.265
 4946SOL    HW115737   0.149   4.028   2.301
 4946SOL    HW215738   0.266   3.940   2.228
 4947SOL     OW15739   6.514   0.538   0.988
 4947SOL    HW115740   6.507   0.482   1.070
 4947SOL    HW215741   6.550   0.629   1.012
 4948SOL     OW15742   2.489   1.067   2.446
 4948SOL    HW115743   2.522   1.101   2.357
 4948SOL    HW215744   2.415   1.001   2.431
 4949SOL     OW15745   5.312   2.638   4.900
 4949SOL    HW115746   5.294   2.576   4.977
 4949SOL    HW215747   5.402   2.618   4.862
 4950SOL     OW15748   3.491   5.008   4.973
 4950SOL    HW115749   3.432   4.942   5.019
 4950SOL    HW215750   3.557   5.045   5.038
 4951SOL     OW15751   4.227   1.831   3.983
 4951SOL    HW115752   4.235   1.871   3.891
 4951SOL    HW215753   4.133   1.841   4.015
 4952SOL     OW15754   0.074   4.488   4.368
 4952SOL    HW115755   0.013   4.494   4.289
 4952SOL    HW215756   0.029   4.435   4.441
 4953SOL     OW15757   1.582   4.760   2.309
 4953SOL    HW115758   1.673   4.789   2.278
 4953SOL    HW215759   1.566   4.793   2.402
 4954SOL     OW15760   6.097   6.178   0.524
 4954SOL    HW115761   6.104   6.147   0.619
 4954SOL    HW215762   6.156   6.257   0.510
 4955SOL     OW15763   1.704   0.967   1.221
 4955SOL    HW115764   1.672   1.001   1.309
 4955SOL    HW215765   1.626   0.942   1.164
 4956SOL     OW15766   6.102   6.634   3.711
 4956SOL    HW115767   6.037   6.639   3.635
 4956SOL    HW215768   6.187   6.679   3.684
 4957SOL     OW15769   1.963   5.870   3.845
 4957SOL    HW115770   2.035   5.857   3.912
 4957SOL    HW215771   1.982   5.815   3.764
 4958SOL     OW15772   0.091   6.710   0.031
 4958SOL    HW115773   0.154   6.655   0.087
 4958SOL    HW215774   0.034   6.648   7.003
 4959SOL     OW15775   0.607   1.842   6.881
 4959SOL    HW115776   0.598   1.793   6.794
 4959SOL    HW215777   0.692   1.813   6.926
 4960SOL     OW15778   4.161   6.804   5.886
 4960SOL    HW115779   4.086   6.737   5.877
 4960SOL    HW215780   4.166   6.836   5.980
 4961SOL     OW15781   4.897   0.766   5.545
 4961SOL    HW115782   4.951   0.771   5.629
 4961SOL    HW215783   4.806   0.731   5.565
 4962SOL     OW15784   6.611   2.417   2.076
 4962SOL    HW115785   6.687   2.460   2.124
 4962SOL    HW215786   6.639   2.396   1.982
 4963SOL     OW15787   0.015   4.731   1.157
 4963SOL    HW115788   0.012   4.655   1.091
 4963SOL    HW215789   0.081   4.710   1.229
 4964SOL     OW15790   3.656   6.765   3.177
 4964SOL    HW115791   3.747   6.795   3.207
 4964SOL    HW215792   3.600   6.845   3.156
 4965SOL     OW15793   6.914   6.156   4.598
 4965SOL    HW115794   6.817   6.179   4.599
 4965SOL    HW215795   6.925   6.057   4.601
 4966SOL     OW15796   4.279   5.135   4.596
 4966SOL    HW115797   4.284   5.179   4.686
 4966SOL    HW215798   4.198   5.168   4.547
 4967SOL     OW15799   6.088   2.203   6.620
 4967SOL    HW115800   6.155   2.164   6.557
 4967SOL    HW215801   6.014   2.138   6.634
 4968SOL     OW15802   5.495   4.307   0.045
 4968SOL    HW115803   5.445   4.223   0.067
 4968SOL    HW215804   5.492   4.323   6.974
 4969SOL     OW15805   1.503   1.919   1.223
 4969SOL    HW115806   1.545   1.859   1.291
 4969SOL    HW215807   1.416   1.954   1.259
 4970SOL     OW15808   1.742   2.645   5.709
 4970SOL    HW115809   1.834   2.649   5.749
 4970SOL    HW215810   1.679   2.605   5.775
 4971SOL     OW15811   6.763   5.280   4.156
 4971SOL    HW115812   6.770   5.255   4.060
 4971SOL    HW215813   6.813   5.365   4.172
 4972SOL     OW15814   1.957   2.304   5.182
 4972SOL    HW115815   1.970   2.207   5.160
 4972SOL    HW215816   1.860   2.321   5.196
 4973SOL     OW15817   5.603   5.278   2.894
 4973SOL    HW115818   5.647   5.307   2.809
 4973SOL    HW215819   5.520   5.332   2.908
 4974SOL     OW15820   4.111   6.556   6.626
 4974SOL    HW115821   4.126   6.560   6.725
 4974SOL    HW215822   4.036   6.494   6.606
 4975SOL     OW15823   4.146   6.287   0.337
 4975SOL    HW115824   4.062   6.272   0.285
 4975SOL    HW215825   4.186   6.375   0.311
 4976SOL     OW15826   2.821   0.886   4.038
 4976SOL    HW115827   2.907   0.934   4.052
 4976SOL    HW215828   2.835   0.809   3.975
 4977SOL     OW15829   3.262   2.429   0.400
 4977SOL    HW115830   3.319   2.347   0.403
 4977SOL    HW215831   3.199   2.424   0.323
 4978SOL     OW15832   5.872   4.196   6.505
 4978SOL    HW115833   5.963   4.205   6.464
 4978SOL    HW215834   5.880   4.147   6.592
 4979SOL     OW15835   1.766   1.677   4.349
 4979SOL    HW115836   1.796   1.771   4.368
 4979SOL    HW215837   1.806   1.616   4.417
 4980SOL     OW15838   2.378   4.680   2.840
 4980SOL    HW115839   2.293   4.672   2.789
 4980SOL    HW215840   2.396   4.596   2.890
 4981SOL     OW15841   4.879   6.262   5.150
 4981SOL    HW115842   4.929   6.190   5.102
 4981SOL    HW215843   4.921   6.351   5.131
 4982SOL     OW15844   2.733   2.355   6.820
 4982SOL    HW115845   2.774   2.407   6.745
 4982SOL    HW215846   2.786   2.370   6.904
 4983SOL     OW15847   6.197   2.926   4.869
 4983SOL    HW115848   6.157   2.855   4.928
 4983SOL    HW215849   6.237   2.882   4.788
 4984SOL     OW15850   5.161   4.070   3.200
 4984SOL    HW115851   5.170   4.159   3.155
 4984SOL    HW215852   5.067   4.038   3.192
 4985SOL     OW15853   5.427   4.299   2.159
 4985SOL    HW115854   5.493   4.230   2.189
 4985SOL    HW215855   5.339   4.282   2.203
 4986SOL     OW15856   4.432   4.579   3.124
 4986SOL    HW115857   4.521   4.611   3.156
 4986SOL    HW215858   4.430   4.582   3.024
 4987SOL     OW15859   0.736   3.282   0.637
 4987SOL    HW115860   0.834   3.301   0.625
 4987SOL    HW215861   0.711   3.202   0.582
 4988SOL     OW15862   1.982   2.034   5.134
 4988SOL    HW115863   2.048   1.999   5.200
 4988SOL    HW215864   1.956   1.961   5.071
 4989SOL     OW15865   6.887   1.196   0.721
 4989SOL    HW115866   6.865   1.115   0.667
 4989SOL    HW215867   6.813   1.214   0.786
 4990SOL     OW15868   1.598   2.326   6.027
 4990SOL    HW115869   1.641   2.254   5.972
 4990SOL    HW215870   1.596   2.297   6.123
 4991SOL     OW15871   2.865   1.752   5.082
 4991SOL    HW115872   2.862   1.668   5.028
 4991SOL    HW215873   2.853   1.831   5.021
 4992SOL     OW15874   4.670   6.791   4.496
 4992SOL    HW115875   4.590   6.736   4.517
 4992SOL    HW215876   4.730   6.740   4.433
 4993SOL     OW15877   1.606   6.195   4.112
 4993SOL    HW115878   1.601   6.230   4.206
 4993SOL    HW215879   1.556   6.109   4.107
 4994SOL     OW15880   0.443   6.539   2.646
 4994SOL    HW115881   0.519   6.504   2.592
 4994SOL    HW215882   0.455   6.637   2.662
 4995SOL     OW15883   5.763   2.770   5.324
 4995SOL    HW115884   5.670   2.807   5.322
 4995SOL    HW215885   5.828   2.845   5.336
 4996SOL     OW15886   0.536   1.770   3.491
 4996SOL    HW115887   0.571   1.688   3.534
 4996SOL    HW215888   0.538   1.846   3.556
 4997SOL     OW15889   0.342   2.408   3.625
 4997SOL    HW115890   0.331   2.342   3.551
 4997SOL    HW215891   0.279   2.386   3.699
 4998SOL     OW15892   0.961   5.641   5.661
 4998SOL    HW115893   1.010   5.557   5.636
 4998SOL    HW215894   0.862   5.623   5.658
 4999SOL     OW15895   6.267   4.445   0.764
 4999SOL    HW115896   6.211   4.469   0.685
 4999SOL    HW215897   6.328   4.521   0.786
 5000SOL     OW15898   0.086   5.276   4.355
 5000SOL    HW115899   0.047   5.199   4.404
 5000SOL    HW215900   0.062   5.270   4.258
 5001SOL     OW15901   5.086   4.380   5.289
 5001SOL    HW115902   5.163   4.316   5.295
 5001SOL    HW215903   5.116   4.464   5.245
 5002SOL     OW15904   1.993   2.641   1.575
 5002SOL    HW115905   1.946   2.554   1.586
 5002SOL    HW215906   1.953   2.708   1.638
 5003SOL     OW15907   6.706   4.862   4.185
 5003SOL    HW115908   6.701   4.923   4.264
 5003SOL    HW215909   6.650   4.900   4.111
 5004SOL     OW15910   2.205   4.447   6.147
 5004SOL    HW115911   2.168   4.529   6.192
 5004SOL    HW215912   2.299   4.464   6.119
 5005SOL     OW15913   4.637   1.913   0.495
 5005SOL    HW115914   4.565   1.877   0.437
 5005SOL    HW215915   4.724   1.911   0.446
 5006SOL     OW15916   5.494   4.564   2.391
 5006SOL    HW115917   5.472   4.481   2.442
 5006SOL    HW215918   5.591   4.563   2.366
 5007SOL     OW15919   4.316   1.005   5.271
 5007SOL    HW115920   4.395   0.980   5.325
 5007SOL    HW215921   4.234   0.960   5.308
 5008SOL     OW15922   6.586   0.763   3.442
 5008SOL    HW115923   6.553   0.765   3.536
 5008SOL    HW215924   6.650   0.839   3.428
 5009SOL     OW15925   1.900   5.515   1.995
 5009SOL    HW115926   1.949   5.428   2.005
 5009SOL    HW215927   1.873   5.548   2.086
 5010SOL     OW15928   3.729   3.285   5.759
 5010SOL    HW115929   3.648   3.228   5.741
 5010SOL    HW215930   3.777   3.250   5.839
 5011SOL     OW15931   1.310   2.290   3.786
 5011SOL    HW115932   1.408   2.280   3.799
 5011SOL    HW215933   1.291   2.371   3.730
 5012SOL     OW15934   5.645   3.009   6.953
 5012SOL    HW115935   5.677   3.010   6.859
 5012SOL    HW215936   5.707   3.063   7.010
 5013SOL     OW15937   4.662   2.254   5.711
 5013SOL    HW115938   4.591   2.271   5.779
 5013SOL    HW215939   4.656   2.322   5.638
 5014SOL     OW15940   6.950   5.513   6.864
 5014SOL    HW115941   6.857   5.515   6.828
 5014SOL    HW215942   6.952   5.556   6.954
 5015SOL     OW15943   5.540   2.086   3.270
 5015SOL    HW115944   5.582   2.008   3.316
 5015SOL    HW215945   5.442   2.086   3.286
 5016SOL     OW15946   2.340   6.154   2.427
 5016SOL    HW115947   2.265   6.186   2.370
 5016SOL    HW215948   2.317   6.170   2.524
 5017SOL     OW15949   1.198   2.166   2.148
 5017SOL    HW115950   1.134   2.135   2.078
 5017SOL    HW215951   1.176   2.260   2.174
 5018SOL     OW15952   6.798   4.739   3.725
 5018SOL    HW115953   6.708   4.783   3.731
 5018SOL    HW215954   6.786   4.641   3.710
 5019SOL     OW15955   2.091   5.276   5.475
 5019SOL    HW115956   2.016   5.292   5.410
 5019SOL    HW215957   2.178   5.296   5.430
 5020SOL     OW15958   4.073   5.616   6.891
 5020SOL    HW115959   4.027   5.703   6.872
 5020SOL    HW215960   4.086   5.565   6.806
 5021SOL     OW15961   1.928   4.430   5.558
 5021SOL    HW115962   1.859   4.417   5.629
 5021SOL    HW215963   1.998   4.358   5.566
 5022SOL     OW15964   2.647   3.665   0.522
 5022SOL    HW115965   2.581   3.679   0.448
 5022SOL    HW215966   2.632   3.575   0.564
 5023SOL     OW15967   0.428   3.035   4.449
 5023SOL    HW115968   0.400   3.097   4.523
 5023SOL    HW215969   0.520   3.000   4.467
 5024SOL     OW15970   4.735   3.482   5.608
 5024SOL    HW115971   4.635   3.481   5.599
 5024SOL    HW215972   4.766   3.391   5.638
 5025SOL     OW15973   6.317   0.847   4.280
 5025SOL    HW115974   6.364   0.935   4.271
 5025SOL    HW215975   6.244   0.855   4.349
 5026SOL     OW15976   0.920   6.063   3.396
 5026SOL    HW115977   0.937   5.970   3.361
 5026SOL    HW215978   0.990   6.125   3.360
 5027SOL     OW15979   0.700   6.072   3.793
 5027SOL    HW115980   0.751   6.076   3.879
 5027SOL    HW215981   0.610   6.032   3.810
 5028SOL     OW15982   0.874   6.868   2.592
 5028SOL    HW115983   0.906   6.891   2.684
 5028SOL    HW215984   0.878   6.949   2.534
 5029SOL     OW15985   6.868   1.010   3.834
 5029SOL    HW115986   6.912   0.990   3.746
 5029SOL    HW215987   6.910   1.091   3.875
 5030SOL     OW15988   1.775   5.859   6.971
 5030SOL    HW115989   1.814   5.912   0.019
 5030SOL    HW215990   1.676   5.875   6.967
 5031SOL     OW15991   5.479   0.706   6.845
 5031SOL    HW115992   5.530   0.620   6.847
 5031SOL    HW215993   5.452   0.727   6.751
 5032SOL     OW15994   1.789   5.722   2.222
 5032SOL    HW115995   1.824   5.776   2.145
 5032SOL    HW215996   1.690   5.735   2.229
 5033SOL     OW15997   0.719   3.970   4.793
 5033SOL    HW115998   0.798   3.963   4.854
 5033SOL    HW215999   0.703   4.067   4.771
 5034SOL     OW16000   6.518   3.709   5.917
 5034SOL    HW116001   6.604   3.688   5.963
 5034SOL    HW216002   6.464   3.625   5.909
 5035SOL     OW16003   6.762   4.200   1.331
 5035SOL    HW116004   6.696   4.237   1.265
 5035SOL    HW216005   6.855   4.212   1.296
 5036SOL     OW16006   1.737   0.916   2.558
 5036SOL    HW116007   1.773   0.887   2.470
 5036SOL    HW216008   1.796   0.988   2.596
 5037SOL     OW16009   4.877   2.868   2.749
 5037SOL    HW116010   4.908   2.849   2.656
 5037SOL    HW216011   4.879   2.967   2.765
 5038SOL     OW16012   3.016   5.555   5.605
 5038SOL    HW116013   3.062   5.508   5.680
 5038SOL    HW216014   3.055   5.647   5.594
 5039SOL     OW16015   1.730   2.369   2.589
 5039SOL    HW116016   1.648   2.425   2.597
 5039SOL    HW216017   1.775   2.387   2.501
 5040SOL     OW16018   3.009   3.253   5.913
 5040SOL    HW116019   3.060   3.237   5.829
 5040SOL    HW216020   2.987   3.351   5.921
 5041SOL     OW16021   6.985   5.418   1.054
 5041SOL    HW116022   6.888   5.429   1.076
 5041SOL    HW216023   7.027   5.353   1.118
 5042SOL     OW16024   6.016   1.566   5.793
 5042SOL    HW116025   5.919   1.562   5.767
 5042SOL    HW216026   6.045   1.476   5.825
 5043SOL     OW16027   5.183   6.542   4.085
 5043SOL    HW116028   5.105   6.508   4.137
 5043SOL    HW216029   5.149   6.596   4.007
 5044SOL     OW16030   5.815   4.851   2.025
 5044SOL    HW116031   5.796   4.807   1.937
 5044SOL    HW216032   5.914   4.857   2.039
 5045SOL     OW16033   6.141   3.493   5.128
 5045SOL    HW116034   6.078   3.416   5.141
 5045SOL    HW216035   6.153   3.508   5.030
 5046SOL     OW16036   3.870   3.161   5.956
 5046SOL    HW116037   3.839   3.068   5.976
 5046SOL    HW216038   3.902   3.204   6.040
 5047SOL     OW16039   0.535   1.799   2.146
 5047SOL    HW116040   0.599   1.760   2.212
 5047SOL    HW216041   0.457   1.738   2.135
 5048SOL     OW16042   5.590   3.638   1.148
 5048SOL    HW116043   5.528   3.655   1.224
 5048SOL    HW216044   5.671   3.697   1.157
 5049SOL     OW16045   1.000   1.857   1.298
 5049SOL    HW116046   1.087   1.902   1.278
 5049SOL    HW216047   0.963   1.891   1.385
 5050SOL     OW16048   1.984   4.177   0.125
 5050SOL    HW116049   2.078   4.145   0.135
 5050SOL    HW216050   1.984   4.275   0.105
 5051SOL     OW16051   2.430   3.397   6.431
 5051SOL    HW116052   2.392   3.347   6.509
 5051SOL    HW216053   2.433   3.337   6.351
 5052SOL     OW16054   6.010   2.933   0.652
 5052SOL    HW116055   6.051   3.006   0.597
 5052SOL    HW216056   6.073   2.907   0.725
 5053SOL     OW16057   1.609   4.148   1.024
 5053SOL    HW116058   1.625   4.246   1.017
 5053SOL    HW216059   1.680   4.099   0.974
 5054SOL     OW16060   4.101   6.070   5.602
 5054SOL    HW116061   4.014   6.063   5.651
 5054SOL    HW216062   4.123   5.983   5.559
 5055SOL     OW16063   1.477   1.360   4.098
 5055SOL    HW116064   1.444   1.318   4.014
 5055SOL    HW216065   1.456   1.458   4.097
 5056SOL     OW16066   3.205   2.208   5.708
 5056SOL    HW116067   3.269   2.236   5.780
 5056SOL    HW216068   3.256   2.167   5.632
 5057SOL     OW16069   0.229   3.831   3.288
 5057SOL    HW116070   0.310   3.825   3.346
 5057SOL    HW216071   0.150   3.794   3.338
 5058SOL     OW16072   3.467   1.850   0.403
 5058SOL    HW116073   3.372   1.828   0.378
 5058SOL    HW216074   3.525   1.771   0.386
 5059SOL     OW16075   5.147   2.140   2.728
 5059SOL    HW116076   5.166   2.190   2.643
 5059SOL    HW216077   5.181   2.047   2.720
 5060SOL     OW16078   6.912   3.669   5.148
 5060SOL    HW116079   6.941   3.590   5.203
 5060SOL    HW216080   6.982   3.740   5.151
 5061SOL     OW16081   4.121   2.831   6.276
 5061SOL    HW116082   4.024   2.809   6.285
 5061SOL    HW216083   4.167   2.756   6.228
 5062SOL     OW16084   5.223   1.295   3.421
 5062SOL    HW116085   5.215   1.317   3.518
 5062SOL    HW216086   5.311   1.250   3.404
 5063SOL     OW16087   0.662   1.531   1.516
 5063SOL    HW116088   0.755   1.554   1.486
 5063SOL    HW216089   0.596   1.573   1.454
 5064SOL     OW16090   5.564   4.735   1.321
 5064SOL    HW116091   5.538   4.648   1.364
 5064SOL    HW216092   5.570   4.723   1.222
 5065SOL     OW16093   2.551   1.619   2.129
 5065SOL    HW116094   2.622   1.571   2.179
 5065SOL    HW216095   2.488   1.663   2.193
 5066SOL     OW16096   1.726   5.258   2.528
 5066SOL    HW116097   1.821   5.227   2.535
 5066SOL    HW216098   1.696   5.252   2.433
 5067SOL     OW16099   5.667   2.982   1.533
 5067SOL    HW116100   5.699   3.076   1.524
 5067SOL    HW216101   5.615   2.956   1.452
 5068SOL     OW16102   1.551   6.338   1.053
 5068SOL    HW116103   1.647   6.350   1.080
 5068SOL    HW216104   1.543   6.350   0.954
 5069SOL     OW16105   4.545   5.366   5.793
 5069SOL    HW116106   4.499   5.330   5.712
 5069SOL    HW216107   4.482   5.424   5.845
 5070SOL     OW16108   6.041   3.501   5.704
 5070SOL    HW116109   6.024   3.467   5.797
 5070SOL    HW216110   6.084   3.591   5.708
 5071SOL     OW16111   2.402   6.148   2.808
 5071SOL    HW116112   2.407   6.228   2.868
 5071SOL    HW216113   2.371   6.069   2.861
 5072SOL     OW16114   0.859   1.471   2.069
 5072SOL    HW116115   0.848   1.403   1.997
 5072SOL    HW216116   0.933   1.443   2.130
 5073SOL     OW16117   1.670   1.280   3.161
 5073SOL    HW116118   1.600   1.224   3.205
 5073SOL    HW216119   1.639   1.375   3.157
 5074SOL     OW16120   3.075   2.090   1.448
 5074SOL    HW116121   3.144   2.147   1.403
 5074SOL    HW216122   3.020   2.148   1.509
 5075SOL     OW16123   6.242   2.653   0.461
 5075SOL    HW116124   6.147   2.677   0.484
 5075SOL    HW216125   6.297   2.652   0.545
 5076SOL     OW16126   6.901   1.039   5.737
 5076SOL    HW116127   6.976   1.058   5.800
 5076SOL    HW216128   6.922   1.080   5.648
 5077SOL     OW16129   0.947   4.178   3.681
 5077SOL    HW116130   0.904   4.090   3.699
 5077SOL    HW216131   1.006   4.170   3.601
 5078SOL     OW16132   6.243   2.279   3.557
 5078SOL    HW116133   6.209   2.367   3.592
 5078SOL    HW216134   6.185   2.248   3.483
 5079SOL     OW16135   1.727   3.713   4.810
 5079SOL    HW116136   1.634   3.700   4.777
 5079SOL    HW216137   1.781   3.632   4.789
 5080SOL     OW16138   6.483   5.634   0.088
 5080SOL    HW116139   6.421   5.685   0.028
 5080SOL    HW216140   6.575   5.672   0.080
 5081SOL     OW16141   2.355   4.792   5.022
 5081SOL    HW116142   2.357   4.877   4.969
 5081SOL    HW216143   2.447   4.771   5.056
 5082SOL     OW16144   5.650   6.459   1.597
 5082SOL    HW116145   5.622   6.538   1.542
 5082SOL    HW216146   5.650   6.484   1.694
 5083SOL     OW16147   2.015   7.006   3.780
 5083SOL    HW116148   1.958   6.924   3.782
 5083SOL    HW216149   1.957   0.060   3.790
 5084SOL     OW16150   3.748   4.709   5.603
 5084SOL    HW116151   3.695   4.768   5.663
 5084SOL    HW216152   3.845   4.713   5.630
 5085SOL     OW16153   0.359   4.640   5.528
 5085SOL    HW116154   0.321   4.600   5.445
 5085SOL    HW216155   0.396   4.731   5.506
 5086SOL     OW16156   0.983   4.711   2.975
 5086SOL    HW116157   0.934   4.661   2.904
 5086SOL    HW216158   1.077   4.729   2.945
 5087SOL     OW16159   0.516   4.865   1.939
 5087SOL    HW116160   0.569   4.811   1.873
 5087SOL    HW216161   0.565   4.869   2.026
 5088SOL     OW16162   5.234   5.132   2.509
 5088SOL    HW116163   5.261   5.173   2.596
 5088SOL    HW216164   5.148   5.172   2.479
 5089SOL     OW16165   5.342   6.328   6.123
 5089SOL    HW116166   5.435   6.358   6.100
 5089SOL    HW216167   5.295   6.298   6.040
 5090SOL     OW16168   2.782   6.789   4.640
 5090SOL    HW116169   2.811   6.721   4.572
 5090SOL    HW216170   2.848   6.865   4.641
 5091SOL     OW16171   6.529   6.418   6.032
 5091SOL    HW116172   6.488   6.435   6.122
 5091SOL    HW216173   6.461   6.375   5.972
 5092SOL     OW16174   4.143   3.702   3.790
 5092SOL    HW116175   4.094   3.735   3.870
 5092SOL    HW216176   4.223   3.649   3.819
 5093SOL     OW16177   2.888   2.292   2.994
 5093SOL    HW116178   2.984   2.308   2.974
 5093SOL    HW216179   2.874   2.290   3.093
 5094SOL     OW16180   2.229   6.084   4.936
 5094SOL    HW116181   2.266   6.145   5.007
 5094SOL    HW216182   2.301   6.057   4.874
 5095SOL     OW16183   0.173   0.906   3.446
 5095SOL    HW116184   0.157   0.881   3.541
 5095SOL    HW216185   0.221   0.994   3.442
 5096SOL     OW16186   6.533   3.352   6.013
 5096SOL    HW116187   6.580   3.359   5.924
 5096SOL    HW216188   6.601   3.336   6.084
 5097SOL     OW16189   0.695   1.034   5.870
 5097SOL    HW116190   0.656   1.067   5.785
 5097SOL    HW216191   0.655   0.946   5.894
 5098SOL     OW16192   3.010   2.429   0.263
 5098SOL    HW116193   2.977   2.380   0.344
 5098SOL    HW216194   2.975   2.523   0.265
 5099SOL     OW16195   2.049   5.854   2.459
 5099SOL    HW116196   2.143   5.864   2.426
 5099SOL    HW216197   2.038   5.763   2.500
 5100SOL     OW16198   5.412   3.530   2.218
 5100SOL    HW116199   5.345   3.461   2.193
 5100SOL    HW216200   5.504   3.496   2.197
 5101SOL     OW16201   3.290   0.605   4.708
 5101SOL    HW116202   3.243   0.593   4.796
 5101SOL    HW216203   3.228   0.580   4.634
 5102SOL     OW16204   5.790   5.129   5.152
 5102SOL    HW116205   5.745   5.204   5.103
 5102SOL    HW216206   5.889   5.143   5.150
 5103SOL     OW16207   0.492   0.729   6.346
 5103SOL    HW116208   0.553   0.650   6.346
 5103SOL    HW216209   0.402   0.701   6.313
 5104SOL     OW16210   3.969   3.565   3.134
 5104SOL    HW116211   4.038   3.502   3.100
 5104SOL    HW216212   4.007   3.619   3.209
 5105SOL     OW16213   4.368   3.307   6.986
 5105SOL    HW116214   4.334   3.389   0.005
 5105SOL    HW216215   4.385   3.235   0.027
 5106SOL     OW16216   3.683   1.514   1.435
 5106SOL    HW116217   3.689   1.601   1.484
 5106SOL    HW216218   3.589   1.499   1.404
 5107SOL     OW16219   6.127   5.290   0.851
 5107SOL    HW116220   6.100   5.373   0.900
 5107SOL    HW216221   6.204   5.248   0.898
 5108SOL     OW16222   3.831   4.488   1.095
 5108SOL    HW116223   3.785   4.438   1.022
 5108SOL    HW216224   3.863   4.576   1.061
 5109SOL     OW16225   1.549   2.704   2.843
 5109SOL    HW116226   1.628   2.757   2.812
 5109SOL    HW216227   1.515   2.742   2.928
 5110SOL     OW16228   4.080   6.690   5.331
 5110SOL    HW116229   4.048   6.683   5.426
 5110SOL    HW216230   4.174   6.659   5.325
 5111SOL     OW16231   1.482   5.628   5.746
 5111SOL    HW116232   1.507   5.551   5.686
 5111SOL    HW216233   1.444   5.593   5.831
 5112SOL     OW16234   1.394   6.041   3.290
 5112SOL    HW116235   1.301   6.008   3.277
 5112SOL    HW216236   1.433   6.066   3.201
 5113SOL     OW16237   2.067   3.996   0.670
 5113SOL    HW116238   2.107   4.026   0.584
 5113SOL    HW216239   2.107   4.049   0.745
 5114SOL     OW16240   4.364   4.510   1.254
 5114SOL    HW116241   4.306   4.429   1.253
 5114SOL    HW216242   4.327   4.578   1.191
 5115SOL     OW16243   1.728   3.839   0.437
 5115SOL    HW116244   1.736   3.899   0.516
 5115SOL    HW216245   1.819   3.820   0.400
 5116SOL     OW16246   0.209   6.897   5.066
 5116SOL    HW116247   0.212   6.847   5.152
 5116SOL    HW216248   0.148   6.850   5.002
 5117SOL     OW16249   0.074   2.928   3.037
 5117SOL    HW116250   7.005   2.946   3.058
 5117SOL    HW216251   0.107   2.996   2.972
 5118SOL     OW16252   3.886   5.889   0.093
 5118SOL    HW116253   3.839   5.976   0.109
 5118SOL    HW216254   3.976   5.891   0.137
 5119SOL     OW16255   5.823   1.677   0.365
 5119SOL    HW116256   5.727   1.705   0.371
 5119SOL    HW216257   5.840   1.603   0.430
 5120SOL     OW16258   5.267   6.151   6.846
 5120SOL    HW116259   5.218   6.099   6.916
 5120SOL    HW216260   5.241   6.248   6.853
 5121SOL     OW16261   1.443   3.212   6.637
 5121SOL    HW116262   1.392   3.237   6.555
 5121SOL    HW216263   1.437   3.113   6.651
 5122SOL     OW16264   4.677   4.656   3.188
 5122SOL    HW116265   4.754   4.598   3.215
 5122SOL    HW216266   4.648   4.710   3.267
 5123SOL     OW16267   4.930   2.516   1.961
 5123SOL    HW116268   4.929   2.469   2.048
 5123SOL    HW216269   4.861   2.589   1.961
 5124SOL     OW16270   1.195   6.161   4.613
 5124SOL    HW116271   1.139   6.188   4.692
 5124SOL    HW216272   1.291   6.156   4.641
 5125SOL     OW16273   6.174   2.007   3.939
 5125SOL    HW116274   6.105   2.075   3.963
 5125SOL    HW216275   6.252   2.053   3.894
 5126SOL     OW16276   1.739   0.886   2.133
 5126SOL    HW116277   1.652   0.907   2.087
 5126SOL    HW216278   1.721   0.826   2.211
 5127SOL     OW16279   2.143   6.126   6.771
 5127SOL    HW116280   2.237   6.146   6.800
 5127SOL    HW216281   2.080   6.187   6.819
 5128SOL     OW16282   4.998   6.881   1.608
 5128SOL    HW116283   4.903   6.856   1.593
 5128SOL    HW216284   5.031   6.838   1.692
 5129SOL     OW16285   6.222   6.407   0.470
 5129SOL    HW116286   6.232   6.504   0.448
 5129SOL    HW216287   6.273   6.387   0.554
 5130SOL     OW16288   5.868   5.032   2.602
 5130SOL    HW116289   5.893   5.014   2.697
 5130SOL    HW216290   5.950   5.036   2.546
 5131SOL     OW16291   2.368   2.702   2.369
 5131SOL    HW116292   2.404   2.673   2.457
 5131SOL    HW216293   2.414   2.652   2.295
 5132SOL     OW16294   2.730   6.026   5.158
 5132SOL    HW116295   2.689   6.021   5.250
 5132SOL    HW216296   2.658   6.032   5.090
 5133SOL     OW16297   3.690   6.154   5.357
 5133SOL    HW116298   3.598   6.193   5.356
 5133SOL    HW216299   3.748   6.209   5.416
 5134SOL     OW16300   6.460   3.690   6.211
 5134SOL    HW116301   6.415   3.740   6.285
 5134SOL    HW216302   6.424   3.720   6.123
 5135SOL     OW16303   6.687   1.698   4.552
 5135SOL    HW116304   6.634   1.620   4.520
 5135SOL    HW216305   6.625   1.771   4.582
 5136SOL     OW16306   3.816   2.250   6.113
 5136SOL    HW116307   3.824   2.309   6.032
 5136SOL    HW216308   3.884   2.177   6.107
 5137SOL     OW16309   3.591   3.360   0.201
 5137SOL    HW116310   3.633   3.397   0.284
 5137SOL    HW216311   3.646   3.387   0.121
 5138SOL     OW16312   2.135   3.157   5.899
 5138SOL    HW116313   2.146   3.214   5.980
 5138SOL    HW216314   2.213   3.169   5.838
 5139SOL     OW16315   0.867   0.040   3.296
 5139SOL    HW116316   0.841   6.971   3.292
 5139SOL    HW216317   0.853   0.075   3.389
 5140SOL     OW16318   3.052   2.970   1.741
 5140SOL    HW116319   3.003   3.030   1.804
 5140SOL    HW216320   3.004   2.967   1.654
 5141SOL     OW16321   0.806   4.178   5.825
 5141SOL    HW116322   0.842   4.137   5.909
 5141SOL    HW216323   0.724   4.230   5.846
 5142SOL     OW16324   5.810   3.059   3.083
 5142SOL    HW116325   5.810   3.057   3.183
 5142SOL    HW216326   5.768   2.976   3.048
 5143SOL     OW16327   0.044   5.341   5.295
 5143SOL    HW116328   6.978   5.306   5.309
 5143SOL    HW216329   0.075   5.316   5.203
 5144SOL     OW16330   2.070   1.541   4.877
 5144SOL    HW116331   2.067   1.625   4.823
 5144SOL    HW216332   2.029   1.466   4.824
 5145SOL     OW16333   3.208   5.224   5.999
 5145SOL    HW116334   3.164   5.203   6.087
 5145SOL    HW216335   3.154   5.293   5.951
 5146SOL     OW16336   2.752   4.651   0.263
 5146SOL    HW116337   2.721   4.607   0.347
 5146SOL    HW216338   2.674   4.695   0.218
 5147SOL     OW16339   0.055   5.209   6.654
 5147SOL    HW116340   7.014   5.166   6.713
 5147SOL    HW216341   0.010   5.274   6.592
 5148SOL     OW16342   0.379   0.614   0.368
 5148SOL    HW116343   0.346   0.708   0.358
 5148SOL    HW216344   0.477   0.611   0.350
 5149SOL     OW16345   0.591   0.793   5.941
 5149SOL    HW116346   0.547   0.847   6.013
 5149SOL    HW216347   0.575   0.696   5.958
 5150SOL     OW16348   2.382   5.935   4.499
 5150SOL    HW116349   2.443   5.873   4.451
 5150SOL    HW216350   2.305   5.884   4.539
 5151SOL     OW16351   4.203   0.991   5.872
 5151SOL    HW116352   4.251   1.072   5.904
 5151SOL    HW216353   4.261   0.940   5.809
 5152SOL     OW16354   0.373   4.730   0.227
 5152SOL    HW116355   0.276   4.705   0.230
 5152SOL    HW216356   0.388   4.809   0.287
 5153SOL     OW16357   1.903   2.104   1.021
 5153SOL    HW116358   1.833   2.032   1.027
 5153SOL    HW216359   1.962   2.087   0.942
 5154SOL     OW16360   1.768   4.460   5.342
 5154SOL    HW116361   1.767   4.557   5.314
 5154SOL    HW216362   1.840   4.446   5.409
 5155SOL     OW16363   3.355   0.461   2.758
 5155SOL    HW116364   3.330   0.498   2.848
 5155SOL    HW216365   3.452   0.474   2.743
 5156SOL     OW16366   5.531   2.814   6.256
 5156SOL    HW116367   5.500   2.777   6.169
 5156SOL    HW216368   5.590   2.747   6.301
 5157SOL     OW16369   6.300   2.515   4.249
 5157SOL    HW116370   6.253   2.462   4.178
 5157SOL    HW216371   6.354   2.454   4.306
 5158SOL     OW16372   3.347   0.379   1.259
 5158SOL    HW116373   3.378   0.317   1.332
 5158SOL    HW216374   3.248   0.370   1.248
 5159SOL     OW16375   2.140   3.410   4.793
 5159SOL    HW116376   2.164   3.501   4.827
 5159SOL    HW216377   2.064   3.374   4.846
 5160SOL     OW16378   2.494   2.383   3.920
 5160SOL    HW116379   2.546   2.352   3.841
 5160SOL    HW216380   2.409   2.330   3.926
 5161SOL     OW16381   2.314   3.008   6.417
 5161SOL    HW116382   2.222   2.969   6.418
 5161SOL    HW216383   2.324   3.068   6.338
 5162SOL     OW16384   6.578   5.082   4.598
 5162SOL    HW116385   6.543   5.156   4.655
 5162SOL    HW216386   6.554   4.994   4.639
 5163SOL     OW16387   5.574   4.550   0.742
 5163SOL    HW116388   5.536   4.490   0.671
 5163SOL    HW216389   5.556   4.645   0.717
 5164SOL     OW16390   6.021   5.933   5.861
 5164SOL    HW116391   5.945   5.921   5.925
 5164SOL    HW216392   5.988   5.917   5.767
 5165SOL     OW16393   5.916   3.957   4.686
 5165SOL    HW116394   6.008   3.995   4.688
 5165SOL    HW216395   5.882   3.956   4.592
 5166SOL     OW16396   1.607   0.215   1.944
 5166SOL    HW116397   1.589   0.312   1.961
 5166SOL    HW216398   1.522   0.170   1.918
 5167SOL     OW16399   1.753   6.880   6.298
 5167SOL    HW116400   1.775   6.785   6.278
 5167SOL    HW216401   1.792   6.939   6.227
 5168SOL     OW16402   3.776   2.134   2.754
 5168SOL    HW116403   3.679   2.132   2.775
 5168SOL    HW216404   3.789   2.150   2.656
 5169SOL     OW16405   3.944   4.450   6.455
 5169SOL    HW116406   3.960   4.358   6.419
 5169SOL    HW216407   4.026   4.506   6.440
 5170SOL     OW16408   4.219   5.118   4.242
 5170SOL    HW116409   4.202   5.207   4.285
 5170SOL    HW216410   4.250   5.131   4.148
 5171SOL     OW16411   2.579   4.634   4.532
 5171SOL    HW116412   2.659   4.685   4.562
 5171SOL    HW216413   2.503   4.649   4.595
 5172SOL     OW16414   1.579   4.482   6.987
 5172SOL    HW116415   1.487   4.468   6.951
 5172SOL    HW216416   1.582   4.458   0.057
 5173SOL     OW16417   0.054   2.467   5.607
 5173SOL    HW116418   0.061   2.459   5.706
 5173SOL    HW216419   0.112   2.542   5.575
 5174SOL     OW16420   2.087   4.970   6.038
 5174SOL    HW116421   2.170   4.990   5.986
 5174SOL    HW216422   2.088   5.023   6.123
 5175SOL     OW16423   6.996   5.586   6.364
 5175SOL    HW116424   6.972   5.675   6.326
 5175SOL    HW216425   0.045   5.547   6.311
 5176SOL     OW16426   5.206   3.966   5.953
 5176SOL    HW116427   5.152   4.044   5.922
 5176SOL    HW216428   5.175   3.883   5.906
 5177SOL     OW16429   5.223   5.663   6.064
 5177SOL    HW116430   5.293   5.728   6.094
 5177SOL    HW216431   5.239   5.574   6.107
 5178SOL     OW16432   2.767   3.014   1.107
 5178SOL    HW116433   2.725   2.968   1.029
 5178SOL    HW216434   2.861   3.040   1.085
 5179SOL     OW16435   3.218   6.606   5.415
 5179SOL    HW116436   3.154   6.627   5.341
 5179SOL    HW216437   3.306   6.650   5.397
 5180SOL     OW16438   3.804   1.913   0.126
 5180SOL    HW116439   3.802   2.010   0.153
 5180SOL    HW216440   3.745   1.900   0.046
 5181SOL     OW16441   2.810   5.895   2.863
 5181SOL    HW116442   2.898   5.931   2.893
 5181SOL    HW216443   2.773   5.835   2.934
 5182SOL     OW16444   4.378   4.186   1.570
 5182SOL    HW116445   4.370   4.194   1.669
 5182SOL    HW216446   4.474   4.177   1.544
 5183SOL     OW16447   3.933   1.168   3.592
 5183SOL    HW116448   4.028   1.196   3.577
 5183SOL    HW216449   3.930   1.093   3.658
 5184SOL     OW16450   1.380   1.889   3.023
 5184SOL    HW116451   1.293   1.908   2.979
 5184SOL    HW216452   1.370   1.810   3.084
 5185SOL     OW16453   3.575   6.918   1.233
 5185SOL    HW116454   3.509   6.943   1.163
 5185SOL    HW216455   3.625   6.837   1.203
 5186SOL     OW16456   5.032   4.367   0.346
 5186SOL    HW116457   5.088   4.413   0.277
 5186SOL    HW216458   4.976   4.297   0.301
 5187SOL     OW16459   5.014   2.217   4.459
 5187SOL    HW116460   5.008   2.118   4.454
 5187SOL    HW216461   4.988   2.257   4.371
 5188SOL     OW16462   1.343   1.918   3.839
 5188SOL    HW116463   1.431   1.955   3.808
 5188SOL    HW216464   1.270   1.982   3.815
 5189SOL     OW16465   4.399   6.474   6.559
 5189SOL    HW116466   4.304   6.494   6.585
 5189SOL    HW216467   4.407   6.377   6.534
 5190SOL     OW16468   2.028   2.713   2.146
 5190SOL    HW116469   2.051   2.621   2.177
 5190SOL    HW216470   2.049   2.779   2.218
 5191SOL     OW16471   5.163   6.955   2.222
 5191SOL    HW116472   5.187   6.906   2.305
 5191SOL    HW216473   5.208   0.017   2.221
 5192SOL     OW16474   5.857   4.093   1.437
 5192SOL    HW116475   5.788   4.163   1.420
 5192SOL    HW216476   5.892   4.059   1.349
 5193SOL     OW16477   4.562   4.453   2.212
 5193SOL    HW116478   4.649   4.405   2.227
 5193SOL    HW216479   4.523   4.426   2.124
 5194SOL     OW16480   5.246   1.413   0.491
 5194SOL    HW116481   5.334   1.449   0.523
 5194SOL    HW216482   5.187   1.395   0.569
 5195SOL     OW16483   6.302   6.628   5.659
 5195SOL    HW116484   6.349   6.675   5.585
 5195SOL    HW216485   6.327   6.531   5.659
 5196SOL     OW16486   6.760   3.560   2.504
 5196SOL    HW116487   6.691   3.631   2.515
 5196SOL    HW216488   6.730   3.476   2.548
 5197SOL     OW16489   3.683   5.501   5.649
 5197SOL    HW116490   3.672   5.463   5.557
 5197SOL    HW216491   3.639   5.591   5.654
 5198SOL     OW16492   4.229   1.223   4.609
 5198SOL    HW116493   4.267   1.268   4.528
 5198SOL    HW216494   4.168   1.149   4.581
 5199SOL     OW16495   6.979   5.676   1.330
 5199SOL    HW116496   0.048   5.656   1.311
 5199SOL    HW216497   6.960   5.772   1.309
 5200SOL     OW16498   6.547   0.320   4.747
 5200SOL    HW116499   6.630   0.302   4.801
 5200SOL    HW216500   6.467   0.312   4.807
 5201SOL     OW16501   5.918   4.789   5.501
 5201SOL    HW116502   5.892   4.695   5.477
 5201SOL    HW216503   5.846   4.852   5.472
 5202SOL     OW16504   3.793   2.695   5.782
 5202SOL    HW116505   3.706   2.651   5.808
 5202SOL    HW216506   3.829   2.746   5.860
 5203SOL     OW16507   1.584   0.490   6.341
 5203SOL    HW116508   1.599   0.445   6.253
 5203SOL    HW216509   1.486   0.498   6.357
 5204SOL     OW16510   2.125   0.806   1.627
 5204SOL    HW116511   2.035   0.810   1.669
 5204SOL    HW216512   2.138   0.717   1.584
 5205SOL     OW16513   6.403   7.004   1.782
 5205SOL    HW116514   6.410   0.000   1.685
 5205SOL    HW216515   6.449   0.048   1.837
 5206SOL     OW16516   0.965   4.746   4.018
 5206SOL    HW116517   0.894   4.780   3.956
 5206SOL    HW216518   1.035   4.816   4.029
 5207SOL     OW16519   5.677   6.906   4.893
 5207SOL    HW116520   5.696   7.001   4.868
 5207SOL    HW216521   5.685   6.847   4.812
 5208SOL     OW16522   6.954   2.063   0.082
 5208SOL    HW116523   6.875   2.008   0.055
 5208SOL    HW216524   0.008   2.033   0.032
 5209SOL     OW16525   5.551   6.775   3.821
 5209SOL    HW116526   5.647   6.760   3.843
 5209SOL    HW216527   5.538   6.869   3.791
 5210SOL     OW16528   5.622   4.716   1.060
 5210SOL    HW116529   5.710   4.760   1.040
 5210SOL    HW216530   5.632   4.617   1.053
 5211SOL     OW16531   5.105   2.930   5.228
 5211SOL    HW116532   5.040   2.862   5.195
 5211SOL    HW216533   5.127   2.913   5.324
 5212SOL     OW16534   6.965   4.331   0.010
 5212SOL    HW116535   6.908   4.277   0.071
 5212SOL    HW216536   0.029   4.289   0.003
 5213SOL     OW16537   3.883   3.000   2.892
 5213SOL    HW116538   3.829   2.985   2.809
 5213SOL    HW216539   3.968   2.949   2.886
 5214SOL     OW16540   5.468   3.618   6.034
 5214SOL    HW116541   5.388   3.559   6.029
 5214SOL    HW216542   5.526   3.604   5.954
 5215SOL     OW16543   0.335   5.369   5.120
 5215SOL    HW116544   0.336   5.395   5.217
 5215SOL    HW216545   0.294   5.278   5.110
 5216SOL     OW16546   6.179   4.280   1.489
 5216SOL    HW116547   6.208   4.334   1.568
 5216SOL    HW216548   6.109   4.215   1.517
 5217SOL     OW16549   4.730   0.086   2.941
 5217SOL    HW116550   4.665   0.147   2.986
 5217SOL    HW216551   4.681   0.029   2.874
 5218SOL     OW16552   6.118   6.751   0.525
 5218SOL    HW116553   6.171   6.770   0.608
 5218SOL    HW216554   6.060   6.671   0.540
 5219SOL     OW16555   3.558   1.700   5.355
 5219SOL    HW116556   3.561   1.673   5.258
 5219SOL    HW216557   3.587   1.795   5.364
 5220SOL     OW16558   2.237   4.830   4.713
 5220SOL    HW116559   2.272   4.736   4.707
 5220SOL    HW216560   2.138   4.829   4.698
 5221SOL     OW16561   4.819   6.162   1.293
 5221SOL    HW116562   4.806   6.180   1.390
 5221SOL    HW216563   4.888   6.224   1.256
 5222SOL     OW16564   6.992   3.324   2.292
 5222SOL    HW116565   6.998   3.410   2.243
 5222SOL    HW216566   0.037   3.319   2.361
 5223SOL     OW16567   6.949   3.004   0.671
 5223SOL    HW116568   7.005   2.926   0.643
 5223SOL    HW216569   6.888   2.975   0.745
 5224SOL     OW16570   1.409   1.503   4.676
 5224SOL    HW116571   1.349   1.567   4.628
 5224SOL    HW216572   1.446   1.438   4.610
 5225SOL     OW16573   6.723   2.427   5.646
 5225SOL    HW116574   6.748   2.367   5.722
 5225SOL    HW216575   6.717   2.521   5.678
 5226SOL     OW16576   0.430   6.305   4.525
 5226SOL    HW116577   0.372   6.245   4.471
 5226SOL    HW216578   0.526   6.290   4.501
 5227SOL     OW16579   1.087   3.418   5.935
 5227SOL    HW116580   1.043   3.467   5.859
 5227SOL    HW216581   1.031   3.428   6.017
 5228SOL     OW16582   1.558   2.038   5.251
 5228SOL    HW116583   1.642   2.016   5.301
 5228SOL    HW216584   1.520   1.954   5.213
 5229SOL     OW16585   3.815   1.977   6.234
 5229SOL    HW116586   3.812   1.958   6.332
 5229SOL    HW216587   3.725   1.962   6.194
 5230SOL     OW16588   6.517   7.019   2.558
 5230SOL    HW116589   6.433   7.023   2.505
 5230SOL    HW216590   6.503   6.961   2.638
 5231SOL     OW16591   6.529   3.947   2.207
 5231SOL    HW116592   6.614   3.974   2.252
 5231SOL    HW216593   6.510   3.850   2.225
 5232SOL     OW16594   1.676   2.114   5.545
 5232SOL    HW116595   1.709   2.104   5.639
 5232SOL    HW216596   1.742   2.072   5.483
 5233SOL     OW16597   3.524   0.273   3.485
 5233SOL    HW116598   3.592   0.340   3.515
 5233SOL    HW216599   3.435   0.317   3.474
 5234SOL     OW16600   2.826   2.628   6.192
 5234SOL    HW116601   2.845   2.549   6.250
 5234SOL    HW216602   2.839   2.603   6.096
 5235SOL     OW16603   2.506   2.080   1.814
 5235SOL    HW116604   2.590   2.088   1.867
 5235SOL    HW216605   2.479   2.170   1.780
 5236SOL     OW16606   3.075   4.801   2.049
 5236SOL    HW116607   3.084   4.799   2.148
 5236SOL    HW216608   3.000   4.741   2.021
 5237SOL     OW16609   1.822   1.383   2.188
 5237SOL    HW116610   1.742   1.427   2.227
 5237SOL    HW216611   1.851   1.432   2.106
 5238SOL     OW16612   6.885   0.340   2.588
 5238SOL    HW116613   6.936   0.342   2.502
 5238SOL    HW216614   6.842   0.250   2.598
 5239SOL     OW16615   2.515   4.176   1.062
 5239SOL    HW116616   2.498   4.091   1.010
 5239SOL    HW216617   2.486   4.254   1.007
 5240SOL     OW16618   2.186   4.034   5.957
 5240SOL    HW116619   2.206   4.090   5.876
 5240SOL    HW216620   2.270   3.989   5.988
 5241SOL     OW16621   2.311   6.619   3.366
 5241SOL    HW116622   2.270   6.563   3.438
 5241SOL    HW216623   2.393   6.574   3.332
 5242SOL     OW16624   4.098   6.452   5.786
 5242SOL    HW116625   4.012   6.424   5.828
 5242SOL    HW216626   4.174   6.425   5.845
 5243SOL     OW16627   3.016   5.696   3.479
 5243SOL    HW116628   2.955   5.674   3.555
 5243SOL    HW216629   3.082   5.766   3.507
 5244SOL     OW16630   4.189   1.027   6.745
 5244SOL    HW116631   4.203   0.983   6.834
 5244SOL    HW216632   4.103   0.997   6.705
 5245SOL     OW16633   3.130   4.093   2.019
 5245SOL    HW116634   3.111   4.067   2.113
 5245SOL    HW216635   3.077   4.175   1.995
 5246SOL     OW16636   5.839   3.854   6.268
 5246SOL    HW116637   5.922   3.904   6.243
 5246SOL    HW216638   5.793   3.822   6.185
 5247SOL     OW16639   4.930   1.371   6.398
 5247SOL    HW116640   4.889   1.394   6.310
 5247SOL    HW216641   5.005   1.307   6.385
 5248SOL     OW16642   4.895   1.188   3.759
 5248SOL    HW116643   4.880   1.194   3.660
 5248SOL    HW216644   4.847   1.263   3.805
 5249SOL     OW16645   6.892   5.075   1.361
 5249SOL    HW116646   6.870   5.036   1.451
 5249SOL    HW216647   6.894   5.175   1.369
 5250SOL     OW16648   2.211   5.084   1.097
 5250SOL    HW116649   2.213   5.085   0.997
 5250SOL    HW216650   2.125   5.122   1.129
 5251SOL     OW16651   0.564   4.410   6.498
 5251SOL    HW116652   0.611   4.495   6.520
 5251SOL    HW216653   0.467   4.419   6.519
 5252SOL     OW16654   3.967   5.429   2.874
 5252SOL    HW116655   3.895   5.398   2.812
 5252SOL    HW216656   4.032   5.486   2.823
 5253SOL     OW16657   0.533   6.561   5.114
 5253SOL    HW116658   0.451   6.596   5.069
 5253SOL    HW216659   0.603   6.540   5.046
 5254SOL     OW16660   4.498   5.903   2.863
 5254SOL    HW116661   4.461   5.988   2.900
 5254SOL    HW216662   4.595   5.915   2.843
 5255SOL     OW16663   6.851   1.822   5.550
 5255SOL    HW116664   6.943   1.793   5.524
 5255SOL    HW216665   6.814   1.757   5.616
 5256SOL     OW16666   4.729   1.247   2.725
 5256SOL    HW116667   4.666   1.309   2.678
 5256SOL    HW216668   4.822   1.285   2.720
 5257SOL     OW16669   4.844   2.254   6.959
 5257SOL    HW116670   4.924   2.313   6.949
 5257SOL    HW216671   4.808   2.262   0.025
 5258SOL     OW16672   4.895   1.784   5.327
 5258SOL    HW116673   4.884   1.773   5.229
 5258SOL    HW216674   4.992   1.797   5.349
 5259SOL     OW16675   5.748   5.596   4.053
 5259SOL    HW116676   5.788   5.565   3.968
 5259SOL    HW216677   5.648   5.589   4.048
 5260SOL     OW16678   1.849   5.883   1.712
 5260SOL    HW116679   1.942   5.917   1.701
 5260SOL    HW216680   1.819   5.840   1.627
 5261SOL     OW16681   5.976   4.906   0.024
 5261SOL    HW116682   6.036   4.897   0.103
 5261SOL    HW216683   6.027   4.945   6.975
 5262SOL     OW16684   1.663   1.527   1.674
 5262SOL    HW116685   1.716   1.450   1.639
 5262SOL    HW216686   1.636   1.509   1.769
 5263SOL     OW16687   2.123   5.849   3.309
 5263SOL    HW116688   2.039   5.895   3.277
 5263SOL    HW216689   2.193   5.918   3.329
 5264SOL     OW16690   6.742   2.805   1.823
 5264SOL    HW116691   6.747   2.858   1.738
 5264SOL    HW216692   6.707   2.862   1.897
 5265SOL     OW16693   6.534   6.114   5.437
 5265SOL    HW116694   6.473   6.070   5.503
 5265SOL    HW216695   6.479   6.154   5.363
 5266SOL     OW16696   1.240   6.863   6.079
 5266SOL    HW116697   1.174   6.788   6.086
 5266SOL    HW216698   1.331   6.825   6.060
 5267SOL     OW16699   5.329   1.633   4.228
 5267SOL    HW116700   5.412   1.687   4.241
 5267SOL    HW216701   5.332   1.589   4.138
 5268SOL     OW16702   5.306   0.078   6.114
 5268SOL    HW116703   5.377   0.077   6.185
 5268SOL    HW216704   5.349   0.069   6.024
 5269SOL     OW16705   1.205   6.926   4.466
 5269SOL    HW116706   1.200   6.932   4.566
 5269SOL    HW216707   1.301   6.923   4.437
 5270SOL     OW16708   0.879   2.011   6.191
 5270SOL    HW116709   0.880   2.109   6.207
 5270SOL    HW216710   0.953   1.986   6.129
 5271SOL     OW16711   1.616   5.555   4.445
 5271SOL    HW116712   1.637   5.652   4.433
 5271SOL    HW216713   1.618   5.532   4.542
 5272SOL     OW16714   4.536   0.687   6.343
 5272SOL    HW116715   4.609   0.738   6.297
 5272SOL    HW216716   4.447   0.716   6.307
 5273SOL     OW16717   3.080   1.669   2.885
 5273SOL    HW116718   3.013   1.601   2.916
 5273SOL    HW216719   3.146   1.626   2.824
 5274SOL     OW16720   5.808   4.853   1.468
 5274SOL    HW116721   5.719   4.808   1.455
 5274SOL    HW216722   5.816   4.886   1.562
 5275SOL     OW16723   5.497   1.726   6.004
 5275SOL    HW116724   5.492   1.751   6.101
 5275SOL    HW216725   5.473   1.805   5.948
 5276SOL     OW16726   3.826   6.080   1.747
 5276SOL    HW116727   3.771   6.158   1.718
 5276SOL    HW216728   3.894   6.111   1.814
 5277SOL     OW16729   2.161   3.270   1.842
 5277SOL    HW116730   2.188   3.354   1.888
 5277SOL    HW216731   2.120   3.207   1.908
 5278SOL     OW16732   3.558   3.306   2.497
 5278SOL    HW116733   3.621   3.336   2.425
 5278SOL    HW216734   3.608   3.252   2.565
 5279SOL     OW16735   1.704   5.954   2.764
 5279SOL    HW116736   1.606   5.973   2.772
 5279SOL    HW216737   1.742   6.006   2.688
 5280SOL     OW16738   4.003   1.424   4.165
 5280SOL    HW116739   3.915   1.400   4.124
 5280SOL    HW216740   4.070   1.443   4.093
 5281SOL     OW16741   6.876   2.309   3.608
 5281SOL    HW116742   6.803   2.377   3.617
 5281SOL    HW216743   6.947   2.344   3.547
 5282SOL     OW16744   4.946   2.233   1.148
 5282SOL    HW116745   5.006   2.304   1.111
 5282SOL    HW216746   4.855   2.241   1.108
 5283SOL     OW16747   4.631   4.499   6.250
 5283SOL    HW116748   4.700   4.433   6.222
 5283SOL    HW216749   4.583   4.533   6.169
 5284SOL     OW16750   4.817   2.651   3.802
 5284SOL    HW116751   4.895   2.713   3.792
 5284SOL    HW216752   4.787   2.649   3.898
 5285SOL     OW16753   4.397   6.619   2.889
 5285SOL    HW116754   4.337   6.652   2.962
 5285SOL    HW216755   4.407   6.690   2.820
 5286SOL     OW16756   1.876   4.853   1.726
 5286SOL    HW116757   1.856   4.821   1.634
 5286SOL    HW216758   1.826   4.796   1.792
 5287SOL     OW16759   0.989   0.988   2.393
 5287SOL    HW116760   0.966   1.049   2.469
 5287SOL    HW216761   0.930   0.907   2.397
 5288SOL     OW16762   4.279   0.128   1.278
 5288SOL    HW116763   4.275   0.110   1.377
 5288SOL    HW216764   4.187   0.144   1.243
 5289SOL     OW16765   1.336   6.572   1.030
 5289SOL    HW116766   1.317   6.489   0.977
 5289SOL    HW216767   1.275   6.645   1.001
 5290SOL     OW16768   5.650   5.924   0.275
 5290SOL    HW116769   5.689   6.011   0.307
 5290SOL    HW216770   5.621   5.870   0.354
 5291SOL     OW16771   0.942   5.944   6.862
 5291SOL    HW116772   0.982   6.034   6.844
 5291SOL    HW216773   0.993   5.900   6.936
 5292SOL     OW16774   5.723   1.423   0.745
 5292SOL    HW116775   5.657   1.458   0.812
 5292SOL    HW216776   5.782   1.355   0.788
 5293SOL     OW16777   1.732   1.227   4.074
 5293SOL    HW116778   1.800   1.290   4.039
 5293SOL    HW216779   1.656   1.278   4.115
 5294SOL     OW16780   3.832   2.510   6.398
 5294SOL    HW116781   3.803   2.414   6.391
 5294SOL    HW216782   3.759   2.564   6.439
 5295SOL     OW16783   6.789   1.596   2.665
 5295SOL    HW116784   6.720   1.531   2.696
 5295SOL    HW216785   6.776   1.615   2.568
 5296SOL     OW16786   0.691   2.962   6.221
 5296SOL    HW116787   0.696   2.869   6.256
 5296SOL    HW216788   0.597   2.995   6.227
 5297SOL     OW16789   1.074   2.611   1.703
 5297SOL    HW116790   1.128   2.673   1.759
 5297SOL    HW216791   1.005   2.662   1.652
 5298SOL     OW16792   1.238   4.358   1.585
 5298SOL    HW116793   1.265   4.361   1.489
 5298SOL    HW216794   1.164   4.423   1.602
 5299SOL     OW16795   3.243   0.104   0.479
 5299SOL    HW116796   3.182   0.040   0.432
 5299SOL    HW216797   3.276   0.173   0.414
 5300SOL     OW16798   0.247   5.419   3.829
 5300SOL    HW116799   0.162   5.369   3.812
 5300SOL    HW216800   0.293   5.381   3.909
 5301SOL     OW16801   5.180   0.233   6.780
 5301SOL    HW116802   5.112   0.271   6.717
 5301SOL    HW216803   5.198   0.137   6.755
 5302SOL     OW16804   6.616   4.137   3.784
 5302SOL    HW116805   6.608   4.163   3.687
 5302SOL    HW216806   6.571   4.206   3.840
 5303SOL     OW16807   1.697   4.752   3.325
 5303SOL    HW116808   1.620   4.793   3.374
 5303SOL    HW216809   1.776   4.813   3.330
 5304SOL     OW16810   4.419   2.900   5.687
 5304SOL    HW116811   4.387   2.862   5.601
 5304SOL    HW216812   4.411   2.999   5.685
 5305SOL     OW16813   3.605   1.467   4.320
 5305SOL    HW116814   3.577   1.561   4.337
 5305SOL    HW216815   3.560   1.431   4.239
 5306SOL     OW16816   2.664   6.641   4.262
 5306SOL    HW116817   2.648   6.740   4.252
 5306SOL    HW216818   2.579   6.592   4.242
 5307SOL     OW16819   4.983   6.975   0.281
 5307SOL    HW116820   5.081   6.963   0.298
 5307SOL    HW216821   4.960   0.045   0.289
 5308SOL     OW16822   6.010   1.848   2.044
 5308SOL    HW116823   6.015   1.880   2.138
 5308SOL    HW216824   6.051   1.756   2.038
 5309SOL     OW16825   3.787   3.836   4.905
 5309SOL    HW116826   3.719   3.768   4.931
 5309SOL    HW216827   3.872   3.790   4.880
 5310SOL     OW16828   5.242   2.477   0.767
 5310SOL    HW116829   5.293   2.421   0.833
 5310SOL    HW216830   5.295   2.484   0.682
 5311SOL     OW16831   0.238   6.493   0.130
 5311SOL    HW116832   0.216   6.396   0.122
 5311SOL    HW216833   0.337   6.505   0.129
 5312SOL     OW16834   0.726   3.095   1.435
 5312SOL    HW116835   0.636   3.067   1.401
 5312SOL    HW216836   0.771   3.152   1.366
 5313SOL     OW16837   0.230   6.103   0.682
 5313SOL    HW116838   0.204   6.021   0.631
 5313SOL    HW216839   0.329   6.109   0.689
 5314SOL     OW16840   3.851   5.208   1.601
 5314SOL    HW116841   3.935   5.154   1.604
 5314SOL    HW216842   3.825   5.225   1.506
 5315SOL     OW16843   5.587   1.561   2.117
 5315SOL    HW116844   5.680   1.544   2.149
 5315SOL    HW216845   5.548   1.637   2.169
 5316SOL     OW16846   5.483   5.466   4.049
 5316SOL    HW116847   5.455   5.428   4.137
 5316SOL    HW216848   5.402   5.489   3.995
 5317SOL     OW16849   6.560   5.450   2.308
 5317SOL    HW116850   6.645   5.403   2.283
 5317SOL    HW216851   6.490   5.430   2.240
 5318SOL     OW16852   0.556   2.543   3.733
 5318SOL    HW116853   0.566   2.508   3.826
 5318SOL    HW216854   0.485   2.490   3.685
 5319SOL     OW16855   3.288   6.685   2.897
 5319SOL    HW116856   3.314   6.636   2.980
 5319SOL    HW216857   3.253   6.620   2.829
 5320SOL     OW16858   0.187   3.130   6.370
 5320SOL    HW116859   0.147   3.103   6.282
 5320SOL    HW216860   0.132   3.204   6.409
 5321SOL     OW16861   2.741   4.390   6.048
 5321SOL    HW116862   2.706   4.470   6.097
 5321SOL    HW216863   2.788   4.330   6.112
 5322SOL     OW16864   2.040   5.812   1.057
 5322SOL    HW116865   1.947   5.843   1.037
 5322SOL    HW216866   2.069   5.849   1.145
 5323SOL     OW16867   5.505   3.136   0.316
 5323SOL    HW116868   5.576   3.076   0.352
 5323SOL    HW216869   5.522   3.230   0.346
 5324SOL     OW16870   4.412   3.264   1.117
 5324SOL    HW116871   4.426   3.254   1.216
 5324SOL    HW216872   4.377   3.178   1.080
 5325SOL     OW16873   3.189   6.033   5.107
 5325SOL    HW116874   3.197   6.014   5.205
 5325SOL    HW216875   3.093   6.029   5.080
 5326SOL     OW16876   0.313   0.349   2.163
 5326SOL    HW116877   0.357   0.267   2.128
 5326SOL    HW216878   0.326   0.424   2.097
 5327SOL     OW16879   6.476   0.504   4.009
 5327SOL    HW116880   6.419   0.548   3.940
 5327SOL    HW216881   6.479   0.560   4.092
 5328SOL     OW16882   3.599   4.924   6.996
 5328SOL    HW116883   3.680   4.964   6.953
 5328SOL    HW216884   3.522   4.987   6.988
 5329SOL     OW16885   0.339   5.762   6.489
 5329SOL    HW116886   0.354   5.664   6.478
 5329SOL    HW216887   0.416   5.802   6.539
 5330SOL     OW16888   4.144   5.222   0.550
 5330SOL    HW116889   4.144   5.185   0.457
 5330SOL    HW216890   4.058   5.197   0.595
 5331SOL     OW16891   5.618   1.406   6.505
 5331SOL    HW116892   5.691   1.421   6.573
 5331SOL    HW216893   5.593   1.493   6.463
 5332SOL     OW16894   6.492   2.974   6.741
 5332SOL    HW116895   6.476   2.972   6.839
 5332SOL    HW216896   6.582   3.015   6.723
 5333SOL     OW16897   0.946   0.152   4.051
 5333SOL    HW116898   1.008   0.078   4.076
 5333SOL    HW216899   0.998   0.238   4.045
 5334SOL     OW16900   2.938   6.268   1.572
 5334SOL    HW116901   3.017   6.294   1.516
 5334SOL    HW216902   2.873   6.344   1.576
 5335SOL     OW16903   0.257   4.908   2.040
 5335SOL    HW116904   0.188   4.839   2.016
 5335SOL    HW216905   0.342   4.887   1.992
 5336SOL     OW16906   1.930   3.532   5.071
 5336SOL    HW116907   1.834   3.548   5.096
 5336SOL    HW216908   1.967   3.458   5.128
 5337SOL     OW16909   6.876   3.533   0.981
 5337SOL    HW116910   6.963   3.514   0.935
 5337SOL    HW216911   6.806   3.555   0.913
 5338SOL     OW16912   0.072   3.597   0.578
 5338SOL    HW116913   0.117   3.545   0.505
 5338SOL    HW216914   0.035   3.534   0.646
 5339SOL     OW16915   5.868   2.763   2.964
 5339SOL    HW116916   5.941   2.825   2.934
 5339SOL    HW216917   5.810   2.740   2.886
 5340SOL     OW16918   4.948   3.279   1.250
 5340SOL    HW116919   4.948   3.283   1.350
 5340SOL    HW216920   4.888   3.350   1.213
 5341SOL     OW16921   4.928   4.699   3.328
 5341SOL    HW116922   4.910   4.787   3.372
 5341SOL    HW216923   4.937   4.713   3.229
 5342SOL     OW16924   6.188   5.711   4.553
 5342SOL    HW116925   6.286   5.693   4.558
 5342SOL    HW216926   6.170   5.780   4.482
 5343SOL     OW16927   3.606   3.405   6.807
 5343SOL    HW116928   3.558   3.317   6.813
 5343SOL    HW216929   3.673   3.403   6.733
 5344SOL     OW16930   6.679   2.278   6.827
 5344SOL    HW116931   6.703   2.270   6.924
 5344SOL    HW216932   6.580   2.289   6.818
 5345SOL     OW16933   3.289   1.386   0.389
 5345SOL    HW116934   3.354   1.377   0.464
 5345SOL    HW216935   3.196   1.372   0.423
 5346SOL     OW16936   2.861   6.611   3.369
 5346SOL    HW116937   2.823   6.703   3.364
 5346SOL    HW216938   2.790   6.547   3.396
 5347SOL     OW16939   5.634   1.782   5.345
 5347SOL    HW116940   5.711   1.846   5.346
 5347SOL    HW216941   5.663   1.694   5.381
 5348SOL     OW16942   4.750   2.697   5.438
 5348SOL    HW116943   4.683   2.766   5.409
 5348SOL    HW216944   4.829   2.699   5.376
 5349SOL     OW16945   1.000   4.073   1.258
 5349SOL    HW116946   0.975   4.106   1.167
 5349SOL    HW216947   0.921   4.082   1.319
 5350SOL     OW16948   0.898   6.728   6.135
 5350SOL    HW116949   0.889   6.781   6.220
 5350SOL    HW216950   0.813   6.732   6.084
 5351SOL     OW16951   0.263   5.793   3.274
 5351SOL    HW116952   0.227   5.884   3.295
 5351SOL    HW216953   0.362   5.799   3.264
 5352SOL     OW16954   1.187   2.417   6.151
 5352SOL    HW116955   1.155   2.492   6.094
 5352SOL    HW216956   1.251   2.451   6.220
 5353SOL     OW16957   3.129   0.024   3.728
 5353SOL    HW116958   3.179   0.110   3.720
 5353SOL    HW216959   3.106   0.008   3.824
 5354SOL     OW16960   4.041   5.843   2.133
 5354SOL    HW116961   3.987   5.760   2.133
 5354SOL    HW216962   3.995   5.914   2.186
 5355SOL     OW16963   5.262   5.286   5.141
 5355SOL    HW116964   5.312   5.372   5.130
 5355SOL    HW216965   5.170   5.295   5.104
 5356SOL     OW16966   0.880   0.022   1.351
 5356SOL    HW116967   0.952   7.002   1.300
 5356SOL    HW216968   0.920   0.091   1.411
 5357SOL     OW16969   6.479   3.210   2.503
 5357SOL    HW116970   6.466   3.263   2.419
 5357SOL    HW216971   6.515   3.269   2.575
 5358SOL     OW16972   6.093   0.859   6.516
 5358SOL    HW116973   6.138   0.886   6.601
 5358SOL    HW216974   6.036   0.778   6.533
 5359SOL     OW16975   2.576   2.558   6.549
 5359SOL    HW116976   2.540   2.636   6.498
 5359SOL    HW216977   2.669   2.579   6.581
 5360SOL     OW16978   5.850   5.813   3.692
 5360SOL    HW116979   5.815   5.899   3.729
 5360SOL    HW216980   5.838   5.812   3.592
 5361SOL     OW16981   1.954   3.630   3.118
 5361SOL    HW116982   2.040   3.638   3.168
 5361SOL    HW216983   1.972   3.594   3.026
 5362SOL     OW16984   6.462   1.198   4.224
 5362SOL    HW116985   6.423   1.285   4.254
 5362SOL    HW216986   6.540   1.175   4.281
 5363SOL     OW16987   5.860   5.311   4.109
 5363SOL    HW116988   5.815   5.400   4.107
 5363SOL    HW216989   5.850   5.267   4.020
 5364SOL     OW16990   4.592   2.457   1.925
 5364SOL    HW116991   4.561   2.412   2.009
 5364SOL    HW216992   4.624   2.549   1.947
 5365SOL     OW16993   3.391   3.965   5.349
 5365SOL    HW116994   3.400   4.044   5.289
 5365SOL    HW216995   3.476   3.952   5.401
 5366SOL     OW16996   0.544   4.690   3.389
 5366SOL    HW116997   0.539   4.652   3.482
 5366SOL    HW216998   0.623   4.651   3.342
 5367SOL     OW16999   6.114   6.197   1.226
 5367SOL    HW117000   6.057   6.180   1.306
 5367SOL    HW217001   6.210   6.193   1.252
 5368SOL     OW17002   0.546   5.609   4.830
 5368SOL    HW117003   0.476   5.538   4.817
 5368SOL    HW217004   0.528   5.659   4.914
 5369SOL     OW17005   4.503   6.866   3.091
 5369SOL    HW117006   4.588   6.813   3.097
 5369SOL    HW217007   4.472   6.868   2.996
 5370SOL     OW17008   2.408   2.466   0.608
 5370SOL    HW117009   2.505   2.489   0.614
 5370SOL    HW217010   2.382   2.412   0.688
 5371SOL     OW17011   6.150   5.091   3.393
 5371SOL    HW117012   6.223   5.153   3.424
 5371SOL    HW217013   6.063   5.140   3.393
 5372SOL     OW17014   1.441   0.075   3.628
 5372SOL    HW117015   1.461   0.135   3.550
 5372SOL    HW217016   1.382   0.123   3.692
 5373SOL     OW17017   3.710   0.667   7.004
 5373SOL    HW117018   3.805   0.683   0.001
 5373SOL    HW217019   3.688   0.713   6.918
 5374SOL     OW17020   1.416   3.959   1.458
 5374SOL    HW117021   1.501   4.000   1.489
 5374SOL    HW217022   1.344   4.029   1.455
 5375SOL     OW17023   2.583   4.646   4.855
 5375SOL    HW117024   2.519   4.580   4.895
 5375SOL    HW217025   2.675   4.631   4.893
 5376SOL     OW17026   0.923   1.008   1.506
 5376SOL    HW117027   0.930   1.097   1.461
 5376SOL    HW217028   1.013   0.964   1.507
 5377SOL     OW17029   0.926   2.329   2.319
 5377SOL    HW117030   0.853   2.316   2.251
 5377SOL    HW217031   0.944   2.242   2.365
 5378SOL     OW17032   5.557   6.681   3.125
 5378SOL    HW117033   5.481   6.743   3.145
 5378SOL    HW217034   5.529   6.618   3.052
 5379SOL     OW17035   2.541   2.086   3.946
 5379SOL    HW117036   2.453   2.039   3.960
 5379SOL    HW217037   2.585   2.049   3.864
 5380SOL     OW17038   5.134   6.481   1.599
 5380SOL    HW117039   5.037   6.506   1.590
 5380SOL    HW217040   5.166   6.506   1.690
 5381SOL     OW17041   3.553   1.988   2.573
 5381SOL    HW117042   3.523   1.893   2.581
 5381SOL    HW217043   3.513   2.043   2.646
 5382SOL     OW17044   4.323   0.589   2.854
 5382SOL    HW117045   4.384   0.636   2.790
 5382SOL    HW217046   4.364   0.591   2.946
 5383SOL     OW17047   2.831   3.545   5.361
 5383SOL    HW117048   2.739   3.580   5.378
 5383SOL    HW217049   2.898   3.613   5.390
 5384SOL     OW17050   4.970   6.685   6.130
 5384SOL    HW117051   4.914   6.657   6.052
 5384SOL    HW217052   4.946   6.779   6.156
 5385SOL     OW17053   3.438   3.264   0.432
 5385SOL    HW117054   3.440   3.243   0.335
 5385SOL    HW217055   3.531   3.281   0.465
 5386SOL     OW17056   4.218   4.683   3.281
 5386SOL    HW117057   4.136   4.669   3.226
 5386SOL    HW217058   4.296   4.640   3.235
 5387SOL     OW17059   1.146   2.346   4.001
 5387SOL    HW117060   1.217   2.297   3.949
 5387SOL    HW217061   1.091   2.401   3.938
 5388SOL     OW17062   6.610   6.142   3.527
 5388SOL    HW117063   6.694   6.103   3.490
 5388SOL    HW217064   6.610   6.241   3.513
 5389SOL     OW17065   5.139   1.710   4.397
 5389SOL    HW117066   5.067   1.642   4.389
 5389SOL    HW217067   5.219   1.680   4.344
 5390SOL     OW17068   5.563   3.090   3.308
 5390SOL    HW117069   5.548   3.112   3.404
 5390SOL    HW217070   5.628   3.015   3.300
 5391SOL     OW17071   4.695   2.512   1.496
 5391SOL    HW117072   4.791   2.507   1.467
 5391SOL    HW217073   4.655   2.597   1.461
 5392SOL     OW17074   5.086   0.707   4.382
 5392SOL    HW117075   5.082   0.704   4.282
 5392SOL    HW217076   5.083   0.614   4.419
 5393SOL     OW17077   3.886   1.782   3.430
 5393SOL    HW117078   3.841   1.842   3.496
 5393SOL    HW217079   3.943   1.716   3.478
 5394SOL     OW17080   0.141   2.412   2.652
 5394SOL    HW117081   0.156   2.316   2.676
 5394SOL    HW217082   0.081   2.454   2.720
 5395SOL     OW17083   0.199   1.210   0.937
 5395SOL    HW117084   0.173   1.306   0.940
 5395SOL    HW217085   0.281   1.196   0.992
 5396SOL     OW17086   4.555   2.547   0.599
 5396SOL    HW117087   4.541   2.485   0.677
 5396SOL    HW217088   4.528   2.640   0.625
 5397SOL     OW17089   6.976   0.209   1.882
 5397SOL    HW117090   6.994   0.277   1.952
 5397SOL    HW217091   0.034   0.160   1.860
 5398SOL     OW17092   5.874   2.053   3.611
 5398SOL    HW117093   5.801   1.993   3.579
 5398SOL    HW217094   5.961   2.023   3.573
 5399SOL     OW17095   2.742   3.076   0.195
 5399SOL    HW117096   2.833   3.036   0.200
 5399SOL    HW217097   2.681   3.014   0.145
 5400SOL     OW17098   5.386   2.791   1.135
 5400SOL    HW117099   5.449   2.862   1.103
 5400SOL    HW217100   5.293   2.815   1.107
 5401SOL     OW17101   4.967   3.275   1.546
 5401SOL    HW117102   5.061   3.305   1.563
 5401SOL    HW217103   4.908   3.313   1.617
 5402SOL     OW17104   1.383   5.898   1.864
 5402SOL    HW117105   1.285   5.882   1.874
 5402SOL    HW217106   1.433   5.823   1.907
 5403SOL     OW17107   6.023   2.288   5.709
 5403SOL    HW117108   6.098   2.325   5.655
 5403SOL    HW217109   6.054   2.276   5.804
 5404SOL     OW17110   4.567   6.928   0.641
 5404SOL    HW117111   4.664   6.949   0.652
 5404SOL    HW217112   4.522   7.002   0.591
 5405SOL     OW17113   6.922   5.335   6.458
 5405SOL    HW117114   6.879   5.284   6.383
 5405SOL    HW217115   6.950   5.425   6.426
 5406SOL     OW17116   2.104   0.649   5.545
 5406SOL    HW117117   2.009   0.627   5.569
 5406SOL    HW217118   2.135   0.587   5.473
 5407SOL     OW17119   2.414   0.523   2.615
 5407SOL    HW117120   2.400   0.436   2.662
 5407SOL    HW217121   2.325   0.568   2.603
 5408SOL     OW17122   1.642   2.283   4.525
 5408SOL    HW117123   1.658   2.367   4.576
 5408SOL    HW217124   1.546   2.277   4.498
 5409SOL     OW17125   0.613   3.484   2.659
 5409SOL    HW117126   0.575   3.575   2.643
 5409SOL    HW217127   0.710   3.484   2.632
 5410SOL     OW17128   6.428   2.147   0.415
 5410SOL    HW117129   6.365   2.070   0.421
 5410SOL    HW217130   6.408   2.200   0.333
 5411SOL     OW17131   3.271   5.303   1.872
 5411SOL    HW117132   3.217   5.381   1.840
 5411SOL    HW217133   3.249   5.284   1.967
 5412SOL     OW17134   1.382   2.085   5.707
 5412SOL    HW117135   1.449   2.113   5.637
 5412SOL    HW217136   1.341   2.166   5.748
 5413SOL     OW17137   6.847   5.720   5.786
 5413SOL    HW117138   6.855   5.624   5.812
 5413SOL    HW217139   6.934   5.752   5.750
 5414SOL     OW17140   5.733   5.637   6.248
 5414SOL    HW117141   5.829   5.631   6.221
 5414SOL    HW217142   5.726   5.694   6.330
 5415SOL     OW17143   1.824   1.678   6.337
 5415SOL    HW117144   1.751   1.657   6.403
 5415SOL    HW217145   1.848   1.595   6.286
 5416SOL     OW17146   3.589   5.904   6.673
 5416SOL    HW117147   3.645   5.831   6.633
 5416SOL    HW217148   3.493   5.887   6.650
 5417SOL     OW17149   5.568   0.176   2.270
 5417SOL    HW117150   5.601   0.114   2.200
 5417SOL    HW217151   5.646   0.218   2.317
 5418SOL     OW17152   0.487   3.990   5.349
 5418SOL    HW117153   0.396   3.947   5.343
 5418SOL    HW217154   0.476   4.087   5.373
 5419SOL     OW17155   3.896   1.306   6.019
 5419SOL    HW117156   3.992   1.328   6.035
 5419SOL    HW217157   3.857   1.370   5.954
 5420SOL     OW17158   2.067   2.051   0.820
 5420SOL    HW117159   2.049   2.146   0.792
 5420SOL    HW217160   2.165   2.032   0.810
 5421SOL     OW17161   4.439   5.134   1.632
 5421SOL    HW117162   4.388   5.165   1.552
 5421SOL    HW217163   4.376   5.090   1.696
 5422SOL     OW17164   2.959   6.326   3.165
 5422SOL    HW117165   2.960   6.386   3.085
 5422SOL    HW217166   2.865   6.308   3.192
 5423SOL     OW17167   3.967   6.852   1.758
 5423SOL    HW117168   3.894   6.897   1.809
 5423SOL    HW217169   4.010   6.918   1.696
 5424SOL     OW17170   3.810   3.901   5.280
 5424SOL    HW117171   3.772   3.949   5.359
 5424SOL    HW217172   3.820   3.803   5.301
 5425SOL     OW17173   1.451   5.371   5.282
 5425SOL    HW117174   1.468   5.462   5.320
 5425SOL    HW217175   1.500   5.361   5.196
 5426SOL     OW17176   0.901   4.221   6.789
 5426SOL    HW117177   0.820   4.172   6.759
 5426SOL    HW217178   0.978   4.158   6.794
 5427SOL     OW17179   4.321   2.015   0.079
 5427SOL    HW117180   4.272   2.097   0.050
 5427SOL    HW217181   4.262   1.960   0.138
 5428SOL     OW17182   4.388   5.746   3.083
 5428SOL    HW117183   4.425   5.800   3.007
 5428SOL    HW217184   4.342   5.807   3.147
 5429SOL     OW17185   2.430   6.098   4.113
 5429SOL    HW117186   2.451   6.001   4.101
 5429SOL    HW217187   2.356   6.124   4.050
 5430SOL     OW17188   1.555   4.279   5.117
 5430SOL    HW117189   1.499   4.316   5.192
 5430SOL    HW217190   1.509   4.199   5.078
 5431SOL     OW17191   5.031   4.948   1.548
 5431SOL    HW117192   4.980   4.901   1.476
 5431SOL    HW217193   5.103   4.887   1.583
 5432SOL     OW17194   0.108   4.976   6.284
 5432SOL    HW117195   0.174   5.037   6.240
 5432SOL    HW217196   0.019   5.021   6.288
 5433SOL     OW17197   2.796   0.405   1.312
 5433SOL    HW117198   2.784   0.461   1.230
 5433SOL    HW217199   2.890   0.371   1.316
 5434SOL     OW17200   5.347   5.830   3.999
 5434SOL    HW117201   5.423   5.843   3.935
 5434SOL    HW217202   5.382   5.788   4.083
 5435SOL     OW17203   6.660   3.845   6.325
 5435SOL    HW117204   6.597   3.799   6.263
 5435SOL    HW217205   6.633   3.826   6.420
 5436SOL     OW17206   1.709   4.040   2.051
 5436SOL    HW117207   1.739   3.974   1.982
 5436SOL    HW217208   1.751   4.129   2.033
 5437SOL     OW17209   3.405   6.353   0.118
 5437SOL    HW117210   3.401   6.344   0.019
 5437SOL    HW217211   3.421   6.449   0.142
 5438SOL     OW17212   5.989   6.934   2.757
 5438SOL    HW117213   5.950   7.004   2.816
 5438SOL    HW217214   6.088   6.943   2.756
 5439SOL     OW17215   1.706   3.797   1.536
 5439SOL    HW117216   1.711   3.807   1.636
 5439SOL    HW217217   1.790   3.835   1.495
 5440SOL     OW17218   6.448   0.060   4.277
 5440SOL    HW117219   6.468   0.113   4.360
 5440SOL    HW217220   6.516   0.081   4.207
 5441SOL     OW17221   5.453   1.746   4.930
 5441SOL    HW117222   5.394   1.736   4.850
 5441SOL    HW217223   5.491   1.657   4.954
 5442SOL     OW17224   2.378   0.203   6.591
 5442SOL    HW117225   2.372   0.246   6.680
 5442SOL    HW217226   2.425   0.115   6.600
 5443SOL     OW17227   5.605   0.504   3.653
 5443SOL    HW117228   5.533   0.511   3.583
 5443SOL    HW217229   5.572   0.543   3.739
 5444SOL     OW17230   1.156   0.960   6.146
 5444SOL    HW117231   1.076   0.971   6.204
 5444SOL    HW217232   1.155   0.869   6.103
 5445SOL     OW17233   6.156   6.522   5.169
 5445SOL    HW117234   6.088   6.578   5.216
 5445SOL    HW217235   6.246   6.565   5.178
 5446SOL     OW17236   1.582   5.411   5.575
 5446SOL    HW117237   1.654   5.402   5.506
 5446SOL    HW217238   1.610   5.362   5.658
 5447SOL     OW17239   6.357   2.164   1.429
 5447SOL    HW117240   6.276   2.177   1.486
 5447SOL    HW217241   6.370   2.067   1.411
 5448SOL     OW17242   6.675   4.665   1.647
 5448SOL    HW117243   6.718   4.626   1.565
 5448SOL    HW217244   6.576   4.658   1.639
 5449SOL     OW17245   1.949   6.812   2.504
 5449SOL    HW117246   1.922   6.852   2.416
 5449SOL    HW217247   1.871   6.762   2.543
 5450SOL     OW17248   4.712   5.652   1.882
 5450SOL    HW117249   4.615   5.658   1.859
 5450SOL    HW217250   4.738   5.556   1.894
 5451SOL     OW17251   0.307   6.394   3.762
 5451SOL    HW117252   0.377   6.465   3.761
 5451SOL    HW217253   0.221   6.432   3.796
 5452SOL     OW17254   1.838   4.086   3.014
 5452SOL    HW117255   1.878   4.144   3.085
 5452SOL    HW217256   1.848   3.990   3.040
 5453SOL     OW17257   5.911   4.716   4.334
 5453SOL    HW117258   5.873   4.797   4.377
 5453SOL    HW217259   5.880   4.710   4.239
 5454SOL     OW17260   5.898   3.986   2.373
 5454SOL    HW117261   5.917   3.954   2.466
 5454SOL    HW217262   5.983   3.998   2.323
 5455SOL     OW17263   2.444   2.185   3.181
 5455SOL    HW117264   2.518   2.120   3.164
 5455SOL    HW217265   2.482   2.278   3.187
 5456SOL     OW17266   5.631   2.520   0.818
 5456SOL    HW117267   5.699   2.460   0.860
 5456SOL    HW217268   5.561   2.465   0.773
 5457SOL     OW17269   6.782   1.577   0.646
 5457SOL    HW117270   6.865   1.527   0.668
 5457SOL    HW217271   6.800   1.676   0.649
 5458SOL     OW17272   5.993   5.067   5.773
 5458SOL    HW117273   5.986   5.100   5.679
 5458SOL    HW217274   5.928   5.116   5.831
 5459SOL     OW17275   2.161   3.332   5.104
 5459SOL    HW117276   2.188   3.258   5.166
 5459SOL    HW217277   2.225   3.337   5.027
 5460SOL     OW17278   0.418   0.857   1.472
 5460SOL    HW117279   0.492   0.915   1.504
 5460SOL    HW217280   0.447   0.808   1.389
 5461SOL     OW17281   6.198   1.573   6.758
 5461SOL    HW117282   6.257   1.492   6.753
 5461SOL    HW217283   6.250   1.651   6.792
 5462SOL     OW17284   5.572   5.266   5.909
 5462SOL    HW117285   5.524   5.179   5.896
 5462SOL    HW217286   5.553   5.326   5.832
 5463SOL     OW17287   1.858   5.401   6.286
 5463SOL    HW117288   1.929   5.409   6.355
 5463SOL    HW217289   1.788   5.337   6.316
 5464SOL     OW17290   2.007   5.503   4.275
 5464SOL    HW117291   1.988   5.410   4.243
 5464SOL    HW217292   1.959   5.519   4.361
 5465SOL     OW17293   0.675   0.564   4.773
 5465SOL    HW117294   0.638   0.488   4.719
 5465SOL    HW217295   0.605   0.598   4.835
 5466SOL     OW17296   4.767   2.480   5.153
 5466SOL    HW117297   4.759   2.439   5.063
 5466SOL    HW217298   4.716   2.566   5.156
 5467SOL     OW17299   6.417   3.229   3.924
 5467SOL    HW117300   6.343   3.257   3.862
 5467SOL    HW217301   6.459   3.311   3.964
 5468SOL     OW17302   0.103   2.632   1.450
 5468SOL    HW117303   0.011   2.670   1.453
 5468SOL    HW217304   0.110   2.558   1.517
 5469SOL     OW17305   3.979   2.207   3.853
 5469SOL    HW117306   3.886   2.244   3.848
 5469SOL    HW217307   4.001   2.184   3.948
 5470SOL     OW17308   3.078   5.249   3.510
 5470SOL    HW117309   3.136   5.291   3.580
 5470SOL    HW217310   3.089   5.150   3.513
 5471SOL     OW17311   5.570   0.697   3.286
 5471SOL    HW117312   5.614   0.700   3.376
 5471SOL    HW217313   5.537   0.788   3.262
 5472SOL     OW17314   2.489   4.135   6.551
 5472SOL    HW117315   2.514   4.060   6.489
 5472SOL    HW217316   2.396   4.122   6.584
 5473SOL     OW17317   2.812   4.744   2.291
 5473SOL    HW117318   2.833   4.686   2.212
 5473SOL    HW217319   2.826   4.840   2.267
 5474SOL     OW17320   1.042   4.906   2.107
 5474SOL    HW117321   1.081   4.863   2.189
 5474SOL    HW217322   0.951   4.869   2.090
 5475SOL     OW17323   1.168   0.990   5.224
 5475SOL    HW117324   1.235   1.051   5.267
 5475SOL    HW217325   1.210   0.945   5.145
 5476SOL     OW17326   2.273   0.793   4.656
 5476SOL    HW117327   2.283   0.799   4.755
 5476SOL    HW217328   2.226   0.874   4.622
 5477SOL     OW17329   2.174   3.087   2.868
 5477SOL    HW117330   2.179   2.992   2.837
 5477SOL    HW217331   2.163   3.148   2.790
 5478SOL     OW17332   6.269   3.862   6.023
 5478SOL    HW117333   6.268   3.796   5.948
 5478SOL    HW217334   6.362   3.898   6.035
 5479SOL     OW17335   5.551   3.108   4.386
 5479SOL    HW117336   5.641   3.131   4.348
 5479SOL    HW217337   5.561   3.063   4.474
 5480SOL     OW17338   1.406   3.419   4.352
 5480SOL    HW117339   1.500   3.388   4.368
 5480SOL    HW217340   1.400   3.518   4.368
 5481SOL     OW17341   4.438   1.360   6.892
 5481SOL    HW117342   4.421   1.445   6.941
 5481SOL    HW217343   4.364   1.344   6.826
 5482SOL     OW17344   5.595   3.949   2.584
 5482SOL    HW117345   5.585   4.005   2.502
 5482SOL    HW217346   5.548   3.861   2.569
 5483SOL     OW17347   6.675   2.804   0.017
 5483SOL    HW117348   6.644   2.709   0.024
 5483SOL    HW217349   6.686   2.843   0.109
 5484SOL     OW17350   6.376   0.841   5.460
 5484SOL    HW117351   6.455   0.899   5.440
 5484SOL    HW217352   6.298   0.872   5.406
 5485SOL     OW17353   3.184   0.917   4.225
 5485SOL    HW117354   3.183   0.841   4.291
 5485SOL    HW217355   3.276   0.956   4.220
 5486SOL     OW17356   0.801   0.193   3.532
 5486SOL    HW117357   0.885   0.211   3.584
 5486SOL    HW217358   0.752   0.279   3.517
 5487SOL     OW17359   4.277   5.418   1.806
 5487SOL    HW117360   4.246   5.430   1.712
 5487SOL    HW217361   4.274   5.505   1.854
 5488SOL     OW17362   5.129   1.377   5.913
 5488SOL    HW117363   5.058   1.442   5.941
 5488SOL    HW217364   5.212   1.428   5.887
 5489SOL     OW17365   6.845   3.948   2.098
 5489SOL    HW117366   6.838   3.995   2.010
 5489SOL    HW217367   6.815   4.010   2.171
 5490SOL     OW17368   3.124   2.167   6.120
 5490SOL    HW117369   3.134   2.152   6.022
 5490SOL    HW217370   3.156   2.085   6.169
 5491SOL     OW17371   6.939   5.401   2.517
 5491SOL    HW117372   6.937   5.377   2.614
 5491SOL    HW217373   6.937   5.501   2.508
 5492SOL     OW17374   1.021   1.312   4.707
 5492SOL    HW117375   1.002   1.391   4.649
 5492SOL    HW217376   1.099   1.262   4.670
 5493SOL     OW17377   3.350   2.040   0.839
 5493SOL    HW117378   3.338   2.076   0.746
 5493SOL    HW217379   3.446   2.045   0.864
 5494SOL     OW17380   6.023   3.181   2.652
 5494SOL    HW117381   5.926   3.204   2.661
 5494SOL    HW217382   6.035   3.083   2.669
 5495SOL     OW17383   3.804   3.175   4.029
 5495SOL    HW117384   3.874   3.148   4.095
 5495SOL    HW217385   3.813   3.120   3.946
 5496SOL     OW17386   5.294   5.437   2.051
 5496SOL    HW117387   5.230   5.489   2.107
 5496SOL    HW217388   5.387   5.472   2.064
 5497SOL     OW17389   5.563   0.466   0.995
 5497SOL    HW117390   5.658   0.455   0.965
 5497SOL    HW217391   5.523   0.545   0.947
 5498SOL     OW17392   4.729   1.050   4.813
 5498SOL    HW117393   4.689   1.072   4.724
 5498SOL    HW217394   4.659   1.059   4.884
 5499SOL     OW17395   0.599   1.357   5.287
 5499SOL    HW117396   0.578   1.276   5.233
 5499SOL    HW217397   0.697   1.374   5.285
 5500SOL     OW17398   1.587   6.641   1.117
 5500SOL    HW117399   1.497   6.630   1.077
 5500SOL    HW217400   1.622   6.552   1.146
 5501SOL     OW17401   2.863   0.821   2.545
 5501SOL    HW117402   2.957   0.806   2.513
 5501SOL    HW217403   2.829   0.908   2.509
 5502SOL     OW17404   4.629   3.359   0.228
 5502SOL    HW117405   4.719   3.349   0.185
 5502SOL    HW217406   4.581   3.436   0.187
 5503SOL     OW17407   6.938   6.520   4.359
 5503SOL    HW117408   6.948   6.421   4.366
 5503SOL    HW217409   6.995   6.555   4.284
 5504SOL     OW17410   2.908   2.098   4.200
 5504SOL    HW117411   2.815   2.118   4.168
 5504SOL    HW217412   2.920   2.136   4.292
 5505SOL     OW17413   3.618   4.690   0.108
 5505SOL    HW117414   3.610   4.705   0.207
 5505SOL    HW217415   3.613   4.778   0.060
 5506SOL     OW17416   6.886   6.745   5.883
 5506SOL    HW117417   6.878   6.645   5.892
 5506SOL    HW217418   6.897   6.769   5.787
 5507SOL     OW17419   3.147   5.429   5.357
 5507SOL    HW117420   3.162   5.466   5.449
 5507SOL    HW217421   3.235   5.397   5.320
 5508SOL     OW17422   1.172   0.923   5.592
 5508SOL    HW117423   1.267   0.935   5.621
 5508SOL    HW217424   1.166   0.934   5.492
 5509SOL     OW17425   6.401   0.340   6.480
 5509SOL    HW117426   6.376   0.424   6.529
 5509SOL    HW217427   6.494   0.314   6.503
 5510SOL     OW17428   6.523   0.925   6.307
 5510SOL    HW117429   6.426   0.898   6.309
 5510SOL    HW217430   6.565   0.894   6.222
 5511SOL     OW17431   6.739   2.976   1.555
 5511SOL    HW117432   6.765   3.072   1.566
 5511SOL    HW217433   6.669   2.968   1.484
 5512SOL     OW17434   0.173   0.416   0.300
 5512SOL    HW117435   0.108   0.490   0.319
 5512SOL    HW217436   0.256   0.430   0.354
 5513SOL     OW17437   2.932   6.146   5.280
 5513SOL    HW117438   2.997   6.181   5.213
 5513SOL    HW217439   2.855   6.103   5.233
 5514SOL     OW17440   6.171   5.601   3.849
 5514SOL    HW117441   6.148   5.504   3.861
 5514SOL    HW217442   6.261   5.619   3.888
 5515SOL     OW17443   6.741   3.626   3.010
 5515SOL    HW117444   6.783   3.557   3.068
 5515SOL    HW217445   6.803   3.648   2.934
 5516SOL     OW17446   1.246   2.412   6.588
 5516SOL    HW117447   1.304   2.459   6.655
 5516SOL    HW217448   1.262   2.451   6.498
 5517SOL     OW17449   2.567   1.014   1.990
 5517SOL    HW117450   2.480   0.974   2.021
 5517SOL    HW217451   2.583   1.100   2.038
 5518SOL     OW17452   5.575   4.560   5.137
 5518SOL    HW117453   5.547   4.489   5.202
 5518SOL    HW217454   5.563   4.527   5.044
 5519SOL     OW17455   5.501   3.782   2.965
 5519SOL    HW117456   5.482   3.729   2.882
 5519SOL    HW217457   5.523   3.720   3.040
 5520SOL     OW17458   1.960   2.665   0.925
 5520SOL    HW117459   2.048   2.654   0.879
 5520SOL    HW217460   1.966   2.629   1.018
 5521SOL     OW17461   5.184   5.491   0.274
 5521SOL    HW117462   5.157   5.419   0.339
 5521SOL    HW217463   5.131   5.481   0.190
 5522SOL     OW17464   2.117   2.834   1.915
 5522SOL    HW117465   2.126   2.933   1.921
 5522SOL    HW217466   2.117   2.795   2.007
 5523SOL     OW17467   3.576   0.707   1.923
 5523SOL    HW117468   3.574   0.640   1.997
 5523SOL    HW217469   3.483   0.721   1.888
 5524SOL     OW17470   5.917   5.966   5.618
 5524SOL    HW117471   5.917   5.972   5.518
 5524SOL    HW217472   5.842   6.021   5.655
 5525SOL     OW17473   6.462   5.579   3.839
 5525SOL    HW117474   6.446   5.504   3.904
 5525SOL    HW217475   6.554   5.615   3.852
 5526SOL     OW17476   5.175   3.084   4.761
 5526SOL    HW117477   5.175   3.112   4.857
 5526SOL    HW217478   5.217   3.155   4.705
 5527SOL     OW17479   2.099   3.515   6.951
 5527SOL    HW117480   2.118   3.548   6.859
 5527SOL    HW217481   2.003   3.531   6.973
 5528SOL     OW17482   6.635   3.393   2.700
 5528SOL    HW117483   6.563   3.419   2.765
 5528SOL    HW217484   6.709   3.348   2.749
 5529SOL     OW17485   1.219   0.897   3.874
 5529SOL    HW117486   1.146   0.964   3.857
 5529SOL    HW217487   1.234   0.888   3.973
 5530SOL     OW17488   6.912   3.316   6.750
 5530SOL    HW117489   6.999   3.362   6.767
 5530SOL    HW217490   6.856   3.373   6.689
 5531SOL     OW17491   2.106   3.031   6.874
 5531SOL    HW117492   2.024   2.996   6.919
 5531SOL    HW217493   2.144   2.960   6.815
 5532SOL     OW17494   2.101   2.243   1.122
 5532SOL    HW117495   2.014   2.204   1.094
 5532SOL    HW217496   2.148   2.179   1.183
 5533SOL     OW17497   3.548   0.328   0.520
 5533SOL    HW117498   3.499   0.296   0.439
 5533SOL    HW217499   3.635   0.279   0.528
 5534SOL     OW17500   0.203   4.393   5.047
 5534SOL    HW117501   0.287   4.342   5.067
 5534SOL    HW217502   0.223   4.465   4.981
 5535SOL     OW17503   6.352   3.341   3.521
 5535SOL    HW117504   6.399   3.311   3.604
 5535SOL    HW217505   6.264   3.295   3.514
 5536SOL     OW17506   3.030   0.498   4.003
 5536SOL    HW117507   3.031   0.402   3.974
 5536SOL    HW217508   3.121   0.537   3.990
 5537SOL     OW17509   4.073   1.309   4.931
 5537SOL    HW117510   4.007   1.245   4.968
 5537SOL    HW217511   4.026   1.380   4.878
 5538SOL     OW17512   5.434   2.339   2.651
 5538SOL    HW117513   5.341   2.308   2.632
 5538SOL    HW217514   5.478   2.368   2.565
 5539SOL     OW17515   2.529   0.095   7.027
 5539SOL    HW117516   2.469   0.171   7.000
 5539SOL    HW217517   2.618   0.132   0.027
 5540SOL     OW17518   5.280   0.351   5.666
 5540SOL    HW117519   5.186   0.387   5.665
 5540SOL    HW217520   5.331   0.396   5.740
 5541SOL     OW17521   4.825   3.273   7.013
 5541SOL    HW117522   4.736   3.232   6.991
 5541SOL    HW217523   4.889   3.256   6.937
 5542SOL     OW17524   4.518   4.665   0.416
 5542SOL    HW117525   4.604   4.615   0.411
 5542SOL    HW217526   4.518   4.724   0.497
 5543SOL     OW17527   1.306   0.587   6.552
 5543SOL    HW117528   1.320   0.603   6.454
 5543SOL    HW217529   1.323   0.491   6.573
 5544SOL     OW17530   3.806   5.268   1.074
 5544SOL    HW117531   3.783   5.365   1.065
 5544SOL    HW217532   3.755   5.215   1.007
 5545SOL     OW17533   5.136   1.046   3.759
 5545SOL    HW117534   5.042   1.079   3.760
 5545SOL    HW217535   5.195   1.112   3.806
 5546SOL     OW17536   0.525   5.177   4.369
 5546SOL    HW117537   0.528   5.201   4.466
 5546SOL    HW217538   0.586   5.099   4.352
 5547SOL     OW17539   4.816   2.472   4.842
 5547SOL    HW117540   4.910   2.506   4.837
 5547SOL    HW217541   4.813   2.379   4.807
 5548SOL     OW17542   0.655   4.721   5.233
 5548SOL    HW117543   0.615   4.766   5.154
 5548SOL    HW217544   0.693   4.632   5.206
 5549SOL     OW17545   3.862   3.117   0.700
 5549SOL    HW117546   3.867   3.018   0.711
 5549SOL    HW217547   3.767   3.147   0.711
 5550SOL     OW17548   2.553   4.217   1.676
 5550SOL    HW117549   2.531   4.125   1.643
 5550SOL    HW217550   2.483   4.248   1.739
 5551SOL     OW17551   2.317   4.909   2.556
 5551SOL    HW117552   2.380   4.899   2.633
 5551SOL    HW217553   2.368   4.904   2.470
 5552SOL     OW17554   1.182   6.876   0.188
 5552SOL    HW117555   1.219   6.892   0.096
 5552SOL    HW217556   1.236   6.927   0.255
 5553SOL     OW17557   5.328   0.479   0.142
 5553SOL    HW117558   5.233   0.499   0.117
 5553SOL    HW217559   5.357   0.394   0.098
 5554SOL     OW17560   7.000   2.124   1.531
 5554SOL    HW117561   6.964   2.216   1.517
 5554SOL    HW217562   6.952   2.060   1.471
 5555SOL     OW17563   1.267   4.934   2.684
 5555SOL    HW117564   1.231   4.843   2.668
 5555SOL    HW217565   1.345   4.929   2.747
 5556SOL     OW17566   7.008   0.957   4.460
 5556SOL    HW117567   6.951   0.906   4.395
 5556SOL    HW217568   0.024   0.894   4.524
 5557SOL     OW17569   3.779   6.199   3.291
 5557SOL    HW117570   3.805   6.248   3.208
 5557SOL    HW217571   3.837   6.118   3.301
 5558SOL     OW17572   4.450   4.310   0.138
 5558SOL    HW117573   4.405   4.399   0.133
 5558SOL    HW217574   4.544   4.322   0.170
 5559SOL     OW17575   3.586   0.994   2.587
 5559SOL    HW117576   3.669   1.030   2.544
 5559SOL    HW217577   3.589   0.894   2.589
 5560SOL     OW17578   0.516   5.213   3.515
 5560SOL    HW117579   0.506   5.171   3.605
 5560SOL    HW217580   0.569   5.297   3.523
 5561SOL     OW17581   3.677   6.640   2.929
 5561SOL    HW117582   3.662   6.664   3.025
 5561SOL    HW217583   3.645   6.715   2.871
 5562SOL     OW17584   3.607   3.752   1.042
 5562SOL    HW117585   3.669   3.720   1.114
 5562SOL    HW217586   3.634   3.710   0.955
 5563SOL     OW17587   2.557   4.582   2.176
 5563SOL    HW117588   2.642   4.633   2.182
 5563SOL    HW217589   2.526   4.579   2.081
 5564SOL     OW17590   5.024   0.190   6.153
 5564SOL    HW117591   5.062   0.248   6.081
 5564SOL    HW217592   5.096   0.168   6.219
 5565SOL     OW17593   3.403   1.443   6.461
 5565SOL    HW117594   3.414   1.387   6.379
 5565SOL    HW217595   3.389   1.538   6.435
 5566SOL     OW17596   1.586   4.220   6.144
 5566SOL    HW117597   1.610   4.163   6.065
 5566SOL    HW217598   1.491   4.252   6.134
 5567SOL     OW17599   0.498   4.551   0.385
 5567SOL    HW117600   0.556   4.475   0.356
 5567SOL    HW217601   0.467   4.602   0.305
 5568SOL     OW17602   5.049   4.535   1.375
 5568SOL    HW117603   5.102   4.610   1.337
 5568SOL    HW217604   5.057   4.535   1.475
 5569SOL     OW17605   2.468   2.589   2.607
 5569SOL    HW117606   2.477   2.619   2.702
 5569SOL    HW217607   2.513   2.500   2.596
 5570SOL     OW17608   6.879   3.710   1.888
 5570SOL    HW117609   6.892   3.711   1.987
 5570SOL    HW217610   6.815   3.782   1.862
 5571SOL     OW17611   6.742   4.838   1.146
 5571SOL    HW117612   6.687   4.762   1.110
 5571SOL    HW217613   6.839   4.815   1.139
 5572SOL     OW17614   1.864   4.014   5.105
 5572SOL    HW117615   1.804   3.954   5.157
 5572SOL    HW217616   1.958   3.980   5.110
 5573SOL     OW17617   3.129   4.984   3.541
 5573SOL    HW117618   3.151   4.954   3.634
 5573SOL    HW217619   3.203   4.959   3.479
 5574SOL     OW17620   0.415   2.244   5.153
 5574SOL    HW117621   0.354   2.166   5.141
 5574SOL    HW217622   0.417   2.299   5.069
 5575SOL     OW17623   0.065   0.001   1.453
 5575SOL    HW117624   0.099   6.934   1.450
 5575SOL    HW217625   0.049   0.028   1.548
 5576SOL     OW17626   1.333   5.318   2.690
 5576SOL    HW117627   1.253   5.258   2.682
 5576SOL    HW217628   1.383   5.295   2.774
 5577SOL     OW17629   1.956   2.277   5.815
 5577SOL    HW117630   1.989   2.198   5.762
 5577SOL    HW217631   2.026   2.348   5.818
 5578SOL     OW17632   3.181   4.111   3.326
 5578SOL    HW117633   3.203   4.117   3.423
 5578SOL    HW217634   3.134   4.194   3.297
 5579SOL     OW17635   6.822   2.536   2.203
 5579SOL    HW117636   6.811   2.629   2.236
 5579SOL    HW217637   6.914   2.524   2.165
 5580SOL     OW17638   5.665   2.407   5.509
 5580SOL    HW117639   5.682   2.377   5.603
 5580SOL    HW217640   5.747   2.453   5.473
 5581SOL     OW17641   1.571   2.759   6.729
 5581SOL    HW117642   1.623   2.723   6.806
 5581SOL    HW217643   1.627   2.824   6.678
 5582SOL     OW17644   2.801   2.863   5.999
 5582SOL    HW117645   2.897   2.877   6.026
 5582SOL    HW217646   2.773   2.771   6.025
 5583SOL     OW17647   5.312   0.081   1.107
 5583SOL    HW117648   5.285   0.167   1.065
 5583SOL    HW217649   5.231   0.027   1.128
 5584SOL     OW17650   1.896   3.254   4.158
 5584SOL    HW117651   1.850   3.236   4.245
 5584SOL    HW217652   1.847   3.325   4.108
 5585SOL     OW17653   5.242   5.266   1.850
 5585SOL    HW117654   5.324   5.215   1.828
 5585SOL    HW217655   5.265   5.340   1.914
 5586SOL     OW17656   0.409   4.476   0.048
 5586SOL    HW117657   0.433   4.572   0.060
 5586SOL    HW217658   0.492   4.424   0.027
 5587SOL     OW17659   6.175   0.845   5.943
 5587SOL    HW117660   6.209   0.781   6.013
 5587SOL    HW217661   6.252   0.887   5.896
 5588SOL     OW17662   3.788   6.753   0.984
 5588SOL    HW117663   3.848   6.817   1.031
 5588SOL    HW217664   3.806   6.660   1.016
 5589SOL     OW17665   5.894   4.930   6.211
 5589SOL    HW117666   5.992   4.943   6.225
 5589SOL    HW217667   5.851   4.901   6.296
 5590SOL     OW17668   6.611   5.277   3.309
 5590SOL    HW117669   6.577   5.212   3.240
 5590SOL    HW217670   6.709   5.262   3.324
 5591SOL     OW17671   5.399   0.867   1.909
 5591SOL    HW117672   5.421   0.801   1.838
 5591SOL    HW217673   5.483   0.905   1.947
 5592SOL     OW17674   0.714   4.040   3.151
 5592SOL    HW117675   0.803   4.081   3.131
 5592SOL    HW217676   0.726   3.945   3.177
 5593SOL     OW17677   0.164   3.783   0.291
 5593SOL    HW117678   0.261   3.799   0.309
 5593SOL    HW217679   0.109   3.828   0.363
 5594SOL     OW17680   6.205   2.200   6.116
 5594SOL    HW117681   6.284   2.233   6.167
 5594SOL    HW217682   6.219   2.218   6.018
 5595SOL     OW17683   1.339   2.546   6.358
 5595SOL    HW117684   1.294   2.634   6.373
 5595SOL    HW217685   1.437   2.556   6.373
 5596SOL     OW17686   3.084   6.110   3.300
 5596SOL    HW117687   3.052   6.187   3.245
 5596SOL    HW217688   3.146   6.142   3.371
 5597SOL     OW17689   5.057   3.280   2.613
 5597SOL    HW117690   4.987   3.242   2.673
 5597SOL    HW217691   5.058   3.229   2.527
 5598SOL     OW17692   5.154   1.853   5.360
 5598SOL    HW117693   5.245   1.859   5.318
 5598SOL    HW217694   5.099   1.932   5.332
 5599SOL     OW17695   1.182   0.592   3.367
 5599SOL    HW117696   1.202   0.522   3.435
 5599SOL    HW217697   1.090   0.577   3.330
 5600SOL     OW17698   1.805   2.642   4.791
 5600SOL    HW117699   1.709   2.640   4.763
 5600SOL    HW217700   1.864   2.643   4.710
 5601SOL     OW17701   2.447   0.665   6.044
 5601SOL    HW117702   2.487   0.669   6.136
 5601SOL    HW217703   2.520   0.671   5.976
 5602SOL     OW17704   1.681   0.954   0.060
 5602SOL    HW117705   1.722   1.008   7.013
 5602SOL    HW217706   1.745   0.949   0.136
 5603SOL     OW17707   5.859   5.160   5.989
 5603SOL    HW117708   5.871   5.085   6.055
 5603SOL    HW217709   5.798   5.229   6.028
 5604SOL     OW17710   6.096   1.326   5.881
 5604SOL    HW117711   6.178   1.269   5.879
 5604SOL    HW217712   6.032   1.290   5.949
 5605SOL     OW17713   1.583   2.349   6.382
 5605SOL    HW117714   1.517   2.310   6.446
 5605SOL    HW217715   1.593   2.447   6.399
 5606SOL     OW17716   5.638   0.425   2.981
 5606SOL    HW117717   5.635   0.325   2.982
 5606SOL    HW217718   5.718   0.455   2.929
 5607SOL     OW17719   6.038   0.597   1.222
 5607SOL    HW117720   5.996   0.624   1.308
 5607SOL    HW217721   6.010   0.660   1.150
 5608SOL     OW17722   4.039   6.321   5.156
 5608SOL    HW117723   3.982   6.385   5.207
 5608SOL    HW217724   3.995   6.231   5.156
 5609SOL     OW17725   1.641   5.617   4.963
 5609SOL    HW117726   1.710   5.680   4.929
 5609SOL    HW217727   1.550   5.658   4.951
 5610SOL     OW17728   4.764   0.378   6.595
 5610SOL    HW117729   4.711   0.452   6.553
 5610SOL    HW217730   4.849   0.364   6.545
 5611SOL     OW17731   1.953   4.493   3.788
 5611SOL    HW117732   1.861   4.454   3.790
 5611SOL    HW217733   1.987   4.502   3.881
 5612SOL     OW17734   2.706   0.186   5.482
 5612SOL    HW117735   2.607   0.178   5.492
 5612SOL    HW217736   2.735   0.134   5.401
 5613SOL     OW17737   3.897   5.268   1.901
 5613SOL    HW117738   3.823   5.217   1.946
 5613SOL    HW217739   3.879   5.271   1.802
 5614SOL     OW17740   4.989   2.306   3.523
 5614SOL    HW117741   5.086   2.318   3.502
 5614SOL    HW217742   4.971   2.338   3.616
 5615SOL     OW17743   1.566   1.459   1.325
 5615SOL    HW117744   1.479   1.508   1.336
 5615SOL    HW217745   1.569   1.416   1.235
 5616SOL     OW17746   2.405   0.121   4.482
 5616SOL    HW117747   2.386   0.073   4.568
 5616SOL    HW217748   2.424   0.217   4.500
 5617SOL     OW17749   0.545   0.687   4.993
 5617SOL    HW117750   0.489   0.631   5.053
 5617SOL    HW217751   0.622   0.725   5.044
 5618SOL     OW17752   6.894   4.262   2.767
 5618SOL    HW117753   6.803   4.281   2.803
 5618SOL    HW217754   6.921   4.335   2.704
 5619SOL     OW17755   2.161   3.863   4.800
 5619SOL    HW117756   2.172   3.934   4.869
 5619SOL    HW217757   2.186   3.774   4.840
 5620SOL     OW17758   3.467   2.154   6.626
 5620SOL    HW117759   3.540   2.213   6.662
 5620SOL    HW217760   3.458   2.073   6.683
 5621SOL     OW17761   2.537   1.802   6.362
 5621SOL    HW117762   2.536   1.894   6.322
 5621SOL    HW217763   2.628   1.763   6.353
 5622SOL     OW17764   5.337   1.022   5.408
 5622SOL    HW117765   5.381   0.934   5.423
 5622SOL    HW217766   5.261   1.010   5.343
 5623SOL     OW17767   0.382   5.809   0.052
 5623SOL    HW117768   0.456   5.774   7.021
 5623SOL    HW217769   0.299   5.755   0.035
 5624SOL     OW17770   0.884   4.344   2.491
 5624SOL    HW117771   0.911   4.302   2.405
 5624SOL    HW217772   0.844   4.275   2.551
 5625SOL     OW17773   6.329   2.469   5.830
 5625SOL    HW117774   6.296   2.481   5.737
 5625SOL    HW217775   6.371   2.379   5.840
 5626SOL     OW17776   4.789   6.630   4.316
 5626SOL    HW117777   4.786   6.634   4.216
 5626SOL    HW217778   4.729   6.558   4.350
 5627SOL     OW17779   1.140   6.652   0.830
 5627SOL    HW117780   1.050   6.616   0.851
 5627SOL    HW217781   1.161   6.637   0.733
 5628SOL     OW17782   1.374   1.927   4.711
 5628SOL    HW117783   1.317   1.900   4.634
 5628SOL    HW217784   1.322   1.987   4.772
 5629SOL     OW17785   3.863   3.184   3.065
 5629SOL    HW117786   3.887   3.111   3.001
 5629SOL    HW217787   3.946   3.236   3.088
 5630SOL     OW17788   0.124   4.123   1.531
 5630SOL    HW117789   0.069   4.128   1.448
 5630SOL    HW217790   0.214   4.161   1.514
 5631SOL     OW17791   4.898   0.678   6.596
 5631SOL    HW117792   4.875   0.751   6.532
 5631SOL    HW217793   4.815   0.647   6.642
 5632SOL     OW17794   3.221   3.253   6.978
 5632SOL    HW117795   3.132   3.266   7.023
 5632SOL    HW217796   3.225   3.310   6.896
 5633SOL     OW17797   6.430   2.790   4.760
 5633SOL    HW117798   6.397   2.771   4.668
 5633SOL    HW217799   6.514   2.844   4.755
 5634SOL     OW17800   4.765   5.579   4.707
 5634SOL    HW117801   4.678   5.599   4.751
 5634SOL    HW217802   4.840   5.612   4.764
 5635SOL     OW17803   3.257   2.063   5.362
 5635SOL    HW117804   3.288   2.040   5.270
 5635SOL    HW217805   3.157   2.058   5.367
 5636SOL     OW17806   4.080   5.626   4.437
 5636SOL    HW117807   4.131   5.700   4.482
 5636SOL    HW217808   4.079   5.642   4.339
 5637SOL     OW17809   6.347   0.070   2.916
 5637SOL    HW117810   6.284   0.110   2.983
 5637SOL    HW217811   6.424   0.027   2.964
 5638SOL     OW17812   5.411   4.057   6.703
 5638SOL    HW117813   5.437   4.131   6.640
 5638SOL    HW217814   5.490   3.999   6.721
 5639SOL     OW17815   3.432   0.655   0.072
 5639SOL    HW117816   3.526   0.647   0.041
 5639SOL    HW217817   3.379   0.705   0.003
 5640SOL     OW17818   1.971   7.006   2.979
 5640SOL    HW117819   1.879   0.005   3.009
 5640SOL    HW217820   1.998   6.921   3.025
 5641SOL     OW17821   6.288   5.864   4.809
 5641SOL    HW117822   6.227   5.866   4.730
 5641SOL    HW217823   6.285   5.774   4.851
 5642SOL     OW17824   2.051   1.748   0.239
 5642SOL    HW117825   2.058   1.659   0.286
 5642SOL    HW217826   2.132   1.802   0.260
 5643SOL     OW17827   5.388   1.978   5.620
 5643SOL    HW117828   5.451   2.034   5.675
 5643SOL    HW217829   5.381   2.016   5.528
 5644SOL     OW17830   2.831   0.062   6.286
 5644SOL    HW117831   2.812   0.110   6.372
 5644SOL    HW217832   2.844   0.130   6.213
 5645SOL     OW17833   5.803   3.753   4.860
 5645SOL    HW117834   5.861   3.812   4.803
 5645SOL    HW217835   5.852   3.730   4.944
 5646SOL     OW17836   1.366   4.227   2.956
 5646SOL    HW117837   1.355   4.178   3.042
 5646SOL    HW217838   1.418   4.312   2.972
 5647SOL     OW17839   6.348   6.517   2.705
 5647SOL    HW117840   6.288   6.582   2.752
 5647SOL    HW217841   6.380   6.448   2.770
 5648SOL     OW17842   4.750   6.131   3.584
 5648SOL    HW117843   4.786   6.207   3.531
 5648SOL    HW217844   4.825   6.074   3.618
 5649SOL     OW17845   1.166   6.551   3.932
 5649SOL    HW117846   1.185   6.471   3.989
 5649SOL    HW217847   1.237   6.620   3.947
 5650SOL     OW17848   6.189   4.328   6.176
 5650SOL    HW117849   6.236   4.331   6.087
 5650SOL    HW217850   6.253   4.357   6.248
 5651SOL     OW17851   2.788   0.956   0.860
 5651SOL    HW117852   2.749   1.048   0.857
 5651SOL    HW217853   2.857   0.947   0.788
 5652SOL     OW17854   0.276   6.104   2.384
 5652SOL    HW117855   0.232   6.184   2.426
 5652SOL    HW217856   0.367   6.129   2.350
 5653SOL     OW17857   6.930   0.390   1.693
 5653SOL    HW117858   6.938   0.300   1.737
 5653SOL    HW217859   6.930   0.461   1.763
 5654SOL     OW17860   3.581   5.951   4.750
 5654SOL    HW117861   3.678   5.974   4.754
 5654SOL    HW217862   3.563   5.892   4.671
 5655SOL     OW17863   5.521   2.868   5.294
 5655SOL    HW117864   5.455   2.863   5.218
 5655SOL    HW217865   5.521   2.960   5.332
 5656SOL     OW17866   6.769   3.664   0.097
 5656SOL    HW117867   6.826   3.582   0.090
 5656SOL    HW217868   6.725   3.666   0.187
 5657SOL     OW17869   5.146   5.433   4.892
 5657SOL    HW117870   5.124   5.410   4.797
 5657SOL    HW217871   5.079   5.392   4.953
 5658SOL     OW17872   2.394   2.830   5.557
 5658SOL    HW117873   2.326   2.789   5.496
 5658SOL    HW217874   2.435   2.910   5.513
 5659SOL     OW17875   2.542   3.925   6.381
 5659SOL    HW117876   2.569   3.834   6.415
 5659SOL    HW217877   2.577   3.938   6.289
 5660SOL     OW17878   4.711   0.282   5.833
 5660SOL    HW117879   4.701   0.252   5.928
 5660SOL    HW217880   4.709   0.203   5.772
 5661SOL     OW17881   1.125   5.751   6.124
 5661SOL    HW117882   1.183   5.684   6.170
 5661SOL    HW217883   1.074   5.804   6.192
 5662SOL     OW17884   3.204   6.537   0.851
 5662SOL    HW117885   3.217   6.556   0.949
 5662SOL    HW217886   3.252   6.605   0.797
 5663SOL     OW17887   1.500   3.123   6.138
 5663SOL    HW117888   1.564   3.068   6.084
 5663SOL    HW217889   1.444   3.178   6.076
 5664SOL     OW17890   4.912   4.441   4.578
 5664SOL    HW117891   4.834   4.490   4.617
 5664SOL    HW217892   4.958   4.388   4.650
 5665SOL     OW17893   1.592   1.452   0.491
 5665SOL    HW117894   1.680   1.413   0.517
 5665SOL    HW217895   1.520   1.383   0.502
 5666SOL     OW17896   6.150   2.312   4.746
 5666SOL    HW117897   6.085   2.329   4.820
 5666SOL    HW217898   6.132   2.376   4.671
 5667SOL     OW17899   2.703   4.892   4.152
 5667SOL    HW117900   2.707   4.956   4.229
 5667SOL    HW217901   2.719   4.799   4.186
 5668SOL     OW17902   4.966   3.849   3.488
 5668SOL    HW117903   5.065   3.841   3.480
 5668SOL    HW217904   4.942   3.884   3.578
 5669SOL     OW17905   4.987   4.491   6.256
 5669SOL    HW117906   4.929   4.420   6.295
 5669SOL    HW217907   4.940   4.535   6.180
 5670SOL     OW17908   1.585   2.499   3.587
 5670SOL    HW117909   1.638   2.529   3.508
 5670SOL    HW217910   1.603   2.560   3.664
 5671SOL     OW17911   0.115   5.186   4.038
 5671SOL    HW117912   0.049   5.125   4.083
 5671SOL    HW217913   0.075   5.222   3.954
 5672SOL     OW17914   5.409   3.506   4.599
 5672SOL    HW117915   5.455   3.529   4.685
 5672SOL    HW217916   5.395   3.589   4.545
 5673SOL     OW17917   0.638   1.790   0.673
 5673SOL    HW117918   0.703   1.854   0.633
 5673SOL    HW217919   0.688   1.714   0.715
 5674SOL     OW17920   2.571   4.904   4.848
 5674SOL    HW117921   2.489   4.960   4.863
 5674SOL    HW217922   2.549   4.808   4.862
 5675SOL     OW17923   2.597   1.917   0.904
 5675SOL    HW117924   2.533   1.841   0.893
 5675SOL    HW217925   2.548   1.995   0.945
 5676SOL     OW17926   3.100   1.383   1.723
 5676SOL    HW117927   3.170   1.444   1.685
 5676SOL    HW217928   3.120   1.367   1.819
 5677SOL     OW17929   0.388   1.599   6.257
 5677SOL    HW117930   0.426   1.592   6.350
 5677SOL    HW217931   0.291   1.623   6.263
 5678SOL     OW17932   3.609   1.979   1.915
 5678SOL    HW117933   3.528   1.957   1.970
 5678SOL    HW217934   3.643   2.070   1.940
 5679SOL     OW17935   6.751   4.152   5.366
 5679SOL    HW117936   6.730   4.243   5.401
 5679SOL    HW217937   6.760   4.156   5.267
 5680SOL     OW17938   0.919   5.741   5.199
 5680SOL    HW117939   0.956   5.791   5.121
 5680SOL    HW217940   0.884   5.653   5.168
 5681SOL     OW17941   0.866   3.574   3.657
 5681SOL    HW117942   0.856   3.475   3.647
 5681SOL    HW217943   0.960   3.600   3.634
 5682SOL     OW17944   1.892   4.322   0.975
 5682SOL    HW117945   1.803   4.367   0.987
 5682SOL    HW217946   1.940   4.365   0.898
 5683SOL     OW17947   6.525   0.599   5.899
 5683SOL    HW117948   6.549   0.651   5.817
 5683SOL    HW217949   6.426   0.594   5.908
 5684SOL     OW17950   2.247   3.062   4.803
 5684SOL    HW117951   2.174   3.130   4.809
 5684SOL    HW217952   2.292   3.054   4.892
 5685SOL     OW17953   2.210   1.906   1.882
 5685SOL    HW117954   2.164   1.851   1.811
 5685SOL    HW217955   2.304   1.874   1.892
 5686SOL     OW17956   4.974   5.383   5.600
 5686SOL    HW117957   4.929   5.298   5.627
 5686SOL    HW217958   5.021   5.368   5.512
 5687SOL     OW17959   2.068   6.390   6.481
 5687SOL    HW117960   2.034   6.483   6.473
 5687SOL    HW217961   2.010   6.328   6.427
 5688SOL     OW17962   1.959   2.105   2.923
 5688SOL    HW117963   2.028   2.142   2.985
 5688SOL    HW217964   1.939   2.171   2.851
 5689SOL     OW17965   0.202   2.279   1.289
 5689SOL    HW117966   0.222   2.249   1.382
 5689SOL    HW217967   0.168   2.201   1.236
 5690SOL     OW17968   2.439   4.925   6.749
 5690SOL    HW117969   2.361   4.863   6.758
 5690SOL    HW217970   2.524   4.873   6.752
 5691SOL     OW17971   4.284   2.185   2.802
 5691SOL    HW117972   4.278   2.258   2.871
 5691SOL    HW217973   4.345   2.113   2.835
 5692SOL     OW17974   6.213   4.423   1.706
 5692SOL    HW117975   6.267   4.477   1.770
 5692SOL    HW217976   6.166   4.350   1.755
 5693SOL     OW17977   3.949   0.209   2.003
 5693SOL    HW117978   3.978   0.298   1.968
 5693SOL    HW217979   4.004   0.137   1.963
 5694SOL     OW17980   0.995   0.243   1.453
 5694SOL    HW117981   1.080   0.193   1.437
 5694SOL    HW217982   1.006   0.304   1.531
 5695SOL     OW17983   2.693   1.431   1.913
 5695SOL    HW117984   2.743   1.350   1.881
 5695SOL    HW217985   2.595   1.416   1.904
 5696SOL     OW17986   0.780   0.334   3.861
 5696SOL    HW117987   0.696   0.314   3.810
 5696SOL    HW217988   0.804   0.257   3.919
 5697SOL     OW17989   6.456   2.055   0.128
 5697SOL    HW117990   6.441   2.153   0.124
 5697SOL    HW217991   6.533   2.035   0.189
 5698SOL     OW17992   3.147   1.992   4.360
 5698SOL    HW117993   3.057   2.020   4.393
 5698SOL    HW217994   3.137   1.941   4.275
 5699SOL     OW17995   2.173   2.890   2.281
 5699SOL    HW117996   2.251   2.827   2.287
 5699SOL    HW217997   2.193   2.961   2.214
 5700SOL     OW17998   6.439   0.565   2.595
 5700SOL    HW117999   6.503   0.598   2.664
 5700SOL    HW218000   6.410   0.472   2.619
 5701SOL     OW18001   1.255   0.500   0.504
 5701SOL    HW118002   1.342   0.491   0.555
 5701SOL    HW218003   1.209   0.412   0.502
 5702SOL     OW18004   2.374   0.090   4.739
 5702SOL    HW118005   2.277   0.114   4.736
 5702SOL    HW218006   2.389   0.022   4.811
 5703SOL     OW18007   0.151   3.170   5.992
 5703SOL    HW118008   0.140   3.223   5.908
 5703SOL    HW218009   0.208   3.090   5.974
 5704SOL     OW18010   3.744   5.258   4.068
 5704SOL    HW118011   3.669   5.207   4.111
 5704SOL    HW218012   3.708   5.309   3.990
 5705SOL     OW18013   5.984   0.681   5.636
 5705SOL    HW118014   5.976   0.754   5.703
 5705SOL    HW218015   5.975   0.720   5.544
 5706SOL     OW18016   5.050   1.991   1.095
 5706SOL    HW118017   5.029   2.082   1.131
 5706SOL    HW218018   5.145   1.967   1.117
 5707SOL     OW18019   6.225   5.262   1.219
 5707SOL    HW118020   6.262   5.195   1.283
 5707SOL    HW218021   6.126   5.271   1.235
 5708SOL     OW18022   5.093   6.266   2.433
 5708SOL    HW118023   5.152   6.346   2.433
 5708SOL    HW218024   5.094   6.223   2.343
 5709SOL     OW18025   6.778   2.448   2.527
 5709SOL    HW118026   6.843   2.523   2.517
 5709SOL    HW218027   6.824   2.369   2.566
 5710SOL     OW18028   4.470   1.434   0.591
 5710SOL    HW118029   4.535   1.490   0.642
 5710SOL    HW218030   4.506   1.341   0.584
 5711SOL     OW18031   5.026   1.652   2.756
 5711SOL    HW118032   4.949   1.716   2.747
 5711SOL    HW218033   5.099   1.680   2.693
 5712SOL     OW18034   5.969   6.300   0.309
 5712SOL    HW118035   6.010   6.256   0.389
 5712SOL    HW218036   6.040   6.316   0.240
 5713SOL     OW18037   1.659   1.152   0.371
 5713SOL    HW118038   1.716   1.196   0.441
 5713SOL    HW218039   1.563   1.166   0.393
 5714SOL     OW18040   6.470   0.265   0.227
 5714SOL    HW118041   6.385   0.220   0.256
 5714SOL    HW218042   6.452   0.363   0.212
 5715SOL     OW18043   0.096   7.024   1.762
 5715SOL    HW118044   0.142   6.997   1.847
 5715SOL    HW218045   0.039   6.949   1.730
 5716SOL     OW18046   6.695   4.438   5.480
 5716SOL    HW118047   6.621   4.487   5.526
 5716SOL    HW218048   6.783   4.474   5.511
 5717SOL     OW18049   0.855   5.109   3.542
 5717SOL    HW118050   0.805   5.025   3.561
 5717SOL    HW218051   0.838   5.176   3.614
 5718SOL     OW18052   1.121   3.735   6.898
 5718SOL    HW118053   1.146   3.671   6.970
 5718SOL    HW218054   1.152   3.699   6.810
 5719SOL     OW18055   2.824   3.291   0.736
 5719SOL    HW118056   2.772   3.216   0.695
 5719SOL    HW218057   2.917   3.260   0.756
 5720SOL     OW18058   2.727   4.832   5.813
 5720SOL    HW118059   2.664   4.876   5.749
 5720SOL    HW218060   2.801   4.895   5.836
 5721SOL     OW18061   1.871   2.957   7.017
 5721SOL    HW118062   1.893   2.937   0.086
 5721SOL    HW218063   1.772   2.969   7.007
 5722SOL     OW18064   1.246   0.130   7.003
 5722SOL    HW118065   1.241   0.051   6.943
 5722SOL    HW218066   1.238   0.214   6.949
 5723SOL     OW18067   4.131   3.346   0.862
 5723SOL    HW118068   4.097   3.431   0.823
 5723SOL    HW218069   4.054   3.289   0.890
 5724SOL     OW18070   5.551   2.121   6.180
 5724SOL    HW118071   5.590   2.077   6.262
 5724SOL    HW218072   5.603   2.094   6.100
 5725SOL     OW18073   0.168   4.622   4.863
 5725SOL    HW118074   0.204   4.590   4.775
 5725SOL    HW218075   0.068   4.621   4.861
 5726SOL     OW18076   5.227   4.205   2.346
 5726SOL    HW118077   5.265   4.127   2.396
 5726SOL    HW218078   5.133   4.183   2.318
 5727SOL     OW18079   1.179   2.832   4.967
 5727SOL    HW118080   1.139   2.788   5.048
 5727SOL    HW218081   1.156   2.930   4.968
 5728SOL     OW18082   3.723   6.969   5.198
 5728SOL    HW118083   3.693   6.946   5.106
 5728SOL    HW218084   3.646   6.962   5.261
 5729SOL     OW18085   2.856   1.941   4.883
 5729SOL    HW118086   2.923   1.918   4.812
 5729SOL    HW218087   2.877   2.031   4.920
 5730SOL     OW18088   6.839   4.233   4.770
 5730SOL    HW118089   6.822   4.188   4.859
 5730SOL    HW218090   6.829   4.166   4.697
 5731SOL     OW18091   0.599   6.773   2.538
 5731SOL    HW118092   0.593   6.795   2.635
 5731SOL    HW218093   0.695   6.766   2.511
 5732SOL     OW18094   0.432   0.528   3.401
 5732SOL    HW118095   0.476   0.616   3.383
 5732SOL    HW218096   0.338   0.531   3.369
 5733SOL     OW18097   3.038   0.566   4.855
 5733SOL    HW118098   2.950   0.586   4.814
 5733SOL    HW218099   3.038   0.598   4.950
 5734SOL     OW18100   1.922   6.699   3.569
 5734SOL    HW118101   1.858   6.625   3.547
 5734SOL    HW218102   1.878   6.787   3.552
 5735SOL     OW18103   3.112   0.666   1.246
 5735SOL    HW118104   3.068   0.736   1.191
 5735SOL    HW218105   3.209   0.690   1.259
 5736SOL     OW18106   1.506   5.830   0.270
 5736SOL    HW118107   1.424   5.818   0.325
 5736SOL    HW218108   1.575   5.764   0.298
 5737SOL     OW18109   5.622   4.013   0.068
 5737SOL    HW118110   5.528   4.042   0.052
 5737SOL    HW218111   5.677   4.091   0.098
 5738SOL     OW18112   1.019   4.420   4.728
 5738SOL    HW118113   1.092   4.373   4.778
 5738SOL    HW218114   0.964   4.354   4.678
 5739SOL     OW18115   0.475   2.472   1.601
 5739SOL    HW118116   0.426   2.519   1.528
 5739SOL    HW218117   0.559   2.433   1.565
 5740SOL     OW18118   3.672   5.347   0.262
 5740SOL    HW118119   3.741   5.405   0.305
 5740SOL    HW218120   3.710   5.256   0.247
 5741SOL     OW18121   0.336   3.922   1.754
 5741SOL    HW118122   0.262   3.962   1.808
 5741SOL    HW218123   0.400   3.874   1.814
 5742SOL     OW18124   0.354   5.619   4.530
 5742SOL    HW118125   0.406   5.623   4.445
 5742SOL    HW218126   0.298   5.536   4.532
 5743SOL     OW18127   2.034   6.224   4.795
 5743SOL    HW118128   2.054   6.320   4.814
 5743SOL    HW218129   2.094   6.166   4.849
 5744SOL     OW18130   5.881   0.202   1.458
 5744SOL    HW118131   5.893   0.284   1.513
 5744SOL    HW218132   5.946   0.132   1.488
 5745SOL     OW18133   1.616   2.595   3.256
 5745SOL    HW118134   1.528   2.639   3.275
 5745SOL    HW218135   1.600   2.513   3.203
 5746SOL     OW18136   6.395   4.293   6.937
 5746SOL    HW118137   6.310   4.334   6.971
 5746SOL    HW218138   6.435   4.352   6.866
 5747SOL     OW18139   1.011   6.531   3.574
 5747SOL    HW118140   1.017   6.585   3.658
 5747SOL    HW218141   0.981   6.438   3.595
 5748SOL     OW18142   2.198   6.428   4.081
 5748SOL    HW118143   2.132   6.381   4.138
 5748SOL    HW218144   2.175   6.525   4.076
 5749SOL     OW18145   1.411   1.237   3.008
 5749SOL    HW118146   1.320   1.276   3.023
 5749SOL    HW218147   1.469   1.304   2.962
 5750SOL     OW18148   5.906   6.187   2.443
 5750SOL    HW118149   5.913   6.087   2.446
 5750SOL    HW218150   5.908   6.217   2.348
 5751SOL     OW18151   0.960   3.320   6.159
 5751SOL    HW118152   0.947   3.223   6.179
 5751SOL    HW218153   0.968   3.371   6.245
 5752SOL     OW18154   0.804   1.490   6.763
 5752SOL    HW118155   0.738   1.456   6.830
 5752SOL    HW218156   0.781   1.455   6.673
 5753SOL     OW18157   4.431   1.840   0.293
 5753SOL    HW118158   4.341   1.869   0.325
 5753SOL    HW218159   4.443   1.867   0.197
 5754SOL     OW18160   5.666   5.273   0.622
 5754SOL    HW118161   5.763   5.269   0.598
 5754SOL    HW218162   5.644   5.197   0.683
 5755SOL     OW18163   3.355   3.764   1.368
 5755SOL    HW118164   3.433   3.796   1.422
 5755SOL    HW218165   3.279   3.829   1.377
 5756SOL     OW18166   6.993   6.263   4.359
 5756SOL    HW118167   6.942   6.241   4.275
 5756SOL    HW218168   6.953   6.213   4.436
 5757SOL     OW18169   6.905   6.113   1.828
 5757SOL    HW118170   6.941   6.102   1.921
 5757SOL    HW218171   6.895   6.023   1.786
 5758SOL     OW18172   2.764   1.192   5.377
 5758SOL    HW118173   2.751   1.157   5.470
 5758SOL    HW218174   2.680   1.236   5.346
 5759SOL     OW18175   0.604   1.952   5.356
 5759SOL    HW118176   0.535   1.893   5.313
 5759SOL    HW218177   0.686   1.954   5.299
 5760SOL     OW18178   0.671   5.526   1.311
 5760SOL    HW118179   0.699   5.589   1.384
 5760SOL    HW218180   0.628   5.445   1.351
 5761SOL     OW18181   4.901   0.283   4.854
 5761SOL    HW118182   4.982   0.325   4.814
 5761SOL    HW218183   4.847   0.238   4.783
 5762SOL     OW18184   6.059   6.509   1.254
 5762SOL    HW118185   6.106   6.456   1.325
 5762SOL    HW218186   6.019   6.446   1.187
 5763SOL     OW18187   2.056   1.106   0.699
 5763SOL    HW118188   2.131   1.046   0.727
 5763SOL    HW218189   2.094   1.184   0.650
 5764SOL     OW18190   4.585   3.200   6.312
 5764SOL    HW118191   4.610   3.244   6.398
 5764SOL    HW218192   4.615   3.104   6.313
 5765SOL     OW18193   6.412   5.164   0.233
 5765SOL    HW118194   6.374   5.149   0.141
 5765SOL    HW218195   6.409   5.262   0.254
 5766SOL     OW18196   2.964   1.490   3.165
 5766SOL    HW118197   3.009   1.514   3.251
 5766SOL    HW218198   2.866   1.511   3.171
 5767SOL     OW18199   5.478   0.221   0.540
 5767SOL    HW118200   5.545   0.148   0.525
 5767SOL    HW218201   5.467   0.235   0.639
 5768SOL     OW18202   6.422   0.773   2.437
 5768SOL    HW118203   6.515   0.757   2.403
 5768SOL    HW218204   6.396   0.699   2.499
 5769SOL     OW18205   1.945   4.925   3.081
 5769SOL    HW118206   1.984   4.910   2.990
 5769SOL    HW218207   2.015   4.909   3.150
 5770SOL     OW18208   5.437   2.277   1.266
 5770SOL    HW118209   5.406   2.315   1.354
 5770SOL    HW218210   5.535   2.290   1.256
 5771SOL     OW18211   1.064   0.883   0.823
 5771SOL    HW118212   1.097   0.944   0.751
 5771SOL    HW218213   1.046   0.792   0.785
 5772SOL     OW18214   6.510   4.837   6.095
 5772SOL    HW118215   6.454   4.888   6.030
 5772SOL    HW218216   6.475   4.850   6.188
 5773SOL     OW18217   4.966   5.677   4.821
 5773SOL    HW118218   4.936   5.736   4.896
 5773SOL    HW218219   5.065   5.667   4.823
 5774SOL     OW18220   2.429   4.928   2.299
 5774SOL    HW118221   2.454   5.025   2.296
 5774SOL    HW218222   2.426   4.892   2.206
 5775SOL     OW18223   0.640   1.090   0.335
 5775SOL    HW118224   0.655   1.130   0.426
 5775SOL    HW218225   0.625   1.163   0.269
 5776SOL     OW18226   4.497   1.107   6.328
 5776SOL    HW118227   4.477   1.169   6.404
 5776SOL    HW218228   4.584   1.133   6.286
 5777SOL     OW18229   5.325   0.410   5.382
 5777SOL    HW118230   5.373   0.338   5.332
 5777SOL    HW218231   5.292   0.373   5.469
 5778SOL     OW18232   2.772   6.937   3.930
 5778SOL    HW118233   2.704   6.947   3.858
 5778SOL    HW218234   2.727   6.934   4.019
 5779SOL     OW18235   4.023   0.133   1.192
 5779SOL    HW118236   3.965   0.110   1.271
 5779SOL    HW218237   4.003   0.226   1.162
 5780SOL     OW18238   6.142   3.567   0.351
 5780SOL    HW118239   6.046   3.584   0.373
 5780SOL    HW218240   6.178   3.643   0.296
 5781SOL     OW18241   3.143   4.240   5.245
 5781SOL    HW118242   3.173   4.172   5.178
 5781SOL    HW218243   3.054   4.277   5.219
 5782SOL     OW18244   4.287   1.287   2.989
 5782SOL    HW118245   4.371   1.336   2.969
 5782SOL    HW218246   4.208   1.342   2.961
 5783SOL     OW18247   2.399   6.645   2.382
 5783SOL    HW118248   2.312   6.612   2.421
 5783SOL    HW218249   2.455   6.567   2.355
 5784SOL     OW18250   1.466   6.503   0.292
 5784SOL    HW118251   1.453   6.408   0.320
 5784SOL    HW218252   1.563   6.518   0.269
 5785SOL     OW18253   2.253   2.021   6.400
 5785SOL    HW118254   2.189   2.036   6.324
 5785SOL    HW218255   2.339   2.066   6.380
 5786SOL     OW18256   0.468   2.071   5.889
 5786SOL    HW118257   0.537   2.004   5.917
 5786SOL    HW218258   0.512   2.160   5.874
 5787SOL     OW18259   0.375   2.375   4.921
 5787SOL    HW118260   0.276   2.361   4.911
 5787SOL    HW218261   0.406   2.442   4.853
 5788SOL     OW18262   0.399   1.733   1.704
 5788SOL    HW118263   0.390   1.749   1.605
 5788SOL    HW218264   0.310   1.705   1.741
 5789SOL     OW18265   2.777   5.934   6.730
 5789SOL    HW118266   2.872   5.965   6.731
 5789SOL    HW218267   2.774   5.840   6.695
 5790SOL     OW18268   6.885   6.458   2.386
 5790SOL    HW118269   6.894   6.556   2.368
 5790SOL    HW218270   6.823   6.417   2.319
 5791SOL     OW18271   4.017   0.697   1.081
 5791SOL    HW118272   3.928   0.663   1.052
 5791SOL    HW218273   4.069   0.729   1.002
 5792SOL     OW18274   5.049   2.455   2.494
 5792SOL    HW118275   4.983   2.393   2.536
 5792SOL    HW218276   5.069   2.530   2.557
 5793SOL     OW18277   4.104   1.569   0.077
 5793SOL    HW118278   4.115   1.474   0.104
 5793SOL    HW218279   4.018   1.580   0.026
 5794SOL     OW18280   3.198   5.626   0.133
 5794SOL    HW118281   3.143   5.709   0.146
 5794SOL    HW218282   3.201   5.604   0.035
 5795SOL     OW18283   0.703   0.219   0.924
 5795SOL    HW118284   0.768   0.216   0.848
 5795SOL    HW218285   0.611   0.203   0.890
 5796SOL     OW18286   4.950   0.396   5.856
 5796SOL    HW118287   4.993   0.424   5.770
 5796SOL    HW218288   4.863   0.350   5.836
 5797SOL     OW18289   0.198   2.605   0.276
 5797SOL    HW118290   0.105   2.633   0.255
 5797SOL    HW218291   0.234   2.551   0.199
 5798SOL     OW18292   2.070   2.723   3.994
 5798SOL    HW118293   1.980   2.717   3.952
 5798SOL    HW218294   2.061   2.756   4.088
 5799SOL     OW18295   2.548   0.590   3.478
 5799SOL    HW118296   2.561   0.689   3.472
 5799SOL    HW218297   2.482   0.570   3.550
 5800SOL     OW18298   1.213   6.420   2.257
 5800SOL    HW118299   1.213   6.410   2.357
 5800SOL    HW218300   1.180   6.335   2.215
 5801SOL     OW18301   1.704   2.102   2.631
 5801SOL    HW118302   1.696   2.202   2.625
 5801SOL    HW218303   1.687   2.073   2.725
 5802SOL     OW18304   0.266   0.035   2.583
 5802SOL    HW118305   0.286   6.979   2.636
 5802SOL    HW218306   0.265   0.114   2.644
 5803SOL     OW18307   0.234   6.915   4.005
 5803SOL    HW118308   0.304   6.864   4.055
 5803SOL    HW218309   0.210   6.998   4.055
 5804SOL     OW18310   6.300   1.873   3.666
 5804SOL    HW118311   6.353   1.800   3.622
 5804SOL    HW218312   6.338   1.891   3.757
 5805SOL     OW18313   0.694   2.405   1.415
 5805SOL    HW118314   0.631   2.327   1.418
 5805SOL    HW218315   0.788   2.372   1.415
 5806SOL     OW18316   6.488   3.701   1.732
 5806SOL    HW118317   6.416   3.770   1.729
 5806SOL    HW218318   6.558   3.723   1.664
 5807SOL     OW18319   1.030   1.795   2.141
 5807SOL    HW118320   0.946   1.762   2.099
 5807SOL    HW218321   1.041   1.892   2.122
 5808SOL     OW18322   6.696   0.236   5.314
 5808SOL    HW118323   6.740   0.162   5.262
 5808SOL    HW218324   6.661   0.200   5.400
 5809SOL     OW18325   0.085   3.212   3.962
 5809SOL    HW118326   0.140   3.293   3.938
 5809SOL    HW218327   0.145   3.133   3.970
 5810SOL     OW18328   1.309   0.023   5.560
 5810SOL    HW118329   1.232   0.081   5.586
 5810SOL    HW218330   1.391   0.053   5.608
 5811SOL     OW18331   3.185   5.294   0.047
 5811SOL    HW118332   3.230   5.321   0.132
 5811SOL    HW218333   3.164   5.375   7.020
 5812SOL     OW18334   6.304   3.460   5.918
 5812SOL    HW118335   6.208   3.451   5.944
 5812SOL    HW218336   6.363   3.432   5.994
 5813SOL     OW18337   6.093   4.795   0.667
 5813SOL    HW118338   6.151   4.825   0.742
 5813SOL    HW218339   5.997   4.797   0.694
 5814SOL     OW18340   5.273   1.042   2.576
 5814SOL    HW118341   5.365   1.041   2.614
 5814SOL    HW218342   5.225   0.958   2.602
 5815SOL     OW18343   6.362   3.506   4.412
 5815SOL    HW118344   6.304   3.587   4.405
 5815SOL    HW218345   6.451   3.532   4.448
 5816SOL     OW18346   6.603   4.349   1.025
 5816SOL    HW118347   6.642   4.428   0.978
 5816SOL    HW218348   6.644   4.265   0.989
 5817SOL     OW18349   6.797   2.982   3.525
 5817SOL    HW118350   6.781   2.902   3.584
 5817SOL    HW218351   6.782   2.956   3.430
 5818SOL     OW18352   2.468   0.205   4.219
 5818SOL    HW118353   2.404   0.192   4.143
 5818SOL    HW218354   2.427   0.169   4.303
 5819SOL     OW18355   4.251   4.289   1.178
 5819SOL    HW118356   4.170   4.333   1.140
 5819SOL    HW218357   4.314   4.265   1.103
 5820SOL     OW18358   6.942   6.724   2.356
 5820SOL    HW118359   0.005   6.725   2.400
 5820SOL    HW218360   6.888   6.802   2.389
 5821SOL     OW18361   6.296   6.690   2.308
 5821SOL    HW118362   6.344   6.775   2.286
 5821SOL    HW218363   6.363   6.620   2.331
 5822SOL     OW18364   0.870   4.189   2.838
 5822SOL    HW118365   0.943   4.123   2.855
 5822SOL    HW218366   0.835   4.223   2.925
 5823SOL     OW18367   2.504   6.741   5.209
 5823SOL    HW118368   2.495   6.826   5.262
 5823SOL    HW218369   2.492   6.662   5.269
 5824SOL     OW18370   2.018   5.958   2.176
 5824SOL    HW118371   1.955   5.926   2.106
 5824SOL    HW218372   2.013   5.898   2.256
 5825SOL     OW18373   4.150   1.453   5.526
 5825SOL    HW118374   4.135   1.540   5.481
 5825SOL    HW218375   4.209   1.395   5.470
 5826SOL     OW18376   1.644   6.218   4.550
 5826SOL    HW118377   1.580   6.224   4.474
 5826SOL    HW218378   1.724   6.275   4.530
 5827SOL     OW18379   2.163   3.628   3.277
 5827SOL    HW118380   2.220   3.701   3.315
 5827SOL    HW218381   2.157   3.553   3.343
 5828SOL     OW18382   4.287   6.615   5.059
 5828SOL    HW118383   4.249   6.707   5.048
 5828SOL    HW218384   4.328   6.585   4.973
 5829SOL     OW18385   2.148   0.668   2.612
 5829SOL    HW118386   2.087   0.648   2.535
 5829SOL    HW218387   2.138   0.763   2.639
 5830SOL     OW18388   4.380   5.462   4.661
 5830SOL    HW118389   4.438   5.429   4.586
 5830SOL    HW218390   4.419   5.547   4.697
 5831SOL     OW18391   2.282   1.747   4.474
 5831SOL    HW118392   2.220   1.754   4.552
 5831SOL    HW218393   2.376   1.741   4.508
 5832SOL     OW18394   2.290   4.957   3.765
 5832SOL    HW118395   2.342   5.002   3.692
 5832SOL    HW218396   2.336   4.871   3.789
 5833SOL     OW18397   3.274   4.528   1.322
 5833SOL    HW118398   3.278   4.621   1.284
 5833SOL    HW218399   3.190   4.518   1.375
 5834SOL     OW18400   6.189   2.304   6.883
 5834SOL    HW118401   6.169   2.262   6.972
 5834SOL    HW218402   6.126   2.267   6.814
 5835SOL     OW18403   3.999   1.749   3.751
 5835SOL    HW118404   4.051   1.696   3.684
 5835SOL    HW218405   4.017   1.847   3.737
 5836SOL     OW18406   5.121   5.530   1.717
 5836SOL    HW118407   5.049   5.492   1.658
 5836SOL    HW218408   5.163   5.456   1.769
 5837SOL     OW18409   3.005   4.108   0.333
 5837SOL    HW118410   3.056   4.194   0.322
 5837SOL    HW218411   2.940   4.097   0.258
 5838SOL     OW18412   3.412   3.172   0.140
 5838SOL    HW118413   3.491   3.232   0.149
 5838SOL    HW218414   3.356   3.201   0.063
 5839SOL     OW18415   1.887   1.130   1.077
 5839SOL    HW118416   1.921   1.203   1.137
 5839SOL    HW218417   1.848   1.057   1.133
 5840SOL     OW18418   0.073   3.418   2.780
 5840SOL    HW118419   0.141   3.372   2.721
 5840SOL    HW218420   0.052   3.508   2.743
 5841SOL     OW18421   5.089   1.714   0.476
 5841SOL    HW118422   5.081   1.727   0.575
 5841SOL    HW218423   4.998   1.707   0.436
 5842SOL     OW18424   3.410   2.049   2.339
 5842SOL    HW118425   3.390   2.147   2.348
 5842SOL    HW218426   3.466   2.020   2.416
 5843SOL     OW18427   3.222   3.229   1.154
 5843SOL    HW118428   3.287   3.303   1.170
 5843SOL    HW218429   3.232   3.196   1.060
 5844SOL     OW18430   0.423   6.087   5.104
 5844SOL    HW118431   0.511   6.111   5.064
 5844SOL    HW218432   0.426   6.099   5.203
 5845SOL     OW18433   2.099   6.474   3.226
 5845SOL    HW118434   2.150   6.554   3.257
 5845SOL    HW218435   2.159   6.394   3.227
 5846SOL     OW18436   0.372   4.524   5.866
 5846SOL    HW118437   0.448   4.589   5.874
 5846SOL    HW218438   0.408   4.434   5.840
 5847SOL     OW18439   1.990   3.629   6.220
 5847SOL    HW118440   2.029   3.647   6.129
 5847SOL    HW218441   2.054   3.573   6.273
 5848SOL     OW18442   2.506   6.326   1.706
 5848SOL    HW118443   2.469   6.241   1.667
 5848SOL    HW218444   2.490   6.328   1.804
 5849SOL     OW18445   2.721   5.974   6.389
 5849SOL    HW118446   2.697   5.949   6.295
 5849SOL    HW218447   2.747   5.892   6.440
 5850SOL     OW18448   5.619   2.085   1.644
 5850SOL    HW118449   5.663   2.005   1.684
 5850SOL    HW218450   5.675   2.120   1.569
 5851SOL     OW18451   0.810   3.527   4.394
 5851SOL    HW118452   0.904   3.521   4.428
 5851SOL    HW218453   0.752   3.463   4.445
 5852SOL     OW18454   5.080   4.089   2.690
 5852SOL    HW118455   5.141   4.129   2.759
 5852SOL    HW218456   5.030   4.162   2.643
 5853SOL     OW18457   4.370   5.239   0.088
 5853SOL    HW118458   4.423   5.251   0.172
 5853SOL    HW218459   4.391   5.151   0.047
 5854SOL     OW18460   2.871   4.681   5.468
 5854SOL    HW118461   2.965   4.657   5.492
 5854SOL    HW218462   2.845   4.633   5.384
 5855SOL     OW18463   1.860   2.128   4.614
 5855SOL    HW118464   1.785   2.187   4.585
 5855SOL    HW218465   1.903   2.166   4.696
 5856SOL     OW18466   0.464   0.115   2.058
 5856SOL    HW118467   0.477   0.091   2.154
 5856SOL    HW218468   0.553   0.124   2.013
 5857SOL     OW18469   5.315   5.200   6.924
 5857SOL    HW118470   5.392   5.256   6.952
 5857SOL    HW218471   5.340   5.146   6.844
 5858SOL     OW18472   2.572   1.720   2.529
 5858SOL    HW118473   2.670   1.724   2.551
 5858SOL    HW218474   2.541   1.809   2.497
 5859SOL     OW18475   5.734   5.511   2.166
 5859SOL    HW118476   5.710   5.443   2.235
 5859SOL    HW218477   5.818   5.558   2.193
 5860SOL     OW18478   2.108   3.274   2.699
 5860SOL    HW118479   2.158   3.323   2.627
 5860SOL    HW218480   2.021   3.240   2.662
 5861SOL     OW18481   5.739   0.351   5.166
 5861SOL    HW118482   5.740   0.425   5.234
 5861SOL    HW218483   5.650   0.307   5.167
 5862SOL     OW18484   6.689   4.919   3.041
 5862SOL    HW118485   6.699   4.893   3.137
 5862SOL    HW218486   6.710   5.016   3.029
 5863SOL     OW18487   4.111   0.030   5.793
 5863SOL    HW118488   4.187   0.050   5.731
 5863SOL    HW218489   4.126   6.969   5.838
 5864SOL     OW18490   3.769   2.992   3.244
 5864SOL    HW118491   3.676   3.019   3.267
 5864SOL    HW218492   3.800   3.044   3.164
 5865SOL     OW18493   6.218   0.157   1.390
 5865SOL    HW118494   6.161   0.136   1.470
 5865SOL    HW218495   6.226   0.076   1.332
 5866SOL     OW18496   3.321   3.275   3.873
 5866SOL    HW118497   3.253   3.348   3.868
 5866SOL    HW218498   3.275   3.188   3.890
 5867SOL     OW18499   3.953   1.375   0.843
 5867SOL    HW118500   4.052   1.390   0.843
 5867SOL    HW218501   3.927   1.324   0.760
 5868SOL     OW18502   1.444   0.865   0.580
 5868SOL    HW118503   1.514   0.793   0.590
 5868SOL    HW218504   1.430   0.885   0.483
 5869SOL     OW18505   1.819   5.479   2.867
 5869SOL    HW118506   1.814   5.528   2.780
 5869SOL    HW218507   1.901   5.421   2.869
 5870SOL     OW18508   4.439   0.089   4.029
 5870SOL    HW118509   4.408   0.008   3.979
 5870SOL    HW218510   4.538   0.098   4.018
 5871SOL     OW18511   3.829   3.523   3.668
 5871SOL    HW118512   3.752   3.468   3.636
 5871SOL    HW218513   3.898   3.529   3.596
 5872SOL     OW18514   3.503   5.816   1.456
 5872SOL    HW118515   3.471   5.725   1.481
 5872SOL    HW218516   3.589   5.836   1.504
 5873SOL     OW18517   4.000   6.213   2.216
 5873SOL    HW118518   4.047   6.240   2.132
 5873SOL    HW218519   3.938   6.137   2.197
 5874SOL     OW18520   0.448   4.698   4.999
 5874SOL    HW118521   0.504   4.653   4.930
 5874SOL    HW218522   0.353   4.702   4.968
 5875SOL     OW18523   3.980   2.592   1.132
 5875SOL    HW118524   3.976   2.507   1.080
 5875SOL    HW218525   4.034   2.576   1.216
 5876SOL     OW18526   3.522   2.987   2.477
 5876SOL    HW118527   3.572   2.954   2.397
 5876SOL    HW218528   3.481   3.076   2.457
 5877SOL     OW18529   5.243   4.795   1.619
 5877SOL    HW118530   5.313   4.831   1.557
 5877SOL    HW218531   5.277   4.798   1.713
 5878SOL     OW18532   1.666   3.574   2.549
 5878SOL    HW118533   1.688   3.509   2.476
 5878SOL    HW218534   1.621   3.654   2.510
 5879SOL     OW18535   2.005   3.664   4.172
 5879SOL    HW118536   2.041   3.719   4.247
 5879SOL    HW218537   2.044   3.572   4.175
 5880SOL     OW18538   2.916   5.574   6.808
 5880SOL    HW118539   2.842   5.632   6.841
 5880SOL    HW218540   2.914   5.486   6.856
 5881SOL     OW18541   1.822   6.403   4.476
 5881SOL    HW118542   1.848   6.443   4.564
 5881SOL    HW218543   1.835   6.471   4.404
 5882SOL     OW18544   4.915   0.341   3.113
 5882SOL    HW118545   4.978   0.411   3.147
 5882SOL    HW218546   4.937   0.319   3.018
 5883SOL     OW18547   1.314   2.994   4.663
 5883SOL    HW118548   1.251   2.955   4.596
 5883SOL    HW218549   1.337   3.088   4.637
 5884SOL     OW18550   0.288   0.704   2.771
 5884SOL    HW118551   0.286   0.694   2.870
 5884SOL    HW218552   0.244   0.625   2.728
 5885SOL     OW18553   5.416   6.821   0.564
 5885SOL    HW118554   5.354   6.838   0.641
 5885SOL    HW218555   5.460   6.732   0.575
 5886SOL     OW18556   6.061   1.589   6.518
 5886SOL    HW118557   6.109   1.650   6.455
 5886SOL    HW218558   6.110   1.588   6.606
 5887SOL     OW18559   3.890   5.602   3.068
 5887SOL    HW118560   3.900   5.522   3.008
 5887SOL    HW218561   3.979   5.646   3.081
 5888SOL     OW18562   6.592   6.091   1.959
 5888SOL    HW118563   6.677   6.098   1.907
 5888SOL    HW218564   6.609   6.041   2.044
 5889SOL     OW18565   3.019   6.886   6.653
 5889SOL    HW118566   3.022   6.816   6.723
 5889SOL    HW218567   3.066   6.853   6.571
 5890SOL     OW18568   4.026   5.291   6.307
 5890SOL    HW118569   4.056   5.196   6.302
 5890SOL    HW218570   4.017   5.318   6.403
 5891SOL     OW18571   1.792   3.341   5.925
 5891SOL    HW118572   1.824   3.355   6.019
 5891SOL    HW218573   1.750   3.250   5.918
 5892SOL     OW18574   2.070   6.187   2.741
 5892SOL    HW118575   2.148   6.224   2.793
 5892SOL    HW218576   2.040   6.254   2.674
 5893SOL     OW18577   1.404   2.186   2.851
 5893SOL    HW118578   1.444   2.150   2.935
 5893SOL    HW218579   1.382   2.282   2.863
 5894SOL     OW18580   1.445   4.134   4.061
 5894SOL    HW118581   1.347   4.142   4.081
 5894SOL    HW218582   1.495   4.206   4.108
 5895SOL     OW18583   5.793   4.225   3.442
 5895SOL    HW118584   5.707   4.179   3.461
 5895SOL    HW218585   5.854   4.217   3.521
 5896SOL     OW18586   4.997   2.912   6.189
 5896SOL    HW118587   4.931   2.852   6.144
 5896SOL    HW218588   5.088   2.874   6.180
 5897SOL     OW18589   4.478   5.495   1.074
 5897SOL    HW118590   4.442   5.570   1.129
 5897SOL    HW218591   4.503   5.530   0.983
 5898SOL     OW18592   2.953   0.132   3.345
 5898SOL    HW118593   2.892   0.092   3.276
 5898SOL    HW218594   2.927   0.099   3.436
 5899SOL     OW18595   5.385   0.892   3.918
 5899SOL    HW118596   5.290   0.921   3.926
 5899SOL    HW218597   5.439   0.931   3.993
 5900SOL     OW18598   3.873   4.937   2.050
 5900SOL    HW118599   3.798   4.879   2.016
 5900SOL    HW218600   3.838   5.029   2.067
 5901SOL     OW18601   2.745   6.414   4.722
 5901SOL    HW118602   2.737   6.421   4.622
 5901SOL    HW218603   2.842   6.416   4.747
 5902SOL     OW18604   5.950   2.540   0.231
 5902SOL    HW118605   5.959   2.506   0.137
 5902SOL    HW218606   6.005   2.483   0.292
 5903SOL     OW18607   0.293   2.943   5.988
 5903SOL    HW118608   0.222   2.890   6.034
 5903SOL    HW218609   0.376   2.943   6.044
 5904SOL     OW18610   1.807   2.980   2.402
 5904SOL    HW118611   1.767   2.901   2.449
 5904SOL    HW218612   1.819   2.959   2.305
 5905SOL     OW18613   0.237   4.441   2.538
 5905SOL    HW118614   0.264   4.424   2.443
 5905SOL    HW218615   0.256   4.536   2.561
 5906SOL     OW18616   0.830   0.621   2.957
 5906SOL    HW118617   0.841   0.696   2.892
 5906SOL    HW218618   0.912   0.564   2.956
 5907SOL     OW18619   2.327   6.939   2.737
 5907SOL    HW118620   2.265   6.868   2.702
 5907SOL    HW218621   2.276   7.000   2.798
 5908SOL     OW18622   0.974   2.769   5.933
 5908SOL    HW118623   0.884   2.767   5.976
 5908SOL    HW218624   0.996   2.678   5.896
 5909SOL     OW18625   6.413   4.750   0.217
 5909SOL    HW118626   6.501   4.706   0.236
 5909SOL    HW218627   6.415   4.789   0.125
 5910SOL     OW18628   1.352   1.645   3.193
 5910SOL    HW118629   1.256   1.672   3.185
 5910SOL    HW218630   1.358   1.556   3.238
 5911SOL     OW18631   6.766   5.937   6.835
 5911SOL    HW118632   6.747   5.879   6.915
 5911SOL    HW218633   6.851   5.907   6.792
 5912SOL     OW18634   0.506   0.165   3.564
 5912SOL    HW118635   0.603   0.144   3.580
 5912SOL    HW218636   0.480   0.246   3.617
 5913SOL     OW18637   6.909   2.669   0.965
 5913SOL    HW118638   6.900   2.713   1.054
 5913SOL    HW218639   6.863   2.724   0.896
 5914SOL     OW18640   0.762   6.533   0.805
 5914SOL    HW118641   0.712   6.592   0.869
 5914SOL    HW218642   0.833   6.484   0.855
 5915SOL     OW18643   3.861   0.666   5.779
 5915SOL    HW118644   3.952   0.646   5.816
 5915SOL    HW218645   3.813   0.729   5.840
 5916SOL     OW18646   0.869   0.384   2.204
 5916SOL    HW118647   0.815   0.461   2.237
 5916SOL    HW218648   0.809   0.317   2.160
 5917SOL     OW18649   3.644   2.479   0.292
 5917SOL    HW118650   3.599   2.391   0.308
 5917SOL    HW218651   3.583   2.538   0.240
 5918SOL     OW18652   3.522   6.867   4.059
 5918SOL    HW118653   3.480   6.862   4.149
 5918SOL    HW218654   3.482   6.798   3.999
 5919SOL     OW18655   3.144   3.174   4.749
 5919SOL    HW118656   3.109   3.126   4.830
 5919SOL    HW218657   3.238   3.205   4.767
 5920SOL     OW18658   0.711   0.456   6.115
 5920SOL    HW118659   0.666   0.439   6.203
 5920SOL    HW218660   0.653   0.515   6.059
 5921SOL     OW18661   2.876   4.386   0.201
 5921SOL    HW118662   2.817   4.356   0.126
 5921SOL    HW218663   2.856   4.482   0.223
 5922SOL     OW18664   5.545   2.451   2.408
 5922SOL    HW118665   5.476   2.512   2.368
 5922SOL    HW218666   5.627   2.451   2.350
 5923SOL     OW18667   5.791   0.637   3.136
 5923SOL    HW118668   5.842   0.562   3.178
 5923SOL    HW218669   5.696   0.635   3.167
 5924SOL     OW18670   6.447   6.890   3.720
 5924SOL    HW118671   6.392   6.876   3.637
 5924SOL    HW218672   6.440   6.985   3.748
 5925SOL     OW18673   4.684   1.424   0.796
 5925SOL    HW118674   4.711   1.329   0.780
 5925SOL    HW218675   4.630   1.430   0.880
 5926SOL     OW18676   5.724   3.556   3.072
 5926SOL    HW118677   5.708   3.564   3.171
 5926SOL    HW218678   5.820   3.574   3.053
 5927SOL     OW18679   0.509   5.688   1.649
 5927SOL    HW118680   0.470   5.777   1.628
 5927SOL    HW218681   0.457   5.616   1.603
 5928SOL     OW18682   2.671   0.033   6.756
 5928SOL    HW118683   2.644   0.114   6.809
 5928SOL    HW218684   2.734   7.004   6.810
 5929SOL     OW18685   1.313   0.709   0.759
 5929SOL    HW118686   1.228   0.671   0.723
 5929SOL    HW218687   1.355   0.768   0.691
 5930SOL     OW18688   1.576   3.915   2.253
 5930SOL    HW118689   1.614   3.948   2.166
 5930SOL    HW218690   1.564   3.816   2.249
 5931SOL     OW18691   4.982   6.216   3.331
 5931SOL    HW118692   5.028   6.235   3.244
 5931SOL    HW218693   4.917   6.289   3.352
 5932SOL     OW18694   3.301   6.169   0.507
 5932SOL    HW118695   3.323   6.146   0.413
 5932SOL    HW218696   3.232   6.242   0.508
 5933SOL     OW18697   6.429   5.585   4.551
 5933SOL    HW118698   6.421   5.538   4.639
 5933SOL    HW218699   6.467   5.522   4.483
 5934SOL     OW18700   2.987   3.193   0.436
 5934SOL    HW118701   3.048   3.225   0.509
 5934SOL    HW218702   3.025   3.110   0.395
 5935SOL     OW18703   0.943   0.476   5.009
 5935SOL    HW118704   0.914   0.571   5.004
 5935SOL    HW218705   0.903   0.424   4.933
 5936SOL     OW18706   3.718   2.964   2.225
 5936SOL    HW118707   3.793   2.900   2.212
 5936SOL    HW218708   3.668   2.975   2.140
 5937SOL     OW18709   0.549   2.872   0.708
 5937SOL    HW118710   0.472   2.810   0.718
 5937SOL    HW218711   0.558   2.927   0.792
 5938SOL     OW18712   0.683   3.428   3.955
 5938SOL    HW118713   0.610   3.494   3.973
 5938SOL    HW218714   0.656   3.367   3.880
 5939SOL     OW18715   4.596   1.407   6.007
 5939SOL    HW118716   4.605   1.493   5.957
 5939SOL    HW218717   4.682   1.388   6.056
 5940SOL     OW18718   4.885   5.161   1.941
 5940SOL    HW118719   4.870   5.162   1.842
 5940SOL    HW218720   4.911   5.069   1.970
 5941SOL     OW18721   0.185   1.902   3.213
 5941SOL    HW118722   0.212   1.830   3.277
 5941SOL    HW218723   0.266   1.932   3.162
 5942SOL     OW18724   5.289   2.564   6.728
 5942SOL    HW118725   5.200   2.602   6.703
 5942SOL    HW218726   5.346   2.557   6.646
 5943SOL     OW18727   1.644   4.407   1.034
 5943SOL    HW118728   1.632   4.459   1.119
 5943SOL    HW218729   1.597   4.455   0.960
 5944SOL     OW18730   6.218   3.718   5.716
 5944SOL    HW118731   6.265   3.800   5.683
 5944SOL    HW218732   6.256   3.638   5.670
 5945SOL     OW18733   6.619   6.156   4.295
 5945SOL    HW118734   6.583   6.244   4.325
 5945SOL    HW218735   6.662   6.167   4.205
 5946SOL     OW18736   2.216   3.271   6.905
 5946SOL    HW118737   2.163   3.187   6.902
 5946SOL    HW218738   2.157   3.347   6.934
 5947SOL     OW18739   3.763   3.531   4.662
 5947SOL    HW118740   3.716   3.537   4.574
 5947SOL    HW218741   3.747   3.441   4.703
 5948SOL     OW18742   4.917   4.234   1.453
 5948SOL    HW118743   4.967   4.243   1.540
 5948SOL    HW218744   4.826   4.275   1.463
 5949SOL     OW18745   0.533   3.579   2.997
 5949SOL    HW118746   0.577   3.490   3.004
 5949SOL    HW218747   0.602   3.651   2.993
 5950SOL     OW18748   2.949   7.009   4.586
 5950SOL    HW118749   3.033   6.958   4.571
 5950SOL    HW218750   2.909   0.007   4.498
 5951SOL     OW18751   6.794   3.572   6.643
 5951SOL    HW118752   6.846   3.642   6.692
 5951SOL    HW218753   6.818   3.576   6.546
 5952SOL     OW18754   3.712   4.080   1.842
 5952SOL    HW118755   3.688   4.118   1.931
 5952SOL    HW218756   3.635   4.028   1.806
 5953SOL     OW18757   6.643   3.386   5.731
 5953SOL    HW118758   6.628   3.306   5.673
 5953SOL    HW218759   6.741   3.399   5.744
 5954SOL     OW18760   2.156   5.455   3.860
 5954SOL    HW118761   2.158   5.512   3.943
 5954SOL    HW218762   2.095   5.377   3.875
 5955SOL     OW18763   4.231   3.413   0.515
 5955SOL    HW118764   4.298   3.361   0.461
 5955SOL    HW218765   4.169   3.350   0.561
 5956SOL     OW18766   4.375   3.167   6.119
 5956SOL    HW118767   4.457   3.176   6.175
 5956SOL    HW218768   4.346   3.257   6.087
 5957SOL     OW18769   6.515   1.693   3.518
 5957SOL    HW118770   6.480   1.615   3.571
 5957SOL    HW218771   6.462   1.701   3.433
 5958SOL     OW18772   2.534   6.454   3.273
 5958SOL    HW118773   2.595   6.441   3.351
 5958SOL    HW218774   2.585   6.494   3.197
 5959SOL     OW18775   5.666   3.330   2.882
 5959SOL    HW118776   5.649   3.400   2.952
 5959SOL    HW218777   5.658   3.239   2.922
 5960SOL     OW18778   5.411   0.410   6.115
 5960SOL    HW118779   5.422   0.441   6.020
 5960SOL    HW218780   5.348   0.471   6.163
 5961SOL     OW18781   3.165   2.166   3.524
 5961SOL    HW118782   3.156   2.146   3.622
 5961SOL    HW218783   3.086   2.219   3.494
 5962SOL     OW18784   4.365   5.011   0.573
 5962SOL    HW118785   4.301   4.975   0.641
 5962SOL    HW218786   4.364   5.111   0.575
 5963SOL     OW18787   1.948   3.617   0.399
 5963SOL    HW118788   1.898   3.572   0.474
 5963SOL    HW218789   2.032   3.566   0.380
 5964SOL     OW18790   1.910   0.252   3.157
 5964SOL    HW118791   1.834   0.295   3.109
 5964SOL    HW218792   1.875   0.199   3.234
 5965SOL     OW18793   2.480   0.530   1.051
 5965SOL    HW118794   2.422   0.478   0.988
 5965SOL    HW218795   2.427   0.554   1.132
 5966SOL     OW18796   2.958   2.006   5.374
 5966SOL    HW118797   2.918   2.032   5.461
 5966SOL    HW218798   2.971   2.088   5.318
 5967SOL     OW18799   4.816   2.199   5.218
 5967SOL    HW118800   4.805   2.147   5.134
 5967SOL    HW218801   4.814   2.297   5.197
 5968SOL     OW18802   5.940   1.807   3.055
 5968SOL    HW118803   6.028   1.850   3.035
 5968SOL    HW218804   5.866   1.863   3.016
 5969SOL     OW18805   4.681   0.148   0.916
 5969SOL    HW118806   4.612   0.182   0.980
 5969SOL    HW218807   4.636   0.117   0.832
 5970SOL     OW18808   6.784   3.072   0.460
 5970SOL    HW118809   6.850   3.071   0.535
 5970SOL    HW218810   6.694   3.047   0.495
 5971SOL     OW18811   0.019   5.274   3.815
 5971SOL    HW118812   0.016   5.186   3.768
 5971SOL    HW218813   6.966   5.329   3.789
 5972SOL     OW18814   5.932   5.263   1.290
 5972SOL    HW118815   5.878   5.243   1.208
 5972SOL    HW218816   5.892   5.216   1.368
 5973SOL     OW18817   2.465   0.707   2.375
 5973SOL    HW118818   2.381   0.762   2.383
 5973SOL    HW218819   2.534   0.743   2.437
 5974SOL     OW18820   5.473   1.353   4.734
 5974SOL    HW118821   5.551   1.416   4.731
 5974SOL    HW218822   5.397   1.392   4.682
 5975SOL     OW18823   4.559   5.388   1.676
 5975SOL    HW118824   4.507   5.424   1.753
 5975SOL    HW218825   4.531   5.294   1.656
 5976SOL     OW18826   1.663   4.092   5.629
 5976SOL    HW118827   1.713   4.018   5.585
 5976SOL    HW218828   1.610   4.142   5.560
 5977SOL     OW18829   6.420   5.066   1.311
 5977SOL    HW118830   6.474   5.028   1.386
 5977SOL    HW218831   6.479   5.123   1.253
 5978SOL     OW18832   2.582   3.666   6.484
 5978SOL    HW118833   2.653   3.622   6.538
 5978SOL    HW218834   2.511   3.599   6.461
 5979SOL     OW18835   6.489   6.741   1.001
 5979SOL    HW118836   6.468   6.700   0.912
 5979SOL    HW218837   6.568   6.803   0.991
 5980SOL     OW18838   3.189   2.423   0.890
 5980SOL    HW118839   3.272   2.431   0.834
 5980SOL    HW218840   3.205   2.361   0.966
 5981SOL     OW18841   2.689   2.331   1.123
 5981SOL    HW118842   2.670   2.398   1.052
 5981SOL    HW218843   2.692   2.377   1.212
 5982SOL     OW18844   5.520   2.833   1.776
 5982SOL    HW118845   5.429   2.792   1.782
 5982SOL    HW218846   5.545   2.844   1.680
 5983SOL     OW18847   0.135   1.137   3.695
 5983SOL    HW118848   0.114   1.231   3.725
 5983SOL    HW218849   0.201   1.096   3.758
 5984SOL     OW18850   6.067   6.038   3.260
 5984SOL    HW118851   5.980   5.991   3.250
 5984SOL    HW218852   6.142   5.976   3.236
 5985SOL     OW18853   0.055   3.418   3.059
 5985SOL    HW118854   0.088   3.513   3.057
 5985SOL    HW218855   0.041   3.386   2.966
 5986SOL     OW18856   3.524   3.457   3.846
 5986SOL    HW118857   3.536   3.486   3.751
 5986SOL    HW218858   3.446   3.395   3.852
 5987SOL     OW18859   0.074   5.967   4.956
 5987SOL    HW118860   0.163   5.921   4.958
 5987SOL    HW218861   0.088   6.066   4.964
 5988SOL     OW18862   1.026   2.944   6.882
 5988SOL    HW118863   0.944   2.889   6.866
 5988SOL    HW218864   1.009   3.039   6.855
 5989SOL     OW18865   1.389   6.915   5.318
 5989SOL    HW118866   1.353   6.984   5.381
 5989SOL    HW218867   1.385   6.950   5.225
 5990SOL     OW18868   1.969   4.517   1.557
 5990SOL    HW118869   2.018   4.451   1.501
 5990SOL    HW218870   2.009   4.608   1.543
 5991SOL     OW18871   5.630   1.123   0.994
 5991SOL    HW118872   5.650   1.025   0.984
 5991SOL    HW218873   5.697   1.164   1.056
 5992SOL     OW18874   3.117   5.156   3.054
 5992SOL    HW118875   3.085   5.063   3.037
 5992SOL    HW218876   3.040   5.219   3.046
 5993SOL     OW18877   5.809   2.331   0.463
 5993SOL    HW118878   5.806   2.386   0.546
 5993SOL    HW218879   5.902   2.329   0.428
 5994SOL     OW18880   6.657   3.769   6.904
 5994SOL    HW118881   6.687   3.719   6.985
 5994SOL    HW218882   6.585   3.834   6.929
 5995SOL     OW18883   5.187   3.467   1.260
 5995SOL    HW118884   5.123   3.392   1.246
 5995SOL    HW218885   5.270   3.433   1.305
 5996SOL     OW18886   2.154   0.008   1.456
 5996SOL    HW118887   2.096   0.018   1.376
 5996SOL    HW218888   2.249   0.025   1.431
 5997SOL     OW18889   6.257   0.286   4.038
 5997SOL    HW118890   6.221   0.278   4.131
 5997SOL    HW218891   6.346   0.333   4.040
 5998SOL     OW18892   6.190   6.403   6.666
 5998SOL    HW118893   6.145   6.460   6.735
 5998SOL    HW218894   6.197   6.309   6.698
 5999SOL     OW18895   5.449   3.654   1.621
 5999SOL    HW118896   5.466   3.744   1.663
 5999SOL    HW218897   5.354   3.627   1.636
 6000SOL     OW18898   1.334   4.410   0.760
 6000SOL    HW118899   1.330   4.327   0.816
 6000SOL    HW218900   1.415   4.406   0.701
 6001SOL     OW18901   6.258   5.624   5.672
 6001SOL    HW118902   6.313   5.707   5.657
 6001SOL    HW218903   6.310   5.544   5.643
 6002SOL     OW18904   5.374   4.727   5.038
 6002SOL    HW118905   5.412   4.801   4.983
 6002SOL    HW218906   5.448   4.673   5.078
 6003SOL     OW18907   2.588   2.084   4.887
 6003SOL    HW118908   2.670   2.026   4.889
 6003SOL    HW218909   2.616   2.180   4.888
 6004SOL     OW18910   5.239   3.411   5.328
 6004SOL    HW118911   5.190   3.354   5.393
 6004SOL    HW218912   5.289   3.353   5.264
 6005SOL     OW18913   4.027   4.198   0.377
 6005SOL    HW118914   4.049   4.119   0.435
 6005SOL    HW218915   4.097   4.268   0.390
 6006SOL     OW18916   3.190   6.544   0.016
 6006SOL    HW118917   3.286   6.542   7.014
 6006SOL    HW218918   3.187   6.556   0.116
 6007SOL     OW18919   2.204   6.718   5.148
 6007SOL    HW118920   2.294   6.696   5.112
 6007SOL    HW218921   2.136   6.655   5.111
 6008SOL     OW18922   1.967   3.976   6.359
 6008SOL    HW118923   2.062   3.946   6.368
 6008SOL    HW218924   1.954   4.018   6.269
 6009SOL     OW18925   4.146   5.098   2.713
 6009SOL    HW118926   4.103   5.007   2.719
 6009SOL    HW218927   4.245   5.089   2.723
 6010SOL     OW18928   0.349   5.194   4.840
 6010SOL    HW118929   0.394   5.145   4.915
 6010SOL    HW218930   0.283   5.133   4.797
 6011SOL     OW18931   5.137   1.773   3.261
 6011SOL    HW118932   5.135   1.718   3.178
 6011SOL    HW218933   5.160   1.715   3.339
 6012SOL     OW18934   6.601   0.696   5.642
 6012SOL    HW118935   6.507   0.701   5.606
 6012SOL    HW218936   6.639   0.788   5.650
 6013SOL     OW18937   5.424   1.545   2.536
 6013SOL    HW118938   5.363   1.469   2.516
 6013SOL    HW218939   5.431   1.558   2.634
 6014SOL     OW18940   3.432   3.284   4.484
 6014SOL    HW118941   3.383   3.354   4.537
 6014SOL    HW218942   3.390   3.276   4.394
 6015SOL     OW18943   5.891   6.628   4.586
 6015SOL    HW118944   5.889   6.677   4.673
 6015SOL    HW218945   5.954   6.674   4.523
 6016SOL     OW18946   4.219   2.227   4.671
 6016SOL    HW118947   4.316   2.223   4.649
 6016SOL    HW218948   4.171   2.277   4.599
 6017SOL     OW18949   1.654   1.636   5.370
 6017SOL    HW118950   1.658   1.687   5.456
 6017SOL    HW218951   1.561   1.601   5.356
 6018SOL     OW18952   2.462   1.189   3.864
 6018SOL    HW118953   2.553   1.227   3.874
 6018SOL    HW218954   2.402   1.225   3.936
 6019SOL     OW18955   6.678   4.599   6.630
 6019SOL    HW118956   6.713   4.645   6.712
 6019SOL    HW218957   6.634   4.514   6.656
 6020SOL     OW18958   0.682   5.037   5.468
 6020SOL    HW118959   0.756   4.989   5.516
 6020SOL    HW218960   0.714   5.128   5.441
 6021SOL     OW18961   5.586   0.291   3.243
 6021SOL    HW118962   5.535   0.295   3.328
 6021SOL    HW218963   5.577   0.378   3.194
 6022SOL     OW18964   6.128   2.786   1.628
 6022SOL    HW118965   6.126   2.886   1.629
 6022SOL    HW218966   6.076   2.753   1.549
 6023SOL     OW18967   4.459   6.569   2.099
 6023SOL    HW118968   4.529   6.511   2.057
 6023SOL    HW218969   4.492   6.605   2.186
 6024SOL     OW18970   0.597   6.353   6.383
 6024SOL    HW118971   0.663   6.410   6.333
 6024SOL    HW218972   0.623   6.349   6.480
 6025SOL     OW18973   2.656   0.396   5.647
 6025SOL    HW118974   2.700   0.334   5.582
 6025SOL    HW218975   2.677   0.490   5.624
 6026SOL     OW18976   6.176   5.739   3.611
 6026SOL    HW118977   6.169   5.681   3.692
 6026SOL    HW218978   6.175   5.835   3.639
 6027SOL     OW18979   6.018   5.345   6.233
 6027SOL    HW118980   5.924   5.326   6.204
 6027SOL    HW218981   6.023   5.344   6.332
 6028SOL     OW18982   6.040   6.145   6.077
 6028SOL    HW118983   6.048   6.208   6.000
 6028SOL    HW218984   6.059   6.052   6.047
 6029SOL     OW18985   3.769   1.476   2.682
 6029SOL    HW118986   3.847   1.433   2.636
 6029SOL    HW218987   3.743   1.559   2.632
 6030SOL     OW18988   6.189   3.231   4.493
 6030SOL    HW118989   6.261   3.207   4.428
 6030SOL    HW218990   6.221   3.212   4.586
 6031SOL     OW18991   0.342   6.618   4.942
 6031SOL    HW118992   0.312   6.701   4.895
 6031SOL    HW218993   0.322   6.538   4.885
 6032SOL     OW18994   3.295   6.768   3.321
 6032SOL    HW118995   3.306   6.855   3.369
 6032SOL    HW218996   3.379   6.714   3.332
 6033SOL     OW18997   0.504   1.709   2.456
 6033SOL    HW118998   0.595   1.710   2.415
 6033SOL    HW218999   0.486   1.797   2.500
 6034SOL     OW19000   0.186   0.226   0.561
 6034SOL    HW119001   0.136   0.168   0.496
 6034SOL    HW219002   0.137   0.312   0.573
 6035SOL     OW19003   2.641   0.260   2.706
 6035SOL    HW119004   2.663   0.198   2.632
 6035SOL    HW219005   2.665   0.354   2.680
 6036SOL     OW19006   6.134   3.518   0.661
 6036SOL    HW119007   6.176   3.529   0.571
 6036SOL    HW219008   6.035   3.513   0.651
 6037SOL     OW19009   4.792   1.202   6.189
 6037SOL    HW119010   4.798   1.298   6.163
 6037SOL    HW219011   4.845   1.147   6.124
 6038SOL     OW19012   1.549   1.195   5.956
 6038SOL    HW119013   1.450   1.185   5.952
 6038SOL    HW219014   1.579   1.185   6.051
 6039SOL     OW19015   4.095   3.567   3.556
 6039SOL    HW119016   4.141   3.478   3.560
 6039SOL    HW219017   4.107   3.614   3.644
 6040SOL     OW19018   0.843   2.073   7.008
 6040SOL    HW119019   0.834   2.157   0.034
 6040SOL    HW219020   0.782   2.003   0.019
 6041SOL     OW19021   0.425   3.558   5.117
 6041SOL    HW119022   0.421   3.495   5.039
 6041SOL    HW219023   0.520   3.575   5.141
 6042SOL     OW19024   2.869   6.288   3.638
 6042SOL    HW119025   2.933   6.351   3.595
 6042SOL    HW219026   2.868   6.303   3.737
 6043SOL     OW19027   2.467   6.971   2.507
 6043SOL    HW119028   2.461   6.939   2.602
 6043SOL    HW219029   2.389   6.937   2.455
 6044SOL     OW19030   0.382   3.353   0.351
 6044SOL    HW119031   0.306   3.417   0.336
 6044SOL    HW219032   0.347   3.268   0.390
 6045SOL     OW19033   5.609   1.088   3.897
 6045SOL    HW119034   5.659   1.172   3.920
 6045SOL    HW219035   5.639   1.055   3.807
 6046SOL     OW19036   3.582   3.127   2.853
 6046SOL    HW119037   3.668   3.126   2.803
 6046SOL    HW219038   3.546   3.034   2.860
 6047SOL     OW19039   6.786   1.598   0.153
 6047SOL    HW119040   6.788   1.515   0.097
 6047SOL    HW219041   6.868   1.602   0.209
 6048SOL     OW19042   5.806   5.915   3.288
 6048SOL    HW119043   5.719   5.870   3.268
 6048SOL    HW219044   5.789   6.011   3.312
 6049SOL     OW19045   4.619   4.817   6.355
 6049SOL    HW119046   4.547   4.802   6.287
 6049SOL    HW219047   4.640   4.730   6.400
 6050SOL     OW19048   2.418   5.310   2.629
 6050SOL    HW119049   2.480   5.375   2.584
 6050SOL    HW219050   2.324   5.333   2.606
 6051SOL     OW19051   0.476   1.415   2.849
 6051SOL    HW119052   0.544   1.353   2.888
 6051SOL    HW219053   0.397   1.421   2.910
 6052SOL     OW19054   5.105   5.367   0.753
 6052SOL    HW119055   5.079   5.322   0.839
 6052SOL    HW219056   5.171   5.310   0.704
 6053SOL     OW19057   4.573   2.546   6.926
 6053SOL    HW119058   4.575   2.483   7.003
 6053SOL    HW219059   4.587   2.639   6.959
 6054SOL     OW19060   4.141   3.995   0.865
 6054SOL    HW119061   4.229   3.961   0.832
 6054SOL    HW219062   4.133   4.093   0.845
 6055SOL     OW19063   3.208   3.626   1.169
 6055SOL    HW119064   3.234   3.651   1.263
 6055SOL    HW219065   3.168   3.706   1.124
 6056SOL     OW19066   5.448   5.975   3.476
 6056SOL    HW119067   5.386   6.028   3.418
 6056SOL    HW219068   5.539   5.975   3.434
 6057SOL     OW19069   5.394   0.942   3.604
 6057SOL    HW119070   5.358   0.981   3.689
 6057SOL    HW219071   5.329   0.959   3.529
 6058SOL     OW19072   0.236   2.742   5.774
 6058SOL    HW119073   0.193   2.825   5.809
 6058SOL    HW219074   0.278   2.692   5.850
 6059SOL     OW19075   4.396   2.848   0.081
 6059SOL    HW119076   4.381   2.862   7.010
 6059SOL    HW219077   4.323   2.791   0.118
 6060SOL     OW19078   2.091   2.576   0.597
 6060SOL    HW119079   1.994   2.586   0.577
 6060SOL    HW219080   2.123   2.486   0.565
 6061SOL     OW19081   3.708   4.129   0.021
 6061SOL    HW119082   3.614   4.127   7.013
 6061SOL    HW219083   3.717   4.064   0.096
 6062SOL     OW19084   2.502   1.681   6.117
 6062SOL    HW119085   2.512   1.712   6.212
 6062SOL    HW219086   2.509   1.759   6.055
 6063SOL     OW19087   4.511   4.215   6.767
 6063SOL    HW119088   4.494   4.311   6.787
 6063SOL    HW219089   4.489   4.159   6.847
 6064SOL     OW19090   5.660   5.899   1.073
 6064SOL    HW119091   5.662   5.967   1.146
 6064SOL    HW219092   5.638   5.809   1.111
 6065SOL     OW19093   1.978   6.062   1.451
 6065SOL    HW119094   1.974   6.000   1.530
 6065SOL    HW219095   2.070   6.102   1.445
 6066SOL     OW19096   5.982   5.552   2.690
 6066SOL    HW119097   6.071   5.596   2.700
 6066SOL    HW219098   5.955   5.551   2.594
 6067SOL     OW19099   0.345   6.231   6.006
 6067SOL    HW119100   0.265   6.236   6.065
 6067SOL    HW219101   0.421   6.281   6.049
 6068SOL     OW19102   4.846   2.039   4.268
 6068SOL    HW119103   4.862   1.996   4.357
 6068SOL    HW219104   4.901   1.993   4.198
 6069SOL     OW19105   0.190   4.712   5.984
 6069SOL    HW119106   0.255   4.645   5.949
 6069SOL    HW219107   0.185   4.790   5.921
 6070SOL     OW19108   2.549   1.652   0.525
 6070SOL    HW119109   2.634   1.640   0.577
 6070SOL    HW219110   2.472   1.660   0.588
 6071SOL     OW19111   5.412   0.922   5.956
 6071SOL    HW119112   5.395   0.982   6.034
 6071SOL    HW219113   5.440   0.977   5.877
 6072SOL     OW19114   6.907   3.232   7.013
 6072SOL    HW119115   6.901   3.266   6.919
 6072SOL    HW219116   6.978   3.161   7.018
 6073SOL     OW19117   4.874   3.726   0.611
 6073SOL    HW119118   4.886   3.652   0.677
 6073SOL    HW219119   4.785   3.769   0.624
 6074SOL     OW19120   0.470   6.482   2.138
 6074SOL    HW119121   0.484   6.567   2.088
 6074SOL    HW219122   0.484   6.404   2.077
 6075SOL     OW19123   6.059   0.717   6.971
 6075SOL    HW119124   6.049   0.773   6.888
 6075SOL    HW219125   5.970   0.707   7.015
 6076SOL     OW19126   0.482   6.192   3.383
 6076SOL    HW119127   0.453   6.155   3.472
 6076SOL    HW219128   0.581   6.206   3.383
 6077SOL     OW19129   5.141   5.890   2.744
 6077SOL    HW119130   5.139   5.973   2.688
 6077SOL    HW219131   5.123   5.810   2.686
 6078SOL     OW19132   4.919   4.257   0.617
 6078SOL    HW119133   4.880   4.204   0.543
 6078SOL    HW219134   4.997   4.309   0.583
 6079SOL     OW19135   3.397   1.910   0.086
 6079SOL    HW119136   3.353   1.845   0.149
 6079SOL    HW219137   3.447   1.978   0.138
 6080SOL     OW19138   6.731   3.928   5.579
 6080SOL    HW119139   6.729   4.008   5.519
 6080SOL    HW219140   6.768   3.849   5.530
 6081SOL     OW19141   1.489   3.680   3.519
 6081SOL    HW119142   1.474   3.581   3.529
 6081SOL    HW219143   1.587   3.698   3.507
 6082SOL     OW19144   5.333   1.229   1.696
 6082SOL    HW119145   5.276   1.236   1.778
 6082SOL    HW219146   5.301   1.294   1.628
 6083SOL     OW19147   5.296   6.827   6.550
 6083SOL    HW119148   5.273   6.826   6.453
 6083SOL    HW219149   5.334   6.739   6.577
 6084SOL     OW19150   6.016   5.369   3.027
 6084SOL    HW119151   5.984   5.386   3.120
 6084SOL    HW219152   6.116   5.370   3.025
 6085SOL     OW19153   0.791   6.448   0.539
 6085SOL    HW119154   0.785   6.489   0.630
 6085SOL    HW219155   0.717   6.483   0.482
 6086SOL     OW19156   3.412   3.581   6.930
 6086SOL    HW119157   3.442   3.670   6.896
 6086SOL    HW219158   3.477   3.511   6.901
 6087SOL     OW19159   4.329   0.233   0.699
 6087SOL    HW119160   4.273   0.260   0.777
 6087SOL    HW219161   4.289   0.152   0.655
 6088SOL     OW19162   4.815   5.601   2.731
 6088SOL    HW119163   4.893   5.548   2.699
 6088SOL    HW219164   4.826   5.621   2.828
 6089SOL     OW19165   6.298   3.755   2.846
 6089SOL    HW119166   6.227   3.744   2.776
 6089SOL    HW219167   6.284   3.841   2.894
 6090SOL     OW19168   3.660   5.649   4.730
 6090SOL    HW119169   3.743   5.605   4.696
 6090SOL    HW219170   3.623   5.596   4.806
 6091SOL     OW19171   0.134   1.719   1.733
 6091SOL    HW119172   0.042   1.701   1.769
 6091SOL    HW219173   0.133   1.801   1.677
 6092SOL     OW19174   2.602   6.625   1.437
 6092SOL    HW119175   2.691   6.579   1.436
 6092SOL    HW219176   2.616   6.723   1.451
 6093SOL     OW19177   2.399   2.466   1.782
 6093SOL    HW119178   2.357   2.553   1.754
 6093SOL    HW219179   2.496   2.480   1.800
 6094SOL     OW19180   0.780   6.500   5.586
 6094SOL    HW119181   0.718   6.501   5.508
 6094SOL    HW219182   0.842   6.579   5.580
 6095SOL     OW19183   5.435   5.086   1.831
 6095SOL    HW119184   5.362   5.021   1.853
 6095SOL    HW219185   5.500   5.090   1.907
 6096SOL     OW19186   5.284   5.958   2.991
 6096SOL    HW119187   5.302   5.867   3.029
 6096SOL    HW219188   5.256   5.948   2.895
 6097SOL     OW19189   2.828   5.014   2.232
 6097SOL    HW119190   2.911   5.053   2.191
 6097SOL    HW219191   2.749   5.066   2.201
 6098SOL     OW19192   6.538   0.938   5.199
 6098SOL    HW119193   6.612   0.969   5.258
 6098SOL    HW219194   6.462   1.003   5.203
 6099SOL     OW19195   4.363   0.196   5.929
 6099SOL    HW119196   4.308   0.260   5.983
 6099SOL    HW219197   4.356   0.219   5.832
 6100SOL     OW19198   1.023   5.816   5.448
 6100SOL    HW119199   1.000   5.754   5.523
 6100SOL    HW219200   0.964   5.796   5.370
 6101SOL     OW19201   0.125   3.119   1.703
 6101SOL    HW119202   0.111   3.152   1.796
 6101SOL    HW219203   0.204   3.057   1.700
 6102SOL     OW19204   3.647   0.030   2.824
 6102SOL    HW119205   3.641   6.965   2.784
 6102SOL    HW219206   3.558   0.058   2.858
 6103SOL     OW19207   5.906   1.094   3.064
 6103SOL    HW119208   5.969   1.020   3.043
 6103SOL    HW219209   5.907   1.112   3.162
 6104SOL     OW19210   6.608   1.505   4.762
 6104SOL    HW119211   6.682   1.570   4.781
 6104SOL    HW219212   6.549   1.497   4.842
 6105SOL     OW19213   3.823   4.413   5.870
 6105SOL    HW119214   3.896   4.435   5.935
 6105SOL    HW219215   3.738   4.399   5.920
 6106SOL     OW19216   6.401   4.662   5.092
 6106SOL    HW119217   6.372   4.571   5.061
 6106SOL    HW219218   6.487   4.687   5.047
 6107SOL     OW19219   5.480   5.163   5.513
 6107SOL    HW119220   5.398   5.110   5.489
 6107SOL    HW219221   5.555   5.100   5.536
 6108SOL     OW19222   2.424   0.922   6.437
 6108SOL    HW119223   2.518   0.888   6.433
 6108SOL    HW219224   2.421   1.008   6.486
 6109SOL     OW19225   0.327   6.430   4.142
 6109SOL    HW119226   0.289   6.340   4.122
 6109SOL    HW219227   0.427   6.427   4.133
 6110SOL     OW19228   1.744   1.497   4.635
 6110SOL    HW119229   1.727   1.584   4.683
 6110SOL    HW219230   1.663   1.473   4.581
 6111SOL     OW19231   2.199   3.521   0.388
 6111SOL    HW119232   2.216   3.426   0.363
 6111SOL    HW219233   2.277   3.578   0.360
 6112SOL     OW19234   4.834   6.422   3.444
 6112SOL    HW119235   4.737   6.415   3.418
 6112SOL    HW219236   4.842   6.479   3.526
 6113SOL     OW19237   2.648   5.732   1.103
 6113SOL    HW119238   2.738   5.722   1.143
 6113SOL    HW219239   2.652   5.708   1.006
 6114SOL     OW19240   4.805   2.643   1.183
 6114SOL    HW119241   4.779   2.738   1.163
 6114SOL    HW219242   4.819   2.594   1.097
 6115SOL     OW19243   0.898   1.008   5.283
 6115SOL    HW119244   0.873   1.096   5.322
 6115SOL    HW219245   0.996   1.007   5.261
 6116SOL     OW19246   5.910   3.688   0.069
 6116SOL    HW119247   5.984   3.686   0.002
 6116SOL    HW219248   5.889   3.594   0.097
 6117SOL     OW19249   1.822   1.972   1.513
 6117SOL    HW119250   1.847   2.064   1.544
 6117SOL    HW219251   1.881   1.945   1.437
 6118SOL     OW19252   5.549   1.085   2.644
 6118SOL    HW119253   5.547   1.178   2.681
 6118SOL    HW219254   5.592   1.087   2.554
 6119SOL     OW19255   6.411   1.389   6.727
 6119SOL    HW119256   6.392   1.358   6.820
 6119SOL    HW219257   6.507   1.369   6.704
 6120SOL     OW19258   3.432   0.349   4.205
 6120SOL    HW119259   3.355   0.400   4.243
 6120SOL    HW219260   3.483   0.305   4.279
 6121SOL     OW19261   2.297   1.699   5.309
 6121SOL    HW119262   2.294   1.734   5.403
 6121SOL    HW219263   2.366   1.748   5.257
 6122SOL     OW19264   5.222   4.700   4.726
 6122SOL    HW119265   5.184   4.745   4.645
 6122SOL    HW219266   5.286   4.763   4.772
 6123SOL     OW19267   6.037   1.365   5.307
 6123SOL    HW119268   6.033   1.364   5.407
 6123SOL    HW219269   6.108   1.428   5.276
 6124SOL     OW19270   2.615   5.558   3.901
 6124SOL    HW119271   2.700   5.542   3.952
 6124SOL    HW219272   2.538   5.554   3.964
 6125SOL     OW19273   3.350   1.505   5.693
 6125SOL    HW119274   3.417   1.440   5.657
 6125SOL    HW219275   3.367   1.596   5.654
 6126SOL     OW19276   6.029   3.425   5.947
 6126SOL    HW119277   5.971   3.344   5.958
 6126SOL    HW219278   6.028   3.479   6.031
 6127SOL     OW19279   5.216   1.870   3.001
 6127SOL    HW119280   5.182   1.778   3.017
 6127SOL    HW219281   5.143   1.936   3.019
 6128SOL     OW19282   5.950   5.824   0.008
 6128SOL    HW119283   5.862   5.871   0.009
 6128SOL    HW219284   6.023   5.890   7.015
 6129SOL     OW19285   2.772   5.773   2.616
 6129SOL    HW119286   2.781   5.807   2.709
 6129SOL    HW219287   2.698   5.821   2.569
 6130SOL     OW19288   5.707   3.033   0.443
 6130SOL    HW119289   5.708   3.008   0.539
 6130SOL    HW219290   5.779   2.983   0.394
 6131SOL     OW19291   6.474   1.961   2.953
 6131SOL    HW119292   6.379   1.989   2.970
 6131SOL    HW219293   6.480   1.916   2.864
 6132SOL     OW19294   4.582   0.071   6.348
 6132SOL    HW119295   4.658   0.136   6.346
 6132SOL    HW219296   4.617   7.006   6.333
 6133SOL     OW19297   0.358   1.978   3.026
 6133SOL    HW119298   0.408   1.892   3.014
 6133SOL    HW219299   0.308   1.999   2.942
 6134SOL     OW19300   0.619   6.802   5.239
 6134SOL    HW119301   0.596   6.731   5.173
 6134SOL    HW219302   0.706   6.779   5.284
 6135SOL     OW19303   6.873   0.291   0.393
 6135SOL    HW119304   6.779   0.258   0.398
 6135SOL    HW219305   6.875   0.390   0.407
 6136SOL     OW19306   1.120   2.124   3.699
 6136SOL    HW119307   1.112   2.126   3.599
 6136SOL    HW219308   1.183   2.197   3.728
 6137SOL     OW19309   0.077   4.559   0.948
 6137SOL    HW119310   0.065   4.526   0.854
 6137SOL    HW219311   0.135   4.496   0.999
 6138SOL     OW19312   4.560   0.469   2.493
 6138SOL    HW119313   4.507   0.498   2.413
 6138SOL    HW219314   4.592   0.551   2.542
 6139SOL     OW19315   1.472   0.870   4.851
 6139SOL    HW119316   1.437   0.837   4.763
 6139SOL    HW219317   1.568   0.842   4.861
 6140SOL     OW19318   1.481   6.897   2.826
 6140SOL    HW119319   1.498   6.843   2.908
 6140SOL    HW219320   1.487   6.994   2.848
 6141SOL     OW19321   0.989   1.303   6.368
 6141SOL    HW119322   1.054   1.229   6.385
 6141SOL    HW219323   0.907   1.265   6.323
 6142SOL     OW19324   5.974   0.678   1.500
 6142SOL    HW119325   5.925   0.591   1.502
 6142SOL    HW219326   6.053   0.674   1.561
 6143SOL     OW19327   0.214   3.302   5.254
 6143SOL    HW119328   0.258   3.273   5.168
 6143SOL    HW219329   0.283   3.307   5.326
 6144SOL     OW19330   4.278   5.413   2.406
 6144SOL    HW119331   4.198   5.392   2.463
 6144SOL    HW219332   4.327   5.329   2.386
 6145SOL     OW19333   4.886   3.371   3.992
 6145SOL    HW119334   4.845   3.450   4.036
 6145SOL    HW219335   4.860   3.368   3.896
 6146SOL     OW19336   5.821   0.478   5.416
 6146SOL    HW119337   5.881   0.402   5.441
 6146SOL    HW219338   5.727   0.456   5.444
 6147SOL     OW19339   1.106   2.535   4.952
 6147SOL    HW119340   1.203   2.515   4.963
 6147SOL    HW219341   1.095   2.628   4.917
 6148SOL     OW19342   3.593   4.999   0.322
 6148SOL    HW119343   3.497   5.007   0.294
 6148SOL    HW219344   3.601   4.936   0.398
 6149SOL     OW19345   3.664   1.421   1.700
 6149SOL    HW119346   3.627   1.333   1.731
 6149SOL    HW219347   3.714   1.409   1.615
 6150SOL     OW19348   0.618   4.256   4.733
 6150SOL    HW119349   0.708   4.270   4.689
 6150SOL    HW219350   0.550   4.234   4.663
 6151SOL     OW19351   4.422   4.895   3.032
 6151SOL    HW119352   4.503   4.923   3.083
 6151SOL    HW219353   4.404   4.961   2.959
 6152SOL     OW19354   1.753   4.494   3.472
 6152SOL    HW119355   1.782   4.517   3.379
 6152SOL    HW219356   1.803   4.551   3.537
 6153SOL     OW19357   4.569   6.267   1.134
 6153SOL    HW119358   4.655   6.269   1.185
 6153SOL    HW219359   4.525   6.178   1.146
 6154SOL     OW19360   5.193   3.681   2.370
 6154SOL    HW119361   5.274   3.647   2.322
 6154SOL    HW219362   5.205   3.778   2.391
 6155SOL     OW19363   1.916   1.347   3.605
 6155SOL    HW119364   1.928   1.357   3.704
 6155SOL    HW219365   1.838   1.402   3.575
 6156SOL     OW19366   5.340   4.483   1.830
 6156SOL    HW119367   5.425   4.513   1.873
 6156SOL    HW219368   5.276   4.454   1.901
 6157SOL     OW19369   0.487   2.922   1.370
 6157SOL    HW119370   0.411   2.985   1.387
 6157SOL    HW219371   0.499   2.910   1.272
 6158SOL     OW19372   3.098   2.193   4.760
 6158SOL    HW119373   3.012   2.244   4.765
 6158SOL    HW219374   3.159   2.223   4.833
 6159SOL     OW19375   6.438   2.958   7.011
 6159SOL    HW119376   6.383   2.888   0.029
 6159SOL    HW219377   6.535   2.934   7.020
 6160SOL     OW19378   0.903   0.564   1.332
 6160SOL    HW119379   0.963   0.499   1.378
 6160SOL    HW219380   0.832   0.595   1.395
 6161SOL     OW19381   4.693   4.059   0.092
 6161SOL    HW119382   4.696   4.147   0.140
 6161SOL    HW219383   4.604   4.049   0.048
 6162SOL     OW19384   6.379   5.560   2.488
 6162SOL    HW119385   6.435   5.506   2.426
 6162SOL    HW219386   6.380   5.656   2.459
 6163SOL     OW19387   6.386   6.109   2.775
 6163SOL    HW119388   6.308   6.107   2.712
 6163SOL    HW219389   6.356   6.146   2.863
 6164SOL     OW19390   3.040   3.685   4.830
 6164SOL    HW119391   3.110   3.618   4.857
 6164SOL    HW219392   2.968   3.688   4.899
 6165SOL     OW19393   3.228   1.766   0.286
 6165SOL    HW119394   3.202   1.683   0.336
 6165SOL    HW219395   3.150   1.798   0.233
 6166SOL     OW19396   2.900   2.143   6.252
 6166SOL    HW119397   2.836   2.087   6.199
 6166SOL    HW219398   2.980   2.164   6.196
 6167SOL     OW19399   1.539   3.394   2.981
 6167SOL    HW119400   1.582   3.442   2.905
 6167SOL    HW219401   1.550   3.295   2.968
 6168SOL     OW19402   0.252   3.674   3.720
 6168SOL    HW119403   0.333   3.635   3.677
 6168SOL    HW219404   0.191   3.710   3.649
 6169SOL     OW19405   2.154   0.507   6.764
 6169SOL    HW119406   2.244   0.502   6.719
 6169SOL    HW219407   2.097   0.573   6.717
 6170SOL     OW19408   2.985   3.653   0.807
 6170SOL    HW119409   2.916   3.597   0.761
 6170SOL    HW219410   3.013   3.608   0.891
 6171SOL     OW19411   2.236   3.688   1.775
 6171SOL    HW119412   2.233   3.597   1.815
 6171SOL    HW219413   2.271   3.753   1.843
 6172SOL     OW19414   2.596   5.439   2.410
 6172SOL    HW119415   2.621   5.472   2.501
 6172SOL    HW219416   2.676   5.442   2.350
 6173SOL     OW19417   1.059   5.786   2.479
 6173SOL    HW119418   0.993   5.809   2.551
 6173SOL    HW219419   1.051   5.689   2.457
 6174SOL     OW19420   6.305   4.809   2.238
 6174SOL    HW119421   6.269   4.774   2.325
 6174SOL    HW219422   6.384   4.754   2.210
 6175SOL     OW19423   5.075   0.356   3.375
 6175SOL    HW119424   5.089   0.414   3.294
 6175SOL    HW219425   4.989   0.306   3.365
 6176SOL     OW19426   5.227   3.190   6.428
 6176SOL    HW119427   5.150   3.223   6.483
 6176SOL    HW219428   5.218   3.092   6.413
 6177SOL     OW19429   6.775   3.231   1.646
 6177SOL    HW119430   6.716   3.224   1.726
 6177SOL    HW219431   6.839   3.308   1.658
 6178SOL     OW19432   5.625   3.296   1.732
 6178SOL    HW119433   5.613   3.217   1.672
 6178SOL    HW219434   5.608   3.380   1.679
 6179SOL     OW19435   0.249   2.519   5.277
 6179SOL    HW119436   0.311   2.440   5.278
 6179SOL    HW219437   0.240   2.556   5.369
 6180SOL     OW19438   3.246   0.090   6.039
 6180SOL    HW119439   3.274   0.104   6.134
 6180SOL    HW219440   3.210   0.175   6.001
 6181SOL     OW19441   4.658   5.746   0.358
 6181SOL    HW119442   4.628   5.835   0.392
 6181SOL    HW219443   4.714   5.701   0.428
 6182SOL     OW19444   4.778   6.427   6.313
 6182SOL    HW119445   4.826   6.349   6.352
 6182SOL    HW219446   4.833   6.509   6.324
 6183SOL     OW19447   3.035   0.964   2.797
 6183SOL    HW119448   3.056   1.062   2.803
 6183SOL    HW219449   2.943   0.948   2.833
 6184SOL     OW19450   6.000   0.606   6.621
 6184SOL    HW119451   5.917   0.660   6.606
 6184SOL    HW219452   5.979   0.530   6.683
 6185SOL     OW19453   0.982   3.536   5.703
 6185SOL    HW119454   0.969   3.492   5.614
 6185SOL    HW219455   0.895   3.575   5.734
 6186SOL     OW19456   5.512   6.946   5.185
 6186SOL    HW119457   5.607   6.934   5.157
 6186SOL    HW219458   5.457   6.973   5.106
 6187SOL     OW19459   2.903   4.719   4.429
 6187SOL    HW119460   2.898   4.777   4.510
 6187SOL    HW219461   2.996   4.717   4.394
 6188SOL     OW19462   2.747   0.344   1.738
 6188SOL    HW119463   2.688   0.355   1.818
 6188SOL    HW219464   2.693   0.356   1.655
 6189SOL     OW19465   5.238   4.740   3.211
 6189SOL    HW119466   5.163   4.715   3.271
 6189SOL    HW219467   5.211   4.819   3.156
 6190SOL     OW19468   5.062   2.625   5.931
 6190SOL    HW119469   4.991   2.684   5.894
 6190SOL    HW219470   5.149   2.645   5.886
 6191SOL     OW19471   6.885   2.703   6.572
 6191SOL    HW119472   6.865   2.606   6.587
 6191SOL    HW219473   6.861   2.755   6.654
 6192SOL     OW19474   2.972   2.250   0.458
 6192SOL    HW119475   3.003   2.159   0.432
 6192SOL    HW219476   2.997   2.268   0.554
 6193SOL     OW19477   5.935   0.159   1.025
 6193SOL    HW119478   5.930   0.193   1.119
 6193SOL    HW219479   5.854   0.104   1.005
 6194SOL     OW19480   2.067   0.826   0.602
 6194SOL    HW119481   2.016   0.742   0.620
 6194SOL    HW219482   2.029   0.901   0.655
 6195SOL     OW19483   2.445   6.326   6.341
 6195SOL    HW119484   2.432   6.413   6.389
 6195SOL    HW219485   2.434   6.250   6.406
 6196SOL     OW19486   0.345   1.270   5.907
 6196SOL    HW119487   0.338   1.271   6.007
 6196SOL    HW219488   0.261   1.305   5.867
 6197SOL     OW19489   2.543   2.755   0.298
 6197SOL    HW119490   2.495   2.802   0.372
 6197SOL    HW219491   2.547   2.815   0.218
 6198SOL     OW19492   4.368   4.892   2.280
 6198SOL    HW119493   4.271   4.900   2.298
 6198SOL    HW219494   4.409   4.983   2.272
 6199SOL     OW19495   1.019   0.694   6.399
 6199SOL    HW119496   1.030   0.704   6.497
 6199SOL    HW219497   0.944   0.753   6.368
 6200SOL     OW19498   3.471   0.599   6.031
 6200SOL    HW119499   3.420   0.550   6.102
 6200SOL    HW219500   3.446   0.562   5.941
 6201SOL     OW19501   2.415   4.334   3.610
 6201SOL    HW119502   2.425   4.349   3.708
 6201SOL    HW219503   2.469   4.403   3.560
 6202SOL     OW19504   3.197   2.633   1.352
 6202SOL    HW119505   3.126   2.565   1.371
 6202SOL    HW219506   3.259   2.638   1.431
 6203SOL     OW19507   5.287   2.157   5.445
 6203SOL    HW119508   5.301   2.245   5.489
 6203SOL    HW219509   5.218   2.105   5.496
 6204SOL     OW19510   1.499   6.507   5.885
 6204SOL    HW119511   1.564   6.431   5.891
 6204SOL    HW219512   1.529   6.582   5.944
 6205SOL     OW19513   5.386   5.805   0.120
 6205SOL    HW119514   5.435   5.781   0.204
 6205SOL    HW219515   5.334   5.726   0.088
 6206SOL     OW19516   5.425   0.158   3.085
 6206SOL    HW119517   5.487   0.195   3.153
 6206SOL    HW219518   5.470   0.157   2.996
 6207SOL     OW19519   1.943   4.091   3.991
 6207SOL    HW119520   1.983   4.001   3.976
 6207SOL    HW219521   1.868   4.105   3.926
 6208SOL     OW19522   5.214   6.181   6.303
 6208SOL    HW119523   5.275   6.128   6.362
 6208SOL    HW219524   5.267   6.245   6.247
 6209SOL     OW19525   2.991   5.599   1.131
 6209SOL    HW119526   3.066   5.583   1.195
 6209SOL    HW219527   2.908   5.555   1.164
 6210SOL     OW19528   6.691   4.966   3.318
 6210SOL    HW119529   6.738   5.017   3.389
 6210SOL    HW219530   6.650   4.884   3.357
 6211SOL     OW19531   2.365   0.588   4.964
 6211SOL    HW119532   2.378   0.681   4.932
 6211SOL    HW219533   2.394   0.524   4.893
 6212SOL     OW19534   6.834   6.416   3.910
 6212SOL    HW119535   6.930   6.430   3.931
 6212SOL    HW219536   6.825   6.364   3.825
 6213SOL     OW19537   6.444   6.996   6.505
 6213SOL    HW119538   6.389   0.012   6.576
 6213SOL    HW219539   6.489   6.915   6.542
 6214SOL     OW19540   6.120   5.085   2.507
 6214SOL    HW119541   6.138   5.062   2.411
 6214SOL    HW219542   6.144   5.180   2.524
 6215SOL     OW19543   2.543   4.853   1.364
 6215SOL    HW119544   2.543   4.948   1.334
 6215SOL    HW219545   2.606   4.842   1.440
 6216SOL     OW19546   6.267   1.777   2.348
 6216SOL    HW119547   6.194   1.709   2.352
 6216SOL    HW219548   6.353   1.735   2.377
 6217SOL     OW19549   5.605   2.985   2.001
 6217SOL    HW119550   5.528   3.023   2.053
 6217SOL    HW219551   5.571   2.932   1.924
 6218SOL     OW19552   3.649   4.948   4.558
 6218SOL    HW119553   3.577   4.946   4.489
 6218SOL    HW219554   3.730   4.900   4.524
 6219SOL     OW19555   1.168   1.502   4.066
 6219SOL    HW119556   1.190   1.596   4.093
 6219SOL    HW219557   1.153   1.446   4.147
 6220SOL     OW19558   1.621   3.971   5.303
 6220SOL    HW119559   1.565   3.988   5.222
 6220SOL    HW219560   1.589   3.888   5.349
 6221SOL     OW19561   4.470   4.974   4.305
 6221SOL    HW119562   4.483   5.068   4.273
 6221SOL    HW219563   4.373   4.954   4.312
 6222SOL     OW19564   0.233   1.615   1.175
 6222SOL    HW119565   0.212   1.551   1.249
 6222SOL    HW219566   0.211   1.708   1.204
 6223SOL     OW19567   5.411   3.874   4.705
 6223SOL    HW119568   5.405   3.820   4.621
 6223SOL    HW219569   5.370   3.823   4.780
 6224SOL     OW19570   2.755   0.469   4.996
 6224SOL    HW119571   2.767   0.560   4.955
 6224SOL    HW219572   2.677   0.423   4.954
 6225SOL     OW19573   4.393   2.661   6.777
 6225SOL    HW119574   4.446   2.596   6.831
 6225SOL    HW219575   4.361   2.618   6.693
 6226SOL     OW19576   6.439   6.809   4.454
 6226SOL    HW119577   6.365   6.874   4.440
 6226SOL    HW219578   6.511   6.824   4.385
 6227SOL     OW19579   2.820   4.260   6.960
 6227SOL    HW119580   2.917   4.278   6.946
 6227SOL    HW219581   2.775   4.246   6.871
 6228SOL     OW19582   0.133   0.912   2.322
 6228SOL    HW119583   0.190   0.994   2.326
 6228SOL    HW219584   0.041   0.935   2.355
 6229SOL     OW19585   1.607   2.623   1.803
 6229SOL    HW119586   1.529   2.658   1.856
 6229SOL    HW219587   1.685   2.611   1.864
 6230SOL     OW19588   2.040   2.341   3.251
 6230SOL    HW119589   1.962   2.372   3.197
 6230SOL    HW219590   2.011   2.325   3.345
 6231SOL     OW19591   6.897   5.379   1.361
 6231SOL    HW119592   6.894   5.383   1.460
 6231SOL    HW219593   6.894   5.472   1.324
 6232SOL     OW19594   0.902   1.709   6.898
 6232SOL    HW119595   0.916   1.792   6.844
 6232SOL    HW219596   0.893   1.631   6.836
 6233SOL     OW19597   4.387   1.842   6.840
 6233SOL    HW119598   4.395   1.941   6.850
 6233SOL    HW219599   4.382   1.800   6.931
 6234SOL     OW19600   2.030   2.693   3.217
 6234SOL    HW119601   1.947   2.725   3.173
 6234SOL    HW219602   2.108   2.749   3.187
 6235SOL     OW19603   2.313   6.026   3.344
 6235SOL    HW119604   2.409   6.026   3.317
 6235SOL    HW219605   2.295   6.103   3.405
 6236SOL     OW19606   6.822   4.194   6.851
 6236SOL    HW119607   6.859   4.270   6.906
 6236SOL    HW219608   6.763   4.138   6.908
 6237SOL     OW19609   4.285   6.541   0.317
 6237SOL    HW119610   4.302   6.523   0.414
 6237SOL    HW219611   4.371   6.561   0.271
 6238SOL     OW19612   4.568   4.114   1.327
 6238SOL    HW119613   4.660   4.076   1.328
 6238SOL    HW219614   4.505   4.046   1.288
 6239SOL     OW19615   2.349   1.172   3.597
 6239SOL    HW119616   2.386   1.152   3.687
 6239SOL    HW219617   2.280   1.104   3.572
 6240SOL     OW19618   2.478   3.591   0.315
 6240SOL    HW119619   2.453   3.666   0.254
 6240SOL    HW219620   2.486   3.506   0.263
 6241SOL     OW19621   4.379   0.044   2.022
 6241SOL    HW119622   4.392   6.973   2.006
 6241SOL    HW219623   4.395   0.064   2.118
 6242SOL     OW19624   3.563   2.036   3.676
 6242SOL    HW119625   3.523   1.958   3.723
 6242SOL    HW219626   3.519   2.048   3.587
 6243SOL     OW19627   5.508   5.386   3.571
 6243SOL    HW119628   5.474   5.324   3.500
 6243SOL    HW219629   5.605   5.404   3.554
 6244SOL     OW19630   1.882   2.258   2.213
 6244SOL    HW119631   1.922   2.171   2.242
 6244SOL    HW219632   1.909   2.277   2.119
 6245SOL     OW19633   2.149   3.834   0.383
 6245SOL    HW119634   2.059   3.792   0.376
 6245SOL    HW219635   2.212   3.791   0.319
 6246SOL     OW19636   3.533   1.310   6.671
 6246SOL    HW119637   3.607   1.279   6.611
 6246SOL    HW219638   3.457   1.343   6.615
 6247SOL     OW19639   6.682   6.170   3.028
 6247SOL    HW119640   6.703   6.076   3.002
 6247SOL    HW219641   6.611   6.170   3.097
 6248SOL     OW19642   0.985   4.940   1.052
 6248SOL    HW119643   0.923   4.887   1.109
 6248SOL    HW219644   1.002   5.029   1.094
 6249SOL     OW19645   5.263   4.361   6.260
 6249SOL    HW119646   5.176   4.410   6.255
 6249SOL    HW219647   5.263   4.285   6.195
 6250SOL     OW19648   5.991   5.614   6.155
 6250SOL    HW119649   6.041   5.530   6.177
 6250SOL    HW219650   6.013   5.643   6.061
 6251SOL     OW19651   4.741   1.548   1.259
 6251SOL    HW119652   4.806   1.473   1.258
 6251SOL    HW219653   4.779   1.626   1.209
 6252SOL     OW19654   1.884   6.422   5.113
 6252SOL    HW119655   1.831   6.346   5.075
 6252SOL    HW219656   1.823   6.490   5.152
 6253SOL     OW19657   1.890   3.969   1.443
 6253SOL    HW119658   1.930   3.898   1.384
 6253SOL    HW219659   1.914   4.059   1.408
 6254SOL     OW19660   5.196   0.654   0.536
 6254SOL    HW119661   5.198   0.727   0.467
 6254SOL    HW219662   5.175   0.567   0.492
 6255SOL     OW19663   6.981   1.962   2.464
 6255SOL    HW119664   6.992   1.919   2.553
 6255SOL    HW219665   6.891   1.939   2.427
 6256SOL     OW19666   3.618   4.981   3.501
 6256SOL    HW119667   3.716   4.967   3.511
 6256SOL    HW219668   3.578   5.005   3.589
 6257SOL     OW19669   4.604   2.724   0.217
 6257SOL    HW119670   4.550   2.790   0.164
 6257SOL    HW219671   4.631   2.765   0.304
 6258SOL     OW19672   5.166   2.405   2.840
 6258SOL    HW119673   5.257   2.411   2.883
 6258SOL    HW219674   5.149   2.311   2.812
 6259SOL     OW19675   2.983   2.273   1.634
 6259SOL    HW119676   2.987   2.371   1.655
 6259SOL    HW219677   2.932   2.226   1.706
 6260SOL     OW19678   3.617   3.655   0.745
 6260SOL    HW119679   3.694   3.637   0.684
 6260SOL    HW219680   3.567   3.735   0.713
 6261SOL     OW19681   4.636   0.708   6.748
 6261SOL    HW119682   4.608   0.780   6.685
 6261SOL    HW219683   4.649   0.747   6.839
 6262SOL     OW19684   0.459   6.096   5.414
 6262SOL    HW119685   0.551   6.128   5.392
 6262SOL    HW219686   0.463   5.999   5.440
 6263SOL     OW19687   6.624   1.094   0.818
 6263SOL    HW119688   6.568   1.110   0.737
 6263SOL    HW219689   6.629   1.179   0.872
 6264SOL     OW19690   1.832   1.243   6.641
 6264SOL    HW119691   1.794   1.332   6.667
 6264SOL    HW219692   1.894   1.255   6.563
 6265SOL     OW19693   4.839   3.513   1.131
 6265SOL    HW119694   4.795   3.592   1.174
 6265SOL    HW219695   4.916   3.545   1.075
 6266SOL     OW19696   2.322   6.854   1.952
 6266SOL    HW119697   2.358   6.933   1.902
 6266SOL    HW219698   2.393   6.785   1.961
 6267SOL     OW19699   2.509   6.834   6.970
 6267SOL    HW119700   2.430   6.802   7.022
 6267SOL    HW219701   2.522   6.932   6.986
 6268SOL     OW19702   2.937   5.053   2.517
 6268SOL    HW119703   2.902   5.042   2.424
 6268SOL    HW219704   2.869   5.099   2.573
 6269SOL     OW19705   5.838   4.866   0.307
 6269SOL    HW119706   5.857   4.943   0.246
 6269SOL    HW219707   5.897   4.872   0.388
 6270SOL     OW19708   0.628   1.566   4.513
 6270SOL    HW119709   0.580   1.534   4.595
 6270SOL    HW219710   0.700   1.501   4.489
 6271SOL     OW19711   6.121   1.927   0.877
 6271SOL    HW119712   6.198   1.936   0.940
 6271SOL    HW219713   6.151   1.949   0.784
 6272SOL     OW19714   1.673   2.206   3.375
 6272SOL    HW119715   1.770   2.227   3.388
 6272SOL    HW219716   1.651   2.120   3.422
 6273SOL     OW19717   3.787   0.295   2.211
 6273SOL    HW119718   3.853   0.354   2.258
 6273SOL    HW219719   3.820   0.275   2.119
 6274SOL     OW19720   3.161   6.311   6.678
 6274SOL    HW119721   3.063   6.307   6.697
 6274SOL    HW219722   3.196   6.219   6.657
 6275SOL     OW19723   2.586   0.577   4.378
 6275SOL    HW119724   2.506   0.580   4.317
 6275SOL    HW219725   2.659   0.634   4.339
 6276SOL     OW19726   1.384   5.165   4.034
 6276SOL    HW119727   1.385   5.067   4.016
 6276SOL    HW219728   1.412   5.182   4.128
 6277SOL     OW19729   5.722   3.106   3.785
 6277SOL    HW119730   5.791   3.056   3.838
 6277SOL    HW219731   5.660   3.153   3.847
 6278SOL     OW19732   5.082   0.709   4.098
 6278SOL    HW119733   5.130   0.658   4.027
 6278SOL    HW219734   5.092   0.807   4.080
 6279SOL     OW19735   4.895   1.742   6.842
 6279SOL    HW119736   4.876   1.838   6.863
 6279SOL    HW219737   4.878   1.686   6.922
 6280SOL     OW19738   0.778   5.313   6.130
 6280SOL    HW119739   0.720   5.274   6.058
 6280SOL    HW219740   0.867   5.338   6.091
 6281SOL     OW19741   2.766   6.719   5.187
 6281SOL    HW119742   2.669   6.719   5.211
 6281SOL    HW219743   2.778   6.748   5.093
 6282SOL     OW19744   1.827   6.964   3.507
 6282SOL    HW119745   1.744   6.923   3.470
 6282SOL    HW219746   1.846   0.023   3.460
 6283SOL     OW19747   0.537   3.029   5.005
 6283SOL    HW119748   0.503   2.956   4.947
 6283SOL    HW219749   0.635   3.042   4.990
 6284SOL     OW19750   1.899   4.590   6.601
 6284SOL    HW119751   1.903   4.559   6.695
 6284SOL    HW219752   1.834   4.534   6.549
 6285SOL     OW19753   1.850   4.603   2.759
 6285SOL    HW119754   1.780   4.540   2.725
 6285SOL    HW219755   1.937   4.584   2.713
 6286SOL     OW19756   5.820   0.168   4.845
 6286SOL    HW119757   5.779   0.249   4.887
 6286SOL    HW219758   5.768   0.141   4.764
 6287SOL     OW19759   4.340   4.657   2.084
 6287SOL    HW119760   4.330   4.717   2.164
 6287SOL    HW219761   4.365   4.565   2.114
 6288SOL     OW19762   5.227   4.027   1.400
 6288SOL    HW119763   5.177   4.068   1.323
 6288SOL    HW219764   5.318   4.000   1.370
 6289SOL     OW19765   1.395   0.256   2.693
 6289SOL    HW119766   1.405   0.225   2.599
 6289SOL    HW219767   1.302   0.238   2.725
 6290SOL     OW19768   6.056   3.065   3.284
 6290SOL    HW119769   6.043   3.018   3.371
 6290SOL    HW219770   6.137   3.028   3.238
 6291SOL     OW19771   3.926   3.915   3.091
 6291SOL    HW119772   3.970   3.936   3.178
 6291SOL    HW219773   3.867   3.835   3.101
 6292SOL     OW19774   6.643   1.708   1.896
 6292SOL    HW119775   6.691   1.621   1.888
 6292SOL    HW219776   6.701   1.782   1.862
 6293SOL     OW19777   4.885   5.272   0.604
 6293SOL    HW119778   4.952   5.308   0.668
 6293SOL    HW219779   4.802   5.245   0.654
 6294SOL     OW19780   3.794   5.259   2.609
 6294SOL    HW119781   3.727   5.331   2.625
 6294SOL    HW219782   3.762   5.173   2.650
 6295SOL     OW19783   6.637   6.331   5.695
 6295SOL    HW119784   6.656   6.329   5.597
 6295SOL    HW219785   6.538   6.338   5.710
 6296SOL     OW19786   6.684   0.766   2.333
 6296SOL    HW119787   6.632   0.776   2.249
 6296SOL    HW219788   6.752   0.693   2.322
 6297SOL     OW19789   5.658   0.771   5.936
 6297SOL    HW119790   5.558   0.765   5.940
 6297SOL    HW219791   5.693   0.797   6.026
 6298SOL     OW19792   0.208   1.904   4.223
 6298SOL    HW119793   0.271   1.828   4.241
 6298SOL    HW219794   0.114   1.872   4.230
 6299SOL     OW19795   6.281   3.347   0.205
 6299SOL    HW119796   6.376   3.373   0.222
 6299SOL    HW219797   6.220   3.414   0.249
 6300SOL     OW19798   5.005   1.516   3.976
 6300SOL    HW119799   5.085   1.572   3.958
 6300SOL    HW219800   5.019   1.463   4.060
 6301SOL     OW19801   3.272   0.681   0.906
 6301SOL    HW119802   3.352   0.649   0.957
 6301SOL    HW219803   3.196   0.617   0.918
 6302SOL     OW19804   0.107   0.939   2.966
 6302SOL    HW119805   0.047   0.896   2.897
 6302SOL    HW219806   0.165   0.869   3.007
 6303SOL     OW19807   2.117   5.979   5.162
 6303SOL    HW119808   2.165   5.980   5.075
 6303SOL    HW219809   2.103   6.073   5.194
 6304SOL     OW19810   4.052   1.065   5.474
 6304SOL    HW119811   4.014   1.140   5.529
 6304SOL    HW219812   4.057   0.982   5.530
 6305SOL     OW19813   5.582   1.102   2.360
 6305SOL    HW119814   5.631   1.023   2.322
 6305SOL    HW219815   5.489   1.104   2.323
 6306SOL     OW19816   5.849   3.023   4.586
 6306SOL    HW119817   5.832   3.090   4.658
 6306SOL    HW219818   5.770   2.961   4.579
 6307SOL     OW19819   2.521   4.420   0.358
 6307SOL    HW119820   2.614   4.440   0.389
 6307SOL    HW219821   2.524   4.355   0.282
 6308SOL     OW19822   3.373   2.006   5.592
 6308SOL    HW119823   3.338   2.018   5.499
 6308SOL    HW219824   3.371   1.909   5.616
 6309SOL     OW19825   5.535   2.001   5.002
 6309SOL    HW119826   5.477   1.923   4.978
 6309SOL    HW219827   5.479   2.072   5.045
 6310SOL     OW19828   0.856   4.784   4.750
 6310SOL    HW119829   0.883   4.731   4.670
 6310SOL    HW219830   0.766   4.824   4.735
 6311SOL     OW19831   6.192   6.182   4.050
 6311SOL    HW119832   6.101   6.169   4.088
 6311SOL    HW219833   6.243   6.096   4.052
 6312SOL     OW19834   5.142   4.820   5.865
 6312SOL    HW119835   5.102   4.747   5.810
 6312SOL    HW219836   5.226   4.787   5.909
 6313SOL     OW19837   2.762   5.265   3.674
 6313SOL    HW119838   2.688   5.246   3.610
 6313SOL    HW219839   2.843   5.213   3.647
 6314SOL     OW19840   2.372   6.805   3.992
 6314SOL    HW119841   2.410   6.895   4.013
 6314SOL    HW219842   2.405   6.775   3.903
 6315SOL     OW19843   2.528   4.066   0.443
 6315SOL    HW119844   2.558   4.112   0.360
 6315SOL    HW219845   2.607   4.028   0.491
 6316SOL     OW19846   5.025   1.625   5.981
 6316SOL    HW119847   5.065   1.615   5.890
 6316SOL    HW219848   5.059   1.708   6.025
 6317SOL     OW19849   6.141   5.872   4.304
 6317SOL    HW119850   6.103   5.889   4.213
 6317SOL    HW219851   6.233   5.834   4.295
 6318SOL     OW19852   2.123   2.004   4.653
 6318SOL    HW119853   2.151   2.025   4.747
 6318SOL    HW219854   2.061   2.075   4.621
 6319SOL     OW19855   0.472   1.724   2.973
 6319SOL    HW119856   0.553   1.696   2.921
 6319SOL    HW219857   0.493   1.725   3.071
 6320SOL     OW19858   6.873   1.706   3.327
 6320SOL    HW119859   6.815   1.651   3.268
 6320SOL    HW219860   6.969   1.679   3.316
 6321SOL     OW19861   2.460   3.915   6.040
 6321SOL    HW119862   2.465   3.817   6.021
 6321SOL    HW219863   2.551   3.948   6.066
 6322SOL     OW19864   1.274   0.690   6.860
 6322SOL    HW119865   1.301   0.755   6.790
 6322SOL    HW219866   1.258   0.600   6.818
 6323SOL     OW19867   4.468   1.581   1.399
 6323SOL    HW119868   4.435   1.596   1.492
 6323SOL    HW219869   4.563   1.612   1.391
 6324SOL     OW19870   4.520   2.343   6.638
 6324SOL    HW119871   4.492   2.293   6.720
 6324SOL    HW219872   4.615   2.375   6.649
 6325SOL     OW19873   1.272   2.618   2.446
 6325SOL    HW119874   1.226   2.706   2.431
 6325SOL    HW219875   1.303   2.581   2.359
 6326SOL     OW19876   4.291   6.320   1.299
 6326SOL    HW119877   4.351   6.398   1.282
 6326SOL    HW219878   4.346   6.239   1.318
 6327SOL     OW19879   3.782   5.534   5.913
 6327SOL    HW119880   3.725   5.540   5.831
 6327SOL    HW219881   3.736   5.580   5.989
 6328SOL     OW19882   3.081   4.338   6.889
 6328SOL    HW119883   3.100   4.407   6.819
 6328SOL    HW219884   3.147   4.350   6.964
 6329SOL     OW19885   1.657   1.556   2.314
 6329SOL    HW119886   1.589   1.617   2.275
 6329SOL    HW219887   1.684   1.590   2.404
 6330SOL     OW19888   3.590   0.868   0.246
 6330SOL    HW119889   3.639   0.826   0.170
 6330SOL    HW219890   3.492   0.849   0.239
 6331SOL     OW19891   5.671   2.983   2.533
 6331SOL    HW119892   5.687   3.073   2.574
 6331SOL    HW219893   5.673   2.992   2.434
 6332SOL     OW19894   4.597   6.497   2.505
 6332SOL    HW119895   4.553   6.461   2.587
 6332SOL    HW219896   4.684   6.541   2.530
 6333SOL     OW19897   2.340   5.199   3.050
 6333SOL    HW119898   2.301   5.141   2.979
 6333SOL    HW219899   2.411   5.258   3.011
 6334SOL     OW19900   2.698   2.045   2.352
 6334SOL    HW119901   2.729   2.032   2.258
 6334SOL    HW219902   2.618   1.987   2.369
 6335SOL     OW19903   0.307   1.582   6.919
 6335SOL    HW119904   0.300   1.656   6.852
 6335SOL    HW219905   0.225   1.582   6.977
 6336SOL     OW19906   0.841   2.912   4.952
 6336SOL    HW119907   0.847   2.970   4.870
 6336SOL    HW219908   0.887   2.958   5.028
 6337SOL     OW19909   6.989   4.917   5.139
 6337SOL    HW119910   6.973   5.010   5.171
 6337SOL    HW219911   6.932   4.853   5.192
 6338SOL     OW19912   3.618   1.146   4.237
 6338SOL    HW119913   3.548   1.214   4.261
 6338SOL    HW219914   3.682   1.186   4.172
 6339SOL     OW19915   0.541   2.801   4.815
 6339SOL    HW119916   0.445   2.782   4.837
 6339SOL    HW219917   0.597   2.722   4.838
 6340SOL     OW19918   2.503   5.397   4.114
 6340SOL    HW119919   2.433   5.328   4.129
 6340SOL    HW219920   2.590   5.352   4.092
 6341SOL     OW19921   6.607   5.021   2.367
 6341SOL    HW119922   6.516   5.031   2.329
 6341SOL    HW219923   6.672   5.075   2.313
 6342SOL     OW19924   1.500   3.586   1.026
 6342SOL    HW119925   1.560   3.563   0.949
 6342SOL    HW219926   1.516   3.681   1.053
 6343SOL     OW19927   4.223   0.836   0.260
 6343SOL    HW119928   4.247   0.799   0.349
 6343SOL    HW219929   4.307   0.854   0.208
 6344SOL     OW19930   7.014   5.018   4.450
 6344SOL    HW119931   6.942   5.019   4.520
 6344SOL    HW219932   0.037   4.931   4.455
 6345SOL     OW19933   2.662   2.363   2.178
 6345SOL    HW119934   2.716   2.371   2.262
 6345SOL    HW219935   2.724   2.360   2.099
 6346SOL     OW19936   0.738   5.339   4.390
 6346SOL    HW119937   0.645   5.303   4.392
 6346SOL    HW219938   0.803   5.264   4.389
 6347SOL     OW19939   2.680   0.163   1.171
 6347SOL    HW119940   2.594   0.203   1.202
 6347SOL    HW219941   2.746   0.165   1.246
 6348SOL     OW19942   0.804   2.441   4.875
 6348SOL    HW119943   0.893   2.414   4.910
 6348SOL    HW219944   0.758   2.361   4.836
 6349SOL     OW19945   2.112   0.811   0.278
 6349SOL    HW119946   2.052   0.770   0.209
 6349SOL    HW219947   2.063   0.818   0.365
 6350SOL     OW19948   0.845   5.685   3.011
 6350SOL    HW119949   0.869   5.588   3.015
 6350SOL    HW219950   0.763   5.697   2.955
 6351SOL     OW19951   6.829   1.205   3.166
 6351SOL    HW119952   6.870   1.251   3.245
 6351SOL    HW219953   6.752   1.260   3.132
 6352SOL     OW19954   6.969   5.705   2.537
 6352SOL    HW119955   6.966   5.774   2.464
 6352SOL    HW219956   6.977   5.751   2.625
 6353SOL     OW19957   0.172   6.681   1.973
 6353SOL    HW119958   0.088   6.673   1.921
 6353SOL    HW219959   0.154   6.661   2.069
 6354SOL     OW19960   6.952   6.814   4.344
 6354SOL    HW119961   6.874   6.874   4.366
 6354SOL    HW219962   6.939   6.725   4.388
 6355SOL     OW19963   1.018   2.566   2.179
 6355SOL    HW119964   0.988   2.648   2.229
 6355SOL    HW219965   1.012   2.486   2.239
 6356SOL     OW19966   3.356   2.480   0.681
 6356SOL    HW119967   3.396   2.571   0.687
 6356SOL    HW219968   3.328   2.463   0.586
 6357SOL     OW19969   5.013   1.884   0.689
 6357SOL    HW119970   5.028   1.952   0.616
 6357SOL    HW219971   4.937   1.913   0.747
 6358SOL     OW19972   0.844   2.882   3.756
 6358SOL    HW119973   0.817   2.894   3.851
 6358SOL    HW219974   0.893   2.963   3.724
 6359SOL     OW19975   0.074   1.569   6.653
 6359SOL    HW119976   0.012   1.624   6.709
 6359SOL    HW219977   0.167   1.575   6.689
 6360SOL     OW19978   3.323   5.350   4.289
 6360SOL    HW119979   3.259   5.285   4.246
 6360SOL    HW219980   3.280   5.390   4.370
 6361SOL     OW19981   3.367   6.693   6.094
 6361SOL    HW119982   3.306   6.633   6.146
 6361SOL    HW219983   3.325   6.783   6.084
 6362SOL     OW19984   6.569   5.332   6.275
 6362SOL    HW119985   6.534   5.344   6.182
 6362SOL    HW219986   6.612   5.417   6.305
 6363SOL     OW19987   1.138   5.921   4.487
 6363SOL    HW119988   1.144   5.987   4.563
 6363SOL    HW219989   1.219   5.931   4.429
 6364SOL     OW19990   1.832   2.644   6.583
 6364SOL    HW119991   1.873   2.553   6.578
 6364SOL    HW219992   1.846   2.682   6.675
 6365SOL     OW19993   4.933   5.369   2.929
 6365SOL    HW119994   4.863   5.318   2.979
 6365SOL    HW219995   4.938   5.334   2.835
 6366SOL     OW19996   0.307   4.536   5.261
 6366SOL    HW119997   0.256   4.467   5.209
 6366SOL    HW219998   0.283   4.627   5.228
 6367SOL     OW19999   6.175   6.093   2.604
 6367SOL    HW120000   6.108   6.151   2.650
 6367SOL    HW220001   6.134   6.004   2.582
 6368SOL     OW20002   3.477   0.518   3.226
 6368SOL    HW120003   3.463   0.518   3.325
 6368SOL    HW220004   3.560   0.569   3.204
 6369SOL     OW20005   2.025   5.041   5.613
 6369SOL    HW120006   2.067   5.127   5.582
 6369SOL    HW220007   2.045   4.968   5.548
 6370SOL     OW20008   5.743   2.508   2.155
 6370SOL    HW120009   5.818   2.563   2.192
 6370SOL    HW220010   5.714   2.547   2.067
 6371SOL     OW20011   4.430   1.538   3.839
 6371SOL    HW120012   4.428   1.576   3.931
 6371SOL    HW220013   4.464   1.444   3.842
 6372SOL     OW20014   2.933   6.278   2.367
 6372SOL    HW120015   2.929   6.221   2.285
 6372SOL    HW220016   3.028   6.308   2.381
 6373SOL     OW20017   3.613   4.780   0.494
 6373SOL    HW120018   3.528   4.753   0.451
 6373SOL    HW220019   3.689   4.730   0.454
 6374SOL     OW20020   2.973   3.304   2.512
 6374SOL    HW120021   3.003   3.224   2.564
 6374SOL    HW220022   3.035   3.320   2.436
 6375SOL     OW20023   1.318   5.871   2.463
 6375SOL    HW120024   1.257   5.809   2.413
 6375SOL    HW220025   1.305   5.859   2.561
 6376SOL     OW20026   0.494   2.725   5.183
 6376SOL    HW120027   0.430   2.649   5.169
 6376SOL    HW220028   0.582   2.702   5.142
 6377SOL     OW20029   0.796   1.806   4.151
 6377SOL    HW120030   0.796   1.706   4.150
 6377SOL    HW220031   0.831   1.838   4.239
 6378SOL     OW20032   4.628   4.726   3.452
 6378SOL    HW120033   4.562   4.800   3.437
 6378SOL    HW220034   4.597   4.669   3.528
 6379SOL     OW20035   2.336   4.818   2.010
 6379SOL    HW120036   2.394   4.747   1.970
 6379SOL    HW220037   2.363   4.907   1.973
 6380SOL     OW20038   1.115   0.715   6.035
 6380SOL    HW120039   1.063   0.629   6.039
 6380SOL    HW220040   1.210   0.696   6.008
 6381SOL     OW20041   2.824   3.420   1.882
 6381SOL    HW120042   2.881   3.339   1.866
 6381SOL    HW220043   2.874   3.485   1.939
 6382SOL     OW20044   1.246   4.503   5.049
 6382SOL    HW120045   1.299   4.450   5.115
 6382SOL    HW220046   1.205   4.582   5.094
 6383SOL     OW20047   4.096   1.505   3.873
 6383SOL    HW120048   4.046   1.584   3.837
 6383SOL    HW220049   4.193   1.514   3.851
 6384SOL     OW20050   6.833   4.449   2.591
 6384SOL    HW120051   6.752   4.424   2.537
 6384SOL    HW220052   6.811   4.524   2.653
 6385SOL     OW20053   0.646   5.708   4.572
 6385SOL    HW120054   0.600   5.651   4.504
 6385SOL    HW220055   0.602   5.694   4.662
 6386SOL     OW20056   2.565   5.606   1.579
 6386SOL    HW120057   2.664   5.598   1.588
 6386SOL    HW220058   2.539   5.587   1.484
 6387SOL     OW20059   6.777   1.718   5.314
 6387SOL    HW120060   6.755   1.623   5.338
 6387SOL    HW220061   6.820   1.762   5.393
 6388SOL     OW20062   2.509   4.902   2.754
 6388SOL    HW120063   2.586   4.868   2.700
 6388SOL    HW220064   2.467   4.826   2.803
 6389SOL     OW20065   1.009   4.832   1.514
 6389SOL    HW120066   1.058   4.919   1.508
 6389SOL    HW220067   1.002   4.791   1.423
 6390SOL     OW20068   0.689   2.848   4.079
 6390SOL    HW120069   0.645   2.821   4.165
 6390SOL    HW220070   0.630   2.914   4.031
 6391SOL     OW20071   3.642   0.833   6.763
 6391SOL    HW120072   3.667   0.844   6.666
 6391SOL    HW220073   3.568   0.896   6.785
 6392SOL     OW20074   1.488   6.315   4.341
 6392SOL    HW120075   1.452   6.342   4.431
 6392SOL    HW220076   1.417   6.265   4.292
 6393SOL     OW20077   5.466   1.215   0.791
 6393SOL    HW120078   5.539   1.176   0.848
 6393SOL    HW220079   5.461   1.314   0.807
 6394SOL     OW20080   3.329   4.845   1.921
 6394SOL    HW120081   3.390   4.777   1.879
 6394SOL    HW220082   3.254   4.798   1.966
 6395SOL     OW20083   6.228   1.925   0.632
 6395SOL    HW120084   6.141   1.944   0.587
 6395SOL    HW220085   6.265   1.838   0.598
 6396SOL     OW20086   6.112   3.812   5.339
 6396SOL    HW120087   6.085   3.873   5.414
 6396SOL    HW220088   6.187   3.753   5.370
 6397SOL     OW20089   6.566   0.959   0.130
 6397SOL    HW120090   6.586   0.861   0.127
 6397SOL    HW220091   6.647   1.011   0.104
 6398SOL     OW20092   4.020   0.882   1.514
 6398SOL    HW120093   4.068   0.797   1.536
 6398SOL    HW220094   3.983   0.877   1.422
 6399SOL     OW20095   2.402   6.156   6.562
 6399SOL    HW120096   2.440   6.089   6.625
 6399SOL    HW220097   2.315   6.121   6.525
 6400SOL     OW20098   2.815   5.026   4.384
 6400SOL    HW120099   2.802   4.980   4.472
 6400SOL    HW220100   2.731   5.074   4.358
 6401SOL     OW20101   1.263   4.336   4.844
 6401SOL    HW120102   1.250   4.401   4.919
 6401SOL    HW220103   1.352   4.351   4.801
 6402SOL     OW20104   1.871   2.468   3.054
 6402SOL    HW120105   1.854   2.566   3.043
 6402SOL    HW220106   1.943   2.439   2.991
 6403SOL     OW20107   0.997   6.414   1.481
 6403SOL    HW120108   1.068   6.411   1.411
 6403SOL    HW220109   1.010   6.494   1.539
 6404SOL     OW20110   4.965   1.003   3.403
 6404SOL    HW120111   4.949   1.093   3.360
 6404SOL    HW220112   4.881   0.973   3.447
 6405SOL     OW20113   3.232   1.146   1.173
 6405SOL    HW120114   3.202   1.052   1.187
 6405SOL    HW220115   3.159   1.197   1.128
 6406SOL     OW20116   2.809   1.692   3.633
 6406SOL    HW120117   2.847   1.748   3.559
 6406SOL    HW220118   2.778   1.605   3.596
 6407SOL     OW20119   4.663   6.063   6.305
 6407SOL    HW120120   4.669   6.088   6.401
 6407SOL    HW220121   4.688   5.967   6.294
 6408SOL     OW20122   6.036   2.085   0.343
 6408SOL    HW120123   6.114   2.026   0.321
 6408SOL    HW220124   5.978   2.038   0.410
 6409SOL     OW20125   1.219   4.721   1.873
 6409SOL    HW120126   1.208   4.820   1.866
 6409SOL    HW220127   1.310   4.700   1.907
 6410SOL     OW20128   1.266   1.185   1.968
 6410SOL    HW120129   1.365   1.176   1.980
 6410SOL    HW220130   1.219   1.140   2.044
 6411SOL     OW20131   1.599   0.928   3.533
 6411SOL    HW120132   1.658   0.951   3.611
 6411SOL    HW220133   1.588   1.009   3.476
 6412SOL     OW20134   6.537   2.907   4.398
 6412SOL    HW120135   6.461   2.865   4.448
 6412SOL    HW220136   6.619   2.851   4.409
 6413SOL     OW20137   0.391   4.659   0.614
 6413SOL    HW120138   0.330   4.733   0.587
 6413SOL    HW220139   0.439   4.624   0.534
 6414SOL     OW20140   6.157   6.672   2.842
 6414SOL    HW120141   6.067   6.714   2.832
 6414SOL    HW220142   6.170   6.643   2.937
 6415SOL     OW20143   1.524   1.751   2.212
 6415SOL    HW120144   1.596   1.793   2.156
 6415SOL    HW220145   1.447   1.814   2.220
 6416SOL     OW20146   2.235   6.364   6.142
 6416SOL    HW120147   2.266   6.448   6.096
 6416SOL    HW220148   2.313   6.322   6.190
 6417SOL     OW20149   0.484   6.636   3.371
 6417SOL    HW120150   0.578   6.606   3.351
 6417SOL    HW220151   0.464   6.718   3.317
 6418SOL     OW20152   6.687   5.757   2.697
 6418SOL    HW120153   6.779   5.756   2.737
 6418SOL    HW220154   6.658   5.664   2.676
 6419SOL     OW20155   2.617   3.509   1.053
 6419SOL    HW120156   2.560   3.433   1.021
 6419SOL    HW220157   2.667   3.482   1.135
 6420SOL     OW20158   1.018   3.140   6.656
 6420SOL    HW120159   1.003   3.239   6.656
 6420SOL    HW220160   1.027   3.107   6.562
 6421SOL     OW20161   6.110   2.342   0.422
 6421SOL    HW120162   6.160   2.361   0.506
 6421SOL    HW220163   6.085   2.246   0.419
 6422SOL     OW20164   5.926   2.401   3.533
 6422SOL    HW120165   5.910   2.314   3.579
 6422SOL    HW220166   6.014   2.439   3.562
 6423SOL     OW20167   4.475   4.229   1.001
 6423SOL    HW120168   4.556   4.176   0.979
 6423SOL    HW220169   4.466   4.306   0.938
 6424SOL     OW20170   6.743   4.481   5.215
 6424SOL    HW120171   6.673   4.480   5.287
 6424SOL    HW220172   6.831   4.505   5.256
 6425SOL     OW20173   0.788   5.121   1.403
 6425SOL    HW120174   0.727   5.074   1.339
 6425SOL    HW220175   0.773   5.087   1.495
 6426SOL     OW20176   6.839   2.880   3.079
 6426SOL    HW120177   6.768   2.927   3.130
 6426SOL    HW220178   6.863   2.795   3.125
 6427SOL     OW20179   1.244   2.935   6.089
 6427SOL    HW120180   1.148   2.953   6.068
 6427SOL    HW220181   1.302   2.994   6.033
 6428SOL     OW20182   6.763   3.072   3.928
 6428SOL    HW120183   6.664   3.064   3.932
 6428SOL    HW220184   6.788   3.169   3.922
 6429SOL     OW20185   0.764   1.418   4.956
 6429SOL    HW120186   0.857   1.384   4.943
 6429SOL    HW220187   0.766   1.506   5.002
 6430SOL     OW20188   6.335   3.489   6.900
 6430SOL    HW120189   6.420   3.481   6.848
 6430SOL    HW220190   6.284   3.403   6.892
 6431SOL     OW20191   5.445   1.128   3.301
 6431SOL    HW120192   5.365   1.069   3.312
 6431SOL    HW220193   5.494   1.103   3.217
 6432SOL     OW20194   5.881   3.354   0.418
 6432SOL    HW120195   5.818   3.278   0.397
 6432SOL    HW220196   5.886   3.415   0.340
 6433SOL     OW20197   2.509   3.620   1.511
 6433SOL    HW120198   2.463   3.677   1.444
 6433SOL    HW220199   2.595   3.663   1.539
 6434SOL     OW20200   1.848   5.214   0.046
 6434SOL    HW120201   1.842   5.178   6.980
 6434SOL    HW220202   1.934   5.184   0.088
 6435SOL     OW20203   4.545   4.010   0.643
 6435SOL    HW120204   4.619   4.032   0.707
 6435SOL    HW220205   4.580   4.013   0.550
 6436SOL     OW20206   1.560   2.298   2.244
 6436SOL    HW120207   1.495   2.332   2.177
 6436SOL    HW220208   1.651   2.333   2.224
 6437SOL     OW20209   0.261   0.747   6.623
 6437SOL    HW120210   0.346   0.709   6.586
 6437SOL    HW220211   0.195   0.674   6.640
 6438SOL     OW20212   0.995   3.675   4.106
 6438SOL    HW120213   0.997   3.603   4.036
 6438SOL    HW220214   0.905   3.719   4.106
 6439SOL     OW20215   0.366   6.211   2.068
 6439SOL    HW120216   0.407   6.188   2.156
 6439SOL    HW220217   0.437   6.242   2.005
 6440SOL     OW20218   0.514   0.729   1.722
 6440SOL    HW120219   0.461   0.709   1.640
 6440SOL    HW220220   0.509   0.826   1.743
 6441SOL     OW20221   3.878   1.725   3.151
 6441SOL    HW120222   3.953   1.659   3.153
 6441SOL    HW220223   3.882   1.784   3.232
 6442SOL     OW20224   3.334   0.280   3.102
 6442SOL    HW120225   3.374   0.361   3.144
 6442SOL    HW220226   3.297   0.220   3.173
 6443SOL     OW20227   2.377   0.862   0.327
 6443SOL    HW120228   2.401   0.876   0.423
 6443SOL    HW220229   2.280   0.837   0.321
 6444SOL     OW20230   0.291   0.849   3.214
 6444SOL    HW120231   0.375   0.901   3.203
 6444SOL    HW220232   0.241   0.884   3.293
 6445SOL     OW20233   3.653   4.031   5.478
 6445SOL    HW120234   3.690   3.990   5.561
 6445SOL    HW220235   3.591   4.106   5.503
 6446SOL     OW20236   6.906   2.162   0.900
 6446SOL    HW120237   6.838   2.173   0.828
 6446SOL    HW220238   6.920   2.249   0.947
 6447SOL     OW20239   1.661   0.033   3.045
 6447SOL    HW120240   1.575   0.024   3.096
 6447SOL    HW220241   1.651   0.103   2.974
 6448SOL     OW20242   6.624   2.199   2.247
 6448SOL    HW120243   6.605   2.260   2.171
 6448SOL    HW220244   6.618   2.250   2.333
 6449SOL     OW20245   3.779   2.753   1.011
 6449SOL    HW120246   3.839   2.695   1.066
 6449SOL    HW220247   3.705   2.696   0.973
 6450SOL     OW20248   0.016   3.293   6.491
 6450SOL    HW120249   6.973   3.223   6.476
 6450SOL    HW220250   7.006   3.382   6.466
 6451SOL     OW20251   2.590   6.164   3.849
 6451SOL    HW120252   2.582   6.240   3.913
 6451SOL    HW220253   2.676   6.116   3.866
 6452SOL     OW20254   4.273   6.235   3.822
 6452SOL    HW120255   4.319   6.199   3.741
 6452SOL    HW220256   4.181   6.267   3.796
 6453SOL     OW20257   2.191   4.433   6.493
 6453SOL    HW120258   2.103   4.458   6.453
 6453SOL    HW220259   2.228   4.354   6.444
 6454SOL     OW20260   3.739   0.940   4.860
 6454SOL    HW120261   3.752   1.033   4.895
 6454SOL    HW220262   3.657   0.900   4.901
 6455SOL     OW20263   5.908   3.119   5.915
 6455SOL    HW120264   5.951   3.031   5.935
 6455SOL    HW220265   5.949   3.159   5.833
 6456SOL     OW20266   6.921   1.060   5.072
 6456SOL    HW120267   6.845   1.059   5.007
 6456SOL    HW220268   7.005   1.089   5.025
 6457SOL     OW20269   6.317   2.572   2.467
 6457SOL    HW120270   6.405   2.595   2.424
 6457SOL    HW220271   6.262   2.655   2.477
 6458SOL     OW20272   1.587   6.403   3.336
 6458SOL    HW120273   1.534   6.392   3.420
 6458SOL    HW220274   1.590   6.316   3.287
 6459SOL     OW20275   5.048   4.948   0.691
 6459SOL    HW120276   5.096   5.004   0.624
 6459SOL    HW220277   4.951   4.942   0.667
 6460SOL     OW20278   3.069   4.846   1.024
 6460SOL    HW120279   3.025   4.767   0.980
 6460SOL    HW220280   3.002   4.895   1.079
 6461SOL     OW20281   3.126   5.818   5.596
 6461SOL    HW120282   3.171   5.853   5.513
 6461SOL    HW220283   3.056   5.883   5.626
 6462SOL     OW20284   2.086   2.988   3.381
 6462SOL    HW120285   2.050   3.013   3.291
 6462SOL    HW220286   2.078   3.066   3.443
 6463SOL     OW20287   1.142   4.231   5.366
 6463SOL    HW120288   1.153   4.139   5.331
 6463SOL    HW220289   1.056   4.237   5.417
 6464SOL     OW20290   1.282   5.583   2.738
 6464SOL    HW120291   1.321   5.496   2.706
 6464SOL    HW220292   1.221   5.566   2.815
 6465SOL     OW20293   6.237   0.841   3.072
 6465SOL    HW120294   6.219   0.899   3.152
 6465SOL    HW220295   6.329   0.802   3.080
 6466SOL     OW20296   0.110   2.918   5.388
 6466SOL    HW120297   0.085   2.970   5.470
 6466SOL    HW220298   0.069   2.961   5.308
 6467SOL     OW20299   3.000   0.768   5.882
 6467SOL    HW120300   2.996   0.823   5.966
 6467SOL    HW220301   2.994   0.829   5.803
 6468SOL     OW20302   5.140   4.539   1.664
 6468SOL    HW120303   5.128   4.638   1.655
 6468SOL    HW220304   5.231   4.519   1.700
 6469SOL     OW20305   6.419   0.988   5.891
 6469SOL    HW120306   6.463   0.926   5.956
 6469SOL    HW220307   6.486   1.055   5.858
 6470SOL     OW20308   6.515   6.035   4.836
 6470SOL    HW120309   6.481   5.942   4.849
 6470SOL    HW220310   6.585   6.055   4.905
 6471SOL     OW20311   5.506   5.718   5.715
 6471SOL    HW120312   5.409   5.698   5.700
 6471SOL    HW220313   5.531   5.693   5.809
 6472SOL     OW20314   1.326   6.215   1.153
 6472SOL    HW120315   1.368   6.164   1.228
 6472SOL    HW220316   1.397   6.268   1.105
 6473SOL     OW20317   2.735   0.762   5.057
 6473SOL    HW120318   2.685   0.745   4.973
 6473SOL    HW220319   2.709   0.852   5.093
 6474SOL     OW20320   2.517   3.409   5.872
 6474SOL    HW120321   2.598   3.446   5.828
 6474SOL    HW220322   2.452   3.379   5.802
 6475SOL     OW20323   4.604   5.664   4.095
 6475SOL    HW120324   4.594   5.625   4.187
 6475SOL    HW220325   4.516   5.663   4.049
 6476SOL     OW20326   5.363   4.932   2.259
 6476SOL    HW120327   5.336   5.026   2.238
 6476SOL    HW220328   5.450   4.932   2.309
 6477SOL     OW20329   6.933   6.646   0.516
 6477SOL    HW120330   6.987   6.708   0.460
 6477SOL    HW220331   6.938   6.674   0.612
 6478SOL     OW20332   5.336   6.281   1.643
 6478SOL    HW120333   5.288   6.363   1.612
 6478SOL    HW220334   5.426   6.307   1.679
 6479SOL     OW20335   4.143   6.121   2.954
 6479SOL    HW120336   4.105   6.052   2.892
 6479SOL    HW220337   4.104   6.108   3.046
 6480SOL     OW20338   2.437   1.128   1.050
 6480SOL    HW120339   2.341   1.101   1.063
 6480SOL    HW220340   2.491   1.048   1.023
 6481SOL     OW20341   4.723   0.669   1.410
 6481SOL    HW120342   4.801   0.606   1.408
 6481SOL    HW220343   4.641   0.623   1.376
 6482SOL     OW20344   7.024   0.765   6.387
 6482SOL    HW120345   6.965   0.694   6.348
 6482SOL    HW220346   6.987   0.793   6.476
 6483SOL     OW20347   1.758   5.527   1.724
 6483SOL    HW120348   1.831   5.562   1.782
 6483SOL    HW220349   1.726   5.440   1.760
 6484SOL     OW20350   5.435   6.302   3.785
 6484SOL    HW120351   5.518   6.300   3.728
 6484SOL    HW220352   5.368   6.238   3.747
 6485SOL     OW20353   1.106   2.735   3.352
 6485SOL    HW120354   1.067   2.670   3.418
 6485SOL    HW220355   1.065   2.719   3.262
 6486SOL     OW20356   1.650   3.231   3.246
 6486SOL    HW120357   1.652   3.183   3.334
 6486SOL    HW220358   1.701   3.316   3.254
 6487SOL     OW20359   5.903   5.218   3.440
 6487SOL    HW120360   5.833   5.196   3.372
 6487SOL    HW220361   5.875   5.299   3.492
 6488SOL     OW20362   3.030   4.940   5.326
 6488SOL    HW120363   3.013   4.876   5.401
 6488SOL    HW220364   3.033   4.890   5.240
 6489SOL     OW20365   2.699   1.919   5.679
 6489SOL    HW120366   2.655   1.930   5.768
 6489SOL    HW220367   2.781   1.977   5.675
 6490SOL     OW20368   4.923   1.554   0.802
 6490SOL    HW120369   4.842   1.498   0.824
 6490SOL    HW220370   4.945   1.612   0.880
 6491SOL     OW20371   4.125   1.069   6.460
 6491SOL    HW120372   4.179   1.030   6.535
 6491SOL    HW220373   4.181   1.071   6.377
 6492SOL     OW20374   5.699   6.058   6.394
 6492SOL    HW120375   5.709   6.090   6.299
 6492SOL    HW220376   5.771   6.099   6.450
 6493SOL     OW20377   1.253   6.186   5.330
 6493SOL    HW120378   1.260   6.104   5.273
 6493SOL    HW220379   1.173   6.180   5.388
 6494SOL     OW20380   1.437   0.249   3.412
 6494SOL    HW120381   1.350   0.283   3.449
 6494SOL    HW220382   1.492   0.327   3.382
 6495SOL     OW20383   5.523   5.214   2.081
 6495SOL    HW120384   5.589   5.218   2.005
 6495SOL    HW220385   5.534   5.295   2.138
 6496SOL     OW20386   0.879   6.539   3.079
 6496SOL    HW120387   0.792   6.503   3.113
 6496SOL    HW220388   0.884   6.529   2.980
 6497SOL     OW20389   0.424   5.314   0.358
 6497SOL    HW120390   0.339   5.266   0.383
 6497SOL    HW220391   0.480   5.255   0.301
 6498SOL     OW20392   1.476   4.319   3.842
 6498SOL    HW120393   1.481   4.274   3.753
 6498SOL    HW220394   1.437   4.255   3.909
 6499SOL     OW20395   5.776   0.775   4.043
 6499SOL    HW120396   5.730   0.751   4.129
 6499SOL    HW220397   5.806   0.871   4.047
 6500SOL     OW20398   5.615   4.880   3.490
 6500SOL    HW120399   5.645   4.793   3.451
 6500SOL    HW220400   5.515   4.879   3.499
 6501SOL     OW20401   0.062   3.467   0.859
 6501SOL    HW120402   0.059   3.367   0.861
 6501SOL    HW220403   0.157   3.498   0.868
 6502SOL     OW20404   1.261   5.016   2.419
 6502SOL    HW120405   1.297   4.993   2.510
 6502SOL    HW220406   1.184   4.955   2.398
 6503SOL     OW20407   4.824   0.084   4.400
 6503SOL    HW120408   4.898   0.148   4.419
 6503SOL    HW220409   4.807   0.026   4.480
 6504SOL     OW20410   1.823   0.960   0.309
 6504SOL    HW120411   1.812   0.868   0.347
 6504SOL    HW220412   1.761   1.023   0.356
 6505SOL     OW20413   5.392   5.279   0.600
 6505SOL    HW120414   5.491   5.266   0.606
 6505SOL    HW220415   5.372   5.373   0.573
 6506SOL     OW20416   1.866   1.833   0.509
 6506SOL    HW120417   1.881   1.777   0.427
 6506SOL    HW220418   1.773   1.819   0.543
 6507SOL     OW20419   3.004   0.435   1.671
 6507SOL    HW120420   2.908   0.411   1.686
 6507SOL    HW220421   3.052   0.438   1.758
 6508SOL     OW20422   2.328   1.521   1.856
 6508SOL    HW120423   2.404   1.564   1.904
 6508SOL    HW220424   2.347   1.423   1.845
 6509SOL     OW20425   0.959   2.509   3.868
 6509SOL    HW120426   1.002   2.597   3.849
 6509SOL    HW220427   0.888   2.522   3.937
 6510SOL     OW20428   5.652   5.242   6.638
 6510SOL    HW120429   5.663   5.303   6.559
 6510SOL    HW220430   5.580   5.278   6.698
 6511SOL     OW20431   6.765   5.946   5.422
 6511SOL    HW120432   6.775   5.895   5.337
 6511SOL    HW220433   6.687   6.009   5.414
 6512SOL     OW20434   5.031   6.043   3.735
 6512SOL    HW120435   5.096   6.110   3.773
 6512SOL    HW220436   5.079   5.985   3.669
 6513SOL     OW20437   2.145   6.859   3.419
 6513SOL    HW120438   2.055   6.871   3.462
 6513SOL    HW220439   2.171   6.763   3.423
 6514SOL     OW20440   3.470   0.271   3.944
 6514SOL    HW120441   3.447   0.307   4.034
 6514SOL    HW220442   3.567   0.287   3.925
 6515SOL     OW20443   0.858   0.787   3.771
 6515SOL    HW120444   0.932   0.734   3.729
 6515SOL    HW220445   0.809   0.729   3.836
 6516SOL     OW20446   1.675   1.719   5.895
 6516SOL    HW120447   1.637   1.637   5.938
 6516SOL    HW220448   1.601   1.786   5.881
 6517SOL     OW20449   1.480   2.014   0.582
 6517SOL    HW120450   1.457   1.961   0.501
 6517SOL    HW220451   1.579   2.018   0.593
 6518SOL     OW20452   5.794   6.003   0.629
 6518SOL    HW120453   5.722   5.942   0.597
 6518SOL    HW220454   5.829   5.971   0.717
 6519SOL     OW20455   1.272   2.249   3.144
 6519SOL    HW120456   1.372   2.252   3.136
 6519SOL    HW220457   1.240   2.331   3.192
 6520SOL     OW20458   5.979   5.858   1.899
 6520SOL    HW120459   5.895   5.909   1.913
 6520SOL    HW220460   5.960   5.774   1.848
 6521SOL     OW20461   1.736   2.295   5.328
 6521SOL    HW120462   1.672   2.252   5.393
 6521SOL    HW220463   1.821   2.316   5.375
 6522SOL     OW20464   2.713   5.351   4.849
 6522SOL    HW120465   2.792   5.295   4.871
 6522SOL    HW220466   2.653   5.357   4.929
 6523SOL     OW20467   2.040   2.780   0.171
 6523SOL    HW120468   2.110   2.730   0.120
 6523SOL    HW220469   1.966   2.718   0.197
 6524SOL     OW20470   3.980   3.948   4.687
 6524SOL    HW120471   3.896   3.929   4.637
 6524SOL    HW220472   4.012   3.865   4.732
 6525SOL     OW20473   0.380   2.560   4.203
 6525SOL    HW120474   0.288   2.599   4.198
 6525SOL    HW220475   0.402   2.517   4.116
 6526SOL     OW20476   1.756   5.158   4.145
 6526SOL    HW120477   1.736   5.224   4.218
 6526SOL    HW220478   1.756   5.205   4.057
 6527SOL     OW20479   2.385   1.169   4.174
 6527SOL    HW120480   2.459   1.111   4.137
 6527SOL    HW220481   2.316   1.111   4.216
 6528SOL     OW20482   7.006   6.765   3.285
 6528SOL    HW120483   6.914   6.730   3.266
 6528SOL    HW220484   7.003   6.865   3.289
 6529SOL     OW20485   6.578   2.602   1.734
 6529SOL    HW120486   6.514   2.667   1.691
 6529SOL    HW220487   6.651   2.653   1.779
 6530SOL     OW20488   0.485   1.937   0.251
 6530SOL    HW120489   0.403   1.989   0.276
 6530SOL    HW220490   0.469   1.840   0.266
 6531SOL     OW20491   5.229   2.821   4.712
 6531SOL    HW120492   5.201   2.915   4.731
 6531SOL    HW220493   5.243   2.772   4.798
 6532SOL     OW20494   1.451   2.492   0.017
 6532SOL    HW120495   1.466   2.542   0.102
 6532SOL    HW220496   1.426   2.397   0.038
 6533SOL     OW20497   4.366   0.868   1.100
 6533SOL    HW120498   4.410   0.789   1.143
 6533SOL    HW220499   4.281   0.889   1.148
 6534SOL     OW20500   1.918   3.279   0.033
 6534SOL    HW120501   1.858   3.225   0.091
 6534SOL    HW220502   1.922   3.373   0.067
 6535SOL     OW20503   2.047   3.408   5.679
 6535SOL    HW120504   1.974   3.340   5.686
 6535SOL    HW220505   2.024   3.476   5.610
 6536SOL     OW20506   6.857   2.447   6.719
 6536SOL    HW120507   6.950   2.436   6.755
 6536SOL    HW220508   6.793   2.392   6.772
 6537SOL     OW20509   0.862   0.035   0.435
 6537SOL    HW120510   0.788   0.082   0.386
 6537SOL    HW220511   0.932   0.007   0.369
 6538SOL     OW20512   1.651   3.082   6.374
 6538SOL    HW120513   1.589   3.135   6.317
 6538SOL    HW220514   1.695   3.011   6.319
 6539SOL     OW20515   2.796   1.480   6.207
 6539SOL    HW120516   2.755   1.432   6.129
 6539SOL    HW220517   2.757   1.443   6.292
 6540SOL     OW20518   3.166   2.168   3.834
 6540SOL    HW120519   3.191   2.152   3.930
 6540SOL    HW220520   3.180   2.264   3.811
 6541SOL     OW20521   2.747   2.745   5.381
 6541SOL    HW120522   2.837   2.789   5.378
 6541SOL    HW220523   2.680   2.810   5.418
 6542SOL     OW20524   6.352   4.257   3.451
 6542SOL    HW120525   6.364   4.213   3.541
 6542SOL    HW220526   6.292   4.200   3.394
 6543SOL     OW20527   0.736   5.521   6.304
 6543SOL    HW120528   0.752   5.448   6.238
 6543SOL    HW220529   0.677   5.487   6.377
 6544SOL     OW20530   6.915   6.315   3.043
 6544SOL    HW120531   6.928   6.403   3.088
 6544SOL    HW220532   6.818   6.291   3.044
 6545SOL     OW20533   5.621   3.090   6.260
 6545SOL    HW120534   5.668   3.086   6.172
 6545SOL    HW220535   5.604   2.997   6.293
 6546SOL     OW20536   3.322   4.921   5.862
 6546SOL    HW120537   3.415   4.953   5.845
 6546SOL    HW220538   3.258   4.973   5.806
 6547SOL     OW20539   5.166   0.842   0.052
 6547SOL    HW120540   5.117   0.883   7.001
 6547SOL    HW220541   5.264   0.855   0.040
 6548SOL     OW20542   6.124   4.158   5.034
 6548SOL    HW120543   6.206   4.106   5.011
 6548SOL    HW220544   6.129   4.188   5.129
 6549SOL     OW20545   2.844   1.622   2.536
 6549SOL    HW120546   2.874   1.571   2.455
 6549SOL    HW220547   2.867   1.719   2.524
 6550SOL     OW20548   0.785   5.158   3.286
 6550SOL    HW120549   0.706   5.096   3.280
 6550SOL    HW220550   0.824   5.155   3.378
 6551SOL     OW20551   2.648   4.792   1.958
 6551SOL    HW120552   2.655   4.891   1.952
 6551SOL    HW220553   2.733   4.755   1.996
 6552SOL     OW20554   4.790   5.406   6.483
 6552SOL    HW120555   4.715   5.457   6.441
 6552SOL    HW220556   4.800   5.318   6.437
 6553SOL     OW20557   6.609   3.137   2.835
 6553SOL    HW120558   6.693   3.170   2.877
 6553SOL    HW220559   6.533   3.147   2.898
 6554SOL     OW20560   0.229   3.792   4.744
 6554SOL    HW120561   0.231   3.708   4.689
 6554SOL    HW220562   0.305   3.790   4.810
 6555SOL     OW20563   0.627   1.116   2.114
 6555SOL    HW120564   0.696   1.059   2.070
 6555SOL    HW220565   0.626   1.207   2.073
 6556SOL     OW20566   3.623   0.526   3.993
 6556SOL    HW120567   3.677   0.463   3.936
 6556SOL    HW220568   3.544   0.557   3.941
 6557SOL     OW20569   5.363   6.233   0.698
 6557SOL    HW120570   5.419   6.229   0.615
 6557SOL    HW220571   5.267   6.222   0.674
 6558SOL     OW20572   6.680   6.161   6.186
 6558SOL    HW120573   6.717   6.141   6.095
 6558SOL    HW220574   6.581   6.151   6.184
 6559SOL     OW20575   3.385   3.128   1.378
 6559SOL    HW120576   3.418   3.048   1.327
 6559SOL    HW220577   3.318   3.176   1.322
 6560SOL     OW20578   3.669   1.665   0.808
 6560SOL    HW120579   3.610   1.636   0.733
 6560SOL    HW220580   3.745   1.719   0.771
 6561SOL     OW20581   3.503   3.697   4.137
 6561SOL    HW120582   3.539   3.621   4.082
 6561SOL    HW220583   3.578   3.741   4.186
 6562SOL     OW20584   6.421   3.796   5.289
 6562SOL    HW120585   6.410   3.712   5.341
 6562SOL    HW220586   6.506   3.792   5.237
 6563SOL     OW20587   0.665   5.312   2.612
 6563SOL    HW120588   0.607   5.274   2.684
 6563SOL    HW220589   0.748   5.257   2.605
 6564SOL     OW20590   1.443   5.925   2.751
 6564SOL    HW120591   1.349   5.944   2.778
 6564SOL    HW220592   1.455   5.826   2.741
 6565SOL     OW20593   6.649   3.479   5.056
 6565SOL    HW120594   6.736   3.474   5.008
 6565SOL    HW220595   6.646   3.561   5.113
 6566SOL     OW20596   3.534   0.081   0.809
 6566SOL    HW120597   3.491   7.023   0.780
 6566SOL    HW220598   3.475   0.158   0.787
 6567SOL     OW20599   6.148   3.095   1.245
 6567SOL    HW120600   6.086   3.033   1.293
 6567SOL    HW220601   6.110   3.187   1.246
 6568SOL     OW20602   4.244   3.841   1.458
 6568SOL    HW120603   4.251   3.934   1.421
 6568SOL    HW220604   4.236   3.775   1.383
 6569SOL     OW20605   0.585   4.916   6.346
 6569SOL    HW120606   0.619   5.010   6.337
 6569SOL    HW220607   0.547   4.904   6.438
 6570SOL     OW20608   6.173   3.589   1.684
 6570SOL    HW120609   6.231   3.514   1.717
 6570SOL    HW220610   6.229   3.653   1.632
 6571SOL     OW20611   2.886   6.361   3.949
 6571SOL    HW120612   2.811   6.342   4.013
 6571SOL    HW220613   2.968   6.312   3.977
 6572SOL     OW20614   1.211   4.496   6.187
 6572SOL    HW120615   1.280   4.478   6.258
 6572SOL    HW220616   1.184   4.592   6.192
 6573SOL     OW20617   1.644   2.015   2.069
 6573SOL    HW120618   1.639   2.050   2.163
 6573SOL    HW220619   1.564   2.047   2.018
 6574SOL     OW20620   1.567   4.749   4.039
 6574SOL    HW120621   1.649   4.699   4.065
 6574SOL    HW220622   1.592   4.832   3.989
 6575SOL     OW20623   2.195   1.210   2.504
 6575SOL    HW120624   2.180   1.256   2.592
 6575SOL    HW220625   2.240   1.122   2.519
 6576SOL     OW20626   1.196   6.306   4.133
 6576SOL    HW120627   1.101   6.278   4.148
 6576SOL    HW220628   1.234   6.255   4.055
 6577SOL     OW20629   6.708   3.078   4.861
 6577SOL    HW120630   6.788   3.060   4.804
 6577SOL    HW220631   6.649   3.145   4.815
 6578SOL     OW20632   6.982   5.413   3.519
 6578SOL    HW120633   0.047   5.433   3.552
 6578SOL    HW220634   6.915   5.441   3.588
 6579SOL     OW20635   1.116   3.831   3.104
 6579SOL    HW120636   1.170   3.804   3.024
 6579SOL    HW220637   1.176   3.837   3.184
 6580SOL     OW20638   5.682   2.584   1.417
 6580SOL    HW120639   5.612   2.637   1.371
 6580SOL    HW220640   5.700   2.500   1.365
 6581SOL     OW20641   2.458   2.581   5.593
 6581SOL    HW120642   2.476   2.533   5.507
 6581SOL    HW220643   2.481   2.678   5.582
 6582SOL     OW20644   6.700   0.447   2.101
 6582SOL    HW120645   6.618   0.467   2.155
 6582SOL    HW220646   6.781   0.476   2.152
 6583SOL     OW20647   5.669   2.084   5.902
 6583SOL    HW120648   5.709   2.166   5.862
 6583SOL    HW220649   5.693   2.005   5.847
 6584SOL     OW20650   5.742   2.386   6.848
 6584SOL    HW120651   5.773   2.315   6.910
 6584SOL    HW220652   5.643   2.398   6.857
 6585SOL     OW20653   2.644   1.287   1.498
 6585SOL    HW120654   2.567   1.276   1.436
 6585SOL    HW220655   2.698   1.367   1.470
 6586SOL     OW20656   6.758   1.560   6.861
 6586SOL    HW120657   6.808   1.643   6.835
 6586SOL    HW220658   6.678   1.586   6.915
 6587SOL     OW20659   1.915   6.600   2.824
 6587SOL    HW120660   1.925   6.592   2.923
 6587SOL    HW220661   1.839   6.662   2.802
 6588SOL     OW20662   2.593   2.783   6.818
 6588SOL    HW120663   2.522   2.824   6.760
 6588SOL    HW220664   2.563   2.693   6.850
 6589SOL     OW20665   5.406   1.697   5.635
 6589SOL    HW120666   5.410   1.793   5.607
 6589SOL    HW220667   5.354   1.645   5.567
 6590SOL     OW20668   6.671   0.983   5.600
 6590SOL    HW120669   6.756   1.010   5.643
 6590SOL    HW220670   6.653   1.042   5.521
 6591SOL     OW20671   5.282   0.668   2.739
 6591SOL    HW120672   5.353   0.734   2.762
 6591SOL    HW220673   5.265   0.671   2.640
 6592SOL     OW20674   5.648   5.930   4.576
 6592SOL    HW120675   5.679   5.858   4.513
 6592SOL    HW220676   5.637   5.892   4.667
 6593SOL     OW20677   4.472   0.871   2.400
 6593SOL    HW120678   4.539   0.921   2.455
 6593SOL    HW220679   4.381   0.907   2.416
 6594SOL     OW20680   5.770   1.208   6.589
 6594SOL    HW120681   5.723   1.125   6.617
 6594SOL    HW220682   5.713   1.259   6.525
 6595SOL     OW20683   1.777   3.761   6.983
 6595SOL    HW120684   1.689   3.745   6.940
 6595SOL    HW220685   1.788   3.859   7.001
 6596SOL     OW20686   3.144   6.590   5.685
 6596SOL    HW120687   3.232   6.607   5.729
 6596SOL    HW220688   3.150   6.615   5.588
 6597SOL     OW20689   6.588   4.173   6.690
 6597SOL    HW120690   6.600   4.160   6.592
 6597SOL    HW220691   6.677   4.165   6.735
 6598SOL     OW20692   2.448   5.519   4.917
 6598SOL    HW120693   2.351   5.539   4.907
 6598SOL    HW220694   2.463   5.463   4.998
 6599SOL     OW20695   4.399   3.200   5.705
 6599SOL    HW120696   4.406   3.248   5.617
 6599SOL    HW220697   4.440   3.256   5.777
 6600SOL     OW20698   4.115   5.338   4.378
 6600SOL    HW120699   4.062   5.347   4.294
 6600SOL    HW220700   4.109   5.424   4.430
 6601SOL     OW20701   1.039   0.246   1.135
 6601SOL    HW120702   0.971   0.256   1.207
 6601SOL    HW220703   1.035   0.325   1.074
 6602SOL     OW20704   6.338   1.273   1.655
 6602SOL    HW120705   6.360   1.360   1.699
 6602SOL    HW220706   6.421   1.216   1.652
 6603SOL     OW20707   2.477   2.153   2.213
 6603SOL    HW120708   2.512   2.076   2.160
 6603SOL    HW220709   2.533   2.234   2.195
 6604SOL     OW20710   4.074   5.678   3.714
 6604SOL    HW120711   4.018   5.757   3.737
 6604SOL    HW220712   4.137   5.702   3.640
 6605SOL     OW20713   5.530   6.253   0.113
 6605SOL    HW120714   5.549   6.222   0.020
 6605SOL    HW220715   5.609   6.304   0.148
 6606SOL     OW20716   6.503   1.008   3.263
 6606SOL    HW120717   6.520   0.922   3.214
 6606SOL    HW220718   6.405   1.029   3.261
 6607SOL     OW20719   1.089   1.679   3.195
 6607SOL    HW120720   1.060   1.658   3.101
 6607SOL    HW220721   1.012   1.667   3.257
 6608SOL     OW20722   5.568   4.845   4.872
 6608SOL    HW120723   5.591   4.869   4.967
 6608SOL    HW220724   5.645   4.797   4.830
 6609SOL     OW20725   5.795   1.524   6.924
 6609SOL    HW120726   5.836   1.434   6.942
 6609SOL    HW220727   5.788   1.539   6.825
 6610SOL     OW20728   2.944   1.031   0.429
 6610SOL    HW120729   2.941   0.940   0.388
 6610SOL    HW220730   2.952   1.022   0.528
 6611SOL     OW20731   5.356   2.896   3.292
 6611SOL    HW120732   5.348   2.867   3.197
 6611SOL    HW220733   5.425   2.969   3.298
 6612SOL     OW20734   1.057   6.165   6.732
 6612SOL    HW120735   0.990   6.196   6.665
 6612SOL    HW220736   1.148   6.196   6.705
 6613SOL     OW20737   4.922   4.934   1.283
 6613SOL    HW120738   4.859   5.008   1.308
 6613SOL    HW220739   5.016   4.969   1.284
 6614SOL     OW20740   5.489   5.382   5.676
 6614SOL    HW120741   5.486   5.310   5.607
 6614SOL    HW220742   5.428   5.457   5.649
 6615SOL     OW20743   0.785   4.280   5.399
 6615SOL    HW120744   0.813   4.333   5.318
 6615SOL    HW220745   0.698   4.315   5.433
 6616SOL     OW20746   5.246   1.254   4.358
 6616SOL    HW120747   5.212   1.219   4.445
 6616SOL    HW220748   5.333   1.210   4.336
 6617SOL     OW20749   4.352   0.329   5.250
 6617SOL    HW120750   4.373   0.376   5.336
 6617SOL    HW220751   4.275   0.374   5.205
 6618SOL     OW20752   0.623   4.992   1.123
 6618SOL    HW120753   0.681   4.925   1.170
 6618SOL    HW220754   0.618   4.970   1.026
 6619SOL     OW20755   0.080   6.230   1.659
 6619SOL    HW120756   0.118   6.283   1.735
 6619SOL    HW220757   7.009   6.216   1.673
 6620SOL     OW20758   4.104   3.300   5.691
 6620SOL    HW120759   4.067   3.265   5.778
 6620SOL    HW220760   4.199   3.270   5.682
 6621SOL     OW20761   2.744   3.943   0.227
 6621SOL    HW120762   2.668   3.897   0.181
 6621SOL    HW220763   2.726   3.945   0.326
 6622SOL     OW20764   6.280   6.165   0.847
 6622SOL    HW120765   6.189   6.137   0.817
 6622SOL    HW220766   6.278   6.181   0.946
 6623SOL     OW20767   3.654   3.706   2.490
 6623SOL    HW120768   3.554   3.709   2.498
 6623SOL    HW220769   3.694   3.783   2.538
 6624SOL     OW20770   4.516   5.249   4.121
 6624SOL    HW120771   4.446   5.243   4.050
 6624SOL    HW220772   4.512   5.339   4.164
 6625SOL     OW20773   5.847   0.103   0.231
 6625SOL    HW120774   5.837   0.180   0.294
 6625SOL    HW220775   5.904   0.033   0.273
 6626SOL     OW20776   2.964   5.452   3.336
 6626SOL    HW120777   2.944   5.524   3.402
 6626SOL    HW220778   2.994   5.370   3.384
 6627SOL     OW20779   1.840   5.866   1.990
 6627SOL    HW120780   1.845   5.893   1.894
 6627SOL    HW220781   1.770   5.919   2.037
 6628SOL     OW20782   3.649   6.242   3.554
 6628SOL    HW120783   3.702   6.233   3.470
 6628SOL    HW220784   3.587   6.319   3.547
 6629SOL     OW20785   3.762   3.897   0.247
 6629SOL    HW120786   3.768   3.983   0.297
 6629SOL    HW220787   3.851   3.851   0.249
 6630SOL     OW20788   3.254   1.895   6.202
 6630SOL    HW120789   3.177   1.858   6.253
 6630SOL    HW220790   3.285   1.827   6.135
 6631SOL     OW20791   4.155   0.710   1.765
 6631SOL    HW120792   4.084   0.642   1.785
 6631SOL    HW220793   4.180   0.703   1.668
 6632SOL     OW20794   6.686   2.660   2.704
 6632SOL    HW120795   6.747   2.595   2.748
 6632SOL    HW220796   6.715   2.753   2.728
 6633SOL     OW20797   0.577   0.225   1.496
 6633SOL    HW120798   0.633   0.143   1.508
 6633SOL    HW220799   0.488   0.212   1.540
 6634SOL     OW20800   6.677   2.688   5.735
 6634SOL    HW120801   6.744   2.762   5.731
 6634SOL    HW220802   6.596   2.713   5.680
 6635SOL     OW20803   4.467   4.493   2.851
 6635SOL    HW120804   4.486   4.395   2.859
 6635SOL    HW220805   4.445   4.516   2.757
 6636SOL     OW20806   1.797   3.015   3.818
 6636SOL    HW120807   1.893   3.008   3.845
 6636SOL    HW220808   1.786   3.091   3.753
 6637SOL     OW20809   6.317   1.982   1.714
 6637SOL    HW120810   6.359   1.891   1.720
 6637SOL    HW220811   6.364   2.044   1.776
 6638SOL     OW20812   2.405   6.410   6.695
 6638SOL    HW120813   2.415   6.329   6.637
 6638SOL    HW220814   2.308   6.427   6.713
 6639SOL     OW20815   4.642   5.784   6.290
 6639SOL    HW120816   4.618   5.790   6.387
 6639SOL    HW220817   4.665   5.690   6.267
 6640SOL     OW20818   6.162   2.522   3.626
 6640SOL    HW120819   6.178   2.543   3.723
 6640SOL    HW220820   6.173   2.606   3.573
 6641SOL     OW20821   1.951   4.744   6.915
 6641SOL    HW120822   1.906   4.655   6.906
 6641SOL    HW220823   1.912   4.807   6.848
 6642SOL     OW20824   6.234   6.291   0.185
 6642SOL    HW120825   6.283   6.206   0.162
 6642SOL    HW220826   6.277   6.332   0.266
 6643SOL     OW20827   3.744   5.736   0.443
 6643SOL    HW120828   3.796   5.652   0.458
 6643SOL    HW220829   3.802   5.802   0.395
 6644SOL     OW20830   2.382   4.295   1.871
 6644SOL    HW120831   2.312   4.333   1.811
 6644SOL    HW220832   2.386   4.347   1.956
 6645SOL     OW20833   6.104   5.062   5.200
 6645SOL    HW120834   6.139   5.113   5.279
 6645SOL    HW220835   6.120   4.964   5.213
 6646SOL     OW20836   1.526   6.140   3.496
 6646SOL    HW120837   1.484   6.111   3.410
 6646SOL    HW220838   1.553   6.060   3.549
 6647SOL     OW20839   4.100   1.903   2.099
 6647SOL    HW120840   4.034   1.901   2.174
 6647SOL    HW220841   4.053   1.923   2.013
 6648SOL     OW20842   4.422   5.662   1.902
 6648SOL    HW120843   4.422   5.630   1.996
 6648SOL    HW220844   4.379   5.752   1.897
 6649SOL     OW20845   4.051   2.121   6.675
 6649SOL    HW120846   4.083   2.211   6.645
 6649SOL    HW220847   4.051   2.118   6.775
 6650SOL     OW20848   2.914   1.349   3.765
 6650SOL    HW120849   2.929   1.341   3.666
 6650SOL    HW220850   2.952   1.436   3.797
 6651SOL     OW20851   1.444   2.237   0.151
 6651SOL    HW120852   1.382   2.191   0.214
 6651SOL    HW220853   1.510   2.292   0.202
 6652SOL     OW20854   0.779   5.475   3.283
 6652SOL    HW120855   0.855   5.535   3.307
 6652SOL    HW220856   0.781   5.393   3.340
 6653SOL     OW20857   3.130   3.463   3.836
 6653SOL    HW120858   3.097   3.382   3.788
 6653SOL    HW220859   3.056   3.530   3.844
 6654SOL     OW20860   1.935   3.438   1.719
 6654SOL    HW120861   1.866   3.462   1.788
 6654SOL    HW220862   2.011   3.391   1.764
 6655SOL     OW20863   2.069   0.353   0.637
 6655SOL    HW120864   1.971   0.372   0.645
 6655SOL    HW220865   2.085   0.254   0.634
 6656SOL     OW20866   6.872   2.735   1.511
 6656SOL    HW120867   6.793   2.674   1.502
 6656SOL    HW220868   6.841   2.829   1.520
 6657SOL     OW20869   2.744   4.689   6.062
 6657SOL    HW120870   2.828   4.636   6.047
 6657SOL    HW220871   2.721   4.738   5.977
 6658SOL     OW20872   5.584   0.431   5.557
 6658SOL    HW120873   5.652   0.402   5.624
 6658SOL    HW220874   5.494   0.398   5.584
 6659SOL     OW20875   1.746   2.994   6.618
 6659SOL    HW120876   1.708   2.991   6.526
 6659SOL    HW220877   1.772   3.088   6.640
 6660SOL     OW20878   0.630   6.794   2.136
 6660SOL    HW120879   0.700   6.864   2.148
 6660SOL    HW220880   0.580   6.810   2.051
 6661SOL     OW20881   0.065   5.652   3.382
 6661SOL    HW120882   0.142   5.687   3.328
 6661SOL    HW220883   0.075   5.554   3.394
 6662SOL     OW20884   1.169   3.681   5.488
 6662SOL    HW120885   1.155   3.689   5.389
 6662SOL    HW220886   1.104   3.740   5.535
 6663SOL     OW20887   0.511   4.907   2.419
 6663SOL    HW120888   0.501   4.845   2.341
 6663SOL    HW220889   0.607   4.927   2.434
 6664SOL     OW20890   0.804   1.673   3.327
 6664SOL    HW120891   0.833   1.728   3.405
 6664SOL    HW220892   0.764   1.733   3.258
 6665SOL     OW20893   2.630   6.484   2.654
 6665SOL    HW120894   2.693   6.549   2.698
 6665SOL    HW220895   2.613   6.513   2.560
 6666SOL     OW20896   6.242   0.626   0.529
 6666SOL    HW120897   6.290   0.671   0.453
 6666SOL    HW220898   6.310   0.584   0.590
 6667SOL     OW20899   6.559   4.884   4.788
 6667SOL    HW120900   6.630   4.852   4.851
 6667SOL    HW220901   6.514   4.806   4.745
 6668SOL     OW20902   0.460   6.788   1.466
 6668SOL    HW120903   0.435   6.848   1.389
 6668SOL    HW220904   0.484   6.697   1.431
 6669SOL     OW20905   1.429   5.272   2.957
 6669SOL    HW120906   1.335   5.299   2.979
 6669SOL    HW220907   1.458   5.199   3.019
 6670SOL     OW20908   3.689   4.899   1.056
 6670SOL    HW120909   3.597   4.934   1.039
 6670SOL    HW220910   3.739   4.890   0.970
 6671SOL     OW20911   0.544   3.011   5.281
 6671SOL    HW120912   0.491   2.926   5.280
 6671SOL    HW220913   0.551   3.046   5.188
 6672SOL     OW20914   0.560   0.886   5.445
 6672SOL    HW120915   0.537   0.843   5.532
 6672SOL    HW220916   0.547   0.985   5.452
 6673SOL     OW20917   5.090   5.775   1.842
 6673SOL    HW120918   5.186   5.805   1.840
 6673SOL    HW220919   5.083   5.681   1.809
 6674SOL     OW20920   0.635   6.778   4.784
 6674SOL    HW120921   0.571   6.830   4.841
 6674SOL    HW220922   0.589   6.749   4.700
 6675SOL     OW20923   0.075   5.916   0.483
 6675SOL    HW120924   0.111   5.941   0.393
 6675SOL    HW220925   7.014   5.962   0.498
 6676SOL     OW20926   1.128   1.905   0.142
 6676SOL    HW120927   1.216   1.887   0.097
 6676SOL    HW220928   1.089   1.990   0.107
 6677SOL     OW20929   6.248   3.900   6.933
 6677SOL    HW120930   6.299   3.929   6.852
 6677SOL    HW220931   6.275   3.956   7.011
 6678SOL     OW20932   0.935   2.804   4.307
 6678SOL    HW120933   0.865   2.734   4.324
 6678SOL    HW220934   0.891   2.893   4.293
 6679SOL     OW20935   1.604   0.898   4.231
 6679SOL    HW120936   1.548   0.981   4.243
 6679SOL    HW220937   1.554   0.819   4.266
 6680SOL     OW20938   2.393   0.019   6.170
 6680SOL    HW120939   2.318   0.022   6.236
 6680SOL    HW220940   2.465   6.986   6.204
 6681SOL     OW20941   5.639   5.262   0.310
 6681SOL    HW120942   5.682   5.308   0.388
 6681SOL    HW220943   5.582   5.187   0.343
 6682SOL     OW20944   6.945   5.100   2.508
 6682SOL    HW120945   6.954   5.197   2.529
 6682SOL    HW220946   6.943   5.086   2.409
 6683SOL     OW20947   5.269   1.950   4.322
 6683SOL    HW120948   5.363   1.919   4.308
 6683SOL    HW220949   5.208   1.871   4.329
 6684SOL     OW20950   1.994   0.618   2.390
 6684SOL    HW120951   2.012   0.545   2.323
 6684SOL    HW220952   1.900   0.649   2.381
 6685SOL     OW20953   5.459   3.296   6.365
 6685SOL    HW120954   5.365   3.264   6.364
 6685SOL    HW220955   5.520   3.222   6.335
 6686SOL     OW20956   5.492   3.422   4.040
 6686SOL    HW120957   5.472   3.327   4.018
 6686SOL    HW220958   5.540   3.427   4.127
 6687SOL     OW20959   0.920   1.254   0.169
 6687SOL    HW120960   0.982   1.329   0.147
 6687SOL    HW220961   0.878   1.270   0.258
 6688SOL     OW20962   0.518   5.205   2.806
 6688SOL    HW120963   0.560   5.226   2.894
 6688SOL    HW220964   0.450   5.131   2.818
 6689SOL     OW20965   4.137   4.734   0.600
 6689SOL    HW120966   4.199   4.783   0.539
 6689SOL    HW220967   4.190   4.686   0.670
 6690SOL     OW20968   1.436   1.850   0.371
 6690SOL    HW120969   1.521   1.854   0.317
 6690SOL    HW220970   1.359   1.835   0.310
 6691SOL     OW20971   1.431   5.199   0.830
 6691SOL    HW120972   1.353   5.158   0.877
 6691SOL    HW220973   1.492   5.242   0.898
 6692SOL     OW20974   3.579   4.420   5.981
 6692SOL    HW120975   3.576   4.502   6.037
 6692SOL    HW220976   3.520   4.350   6.021
 6693SOL     OW20977   4.238   3.665   5.174
 6693SOL    HW120978   4.210   3.594   5.108
 6693SOL    HW220979   4.180   3.746   5.161
 6694SOL     OW20980   3.006   6.179   0.291
 6694SOL    HW120981   3.037   6.228   0.373
 6694SOL    HW220982   2.923   6.128   0.312
 6695SOL     OW20983   1.603   1.592   6.494
 6695SOL    HW120984   1.635   1.524   6.561
 6695SOL    HW220985   1.603   1.683   6.537
 6696SOL     OW20986   1.895   3.108   1.677
 6696SOL    HW120987   1.851   3.179   1.732
 6696SOL    HW220988   1.875   3.123   1.581
 6697SOL     OW20989   5.191   2.455   4.018
 6697SOL    HW120990   5.200   2.432   3.921
 6697SOL    HW220991   5.122   2.526   4.029
 6698SOL     OW20992   3.415   4.326   0.571
 6698SOL    HW120993   3.425   4.324   0.670
 6698SOL    HW220994   3.337   4.383   0.546
 6699SOL     OW20995   1.755   3.532   6.741
 6699SOL    HW120996   1.728   3.493   6.653
 6699SOL    HW220997   1.831   3.595   6.728
 6700SOL     OW20998   6.683   6.990   6.091
 6700SOL    HW120999   6.738   6.921   6.045
 6700SOL    HW221000   6.589   6.986   6.057
 6701SOL     OW21001   0.613   2.305   1.114
 6701SOL    HW121002   0.679   2.245   1.158
 6701SOL    HW221003   0.553   2.252   1.054
 6702SOL     OW21004   1.454   3.227   1.023
 6702SOL    HW121005   1.443   3.299   1.092
 6702SOL    HW221006   1.477   3.269   0.935
 6703SOL     OW21007   0.260   2.250   6.467
 6703SOL    HW121008   0.206   2.169   6.489
 6703SOL    HW221009   0.290   2.294   6.552
 6704SOL     OW21010   5.152   2.292   3.202
 6704SOL    HW121011   5.060   2.331   3.201
 6704SOL    HW221012   5.188   2.295   3.295
 6705SOL     OW21013   6.204   1.041   0.891
 6705SOL    HW121014   6.168   1.055   0.799
 6705SOL    HW221015   6.279   0.975   0.888
 6706SOL     OW21016   0.593   5.662   6.961
 6706SOL    HW121017   0.531   5.585   6.974
 6706SOL    HW221018   0.688   5.631   6.972
 6707SOL     OW21019   1.061   5.515   2.407
 6707SOL    HW121020   1.154   5.543   2.427
 6707SOL    HW221021   1.056   5.415   2.408
 6708SOL     OW21022   2.099   5.994   1.710
 6708SOL    HW121023   2.146   5.915   1.749
 6708SOL    HW221024   2.089   6.065   1.780
 6709SOL     OW21025   5.142   1.620   3.006
 6709SOL    HW121026   5.193   1.535   3.023
 6709SOL    HW221027   5.068   1.602   2.942
 6710SOL     OW21028   1.878   2.141   0.470
 6710SOL    HW121029   1.938   2.063   0.486
 6710SOL    HW221030   1.813   2.149   0.545
 6711SOL     OW21031   4.981   3.657   0.127
 6711SOL    HW121032   4.885   3.685   0.132
 6711SOL    HW221033   5.001   3.620   0.036
 6712SOL     OW21034   3.139   6.306   1.391
 6712SOL    HW121035   3.214   6.256   1.348
 6712SOL    HW221036   3.139   6.401   1.359
 6713SOL     OW21037   1.604   1.588   2.839
 6713SOL    HW121038   1.505   1.574   2.845
 6713SOL    HW221039   1.628   1.622   2.748
 6714SOL     OW21040   6.579   0.196   4.518
 6714SOL    HW121041   6.573   0.247   4.604
 6714SOL    HW221042   6.578   0.260   4.441
 6715SOL     OW21043   0.329   1.932   0.827
 6715SOL    HW121044   0.327   1.909   0.924
 6715SOL    HW221045   0.256   1.997   0.807
 6716SOL     OW21046   2.818   5.559   0.420
 6716SOL    HW121047   2.718   5.564   0.420
 6716SOL    HW221048   2.847   5.480   0.365
 6717SOL     OW21049   4.123   1.592   6.537
 6717SOL    HW121050   4.109   1.510   6.592
 6717SOL    HW221051   4.122   1.672   6.596
 6718SOL     OW21052   3.112   6.928   0.329
 6718SOL    HW121053   3.210   6.916   0.318
 6718SOL    HW221054   3.067   6.838   0.327
 6719SOL     OW21055   0.813   0.638   5.657
 6719SOL    HW121056   0.861   0.708   5.709
 6719SOL    HW221057   0.738   0.680   5.605
 6720SOL     OW21058   1.828   4.738   1.443
 6720SOL    HW121059   1.771   4.816   1.416
 6720SOL    HW221060   1.914   4.741   1.392
 6721SOL     OW21061   6.496   6.192   3.268
 6721SOL    HW121062   6.513   6.136   3.349
 6721SOL    HW221063   6.460   6.281   3.296
 6722SOL     OW21064   5.144   4.772   6.889
 6722SOL    HW121065   5.059   4.802   6.845
 6722SOL    HW221066   5.145   4.802   6.984
 6723SOL     OW21067   4.559   0.853   2.866
 6723SOL    HW121068   4.619   0.783   2.905
 6723SOL    HW221069   4.606   0.941   2.868
 6724SOL     OW21070   3.433   4.653   5.321
 6724SOL    HW121071   3.400   4.717   5.251
 6724SOL    HW221072   3.440   4.701   5.409
 6725SOL     OW21073   6.933   5.070   1.749
 6725SOL    HW121074   0.003   5.088   1.736
 6725SOL    HW221075   6.905   4.997   1.687
 6726SOL     OW21076   2.228   2.677   1.726
 6726SOL    HW121077   2.168   2.652   1.651
 6726SOL    HW221078   2.175   2.724   1.797
 6727SOL     OW21079   3.489   3.930   0.207
 6727SOL    HW121080   3.459   3.978   0.289
 6727SOL    HW221081   3.582   3.897   0.219
 6728SOL     OW21082   4.749   1.286   4.987
 6728SOL    HW121083   4.753   1.263   4.889
 6728SOL    HW221084   4.668   1.343   5.004
 6729SOL     OW21085   5.606   6.282   3.553
 6729SOL    HW121086   5.579   6.274   3.457
 6729SOL    HW221087   5.657   6.201   3.580
 6730SOL     OW21088   1.284   0.358   2.407
 6730SOL    HW121089   1.264   0.317   2.318
 6730SOL    HW221090   1.317   0.452   2.394
 6731SOL     OW21091   2.095   4.315   1.845
 6731SOL    HW121092   2.040   4.337   1.926
 6731SOL    HW221093   2.063   4.229   1.806
 6732SOL     OW21094   2.272   5.187   0.839
 6732SOL    HW121095   2.245   5.117   0.773
 6732SOL    HW221096   2.369   5.209   0.827
 6733SOL     OW21097   6.008   5.933   4.917
 6733SOL    HW121098   6.039   6.028   4.924
 6733SOL    HW221099   6.048   5.879   4.991
 6734SOL     OW21100   2.920   3.795   5.544
 6734SOL    HW121101   2.834   3.826   5.583
 6734SOL    HW221102   2.977   3.875   5.521
 6735SOL     OW21103   0.516   5.719   6.704
 6735SOL    HW121104   0.546   5.708   6.799
 6735SOL    HW221105   0.594   5.705   6.643
 6736SOL     OW21106   2.211   4.266   2.423
 6736SOL    HW121107   2.113   4.281   2.434
 6736SOL    HW221108   2.260   4.309   2.498
 6737SOL     OW21109   1.972   0.259   1.122
 6737SOL    HW121110   1.892   0.314   1.097
 6737SOL    HW221111   1.971   0.243   1.221
 6738SOL     OW21112   4.575   1.017   1.474
 6738SOL    HW121113   4.597   1.086   1.404
 6738SOL    HW221114   4.658   0.993   1.524
 6739SOL     OW21115   4.569   0.169   4.928
 6739SOL    HW121116   4.576   0.263   4.962
 6739SOL    HW221117   4.500   0.120   4.980
 6740SOL     OW21118   5.825   3.347   5.487
 6740SOL    HW121119   5.815   3.265   5.545
 6740SOL    HW221120   5.768   3.420   5.523
 6741SOL     OW21121   0.138   0.165   6.004
 6741SOL    HW121122   0.183   0.095   6.060
 6741SOL    HW221123   0.145   0.254   6.051
 6742SOL     OW21124   6.288   5.992   5.094
 6742SOL    HW121125   6.248   5.952   5.011
 6742SOL    HW221126   6.216   6.035   5.148
 6743SOL     OW21127   5.611   2.668   1.169
 6743SOL    HW121128   5.680   2.738   1.192
 6743SOL    HW221129   5.520   2.710   1.169
 6744SOL     OW21130   5.257   5.250   4.619
 6744SOL    HW121131   5.316   5.329   4.636
 6744SOL    HW221132   5.195   5.270   4.542
 6745SOL     OW21133   0.809   3.672   2.902
 6745SOL    HW121134   0.855   3.641   2.819
 6745SOL    HW221135   0.757   3.755   2.882
 6746SOL     OW21136   0.158   0.974   1.317
 6746SOL    HW121137   0.155   0.874   1.328
 6746SOL    HW221138   0.087   1.002   1.254
 6747SOL     OW21139   4.723   6.216   6.562
 6747SOL    HW121140   4.743   6.249   6.654
 6747SOL    HW221141   4.628   6.235   6.539
 6748SOL     OW21142   0.193   6.398   1.842
 6748SOL    HW121143   0.257   6.338   1.891
 6748SOL    HW221144   0.121   6.428   1.905
 6749SOL     OW21145   3.352   5.716   0.855
 6749SOL    HW121146   3.264   5.758   0.832
 6749SOL    HW221147   3.412   5.717   0.775
 6750SOL     OW21148   2.182   3.086   5.235
 6750SOL    HW121149   2.106   3.022   5.223
 6750SOL    HW221150   2.262   3.052   5.186
 6751SOL     OW21151   3.633   1.614   6.001
 6751SOL    HW121152   3.597   1.688   5.943
 6751SOL    HW221153   3.702   1.651   6.062
 6752SOL     OW21154   6.654   2.295   0.334
 6752SOL    HW121155   6.581   2.357   0.307
 6752SOL    HW221156   6.620   2.229   0.401
 6753SOL     OW21157   6.018   1.238   6.713
 6753SOL    HW121158   5.932   1.248   6.663
 6753SOL    HW221159   6.094   1.237   6.648
 6754SOL     OW21160   5.161   1.254   6.872
 6754SOL    HW121161   5.226   1.304   6.929
 6754SOL    HW221162   5.071   1.296   6.879
 6755SOL     OW21163   4.928   2.254   4.012
 6755SOL    HW121164   5.004   2.250   4.077
 6755SOL    HW221165   4.842   2.244   4.060
 6756SOL     OW21166   4.889   4.019   3.272
 6756SOL    HW121167   4.819   4.084   3.301
 6756SOL    HW221168   4.917   3.964   3.350
 6757SOL     OW21169   6.107   5.134   1.851
 6757SOL    HW121170   6.112   5.055   1.912
 6757SOL    HW221171   6.177   5.125   1.780
 6758SOL     OW21172   5.754   1.362   3.281
 6758SOL    HW121173   5.779   1.273   3.317
 6758SOL    HW221174   5.824   1.393   3.217
 6759SOL     OW21175   0.801   4.703   3.195
 6759SOL    HW121176   0.726   4.758   3.159
 6759SOL    HW221177   0.866   4.683   3.121
 6760SOL     OW21178   0.486   4.327   5.370
 6760SOL    HW121179   0.409   4.328   5.433
 6760SOL    HW221180   0.531   4.416   5.370
 6761SOL     OW21181   6.198   3.537   6.580
 6761SOL    HW121182   6.149   3.450   6.594
 6761SOL    HW221183   6.138   3.602   6.534
 6762SOL     OW21184   6.658   3.773   3.212
 6762SOL    HW121185   6.692   3.726   3.130
 6762SOL    HW221186   6.735   3.805   3.267
 6763SOL     OW21187   6.383   6.677   5.173
 6763SOL    HW121188   6.320   6.742   5.130
 6763SOL    HW221189   6.469   6.675   5.121
 6764SOL     OW21190   2.034   3.137   6.579
 6764SOL    HW121191   2.019   3.043   6.550
 6764SOL    HW221192   1.968   3.162   6.649
 6765SOL     OW21193   5.348   5.228   2.737
 6765SOL    HW121194   5.393   5.153   2.786
 6765SOL    HW221195   5.316   5.296   2.803
 6766SOL     OW21196   1.861   1.556   5.777
 6766SOL    HW121197   1.775   1.602   5.798
 6766SOL    HW221198   1.915   1.547   5.861
 6767SOL     OW21199   0.566   2.601   6.135
 6767SOL    HW121200   0.621   2.672   6.092
 6767SOL    HW221201   0.612   2.513   6.125
 6768SOL     OW21202   6.396   1.565   5.800
 6768SOL    HW121203   6.303   1.584   5.830
 6768SOL    HW221204   6.426   1.478   5.839
 6769SOL     OW21205   0.830   2.627   6.737
 6769SOL    HW121206   0.789   2.693   6.801
 6769SOL    HW221207   0.920   2.599   6.771
 6770SOL     OW21208   6.944   1.766   4.538
 6770SOL    HW121209   6.966   1.810   4.625
 6770SOL    HW221210   6.847   1.742   4.537
 6771SOL     OW21211   6.106   1.571   2.363
 6771SOL    HW121212   6.116   1.503   2.437
 6771SOL    HW221213   6.009   1.578   2.339
 6772SOL     OW21214   1.366   0.606   2.367
 6772SOL    HW121215   1.295   0.656   2.417
 6772SOL    HW221216   1.386   0.654   2.281
 6773SOL     OW21217   1.764   0.422   2.737
 6773SOL    HW121218   1.863   0.420   2.721
 6773SOL    HW221219   1.720   0.471   2.661
 6774SOL     OW21220   3.690   1.196   5.467
 6774SOL    HW121221   3.693   1.277   5.409
 6774SOL    HW221222   3.749   1.208   5.546
 6775SOL     OW21223   1.097   2.581   4.550
 6775SOL    HW121224   1.171   2.630   4.596
 6775SOL    HW221225   1.131   2.494   4.516
 6776SOL     OW21226   2.945   3.659   3.882
 6776SOL    HW121227   2.951   3.734   3.947
 6776SOL    HW221228   2.914   3.576   3.930
 6777SOL     OW21229   0.499   6.566   6.109
 6777SOL    HW121230   0.536   6.478   6.078
 6777SOL    HW221231   0.511   6.635   6.038
 6778SOL     OW21232   6.957   6.125   2.814
 6778SOL    HW121233   6.930   6.167   2.727
 6778SOL    HW221234   6.945   6.191   2.888
 6779SOL     OW21235   4.622   4.802   6.800
 6779SOL    HW121236   4.600   4.733   6.869
 6779SOL    HW221237   4.595   4.892   6.834
 6780SOL     OW21238   4.578   0.317   3.092
 6780SOL    HW121239   4.593   0.353   3.000
 6780SOL    HW221240   4.634   0.369   3.157
 6781SOL     OW21241   6.373   3.307   3.014
 6781SOL    HW121242   6.425   3.373   2.958
 6781SOL    HW221243   6.328   3.355   3.089
 6782SOL     OW21244   0.750   1.003   3.895
 6782SOL    HW121245   0.783   0.927   3.839
 6782SOL    HW221246   0.724   0.968   3.985
 6783SOL     OW21247   0.260   6.181   6.685
 6783SOL    HW121248   0.318   6.102   6.703
 6783SOL    HW221249   0.299   6.236   6.612
 6784SOL     OW21250   1.555   4.879   0.383
 6784SOL    HW121251   1.604   4.792   0.390
 6784SOL    HW221252   1.616   4.949   0.346
 6785SOL     OW21253   5.252   4.860   1.906
 6785SOL    HW121254   5.284   4.789   1.969
 6785SOL    HW221255   5.195   4.925   1.955
 6786SOL     OW21256   6.284   1.801   5.349
 6786SOL    HW121257   6.359   1.867   5.338
 6786SOL    HW221258   6.309   1.734   5.419
 6787SOL     OW21259   3.613   1.987   0.981
 6787SOL    HW121260   3.681   1.963   0.911
 6787SOL    HW221261   3.623   1.927   1.060
 6788SOL     OW21262   1.259   4.143   1.341
 6788SOL    HW121263   1.164   4.126   1.317
 6788SOL    HW221264   1.299   4.206   1.275
 6789SOL     OW21265   5.515   3.680   2.422
 6789SOL    HW121266   5.502   3.628   2.506
 6789SOL    HW221267   5.466   3.634   2.347
 6790SOL     OW21268   0.629   5.575   0.884
 6790SOL    HW121269   0.713   5.627   0.868
 6790SOL    HW221270   0.550   5.636   0.876
 6791SOL     OW21271   2.660   6.497   3.869
 6791SOL    HW121272   2.743   6.468   3.917
 6791SOL    HW221273   2.613   6.566   3.923
 6792SOL     OW21274   3.319   5.848   6.665
 6792SOL    HW121275   3.269   5.783   6.607
 6792SOL    HW221276   3.296   5.832   6.761
 6793SOL     OW21277   2.842   4.269   6.499
 6793SOL    HW121278   2.919   4.228   6.547
 6793SOL    HW221279   2.798   4.201   6.441
 6794SOL     OW21280   5.005   2.673   4.556
 6794SOL    HW121281   5.033   2.608   4.627
 6794SOL    HW221282   5.084   2.729   4.530
 6795SOL     OW21283   0.819   0.989   1.925
 6795SOL    HW121284   0.908   0.951   1.953
 6795SOL    HW221285   0.771   0.923   1.867
 6796SOL     OW21286   6.980   2.667   2.447
 6796SOL    HW121287   6.927   2.733   2.393
 6796SOL    HW221288   0.029   2.714   2.491
 6797SOL     OW21289   2.008   3.622   1.077
 6797SOL    HW121290   1.974   3.693   1.015
 6797SOL    HW221291   1.943   3.547   1.080
 6798SOL     OW21292   4.606   0.845   2.148
 6798SOL    HW121293   4.575   0.821   2.240
 6798SOL    HW221294   4.571   0.935   2.124
 6799SOL     OW21295   5.848   6.636   3.073
 6799SOL    HW121296   5.882   6.603   2.985
 6799SOL    HW221297   5.757   6.675   3.060
 6800SOL     OW21298   6.820   2.866   2.280
 6800SOL    HW121299   6.876   2.936   2.234
 6800SOL    HW221300   6.735   2.908   2.313
 6801SOL     OW21301   1.685   5.164   5.155
 6801SOL    HW121302   1.676   5.078   5.105
 6801SOL    HW221303   1.647   5.238   5.100
 6802SOL     OW21304   2.699   4.482   1.661
 6802SOL    HW121305   2.640   4.402   1.669
 6802SOL    HW221306   2.764   4.482   1.737
 6803SOL     OW21307   5.548   5.382   6.873
 6803SOL    HW121308   5.589   5.469   6.898
 6803SOL    HW221309   5.558   5.317   6.949
 6804SOL     OW21310   3.183   5.369   2.167
 6804SOL    HW121311   3.270   5.324   2.186
 6804SOL    HW221312   3.200   5.453   2.116
 6805SOL     OW21313   0.534   4.588   3.651
 6805SOL    HW121314   0.450   4.543   3.621
 6805SOL    HW221315   0.516   4.641   3.734
 6806SOL     OW21316   5.853   3.731   2.270
 6806SOL    HW121317   5.832   3.660   2.337
 6806SOL    HW221318   5.815   3.818   2.300
 6807SOL     OW21319   2.889   3.521   2.654
 6807SOL    HW121320   2.869   3.496   2.749
 6807SOL    HW221321   2.929   3.442   2.607
 6808SOL     OW21322   3.464   6.974   3.128
 6808SOL    HW121323   3.461   6.997   3.031
 6808SOL    HW221324   3.375   6.994   3.169
 6809SOL     OW21325   5.869   2.394   0.916
 6809SOL    HW121326   5.892   2.305   0.877
 6809SOL    HW221327   5.923   2.465   0.871
 6810SOL     OW21328   3.035   0.325   4.360
 6810SOL    HW121329   3.041   0.372   4.272
 6810SOL    HW221330   3.001   0.232   4.347
 6811SOL     OW21331   6.691   1.308   0.943
 6811SOL    HW121332   6.655   1.388   0.895
 6811SOL    HW221333   6.714   1.333   1.037
 6812SOL     OW21334   3.117   4.562   5.386
 6812SOL    HW121335   3.207   4.599   5.364
 6812SOL    HW221336   3.061   4.560   5.303
 6813SOL     OW21337   0.295   3.765   2.194
 6813SOL    HW121338   0.385   3.724   2.206
 6813SOL    HW221339   0.265   3.753   2.100
 6814SOL     OW21340   4.822   1.920   1.712
 6814SOL    HW121341   4.825   1.996   1.646
 6814SOL    HW221342   4.727   1.895   1.729
 6815SOL     OW21343   0.538   6.238   0.249
 6815SOL    HW121344   0.521   6.183   0.167
 6815SOL    HW221345   0.518   6.183   0.330
 6816SOL     OW21346   6.609   0.078   4.058
 6816SOL    HW121347   6.688   0.018   4.050
 6816SOL    HW221348   6.639   0.173   4.045
 6817SOL     OW21349   5.145   1.032   1.875
 6817SOL    HW121350   5.184   0.946   1.907
 6817SOL    HW221351   5.126   1.091   1.953
 6818SOL     OW21352   0.331   0.303   5.386
 6818SOL    HW121353   0.401   0.300   5.457
 6818SOL    HW221354   0.283   0.215   5.383
 6819SOL     OW21355   5.502   4.218   0.964
 6819SOL    HW121356   5.586   4.170   0.987
 6819SOL    HW221357   5.497   4.303   1.017
 6820SOL     OW21358   2.774   4.226   1.224
 6820SOL    HW121359   2.701   4.221   1.155
 6820SOL    HW221360   2.760   4.308   1.280
 6821SOL     OW21361   3.200   2.856   5.846
 6821SOL    HW121362   3.122   2.830   5.790
 6821SOL    HW221363   3.285   2.826   5.801
 6822SOL     OW21364   6.565   3.899   4.940
 6822SOL    HW121365   6.483   3.933   4.986
 6822SOL    HW221366   6.545   3.882   4.843
 6823SOL     OW21367   6.598   3.182   5.544
 6823SOL    HW121368   6.529   3.203   5.476
 6823SOL    HW221369   6.648   3.100   5.517
 6824SOL     OW21370   1.041   0.602   3.935
 6824SOL    HW121371   1.052   0.576   3.839
 6824SOL    HW221372   1.036   0.702   3.941
 6825SOL     OW21373   4.597   4.397   1.317
 6825SOL    HW121374   4.588   4.299   1.299
 6825SOL    HW221375   4.514   4.444   1.287
 6826SOL     OW21376   5.660   1.001   3.644
 6826SOL    HW121377   5.583   0.937   3.640
 6826SOL    HW221378   5.630   1.091   3.614
 6827SOL     OW21379   5.063   5.644   5.643
 6827SOL    HW121380   4.999   5.671   5.715
 6827SOL    HW221381   5.038   5.554   5.607
 6828SOL     OW21382   2.777   2.307   2.426
 6828SOL    HW121383   2.733   2.221   2.402
 6828SOL    HW221384   2.839   2.292   2.503
 6829SOL     OW21385   5.187   6.340   4.401
 6829SOL    HW121386   5.236   6.298   4.325
 6829SOL    HW221387   5.116   6.401   4.366
 6830SOL     OW21388   4.203   6.014   2.334
 6830SOL    HW121389   4.294   6.048   2.311
 6830SOL    HW221390   4.134   6.077   2.301
 6831SOL     OW21391   1.816   1.125   6.914
 6831SOL    HW121392   1.760   1.151   6.836
 6831SOL    HW221393   1.879   1.199   6.936
 6832SOL     OW21394   2.832   3.355   0.070
 6832SOL    HW121395   2.783   3.437   0.100
 6832SOL    HW221396   2.913   3.342   0.127
 6833SOL     OW21397   4.533   5.069   6.765
 6833SOL    HW121398   4.513   5.161   6.731
 6833SOL    HW221399   4.575   5.015   6.691
 6834SOL     OW21400   5.762   5.784   5.270
 6834SOL    HW121401   5.840   5.788   5.333
 6834SOL    HW221402   5.680   5.756   5.320
 6835SOL     OW21403   3.878   0.424   3.228
 6835SOL    HW121404   3.911   0.340   3.272
 6835SOL    HW221405   3.797   0.457   3.276
 6836SOL     OW21406   0.602   4.275   6.975
 6836SOL    HW121407   0.580   4.201   6.911
 6836SOL    HW221408   0.645   4.237   0.030
 6837SOL     OW21409   6.207   1.523   1.516
 6837SOL    HW121410   6.196   1.614   1.474
 6837SOL    HW221411   6.276   1.471   1.465
 6838SOL     OW21412   2.808   3.987   5.768
 6838SOL    HW121413   2.772   4.079   5.786
 6838SOL    HW221414   2.906   3.985   5.791
 6839SOL     OW21415   5.908   2.548   5.732
 6839SOL    HW121416   5.880   2.561   5.637
 6839SOL    HW221417   5.993   2.496   5.734
 6840SOL     OW21418   3.581   6.716   4.705
 6840SOL    HW121419   3.667   6.742   4.661
 6840SOL    HW221420   3.601   6.652   4.780
 6841SOL     OW21421   4.477   6.921   0.296
 6841SOL    HW121422   4.513   7.006   0.335
 6841SOL    HW221423   4.377   6.920   0.304
 6842SOL     OW21424   1.077   3.078   3.234
 6842SOL    HW121425   1.086   3.158   3.175
 6842SOL    HW221426   1.096   2.995   3.182
 6843SOL     OW21427   4.853   2.809   2.208
 6843SOL    HW121428   4.821   2.863   2.129
 6843SOL    HW221429   4.792   2.732   2.222
 6844SOL     OW21430   3.611   6.799   4.995
 6844SOL    HW121431   3.629   6.809   4.897
 6844SOL    HW221432   3.515   6.820   5.013
 6845SOL     OW21433   4.154   4.044   6.982
 6845SOL    HW121434   4.131   4.026   0.050
 6845SOL    HW221435   4.141   4.142   6.962
 6846SOL     OW21436   4.084   3.707   3.326
 6846SOL    HW121437   4.047   3.800   3.329
 6846SOL    HW221438   4.083   3.668   3.417
 6847SOL     OW21439   5.819   2.760   2.557
 6847SOL    HW121440   5.902   2.802   2.593
 6847SOL    HW221441   5.752   2.831   2.536
 6848SOL     OW21442   0.893   6.031   4.727
 6848SOL    HW121443   0.798   6.058   4.741
 6848SOL    HW221444   0.899   5.932   4.720
 6849SOL     OW21445   3.281   0.483   5.180
 6849SOL    HW121446   3.294   0.442   5.270
 6849SOL    HW221447   3.196   0.448   5.140
 6850SOL     OW21448   6.336   3.731   1.465
 6850SOL    HW121449   6.432   3.710   1.482
 6850SOL    HW221450   6.328   3.796   1.390
 6851SOL     OW21451   1.300   5.875   6.346
 6851SOL    HW121452   1.323   5.847   6.253
 6851SOL    HW221453   1.370   5.937   6.381
 6852SOL     OW21454   6.329   5.233   2.008
 6852SOL    HW121455   6.229   5.239   2.010
 6852SOL    HW221456   6.356   5.151   1.957
 6853SOL     OW21457   6.024   4.351   4.612
 6853SOL    HW121458   6.074   4.424   4.659
 6853SOL    HW221459   5.931   4.382   4.593
 6854SOL     OW21460   6.469   1.699   6.548
 6854SOL    HW121461   6.458   1.704   6.648
 6854SOL    HW221462   6.379   1.688   6.506
 6855SOL     OW21463   3.205   6.420   2.400
 6855SOL    HW121464   3.180   6.446   2.307
 6855SOL    HW221465   3.301   6.393   2.403
 6856SOL     OW21466   0.689   5.616   5.773
 6856SOL    HW121467   0.686   5.517   5.765
 6856SOL    HW221468   0.636   5.645   5.853
 6857SOL     OW21469   4.914   1.352   6.903
 6857SOL    HW121470   4.900   1.428   6.966
 6857SOL    HW221471   4.854   1.363   6.824
 6858SOL     OW21472   3.515   3.144   6.835
 6858SOL    HW121473   3.520   3.087   6.752
 6858SOL    HW221474   3.533   3.087   6.915
 6859SOL     OW21475   3.748   0.753   0.469
 6859SOL    HW121476   3.692   0.776   0.549
 6859SOL    HW221477   3.696   0.772   0.386
 6860SOL     OW21478   4.732   3.791   0.104
 6860SOL    HW121479   4.729   3.889   0.086
 6860SOL    HW221480   4.691   3.771   0.193
 6861SOL     OW21481   5.697   3.917   0.830
 6861SOL    HW121482   5.718   3.829   0.789
 6861SOL    HW221483   5.773   3.981   0.813
 6862SOL     OW21484   2.669   5.449   4.373
 6862SOL    HW121485   2.743   5.473   4.436
 6862SOL    HW221486   2.582   5.454   4.421
 6863SOL     OW21487   1.170   2.973   3.482
 6863SOL    HW121488   1.155   2.879   3.452
 6863SOL    HW221489   1.151   3.036   3.406
 6864SOL     OW21490   3.817   5.732   6.584
 6864SOL    HW121491   3.880   5.759   6.658
 6864SOL    HW221492   3.854   5.763   6.497
 6865SOL     OW21493   0.030   3.475   4.380
 6865SOL    HW121494   0.045   3.377   4.365
 6865SOL    HW221495   0.013   3.519   4.292
 6866SOL     OW21496   1.117   3.216   2.294
 6866SOL    HW121497   1.166   3.301   2.312
 6866SOL    HW221498   1.168   3.161   2.229
 6867SOL     OW21499   2.232   5.032   2.870
 6867SOL    HW121500   2.160   4.965   2.854
 6867SOL    HW221501   2.302   5.025   2.799
 6868SOL     OW21502   2.228   5.546   4.774
 6868SOL    HW121503   2.217   5.625   4.713
 6868SOL    HW221504   2.139   5.510   4.800
 6869SOL     OW21505   7.013   3.420   5.276
 6869SOL    HW121506   0.083   3.399   5.268
 6869SOL    HW221507   6.963   3.338   5.306
 6870SOL     OW21508   6.037   3.407   2.310
 6870SOL    HW121509   5.948   3.423   2.353
 6870SOL    HW221510   6.031   3.327   2.250
 6871SOL     OW21511   4.937   6.046   1.731
 6871SOL    HW121512   4.893   5.962   1.699
 6871SOL    HW221513   5.027   6.024   1.768
 6872SOL     OW21514   3.686   4.135   0.381
 6872SOL    HW121515   3.690   4.234   0.395
 6872SOL    HW221516   3.646   4.092   0.462
 6873SOL     OW21517   5.777   4.694   4.788
 6873SOL    HW121518   5.857   4.737   4.830
 6873SOL    HW221519   5.784   4.595   4.798
 6874SOL     OW21520   0.772   1.956   5.761
 6874SOL    HW121521   0.833   1.992   5.690
 6874SOL    HW221522   0.827   1.919   5.836
 6875SOL     OW21523   4.119   1.197   4.314
 6875SOL    HW121524   4.083   1.266   4.252
 6875SOL    HW221525   4.048   1.170   4.380
 6876SOL     OW21526   3.609   5.806   4.982
 6876SOL    HW121527   3.706   5.829   4.995
 6876SOL    HW221528   3.584   5.822   4.887
 6877SOL     OW21529   1.666   3.569   5.836
 6877SOL    HW121530   1.695   3.598   5.745
 6877SOL    HW221531   1.716   3.487   5.862
 6878SOL     OW21532   1.471   1.643   4.035
 6878SOL    HW121533   1.538   1.695   3.980
 6878SOL    HW221534   1.380   1.682   4.021
 6879SOL     OW21535   0.243   0.932   5.585
 6879SOL    HW121536   0.196   0.975   5.661
 6879SOL    HW221537   0.314   0.870   5.619
 6880SOL     OW21538   2.009   3.895   4.419
 6880SOL    HW121539   1.999   3.988   4.454
 6880SOL    HW221540   2.029   3.833   4.495
 6881SOL     OW21541   5.983   6.080   1.443
 6881SOL    HW121542   5.976   5.993   1.393
 6881SOL    HW221543   6.037   6.066   1.526
 6882SOL     OW21544   2.371   6.156   5.377
 6882SOL    HW121545   2.323   6.210   5.447
 6882SOL    HW221546   2.338   6.182   5.286
 6883SOL     OW21547   3.283   5.932   1.987
 6883SOL    HW121548   3.260   5.902   1.894
 6883SOL    HW221549   3.247   6.024   2.003
 6884SOL     OW21550   2.110   5.090   2.457
 6884SOL    HW121551   2.020   5.046   2.458
 6884SOL    HW221552   2.178   5.028   2.495
 6885SOL     OW21553   3.964   5.341   4.772
 6885SOL    HW121554   4.057   5.355   4.807
 6885SOL    HW221555   3.954   5.247   4.742
 6886SOL     OW21556   5.311   1.098   2.287
 6886SOL    HW121557   5.296   1.070   2.382
 6886SOL    HW221558   5.346   1.020   2.235
 6887SOL     OW21559   5.416   0.728   5.443
 6887SOL    HW121560   5.428   0.655   5.376
 6887SOL    HW221561   5.480   0.713   5.519
 6888SOL     OW21562   6.130   6.764   4.537
 6888SOL    HW121563   6.197   6.707   4.585
 6888SOL    HW221564   6.168   6.796   4.451
 6889SOL     OW21565   1.664   4.833   5.955
 6889SOL    HW121566   1.662   4.734   5.964
 6889SOL    HW221567   1.747   4.861   5.908
 6890SOL     OW21568   1.997   0.493   0.911
 6890SOL    HW121569   1.897   0.486   0.914
 6890SOL    HW221570   2.036   0.402   0.895
 6891SOL     OW21571   3.320   5.414   5.580
 6891SOL    HW121572   3.376   5.335   5.557
 6891SOL    HW221573   3.378   5.494   5.594
 6892SOL     OW21574   3.499   1.316   4.763
 6892SOL    HW121575   3.510   1.250   4.689
 6892SOL    HW221576   3.484   1.407   4.726
 6893SOL     OW21577   5.637   0.823   1.557
 6893SOL    HW121578   5.599   0.789   1.471
 6893SOL    HW221579   5.572   0.886   1.600
 6894SOL     OW21580   5.993   4.634   6.566
 6894SOL    HW121581   5.976   4.726   6.600
 6894SOL    HW221582   5.941   4.620   6.481
 6895SOL     OW21583   3.909   5.847   6.332
 6895SOL    HW121584   3.908   5.941   6.300
 6895SOL    HW221585   3.995   5.803   6.306
 6896SOL     OW21586   4.654   1.060   2.513
 6896SOL    HW121587   4.741   1.013   2.504
 6896SOL    HW221588   4.655   1.118   2.595
 6897SOL     OW21589   3.736   0.633   1.018
 6897SOL    HW121590   3.647   0.588   1.025
 6897SOL    HW221591   3.758   0.649   0.922
 6898SOL     OW21592   3.891   1.050   2.648
 6898SOL    HW121593   3.920   1.123   2.586
 6898SOL    HW221594   3.874   1.087   2.739
 6899SOL     OW21595   5.990   6.110   6.557
 6899SOL    HW121596   6.047   6.037   6.594
 6899SOL    HW221597   6.030   6.143   6.472
 6900SOL     OW21598   4.524   1.495   6.496
 6900SOL    HW121599   4.482   1.405   6.485
 6900SOL    HW221600   4.502   1.531   6.587
 6901SOL     OW21601   1.439   1.055   0.002
 6901SOL    HW121602   1.526   1.019   0.034
 6901SOL    HW221603   1.364   0.996   0.035
 6902SOL     OW21604   6.349   5.825   2.445
 6902SOL    HW121605   6.408   5.889   2.494
 6902SOL    HW221606   6.343   5.853   2.349
 6903SOL     OW21607   4.770   4.473   0.442
 6903SOL    HW121608   4.855   4.455   0.393
 6903SOL    HW221609   4.789   4.478   0.541
 6904SOL     OW21610   0.664   1.242   2.882
 6904SOL    HW121611   0.763   1.230   2.891
 6904SOL    HW221612   0.622   1.154   2.860
 6905SOL     OW21613   3.950   5.648   1.265
 6905SOL    HW121614   3.856   5.614   1.263
 6905SOL    HW221615   3.969   5.686   1.356
 6906SOL     OW21616   6.127   6.464   3.321
 6906SOL    HW121617   6.114   6.388   3.257
 6906SOL    HW221618   6.046   6.473   3.379
 6907SOL     OW21619   3.337   0.764   1.356
 6907SOL    HW121620   3.425   0.812   1.360
 6907SOL    HW221621   3.293   0.769   1.445
 6908SOL     OW21622   6.033   6.990   6.807
 6908SOL    HW121623   6.028   6.912   6.745
 6908SOL    HW221624   6.108   0.023   6.779
 6909SOL     OW21625   2.310   2.555   6.663
 6909SOL    HW121626   2.253   2.547   6.581
 6909SOL    HW221627   2.406   2.544   6.638
 6910SOL     OW21628   5.491   1.026   1.704
 6910SOL    HW121629   5.498   0.975   1.790
 6910SOL    HW221630   5.422   1.098   1.712
 6911SOL     OW21631   4.252   0.661   5.106
 6911SOL    HW121632   4.348   0.688   5.093
 6911SOL    HW221633   4.233   0.654   5.204
 6912SOL     OW21634   4.395   4.728   1.831
 6912SOL    HW121635   4.361   4.712   1.923
 6912SOL    HW221636   4.318   4.741   1.768
 6913SOL     OW21637   4.682   5.482   5.581
 6913SOL    HW121638   4.718   5.406   5.635
 6913SOL    HW221639   4.632   5.544   5.641
 6914SOL     OW21640   5.960   5.235   0.058
 6914SOL    HW121641   5.885   5.175   0.028
 6914SOL    HW221642   5.987   5.294   7.009
 6915SOL     OW21643   0.843   5.748   0.908
 6915SOL    HW121644   0.882   5.735   0.999
 6915SOL    HW221645   0.845   5.846   0.885
 6916SOL     OW21646   6.089   0.225   5.712
 6916SOL    HW121647   6.094   0.229   5.612
 6916SOL    HW221648   6.014   0.284   5.744
 6917SOL     OW21649   4.544   0.242   6.814
 6917SOL    HW121650   4.642   0.230   6.825
 6917SOL    HW221651   4.523   0.263   6.719
 6918SOL     OW21652   2.300   2.967   3.689
 6918SOL    HW121653   2.318   2.928   3.599
 6918SOL    HW221654   2.251   3.053   3.679
 6919SOL     OW21655   0.937   6.265   3.641
 6919SOL    HW121656   0.866   6.238   3.706
 6919SOL    HW221657   0.985   6.184   3.608
 6920SOL     OW21658   5.208   5.989   4.358
 6920SOL    HW121659   5.164   5.974   4.270
 6920SOL    HW221660   5.299   5.948   4.357
 6921SOL     OW21661   1.134   5.900   3.956
 6921SOL    HW121662   1.195   5.886   4.034
 6921SOL    HW221663   1.170   5.974   3.899
 6922SOL     OW21664   1.837   6.619   0.796
 6922SOL    HW121665   1.740   6.630   0.819
 6922SOL    HW221666   1.868   6.529   0.825
 6923SOL     OW21667   5.146   6.005   4.066
 6923SOL    HW121668   5.219   5.969   4.009
 6923SOL    HW221669   5.133   6.103   4.047
 6924SOL     OW21670   6.720   6.187   1.520
 6924SOL    HW121671   6.660   6.108   1.534
 6924SOL    HW221672   6.753   6.188   1.426
 6925SOL     OW21673   5.850   5.567   2.941
 6925SOL    HW121674   5.893   5.499   3.000
 6925SOL    HW221675   5.893   5.562   2.850
 6926SOL     OW21676   2.683   4.390   5.548
 6926SOL    HW121677   2.764   4.359   5.497
 6926SOL    HW221678   2.712   4.455   5.619
 6927SOL     OW21679   4.376   3.680   0.892
 6927SOL    HW121680   4.315   3.620   0.944
 6927SOL    HW221681   4.467   3.679   0.933
 6928SOL     OW21682   6.718   0.604   6.235
 6928SOL    HW121683   6.675   0.519   6.204
 6928SOL    HW221684   6.710   0.612   6.334
 6929SOL     OW21685   2.871   4.958   1.281
 6929SOL    HW121686   2.961   4.979   1.318
 6929SOL    HW221687   2.806   5.028   1.308
 6930SOL     OW21688   1.071   0.396   2.973
 6930SOL    HW121689   1.037   0.311   3.015
 6930SOL    HW221690   1.124   0.373   2.892
 6931SOL     OW21691   2.210   0.167   0.206
 6931SOL    HW121692   2.285   0.101   0.216
 6931SOL    HW221693   2.248   0.259   0.201
 6932SOL     OW21694   2.425   2.351   0.050
 6932SOL    HW121695   2.497   2.323   0.114
 6932SOL    HW221696   2.353   2.399   0.100
 6933SOL     OW21697   2.375   5.850   5.675
 6933SOL    HW121698   2.427   5.925   5.717
 6933SOL    HW221699   2.326   5.885   5.594
 6934SOL     OW21700   5.744   5.095   6.414
 6934SOL    HW121701   5.714   5.145   6.495
 6934SOL    HW221702   5.763   5.160   6.340
 6935SOL     OW21703   4.287   5.735   3.535
 6935SOL    HW121704   4.332   5.649   3.559
 6935SOL    HW221705   4.328   5.810   3.587
 6936SOL     OW21706   0.836   4.650   0.817
 6936SOL    HW121707   0.910   4.585   0.836
 6936SOL    HW221708   0.767   4.645   0.889
 6937SOL     OW21709   4.432   6.432   5.441
 6937SOL    HW121710   4.335   6.421   5.465
 6937SOL    HW221711   4.475   6.342   5.434
 6938SOL     OW21712   5.519   2.463   5.109
 6938SOL    HW121713   5.443   2.520   5.141
 6938SOL    HW221714   5.602   2.518   5.103
 6939SOL     OW21715   0.083   4.690   1.976
 6939SOL    HW121716   0.007   4.732   1.927
 6939SOL    HW221717   0.099   4.598   1.941
 6940SOL     OW21718   4.378   0.137   4.675
 6940SOL    HW121719   4.433   0.175   4.601
 6940SOL    HW221720   4.431   0.135   4.760
 6941SOL     OW21721   4.074   3.628   4.433
 6941SOL    HW121722   4.070   3.568   4.513
 6941SOL    HW221723   4.153   3.604   4.377
 6942SOL     OW21724   6.396   1.748   6.833
 6942SOL    HW121725   6.428   1.676   6.894
 6942SOL    HW221726   6.405   1.837   6.878
 6943SOL     OW21727   6.338   5.788   6.976
 6943SOL    HW121728   6.258   5.837   7.010
 6943SOL    HW221729   6.398   5.851   6.927
 6944SOL     OW21730   1.283   6.417   0.012
 6944SOL    HW121731   1.239   6.408   0.101
 6944SOL    HW221732   1.328   6.331   7.016
 6945SOL     OW21733   4.846   2.042   5.768
 6945SOL    HW121734   4.790   2.119   5.738
 6945SOL    HW221735   4.797   1.991   5.839
 6946SOL     OW21736   5.918   3.499   3.461
 6946SOL    HW121737   5.969   3.433   3.406
 6946SOL    HW221738   5.881   3.453   3.542
 6947SOL     OW21739   3.590   6.989   1.612
 6947SOL    HW121740   3.569   6.952   1.703
 6947SOL    HW221741   3.666   6.938   1.572
 6948SOL     OW21742   3.963   2.308   5.276
 6948SOL    HW121743   3.917   2.261   5.200
 6948SOL    HW221744   4.006   2.391   5.242
 6949SOL     OW21745   4.528   1.188   2.328
 6949SOL    HW121746   4.587   1.131   2.385
 6949SOL    HW221747   4.582   1.261   2.287
 6950SOL     OW21748   2.711   1.848   3.840
 6950SOL    HW121749   2.773   1.922   3.866
 6950SOL    HW221750   2.751   1.795   3.765
 6951SOL     OW21751   4.908   5.006   5.295
 6951SOL    HW121752   4.829   5.045   5.249
 6951SOL    HW221753   4.967   4.962   5.227
 6952SOL     OW21754   0.203   5.102   5.138
 6952SOL    HW121755   0.274   5.032   5.124
 6952SOL    HW221756   0.141   5.102   5.059
 6953SOL     OW21757   5.284   2.588   5.181
 6953SOL    HW121758   5.271   2.617   5.275
 6953SOL    HW221759   5.272   2.489   5.174
 6954SOL     OW21760   0.584   4.445   2.264
 6954SOL    HW121761   0.495   4.403   2.281
 6954SOL    HW221762   0.573   4.522   2.201
 6955SOL     OW21763   6.998   6.916   2.726
 6955SOL    HW121764   6.908   6.874   2.725
 6955SOL    HW221765   6.993   7.006   2.682
 6956SOL     OW21766   2.284   4.470   1.101
 6956SOL    HW121767   2.336   4.452   1.018
 6956SOL    HW221768   2.332   4.538   1.157
 6957SOL     OW21769   0.973   3.849   6.622
 6957SOL    HW121770   1.067   3.878   6.635
 6957SOL    HW221771   0.911   3.917   6.662
 6958SOL     OW21772   2.184   3.386   6.107
 6958SOL    HW121773   2.167   3.435   6.021
 6958SOL    HW221774   2.171   3.448   6.184
 6959SOL     OW21775   3.752   1.442   3.624
 6959SOL    HW121776   3.796   1.353   3.640
 6959SOL    HW221777   3.681   1.432   3.555
 6960SOL     OW21778   0.778   4.675   0.050
 6960SOL    HW121779   0.826   4.758   0.020
 6960SOL    HW221780   0.730   4.634   7.000
 6961SOL     OW21781   6.555   1.323   3.144
 6961SOL    HW121782   6.522   1.310   3.050
 6961SOL    HW221783   6.569   1.235   3.188
 6962SOL     OW21784   3.946   3.536   0.813
 6962SOL    HW121785   3.886   3.501   0.885
 6962SOL    HW221786   3.936   3.635   0.807
 6963SOL     OW21787   6.240   6.221   2.365
 6963SOL    HW121788   6.172   6.290   2.338
 6963SOL    HW221789   6.206   6.169   2.443
 6964SOL     OW21790   3.546   5.682   5.427
 6964SOL    HW121791   3.496   5.697   5.341
 6964SOL    HW221792   3.513   5.746   5.496
 6965SOL     OW21793   6.337   1.956   5.660
 6965SOL    HW121794   6.407   1.886   5.663
 6965SOL    HW221795   6.338   2.001   5.571
 6966SOL     OW21796   5.357   2.588   4.257
 6966SOL    HW121797   5.324   2.534   4.180
 6966SOL    HW221798   5.330   2.684   4.244
 6967SOL     OW21799   2.566   2.205   6.042
 6967SOL    HW121800   2.643   2.235   5.986
 6967SOL    HW221801   2.505   2.283   6.059
 6968SOL     OW21802   4.315   6.900   3.854
 6968SOL    HW121803   4.301   6.811   3.812
 6968SOL    HW221804   4.283   6.972   3.793
 6969SOL     OW21805   3.059   2.679   0.909
 6969SOL    HW121806   3.093   2.586   0.923
 6969SOL    HW221807   3.035   2.691   0.813
 6970SOL     OW21808   4.472   4.392   0.467
 6970SOL    HW121809   4.436   4.485   0.466
 6970SOL    HW221810   4.565   4.392   0.502
 6971SOL     OW21811   5.910   1.211   2.041
 6971SOL    HW121812   5.993   1.262   2.062
 6971SOL    HW221813   5.853   1.204   2.122
 6972SOL     OW21814   5.727   5.183   4.579
 6972SOL    HW121815   5.775   5.102   4.545
 6972SOL    HW221816   5.633   5.159   4.601
 6973SOL     OW21817   1.792   3.788   2.953
 6973SOL    HW121818   1.826   3.743   3.035
 6973SOL    HW221819   1.867   3.803   2.889
 6974SOL     OW21820   3.544   4.186   4.784
 6974SOL    HW121821   3.498   4.269   4.752
 6974SOL    HW221822   3.590   4.205   4.871
 6975SOL     OW21823   2.964   0.472   5.945
 6975SOL    HW121824   2.944   0.570   5.945
 6975SOL    HW221825   3.027   0.451   5.871
 6976SOL     OW21826   1.284   6.514   0.516
 6976SOL    HW121827   1.308   6.486   0.422
 6976SOL    HW221828   1.193   6.556   0.516
 6977SOL     OW21829   4.712   2.755   2.491
 6977SOL    HW121830   4.780   2.828   2.485
 6977SOL    HW221831   4.674   2.737   2.401
 6978SOL     OW21832   4.456   1.635   3.076
 6978SOL    HW121833   4.379   1.695   3.054
 6978SOL    HW221834   4.476   1.575   2.998
 6979SOL     OW21835   0.237   4.970   3.715
 6979SOL    HW121836   0.298   4.893   3.697
 6979SOL    HW221837   0.152   4.959   3.664
 6980SOL     OW21838   4.445   0.926   4.572
 6980SOL    HW121839   4.428   0.905   4.669
 6980SOL    HW221840   4.494   1.012   4.565
 6981SOL     OW21841   3.191   3.935   0.059
 6981SOL    HW121842   3.093   3.952   0.072
 6981SOL    HW221843   3.221   3.863   0.121
 6982SOL     OW21844   0.650   0.058   4.670
 6982SOL    HW121845   0.718   0.056   4.743
 6982SOL    HW221846   0.561   0.032   4.706
 6983SOL     OW21847   6.935   0.510   2.851
 6983SOL    HW121848   7.013   0.473   2.801
 6983SOL    HW221849   6.879   0.565   2.788
 6984SOL     OW21850   2.084   0.932   5.539
 6984SOL    HW121851   2.043   0.914   5.450
 6984SOL    HW221852   2.084   0.848   5.594
 6985SOL     OW21853   5.351   7.023   4.041
 6985SOL    HW121854   5.339   6.943   4.099
 6985SOL    HW221855   5.297   7.013   3.958
 6986SOL     OW21856   1.767   6.986   5.063
 6986SOL    HW121857   1.779   6.911   5.128
 6986SOL    HW221858   1.790   6.955   4.971
 6987SOL     OW21859   6.594   3.466   6.346
 6987SOL    HW121860   6.551   3.548   6.310
 6987SOL    HW221861   6.549   3.438   6.431
 6988SOL     OW21862   5.715   1.577   5.791
 6988SOL    HW121863   5.670   1.509   5.733
 6988SOL    HW221864   5.719   1.544   5.885
 6989SOL     OW21865   2.099   3.170   3.597
 6989SOL    HW121866   2.002   3.167   3.620
 6989SOL    HW221867   2.144   3.239   3.653
 6990SOL     OW21868   4.245   3.482   1.070
 6990SOL    HW121869   4.191   3.422   1.011
 6990SOL    HW221870   4.320   3.431   1.112
 6991SOL     OW21871   4.696   4.544   5.361
 6991SOL    HW121872   4.752   4.621   5.392
 6991SOL    HW221873   4.616   4.534   5.420
 6992SOL     OW21874   6.450   6.729   4.752
 6992SOL    HW121875   6.372   6.675   4.784
 6992SOL    HW221876   6.472   6.703   4.658
 6993SOL     OW21877   6.978   6.418   3.577
 6993SOL    HW121878   0.000   6.476   3.642
 6993SOL    HW221879   7.009   6.438   3.484
 6994SOL     OW21880   1.277   2.957   0.377
 6994SOL    HW121881   1.278   2.985   0.281
 6994SOL    HW221882   1.182   2.957   0.410
 6995SOL     OW21883   1.306   5.529   3.808
 6995SOL    HW121884   1.246   5.529   3.888
 6995SOL    HW221885   1.263   5.477   3.734
 6996SOL     OW21886   1.940   6.937   6.569
 6996SOL    HW121887   1.968   6.910   6.477
 6996SOL    HW221888   1.845   6.912   6.584
 6997SOL     OW21889   4.790   6.166   4.273
 6997SOL    HW121890   4.790   6.169   4.373
 6997SOL    HW221891   4.789   6.070   4.243
 6998SOL     OW21892   2.566   1.972   3.324
 6998SOL    HW121893   2.577   1.999   3.228
 6998SOL    HW221894   2.582   1.874   3.334
 6999SOL     OW21895   5.299   2.256   0.043
 6999SOL    HW121896   5.370   2.188   0.062
 6999SOL    HW221897   5.212   2.224   0.082
 7000SOL     OW21898   6.750   0.343   1.495
 7000SOL    HW121899   6.735   0.410   1.422
 7000SOL    HW221900   6.806   0.384   1.567
 7001SOL     OW21901   2.727   1.446   5.630
 7001SOL    HW121902   2.653   1.393   5.591
 7001SOL    HW221903   2.709   1.544   5.617
 7002SOL     OW21904   2.052   4.268   2.176
 7002SOL    HW121905   2.120   4.333   2.210
 7002SOL    HW221906   2.090   4.175   2.182
 7003SOL     OW21907   1.541   6.127   5.899
 7003SOL    HW121908   1.532   6.041   5.849
 7003SOL    HW221909   1.456   6.179   5.892
 7004SOL     OW21910   1.243   3.998   6.569
 7004SOL    HW121911   1.262   4.016   6.665
 7004SOL    HW221912   1.202   4.079   6.527
 7005SOL     OW21913   6.432   6.864   6.275
 7005SOL    HW121914   6.404   6.909   6.359
 7005SOL    HW221915   6.416   6.926   6.197
 7006SOL     OW21916   4.475   4.674   3.985
 7006SOL    HW121917   4.403   4.656   4.052
 7006SOL    HW221918   4.535   4.595   3.977
 7007SOL     OW21919   4.981   4.996   2.801
 7007SOL    HW121920   4.978   4.897   2.783
 7007SOL    HW221921   5.072   5.031   2.779
 7008SOL     OW21922   1.134   4.680   4.840
 7008SOL    HW121923   1.035   4.681   4.849
 7008SOL    HW221924   1.175   4.641   4.923
 7009SOL     OW21925   0.464   4.218   2.764
 7009SOL    HW121926   0.476   4.121   2.745
 7009SOL    HW221927   0.371   4.246   2.739
 7010SOL     OW21928   4.686   4.652   6.563
 7010SOL    HW121929   4.660   4.691   6.651
 7010SOL    HW221930   4.775   4.606   6.571
 7011SOL     OW21931   1.080   1.268   5.585
 7011SOL    HW121932   1.040   1.204   5.651
 7011SOL    HW221933   1.012   1.335   5.558
 7012SOL     OW21934   1.397   1.688   1.649
 7012SOL    HW121935   1.490   1.660   1.670
 7012SOL    HW221936   1.368   1.760   1.712
 7013SOL     OW21937   6.938   1.650   1.435
 7013SOL    HW121938   6.937   1.563   1.484
 7013SOL    HW221939   6.868   1.710   1.474
 7014SOL     OW21940   2.206   4.962   0.651
 7014SOL    HW121941   2.151   5.021   0.593
 7014SOL    HW221942   2.207   4.869   0.613
 7015SOL     OW21943   5.166   1.761   2.548
 7015SOL    HW121944   5.179   1.715   2.460
 7015SOL    HW221945   5.156   1.860   2.533
 7016SOL     OW21946   4.180   4.729   1.659
 7016SOL    HW121947   4.213   4.635   1.658
 7016SOL    HW221948   4.204   4.774   1.573
 7017SOL     OW21949   4.808   2.248   4.639
 7017SOL    HW121950   4.712   2.245   4.609
 7017SOL    HW221951   4.868   2.236   4.560
 7018SOL     OW21952   0.666   3.381   3.328
 7018SOL    HW121953   0.688   3.388   3.231
 7018SOL    HW221954   0.612   3.298   3.344
 7019SOL     OW21955   1.206   5.688   1.081
 7019SOL    HW121956   1.207   5.736   0.993
 7019SOL    HW221957   1.128   5.720   1.135
 7020SOL     OW21958   0.095   6.308   6.850
 7020SOL    HW121959   0.170   6.264   6.799
 7020SOL    HW221960   0.008   6.267   6.823
 7021SOL     OW21961   3.999   0.228   5.943
 7021SOL    HW121962   4.040   0.161   5.881
 7021SOL    HW221963   3.990   0.188   6.035
 7022SOL     OW21964   4.227   5.509   6.337
 7022SOL    HW121965   4.258   5.424   6.294
 7022SOL    HW221966   4.189   5.569   6.267
 7023SOL     OW21967   5.637   4.071   2.319
 7023SOL    HW121968   5.730   4.038   2.336
 7023SOL    HW221969   5.593   4.012   2.251
 7024SOL     OW21970   6.504   6.454   1.261
 7024SOL    HW121971   6.603   6.446   1.244
 7024SOL    HW221972   6.468   6.533   1.210
 7025SOL     OW21973   2.427   0.525   6.933
 7025SOL    HW121974   2.478   0.608   6.911
 7025SOL    HW221975   2.351   0.547   6.993
 7026SOL     OW21976   3.754   0.993   1.550
 7026SOL    HW121977   3.761   1.092   1.535
 7026SOL    HW221978   3.842   0.950   1.530
 7027SOL     OW21979   4.863   5.884   3.906
 7027SOL    HW121980   4.886   5.872   4.002
 7027SOL    HW221981   4.934   5.939   3.862
 7028SOL     OW21982   3.282   0.339   4.543
 7028SOL    HW121983   3.342   0.395   4.486
 7028SOL    HW221984   3.199   0.317   4.493
 7029SOL     OW21985   4.470   1.460   5.039
 7029SOL    HW121986   4.462   1.463   4.939
 7029SOL    HW221987   4.420   1.381   5.073
 7030SOL     OW21988   2.059   3.017   3.889
 7030SOL    HW121989   2.091   2.978   3.976
 7030SOL    HW221990   2.101   2.968   3.813
 7031SOL     OW21991   1.471   1.092   4.616
 7031SOL    HW121992   1.440   0.997   4.607
 7031SOL    HW221993   1.552   1.106   4.559
 7032SOL     OW21994   5.867   1.942   3.876
 7032SOL    HW121995   5.870   1.997   3.792
 7032SOL    HW221996   5.890   1.999   3.954
 7033SOL     OW21997   0.378   0.069   4.508
 7033SOL    HW121998   0.350   0.039   4.600
 7033SOL    HW221999   0.449   0.139   4.517
 7034SOL     OW22000   0.231   5.059   3.090
 7034SOL    HW122001   0.242   5.025   3.184
 7034SOL    HW222002   0.302   5.127   3.071
 7035SOL     OW22003   6.634   5.139   2.119
 7035SOL    HW122004   6.654   5.043   2.100
 7035SOL    HW222005   6.535   5.153   2.121
 7036SOL     OW22006   6.407   4.727   0.808
 7036SOL    HW122007   6.420   4.767   0.717
 7036SOL    HW222008   6.353   4.789   0.864
 7037SOL     OW22009   0.892   0.870   6.733
 7037SOL    HW122010   0.981   0.914   6.718
 7037SOL    HW222011   0.821   0.940   6.737
 7038SOL     OW22012   2.127   3.393   4.238
 7038SOL    HW122013   2.047   3.365   4.186
 7038SOL    HW222014   2.112   3.377   4.335
 7039SOL     OW22015   3.665   2.680   6.519
 7039SOL    HW122016   3.700   2.721   6.604
 7039SOL    HW222017   3.601   2.744   6.476
 7040SOL     OW22018   5.167   3.082   0.033
 7040SOL    HW122019   5.178   3.080   0.132
 7040SOL    HW222020   5.230   3.017   7.018
 7041SOL     OW22021   1.919   1.186   3.230
 7041SOL    HW122022   1.930   1.095   3.191
 7041SOL    HW222023   1.833   1.226   3.198
 7042SOL     OW22024   1.308   0.610   6.264
 7042SOL    HW122025   1.234   0.671   6.293
 7042SOL    HW222026   1.365   0.656   6.197
 7043SOL     OW22027   1.361   2.291   2.423
 7043SOL    HW122028   1.432   2.281   2.354
 7043SOL    HW222029   1.374   2.376   2.473
 7044SOL     OW22030   5.930   6.554   1.897
 7044SOL    HW122031   5.989   6.600   1.964
 7044SOL    HW222032   5.984   6.531   1.816
 7045SOL     OW22033   6.420   4.878   7.021
 7045SOL    HW122034   6.463   4.967   7.004
 7045SOL    HW222035   6.366   4.852   6.942
 7046SOL     OW22036   2.705   1.308   3.929
 7046SOL    HW122037   2.783   1.302   3.867
 7046SOL    HW222038   2.727   1.265   4.016
 7047SOL     OW22039   1.354   0.791   2.835
 7047SOL    HW122040   1.397   0.836   2.757
 7047SOL    HW222041   1.312   0.860   2.895
 7048SOL     OW22042   6.814   5.597   0.389
 7048SOL    HW122043   6.857   5.660   0.454
 7048SOL    HW222044   6.723   5.573   0.422
 7049SOL     OW22045   2.013   0.735   6.670
 7049SOL    HW122046   2.041   0.799   6.598
 7049SOL    HW222047   1.940   0.676   6.635
 7050SOL     OW22048   3.742   4.104   4.480
 7050SOL    HW122049   3.728   4.043   4.558
 7050SOL    HW222050   3.829   4.151   4.489
 7051SOL     OW22051   6.412   6.430   3.360
 7051SOL    HW122052   6.313   6.432   3.349
 7051SOL    HW222053   6.440   6.498   3.428
 7052SOL     OW22054   0.147   0.707   4.365
 7052SOL    HW122055   0.109   0.731   4.454
 7052SOL    HW222056   0.173   0.790   4.316
 7053SOL     OW22057   6.509   4.566   6.037
 7053SOL    HW122058   6.455   4.540   5.957
 7053SOL    HW222059   6.517   4.666   6.041
 7054SOL     OW22060   6.388   1.528   1.110
 7054SOL    HW122061   6.342   1.443   1.084
 7054SOL    HW222062   6.397   1.532   1.209
 7055SOL     OW22063   4.504   1.637   4.239
 7055SOL    HW122064   4.524   1.574   4.314
 7055SOL    HW222065   4.589   1.667   4.197
 7056SOL     OW22066   4.156   5.026   3.605
 7056SOL    HW122067   4.099   5.082   3.544
 7056SOL    HW222068   4.245   5.070   3.617
 7057SOL     OW22069   6.426   5.864   2.786
 7057SOL    HW122070   6.414   5.962   2.795
 7057SOL    HW222071   6.519   5.844   2.755
 7058SOL     OW22072   0.298   4.428   4.679
 7058SOL    HW122073   0.326   4.425   4.583
 7058SOL    HW222074   0.302   4.337   4.719
 7059SOL     OW22075   2.074   0.396   2.203
 7059SOL    HW122076   2.134   0.316   2.202
 7059SOL    HW222077   2.007   0.389   2.128
 7060SOL     OW22078   2.875   6.705   0.833
 7060SOL    HW122079   2.886   6.777   0.765
 7060SOL    HW222080   2.965   6.678   0.868
 7061SOL     OW22081   0.254   0.645   3.029
 7061SOL    HW122082   0.167   0.599   3.045
 7061SOL    HW222083   0.273   0.708   3.105
 7062SOL     OW22084   0.168   1.173   5.359
 7062SOL    HW122085   0.094   1.216   5.410
 7062SOL    HW222086   0.251   1.171   5.416
 7063SOL     OW22087   2.029   6.878   2.211
 7063SOL    HW122088   2.127   6.875   2.231
 7063SOL    HW222089   2.010   6.826   2.128
 7064SOL     OW22090   4.355   2.846   0.880
 7064SOL    HW122091   4.360   2.945   0.866
 7064SOL    HW222092   4.262   2.814   0.861
 7065SOL     OW22093   3.685   3.382   2.235
 7065SOL    HW122094   3.746   3.460   2.220
 7065SOL    HW222095   3.714   3.305   2.179
 7066SOL     OW22096   2.478   5.529   1.322
 7066SOL    HW122097   2.400   5.527   1.385
 7066SOL    HW222098   2.446   5.560   1.232
 7067SOL     OW22099   0.364   3.954   4.051
 7067SOL    HW122100   0.388   3.923   3.959
 7067SOL    HW222101   0.353   3.874   4.110
 7068SOL     OW22102   1.220   0.086   2.954
 7068SOL    HW122103   1.199   0.111   2.860
 7068SOL    HW222104   1.143   0.110   3.013
 7069SOL     OW22105   1.384   4.470   5.302
 7069SOL    HW122106   1.304   4.501   5.353
 7069SOL    HW222107   1.465   4.522   5.331
 7070SOL     OW22108   5.445   5.620   3.747
 7070SOL    HW122109   5.348   5.624   3.771
 7070SOL    HW222110   5.461   5.542   3.686
 7071SOL     OW22111   1.137   0.625   5.232
 7071SOL    HW122112   1.185   0.628   5.320
 7071SOL    HW222113   1.171   0.700   5.174
 7072SOL     OW22114   0.384   0.210   0.316
 7072SOL    HW122115   0.343   0.144   0.253
 7072SOL    HW222116   0.337   0.205   0.404
 7073SOL     OW22117   1.529   1.893   6.176
 7073SOL    HW122118   1.626   1.898   6.200
 7073SOL    HW222119   1.519   1.907   6.077
 7074SOL     OW22120   2.935   1.363   0.136
 7074SOL    HW122121   2.870   1.321   0.071
 7074SOL    HW222122   3.007   1.410   0.085
 7075SOL     OW22123   0.806   5.560   2.631
 7075SOL    HW122124   0.734   5.500   2.596
 7075SOL    HW222125   0.765   5.647   2.658
 7076SOL     OW22126   3.625   1.759   6.471
 7076SOL    HW122127   3.620   1.711   6.559
 7076SOL    HW222128   3.652   1.695   6.399
 7077SOL     OW22129   1.879   5.069   6.512
 7077SOL    HW122130   1.884   5.048   6.414
 7077SOL    HW222131   1.902   5.166   6.526
 7078SOL     OW22132   6.612   0.621   2.777
 7078SOL    HW122133   6.632   0.719   2.780
 7078SOL    HW222134   6.575   0.591   2.865
 7079SOL     OW22135   5.365   6.062   5.788
 7079SOL    HW122136   5.290   5.997   5.775
 7079SOL    HW222137   5.447   6.012   5.816
 7080SOL     OW22138   5.732   6.908   4.459
 7080SOL    HW122139   5.679   6.916   4.374
 7080SOL    HW222140   5.826   6.938   4.442
 7081SOL     OW22141   4.529   1.280   5.643
 7081SOL    HW122142   4.450   1.270   5.581
 7081SOL    HW222143   4.584   1.358   5.614
 7082SOL     OW22144   5.371   1.215   6.514
 7082SOL    HW122145   5.391   1.187   6.608
 7082SOL    HW222146   5.447   1.268   6.477
 7083SOL     OW22147   3.415   0.491   5.762
 7083SOL    HW122148   3.438   0.486   5.664
 7083SOL    HW222149   3.323   0.454   5.776
 7084SOL     OW22150   6.508   6.016   0.323
 7084SOL    HW122151   6.542   6.099   0.366
 7084SOL    HW222152   6.478   5.952   0.394
 7085SOL     OW22153   3.472   1.493   0.921
 7085SOL    HW122154   3.543   1.542   0.871
 7085SOL    HW222155   3.401   1.557   0.950
 7086SOL     OW22156   0.901   1.605   5.867
 7086SOL    HW122157   0.997   1.628   5.882
 7086SOL    HW222158   0.843   1.677   5.907
 7087SOL     OW22159   2.263   2.911   4.569
 7087SOL    HW122160   2.331   2.951   4.507
 7087SOL    HW222161   2.274   2.949   4.660
 7088SOL     OW22162   0.444   2.087   5.573
 7088SOL    HW122163   0.526   2.043   5.537
 7088SOL    HW222164   0.423   2.050   5.664
 7089SOL     OW22165   2.814   1.744   1.323
 7089SOL    HW122166   2.823   1.837   1.289
 7089SOL    HW222167   2.832   1.742   1.421
 7090SOL     OW22168   2.561   2.464   4.638
 7090SOL    HW122169   2.530   2.516   4.717
 7090SOL    HW222170   2.529   2.509   4.554
 7091SOL     OW22171   0.276   6.706   1.093
 7091SOL    HW122172   0.272   6.684   1.190
 7091SOL    HW222173   0.226   6.636   1.041
 7092SOL     OW22174   3.004   2.924   0.047
 7092SOL    HW122175   3.084   2.893   7.021
 7092SOL    HW222176   2.952   2.990   7.020
 7093SOL     OW22177   4.234   3.430   6.168
 7093SOL    HW122178   4.149   3.381   6.150
 7093SOL    HW222179   4.238   3.512   6.111
 7094SOL     OW22180   6.806   0.934   6.158
 7094SOL    HW122181   6.828   1.004   6.089
 7094SOL    HW222182   6.848   0.959   6.245
 7095SOL     OW22183   0.701   4.190   6.564
 7095SOL    HW122184   0.627   4.144   6.614
 7095SOL    HW222185   0.666   4.273   6.522
 7096SOL     OW22186   4.736   0.669   2.611
 7096SOL    HW122187   4.805   0.645   2.543
 7096SOL    HW222188   4.779   0.723   2.684
 7097SOL     OW22189   1.537   1.034   1.813
 7097SOL    HW122190   1.506   0.971   1.742
 7097SOL    HW222191   1.588   1.109   1.772
 7098SOL     OW22192   1.147   0.091   6.015
 7098SOL    HW122193   1.178   0.001   6.045
 7098SOL    HW222194   1.196   0.118   5.933
 7099SOL     OW22195   0.412   1.228   5.453
 7099SOL    HW122196   0.465   1.263   5.531
 7099SOL    HW222197   0.432   1.284   5.373
 7100SOL     OW22198   5.646   2.118   1.087
 7100SOL    HW122199   5.663   2.105   0.989
 7100SOL    HW222200   5.550   2.141   1.101
 7101SOL     OW22201   1.210   0.711   4.229
 7101SOL    HW122202   1.293   0.671   4.189
 7101SOL    HW222203   1.163   0.641   4.282
 7102SOL     OW22204   5.325   3.326   0.962
 7102SOL    HW122205   5.347   3.275   1.046
 7102SOL    HW222206   5.226   3.333   0.952
 7103SOL     OW22207   2.743   6.906   5.838
 7103SOL    HW122208   2.833   6.900   5.795
 7103SOL    HW222209   2.720   7.002   5.855
 7104SOL     OW22210   0.560   2.186   1.470
 7104SOL    HW122211   0.584   2.089   1.461
 7104SOL    HW222212   0.558   2.211   1.567
 7105SOL     OW22213   2.266   4.189   5.259
 7105SOL    HW122214   2.341   4.188   5.326
 7105SOL    HW222215   2.267   4.104   5.206
 7106SOL     OW22216   3.053   2.597   5.331
 7106SOL    HW122217   2.968   2.622   5.285
 7106SOL    HW222218   3.096   2.521   5.283
 7107SOL     OW22219   2.416   0.795   0.060
 7107SOL    HW122220   2.417   0.798   0.160
 7107SOL    HW222221   2.324   0.776   0.028
 7108SOL     OW22222   4.227   6.525   1.966
 7108SOL    HW122223   4.310   6.523   2.020
 7108SOL    HW222224   4.171   6.603   1.994
 7109SOL     OW22225   3.619   6.303   6.134
 7109SOL    HW122226   3.578   6.257   6.213
 7109SOL    HW222227   3.699   6.355   6.164
 7110SOL     OW22228   3.363   4.977   3.389
 7110SOL    HW122229   3.457   4.979   3.422
 7110SOL    HW222230   3.357   5.025   3.302
 7111SOL     OW22231   1.963   2.415   3.534
 7111SOL    HW122232   1.901   2.490   3.513
 7111SOL    HW222233   2.026   2.443   3.606
 7112SOL     OW22234   1.511   6.157   2.326
 7112SOL    HW122235   1.563   6.179   2.408
 7112SOL    HW222236   1.415   6.180   2.340
 7113SOL     OW22237   3.886   4.122   4.884
 7113SOL    HW122238   3.921   4.058   4.814
 7113SOL    HW222239   3.916   4.215   4.862
 7114SOL     OW22240   4.185   0.010   0.593
 7114SOL    HW122241   4.258   6.971   0.609
 7114SOL    HW222242   4.117   0.002   0.666
 7115SOL     OW22243   4.533   1.397   1.678
 7115SOL    HW122244   4.590   1.332   1.729
 7115SOL    HW222245   4.488   1.350   1.603
 7116SOL     OW22246   6.414   3.549   2.559
 7116SOL    HW122247   6.332   3.493   2.545
 7116SOL    HW222248   6.470   3.508   2.631
 7117SOL     OW22249   6.139   6.556   2.509
 7117SOL    HW122250   6.168   6.617   2.434
 7117SOL    HW222251   6.220   6.527   2.561
 7118SOL     OW22252   6.585   2.623   2.387
 7118SOL    HW122253   6.631   2.538   2.365
 7118SOL    HW222254   6.631   2.668   2.464
 7119SOL     OW22255   1.011   2.025   2.784
 7119SOL    HW122256   1.019   1.989   2.691
 7119SOL    HW222257   0.922   2.070   2.794
 7120SOL     OW22258   5.133   5.931   3.481
 7120SOL    HW122259   5.038   5.899   3.478
 7120SOL    HW222260   5.153   5.983   3.399
 7121SOL     OW22261   3.124   6.784   1.884
 7121SOL    HW122262   3.031   6.776   1.847
 7121SOL    HW222263   3.120   6.795   1.983
 7122SOL     OW22264   6.631   6.744   0.129
 7122SOL    HW122265   6.722   6.764   0.164
 7122SOL    HW222266   6.585   6.678   0.189
 7123SOL     OW22267   2.072   5.184   0.198
 7123SOL    HW122268   2.105   5.094   0.168
 7123SOL    HW222269   2.110   5.204   0.289
 7124SOL     OW22270   0.365   5.775   1.015
 7124SOL    HW122271   0.305   5.720   0.956
 7124SOL    HW222272   0.379   5.728   1.102
 7125SOL     OW22273   0.204   6.777   2.743
 7125SOL    HW122274   0.135   6.848   2.754
 7125SOL    HW222275   0.216   6.728   2.830
 7126SOL     OW22276   1.473   4.741   0.625
 7126SOL    HW122277   1.556   4.781   0.586
 7126SOL    HW222278   1.419   4.698   0.553
 7127SOL     OW22279   2.883   0.532   4.482
 7127SOL    HW122280   2.802   0.481   4.510
 7127SOL    HW222281   2.948   0.470   4.438
 7128SOL     OW22282   3.442   4.345   1.742
 7128SOL    HW122283   3.510   4.291   1.792
 7128SOL    HW222284   3.410   4.293   1.663
 7129SOL     OW22285   2.458   1.753   1.392
 7129SOL    HW122286   2.533   1.701   1.351
 7129SOL    HW222287   2.493   1.813   1.463
 7130SOL     OW22288   2.833   6.994   2.227
 7130SOL    HW122289   2.755   0.010   2.273
 7130SOL    HW222290   2.810   6.977   2.131
 7131SOL     OW22291   2.668   1.467   3.537
 7131SOL    HW122292   2.573   1.456   3.568
 7131SOL    HW222293   2.714   1.378   3.539
 7132SOL     OW22294   3.511   3.908   2.979
 7132SOL    HW122295   3.522   4.006   2.998
 7132SOL    HW222296   3.503   3.894   2.880
 7133SOL     OW22297   5.991   4.449   1.943
 7133SOL    HW122298   6.054   4.462   2.019
 7133SOL    HW222299   6.015   4.366   1.893
 7134SOL     OW22300   5.491   4.811   3.115
 7134SOL    HW122301   5.499   4.791   3.017
 7134SOL    HW222302   5.396   4.799   3.144
 7135SOL     OW22303   1.234   2.331   5.747
 7135SOL    HW122304   1.252   2.316   5.844
 7135SOL    HW222305   1.176   2.412   5.736
 7136SOL     OW22306   2.540   1.935   6.772
 7136SOL    HW122307   2.447   1.896   6.768
 7136SOL    HW222308   2.597   1.878   6.830
 7137SOL     OW22309   4.307   1.205   5.066
 7137SOL    HW122310   4.218   1.225   5.024
 7137SOL    HW222311   4.298   1.124   5.123
 7138SOL     OW22312   2.192   3.486   6.351
 7138SOL    HW122313   2.146   3.399   6.371
 7138SOL    HW222314   2.285   3.483   6.386
 7139SOL     OW22315   3.006   1.817   6.899
 7139SOL    HW122316   3.059   1.864   6.829
 7139SOL    HW222317   3.026   1.719   6.896
 7140SOL     OW22318   6.949   4.239   5.161
 7140SOL    HW122319   6.911   4.163   5.108
 7140SOL    HW222320   6.911   4.325   5.129
 7141SOL     OW22321   1.583   6.950   2.117
 7141SOL    HW122322   1.654   6.923   2.052
 7141SOL    HW222323   1.574   0.023   2.116
 7142SOL     OW22324   3.918   6.858   3.804
 7142SOL    HW122325   3.993   6.792   3.813
 7142SOL    HW222326   3.885   6.859   3.710
 7143SOL     OW22327   2.526   2.045   3.618
 7143SOL    HW122328   2.513   1.950   3.590
 7143SOL    HW222329   2.509   2.106   3.540
 7144SOL     OW22330   1.384   3.088   3.641
 7144SOL    HW122331   1.292   3.065   3.609
 7144SOL    HW222332   1.378   3.152   3.717
 7145SOL     OW22333   4.451   6.550   6.289
 7145SOL    HW122334   4.460   6.546   6.389
 7145SOL    HW222335   4.497   6.471   6.248
 7146SOL     OW22336   2.684   5.058   1.925
 7146SOL    HW122337   2.781   5.082   1.911
 7146SOL    HW222338   2.628   5.113   1.863
 7147SOL     OW22339   0.736   1.025   3.466
 7147SOL    HW122340   0.743   1.075   3.380
 7147SOL    HW222341   0.814   0.963   3.474
 7148SOL     OW22342   0.261   1.153   0.216
 7148SOL    HW122343   0.222   1.187   0.301
 7148SOL    HW222344   0.241   1.055   0.206
 7149SOL     OW22345   6.831   0.834   4.285
 7149SOL    HW122346   6.839   0.770   4.362
 7149SOL    HW222347   6.864   0.790   4.202
 7150SOL     OW22348   6.119   4.254   6.683
 7150SOL    HW122349   6.168   4.167   6.682
 7150SOL    HW222350   6.029   4.242   6.724
 7151SOL     OW22351   1.775   6.416   1.208
 7151SOL    HW122352   1.763   6.451   1.301
 7151SOL    HW222353   1.814   6.324   1.212
 7152SOL     OW22354   1.283   2.603   3.699
 7152SOL    HW122355   1.324   2.666   3.633
 7152SOL    HW222356   1.282   2.647   3.789
 7153SOL     OW22357   3.220   2.195   3.170
 7153SOL    HW122358   3.317   2.213   3.154
 7153SOL    HW222359   3.201   2.098   3.155
 7154SOL     OW22360   4.206   5.816   4.580
 7154SOL    HW122361   4.181   5.908   4.550
 7154SOL    HW222362   4.273   5.777   4.517
 7155SOL     OW22363   2.175   1.014   3.107
 7155SOL    HW122364   2.254   0.965   3.143
 7155SOL    HW222365   2.094   0.954   3.112
 7156SOL     OW22366   1.547   5.514   4.709
 7156SOL    HW122367   1.566   5.548   4.801
 7156SOL    HW222368   1.448   5.510   4.695
 7157SOL     OW22369   4.989   4.439   1.002
 7157SOL    HW122370   4.970   4.350   0.960
 7157SOL    HW222371   4.918   4.459   1.070
 7158SOL     OW22372   4.905   6.883   4.040
 7158SOL    HW122373   4.975   6.924   4.098
 7158SOL    HW222374   4.836   6.839   4.098
 7159SOL     OW22375   1.022   5.424   0.201
 7159SOL    HW122376   1.069   5.345   0.242
 7159SOL    HW222377   1.014   5.496   0.270
 7160SOL     OW22378   6.556   1.341   2.016
 7160SOL    HW122379   6.602   1.374   1.933
 7160SOL    HW222380   6.611   1.268   2.057
 7161SOL     OW22381   3.431   3.899   3.942
 7161SOL    HW122382   3.492   3.977   3.953
 7161SOL    HW222383   3.463   3.823   3.998
 7162SOL     OW22384   3.612   4.898   3.841
 7162SOL    HW122385   3.620   4.986   3.793
 7162SOL    HW222386   3.667   4.829   3.794
 7163SOL     OW22387   2.086   6.170   3.106
 7163SOL    HW122388   2.081   6.072   3.129
 7163SOL    HW222389   2.182   6.195   3.090
 7164SOL     OW22390   2.725   1.618   4.235
 7164SOL    HW122391   2.803   1.680   4.222
 7164SOL    HW222392   2.640   1.668   4.221
 7165SOL     OW22393   5.229   6.867   2.555
 7165SOL    HW122394   5.142   6.819   2.544
 7165SOL    HW222395   5.304   6.806   2.528
 7166SOL     OW22396   5.290   5.786   2.388
 7166SOL    HW122397   5.370   5.816   2.335
 7166SOL    HW222398   5.208   5.797   2.332
 7167SOL     OW22399   4.871   3.141   5.662
 7167SOL    HW122400   4.889   3.210   5.732
 7167SOL    HW222401   4.809   3.072   5.699
 7168SOL     OW22402   0.872   1.822   4.401
 7168SOL    HW122403   0.960   1.869   4.403
 7168SOL    HW222404   0.869   1.754   4.475
 7169SOL     OW22405   1.726   2.648   6.938
 7169SOL    HW122406   1.771   2.653   0.000
 7169SOL    HW222407   1.706   2.553   6.915
 7170SOL     OW22408   5.983   4.588   3.723
 7170SOL    HW122409   5.917   4.627   3.659
 7170SOL    HW222410   6.066   4.562   3.675
 7171SOL     OW22411   4.274   3.034   6.351
 7171SOL    HW122412   4.201   2.966   6.340
 7171SOL    HW222413   4.286   3.085   6.266
 7172SOL     OW22414   0.787   0.546   1.584
 7172SOL    HW122415   0.749   0.547   1.677
 7172SOL    HW222416   0.741   0.475   1.530
 7173SOL     OW22417   6.069   6.237   5.596
 7173SOL    HW122418   6.022   6.151   5.578
 7173SOL    HW222419   6.111   6.271   5.512
 7174SOL     OW22420   0.728   5.750   6.499
 7174SOL    HW122421   0.819   5.777   6.529
 7174SOL    HW222422   0.734   5.701   6.412
 7175SOL     OW22423   6.075   3.219   5.737
 7175SOL    HW122424   6.170   3.188   5.733
 7175SOL    HW222425   6.072   3.318   5.720
 7176SOL     OW22426   6.904   3.667   1.510
 7176SOL    HW122427   6.927   3.681   1.606
 7176SOL    HW222428   6.985   3.681   1.453
 7177SOL     OW22429   0.801   5.583   2.320
 7177SOL    HW122430   0.724   5.602   2.381
 7177SOL    HW222431   0.886   5.581   2.373
 7178SOL     OW22432   0.242   1.947   6.154
 7178SOL    HW122433   0.186   1.902   6.085
 7178SOL    HW222434   0.232   2.046   6.146
 7179SOL     OW22435   1.895   4.385   6.260
 7179SOL    HW122436   1.839   4.370   6.178
 7179SOL    HW222437   1.990   4.363   6.240
 7180SOL     OW22438   0.547   6.738   2.875
 7180SOL    HW122439   0.461   6.732   2.924
 7180SOL    HW222440   0.611   6.795   2.926
 7181SOL     OW22441   5.587   6.284   2.787
 7181SOL    HW122442   5.638   6.223   2.849
 7181SOL    HW222443   5.495   6.248   2.774
 7182SOL     OW22444   3.839   3.517   5.635
 7182SOL    HW122445   3.937   3.500   5.625
 7182SOL    HW222446   3.797   3.442   5.685
 7183SOL     OW22447   1.727   4.207   3.484
 7183SOL    HW122448   1.795   4.149   3.439
 7183SOL    HW222449   1.749   4.303   3.465
 7184SOL     OW22450   2.659   5.546   2.642
 7184SOL    HW122451   2.685   5.503   2.728
 7184SOL    HW222452   2.715   5.627   2.626
 7185SOL     OW22453   4.589   3.149   6.923
 7185SOL    HW122454   4.505   3.202   6.915
 7185SOL    HW222455   4.567   3.052   6.935
 7186SOL     OW22456   0.382   0.102   3.872
 7186SOL    HW122457   0.479   0.077   3.879
 7186SOL    HW222458   0.327   0.038   3.924
 7187SOL     OW22459   1.702   4.842   0.888
 7187SOL    HW122460   1.744   4.889   0.966
 7187SOL    HW222461   1.772   4.824   0.818
 7188SOL     OW22462   5.014   0.194   1.450
 7188SOL    HW122463   5.104   0.159   1.425
 7188SOL    HW222464   4.990   0.164   1.542
 7189SOL     OW22465   6.955   0.624   5.061
 7189SOL    HW122466   6.905   0.546   5.099
 7189SOL    HW222467   6.892   0.699   5.044
 7190SOL     OW22468   4.683   4.703   2.859
 7190SOL    HW122469   4.737   4.687   2.776
 7190SOL    HW222470   4.619   4.627   2.871
 7191SOL     OW22471   0.739   3.504   1.685
 7191SOL    HW122472   0.732   3.418   1.735
 7191SOL    HW222473   0.749   3.486   1.587
 7192SOL     OW22474   3.546   5.140   6.625
 7192SOL    HW122475   3.491   5.191   6.558
 7192SOL    HW222476   3.494   5.060   6.656
 7193SOL     OW22477   5.169   1.746   3.879
 7193SOL    HW122478   5.256   1.733   3.927
 7193SOL    HW222479   5.174   1.826   3.820
 7194SOL     OW22480   3.241   1.574   1.526
 7194SOL    HW122481   3.329   1.552   1.483
 7194SOL    HW222482   3.209   1.662   1.490
 7195SOL     OW22483   0.450   5.937   1.502
 7195SOL    HW122484   0.506   6.019   1.488
 7195SOL    HW222485   0.372   5.960   1.560
 7196SOL     OW22486   3.609   2.725   1.695
 7196SOL    HW122487   3.544   2.662   1.653
 7196SOL    HW222488   3.696   2.680   1.711
 7197SOL     OW22489   1.226   1.413   3.817
 7197SOL    HW122490   1.250   1.317   3.827
 7197SOL    HW222491   1.209   1.453   3.907
 7198SOL     OW22492   0.225   6.528   6.276
 7198SOL    HW122493   0.293   6.536   6.203
 7198SOL    HW222494   0.181   6.617   6.291
 7199SOL     OW22495   5.709   6.924   3.128
 7199SOL    HW122496   5.666   6.867   3.058
 7199SOL    HW222497   5.668   6.904   3.217
 7200SOL     OW22498   2.106   1.934   2.137
 7200SOL    HW122499   2.147   1.917   2.047
 7200SOL    HW222500   2.124   2.029   2.164
 7201SOL     OW22501   2.696   4.987   3.004
 7201SOL    HW122502   2.658   4.900   2.972
 7201SOL    HW222503   2.668   5.060   2.941
 7202SOL     OW22504   3.706   6.762   5.466
 7202SOL    HW122505   3.699   6.692   5.537
 7202SOL    HW222506   3.789   6.816   5.480
 7203SOL     OW22507   5.812   0.129   6.779
 7203SOL    HW122508   5.763   0.125   6.692
 7203SOL    HW222509   5.885   0.061   6.779
 7204SOL     OW22510   5.928   1.473   3.096
 7204SOL    HW122511   5.963   1.416   3.022
 7204SOL    HW222512   5.892   1.558   3.059
 7205SOL     OW22513   1.500   4.402   1.667
 7205SOL    HW122514   1.402   4.411   1.651
 7205SOL    HW222515   1.549   4.477   1.621
 7206SOL     OW22516   5.350   1.895   1.483
 7206SOL    HW122517   5.252   1.911   1.489
 7206SOL    HW222518   5.384   1.860   1.570
 7207SOL     OW22519   4.069   6.745   2.460
 7207SOL    HW122520   4.074   6.656   2.415
 7207SOL    HW222521   4.084   6.817   2.392
 7208SOL     OW22522   3.190   0.165   5.067
 7208SOL    HW122523   3.128   0.242   5.085
 7208SOL    HW222524   3.164   0.087   5.124
 7209SOL     OW22525   3.200   2.972   4.285
 7209SOL    HW122526   3.149   3.028   4.351
 7209SOL    HW222527   3.147   2.964   4.200
 7210SOL     OW22528   4.741   0.124   4.073
 7210SOL    HW122529   4.720   0.083   4.161
 7210SOL    HW222530   4.796   0.061   4.019
 7211SOL     OW22531   1.479   5.430   2.495
 7211SOL    HW122532   1.558   5.370   2.503
 7211SOL    HW222533   1.407   5.398   2.557
 7212SOL     OW22534   4.822   0.038   3.605
 7212SOL    HW122535   4.808   0.080   3.516
 7212SOL    HW222536   4.751   6.997   3.622
 7213SOL     OW22537   5.350   6.616   5.375
 7213SOL    HW122538   5.317   6.668   5.454
 7213SOL    HW222539   5.343   6.671   5.292
 7214SOL     OW22540   0.385   5.140   5.609
 7214SOL    HW122541   0.482   5.164   5.621
 7214SOL    HW222542   0.371   5.104   5.517
 7215SOL     OW22543   0.829   3.011   2.333
 7215SOL    HW122544   0.752   3.065   2.297
 7215SOL    HW222545   0.852   3.043   2.425
 7216SOL     OW22546   2.413   1.256   1.830
 7216SOL    HW122547   2.380   1.211   1.913
 7216SOL    HW222548   2.375   1.210   1.750
 7217SOL     OW22549   0.851   2.727   2.414
 7217SOL    HW122550   0.871   2.815   2.371
 7217SOL    HW222551   0.762   2.732   2.460
 7218SOL     OW22552   6.390   2.758   5.684
 7218SOL    HW122553   6.384   2.761   5.584
 7218SOL    HW222554   6.308   2.799   5.724
 7219SOL     OW22555   3.152   0.904   1.053
 7219SOL    HW122556   3.197   0.849   0.982
 7219SOL    HW222557   3.054   0.882   1.055
 7220SOL     OW22558   6.772   0.934   3.124
 7220SOL    HW122559   6.788   1.033   3.130
 7220SOL    HW222560   6.807   0.889   3.206
 7221SOL     OW22561   5.872   4.536   5.404
 7221SOL    HW122562   5.863   4.526   5.305
 7221SOL    HW222563   5.826   4.459   5.449
 7222SOL     OW22564   6.288   6.851   3.500
 7222SOL    HW122565   6.350   6.886   3.431
 7222SOL    HW222566   6.199   6.895   3.490
 7223SOL     OW22567   4.593   0.576   5.367
 7223SOL    HW122568   4.659   0.621   5.307
 7223SOL    HW222569   4.641   0.541   5.447
 7224SOL     OW22570   5.536   1.368   4.119
 7224SOL    HW122571   5.608   1.350   4.053
 7224SOL    HW222572   5.483   1.448   4.090
 7225SOL     OW22573   2.344   0.778   1.459
 7225SOL    HW122574   2.271   0.807   1.521
 7225SOL    HW222575   2.397   0.857   1.430
 7226SOL     OW22576   5.921   6.547   5.910
 7226SOL    HW122577   5.879   6.547   5.819
 7226SOL    HW222578   5.850   6.558   5.980
 7227SOL     OW22579   6.772   2.369   6.135
 7227SOL    HW122580   6.777   2.457   6.089
 7227SOL    HW222581   6.859   2.351   6.182
 7228SOL     OW22582   2.321   0.557   2.984
 7228SOL    HW122583   2.297   0.472   2.938
 7228SOL    HW222584   2.247   0.585   3.045
 7229SOL     OW22585   6.877   0.149   3.478
 7229SOL    HW122586   6.904   0.236   3.519
 7229SOL    HW222587   6.816   0.100   3.541
 7230SOL     OW22588   6.476   5.390   1.301
 7230SOL    HW122589   6.382   5.371   1.274
 7230SOL    HW222590   6.496   5.487   1.287
 7231SOL     OW22591   5.856   0.901   6.832
 7231SOL    HW122592   5.927   0.918   6.764
 7231SOL    HW222593   5.780   0.852   6.790
 7232SOL     OW22594   3.478   3.888   0.801
 7232SOL    HW122595   3.519   3.873   0.891
 7232SOL    HW222596   3.521   3.967   0.757
 7233SOL     OW22597   0.466   2.315   5.417
 7233SOL    HW122598   0.460   2.276   5.325
 7233SOL    HW222599   0.472   2.241   5.484
 7234SOL     OW22600   4.807   1.924   2.946
 7234SOL    HW122601   4.878   1.987   2.978
 7234SOL    HW222602   4.734   1.975   2.902
 7235SOL     OW22603   6.161   2.948   4.398
 7235SOL    HW122604   6.126   3.033   4.437
 7235SOL    HW222605   6.199   2.967   4.307
 7236SOL     OW22606   1.888   1.498   2.816
 7236SOL    HW122607   1.843   1.586   2.806
 7236SOL    HW222608   1.839   1.443   2.884
 7237SOL     OW22609   5.856   5.173   4.819
 7237SOL    HW122610   5.823   5.129   4.736
 7237SOL    HW222611   5.784   5.232   4.856
 7238SOL     OW22612   1.519   0.794   1.594
 7238SOL    HW122613   1.479   0.816   1.505
 7238SOL    HW222614   1.450   0.753   1.653
 7239SOL     OW22615   4.205   1.409   1.587
 7239SOL    HW122616   4.188   1.394   1.684
 7239SOL    HW222617   4.177   1.501   1.562
 7240SOL     OW22618   3.006   3.209   1.897
 7240SOL    HW122619   3.051   3.225   1.810
 7240SOL    HW222620   3.073   3.182   1.966
 7241SOL     OW22621   4.950   7.000   4.703
 7241SOL    HW122622   4.860   6.967   4.733
 7241SOL    HW222623   5.019   6.931   4.722
 7242SOL     OW22624   5.721   5.019   0.791
 7242SOL    HW122625   5.769   4.931   0.796
 7242SOL    HW222626   5.623   5.003   0.782
 7243SOL     OW22627   0.690   5.401   0.448
 7243SOL    HW122628   0.597   5.375   0.419
 7243SOL    HW222629   0.688   5.492   0.488
 7244SOL     OW22630   5.526   1.746   0.783
 7244SOL    HW122631   5.586   1.726   0.860
 7244SOL    HW222632   5.435   1.769   0.818
 7245SOL     OW22633   6.343   2.157   4.243
 7245SOL    HW122634   6.440   2.138   4.222
 7245SOL    HW222635   6.325   2.137   4.339
 7246SOL     OW22636   1.241   5.771   5.283
 7246SOL    HW122637   1.170   5.805   5.344
 7246SOL    HW222638   1.298   5.705   5.332
 7247SOL     OW22639   3.761   5.734   4.396
 7247SOL    HW122640   3.669   5.704   4.421
 7247SOL    HW222641   3.829   5.678   4.444
 7248SOL     OW22642   3.495   0.893   4.281
 7248SOL    HW122643   3.545   0.824   4.229
 7248SOL    HW222644   3.538   0.982   4.268
 7249SOL     OW22645   5.214   3.443   5.693
 7249SOL    HW122646   5.187   3.537   5.669
 7249SOL    HW222647   5.147   3.379   5.656
 7250SOL     OW22648   2.861   3.687   6.741
 7250SOL    HW122649   2.781   3.631   6.760
 7250SOL    HW222650   2.888   3.737   6.824
 7251SOL     OW22651   5.478   1.199   5.243
 7251SOL    HW122652   5.482   1.292   5.280
 7251SOL    HW222653   5.436   1.138   5.310
 7252SOL     OW22654   4.464   3.551   5.312
 7252SOL    HW122655   4.551   3.555   5.265
 7252SOL    HW222656   4.398   3.609   5.264
 7253SOL     OW22657   5.238   4.711   1.283
 7253SOL    HW122658   5.331   4.706   1.321
 7253SOL    HW222659   5.204   4.804   1.290
 7254SOL     OW22660   5.744   6.434   4.999
 7254SOL    HW122661   5.713   6.517   5.046
 7254SOL    HW222662   5.821   6.394   5.048
 7255SOL     OW22663   4.038   3.190   2.638
 7255SOL    HW122664   4.120   3.153   2.682
 7255SOL    HW222665   4.065   3.251   2.564
 7256SOL     OW22666   3.175   5.393   3.763
 7256SOL    HW122667   3.196   5.312   3.818
 7256SOL    HW222668   3.107   5.448   3.811
 7257SOL     OW22669   6.092   4.322   2.788
 7257SOL    HW122670   6.106   4.419   2.769
 7257SOL    HW222671   6.009   4.310   2.843
 7258SOL     OW22672   2.628   0.125   5.812
 7258SOL    HW122673   2.577   0.165   5.888
 7258SOL    HW222674   2.668   0.199   5.756
 7259SOL     OW22675   2.967   4.927   6.419
 7259SOL    HW122676   3.002   5.021   6.417
 7259SOL    HW222677   2.922   4.910   6.507
 7260SOL     OW22678   4.230   1.934   2.510
 7260SOL    HW122679   4.138   1.931   2.474
 7260SOL    HW222680   4.292   1.974   2.442
 7261SOL     OW22681   1.435   4.890   0.879
 7261SOL    HW122682   1.422   4.881   0.780
 7261SOL    HW222683   1.532   4.899   0.899
 7262SOL     OW22684   6.350   0.799   5.053
 7262SOL    HW122685   6.387   0.746   4.977
 7262SOL    HW222686   6.422   0.818   5.120
 7263SOL     OW22687   4.841   6.517   1.603
 7263SOL    HW122688   4.822   6.483   1.511
 7263SOL    HW222689   4.772   6.482   1.666
 7264SOL     OW22690   1.242   6.528   4.310
 7264SOL    HW122691   1.222   6.459   4.240
 7264SOL    HW222692   1.295   6.486   4.383
 7265SOL     OW22693   4.622   3.748   6.334
 7265SOL    HW122694   4.712   3.705   6.335
 7265SOL    HW222695   4.592   3.766   6.427
 7266SOL     OW22696   3.801   1.780   2.030
 7266SOL    HW122697   3.808   1.694   1.978
 7266SOL    HW222698   3.752   1.848   1.975
 7267SOL     OW22699   5.908   3.227   4.436
 7267SOL    HW122700   5.874   3.153   4.494
 7267SOL    HW222701   6.005   3.243   4.456
 7268SOL     OW22702   3.935   0.546   0.481
 7268SOL    HW122703   3.856   0.604   0.459
 7268SOL    HW222704   3.914   0.490   0.561
 7269SOL     OW22705   1.349   0.319   1.768
 7269SOL    HW122706   1.333   0.361   1.858
 7269SOL    HW222707   1.310   0.227   1.767
 7270SOL     OW22708   3.374   1.962   2.052
 7270SOL    HW122709   3.377   2.017   2.136
 7270SOL    HW222710   3.282   1.926   2.039
 7271SOL     OW22711   6.213   5.122   3.751
 7271SOL    HW122712   6.167   5.034   3.741
 7271SOL    HW222713   6.273   5.138   3.672
 7272SOL     OW22714   6.642   2.307   1.026
 7272SOL    HW122715   6.739   2.329   1.039
 7272SOL    HW222716   6.588   2.391   1.029
 7273SOL     OW22717   5.541   5.719   5.437
 7273SOL    HW122718   5.568   5.724   5.534
 7273SOL    HW222719   5.459   5.662   5.428
 7274SOL     OW22720   5.792   4.536   4.508
 7274SOL    HW122721   5.699   4.570   4.500
 7274SOL    HW222722   5.856   4.605   4.473
 7275SOL     OW22723   5.543   6.482   1.117
 7275SOL    HW122724   5.477   6.543   1.162
 7275SOL    HW222725   5.515   6.387   1.131
 7276SOL     OW22726   2.879   2.295   3.511
 7276SOL    HW122727   2.804   2.334   3.458
 7276SOL    HW222728   2.858   2.301   3.609
 7277SOL     OW22729   6.437   1.455   4.341
 7277SOL    HW122730   6.513   1.509   4.304
 7277SOL    HW222731   6.470   1.401   4.419
 7278SOL     OW22732   3.322   2.077   4.074
 7278SOL    HW122733   3.395   2.106   4.136
 7278SOL    HW222734   3.355   2.002   4.016
 7279SOL     OW22735   4.467   3.552   1.339
 7279SOL    HW122736   4.434   3.459   1.323
 7279SOL    HW222737   4.525   3.554   1.421
 7280SOL     OW22738   6.958   1.841   5.154
 7280SOL    HW122739   6.968   1.938   5.176
 7280SOL    HW222740   6.896   1.798   5.219
 7281SOL     OW22741   3.442   6.442   2.752
 7281SOL    HW122742   3.529   6.475   2.717
 7281SOL    HW222743   3.373   6.447   2.679
 7282SOL     OW22744   0.125   3.548   1.262
 7282SOL    HW122745   0.175   3.532   1.177
 7282SOL    HW222746   0.150   3.638   1.299
 7283SOL     OW22747   3.738   5.764   2.916
 7283SOL    HW122748   3.793   5.705   2.976
 7283SOL    HW222749   3.777   5.856   2.917
 7284SOL     OW22750   0.572   0.984   2.825
 7284SOL    HW122751   0.509   0.969   2.749
 7284SOL    HW222752   0.665   0.962   2.796
 7285SOL     OW22753   5.120   2.821   2.112
 7285SOL    HW122754   5.170   2.734   2.115
 7285SOL    HW222755   5.024   2.805   2.135
 7286SOL     OW22756   6.163   1.421   4.305
 7286SOL    HW122757   6.258   1.453   4.297
 7286SOL    HW222758   6.127   1.403   4.213
 7287SOL     OW22759   3.356   1.215   4.308
 7287SOL    HW122760   3.382   1.311   4.301
 7287SOL    HW222761   3.257   1.208   4.317
 7288SOL     OW22762   3.228   1.703   1.781
 7288SOL    HW122763   3.320   1.741   1.784
 7288SOL    HW222764   3.209   1.667   1.690
 7289SOL     OW22765   6.163   2.675   1.861
 7289SOL    HW122766   6.140   2.578   1.851
 7289SOL    HW222767   6.137   2.725   1.778
 7290SOL     OW22768   3.774   1.661   5.065
 7290SOL    HW122769   3.682   1.649   5.029
 7290SOL    HW222770   3.811   1.573   5.095
 7291SOL     OW22771   1.416   1.223   0.463
 7291SOL    HW122772   1.382   1.176   0.545
 7291SOL    HW222773   1.339   1.241   0.401
 7292SOL     OW22774   3.304   1.100   2.626
 7292SOL    HW122775   3.246   1.023   2.600
 7292SOL    HW222776   3.400   1.077   2.612
 7293SOL     OW22777   6.652   1.069   4.575
 7293SOL    HW122778   6.654   1.105   4.481
 7293SOL    HW222779   6.578   1.002   4.583
 7294SOL     OW22780   4.079   0.197   3.012
 7294SOL    HW122781   3.994   0.146   3.017
 7294SOL    HW222782   4.114   0.214   3.104
 7295SOL     OW22783   5.248   3.885   1.643
 7295SOL    HW122784   5.234   3.961   1.580
 7295SOL    HW222785   5.179   3.815   1.627
 7296SOL     OW22786   3.446   6.194   2.259
 7296SOL    HW122787   3.509   6.266   2.288
 7296SOL    HW222788   3.452   6.117   2.322
 7297SOL     OW22789   3.763   0.003   0.429
 7297SOL    HW122790   3.776   0.064   0.507
 7297SOL    HW222791   3.689   0.037   0.371
 7298SOL     OW22792   4.295   5.244   1.402
 7298SOL    HW122793   4.217   5.190   1.373
 7298SOL    HW222794   4.280   5.340   1.379
 7299SOL     OW22795   0.364   3.590   6.178
 7299SOL    HW122796   0.388   3.628   6.089
 7299SOL    HW222797   0.447   3.577   6.232
 7300SOL     OW22798   0.653   3.942   2.174
 7300SOL    HW122799   0.679   4.029   2.216
 7300SOL    HW222800   0.720   3.917   2.104
 7301SOL     OW22801   4.213   2.372   0.241
 7301SOL    HW122802   4.246   2.357   0.335
 7301SOL    HW222803   4.120   2.407   0.244
 7302SOL     OW22804   5.561   1.822   6.264
 7302SOL    HW122805   5.487   1.878   6.301
 7302SOL    HW222806   5.629   1.807   6.336
 7303SOL     OW22807   2.702   2.164   1.543
 7303SOL    HW122808   2.674   2.073   1.515
 7303SOL    HW222809   2.740   2.161   1.636
 7304SOL     OW22810   2.303   6.860   0.625
 7304SOL    HW122811   2.302   6.776   0.572
 7304SOL    HW222812   2.385   6.862   0.683
 7305SOL     OW22813   6.028   0.476   6.345
 7305SOL    HW122814   6.062   0.382   6.349
 7305SOL    HW222815   5.986   0.500   6.433
 7306SOL     OW22816   1.172   3.319   1.478
 7306SOL    HW122817   1.193   3.230   1.437
 7306SOL    HW222818   1.083   3.315   1.521
 7307SOL     OW22819   3.136   0.035   1.820
 7307SOL    HW122820   3.212   0.059   1.880
 7307SOL    HW222821   3.112   6.966   1.835
 7308SOL     OW22822   3.692   1.482   3.159
 7308SOL    HW122823   3.687   1.581   3.148
 7308SOL    HW222824   3.650   1.437   3.081
 7309SOL     OW22825   2.416   5.146   3.616
 7309SOL    HW122826   2.472   5.141   3.533
 7309SOL    HW222827   2.412   5.241   3.647
 7310SOL     OW22828   2.559   2.923   0.067
 7310SOL    HW122829   2.593   2.881   7.010
 7310SOL    HW222830   2.514   3.010   0.046
 7311SOL     OW22831   0.217   6.887   5.858
 7311SOL    HW122832   0.311   6.913   5.882
 7311SOL    HW222833   0.153   6.938   5.916
 7312SOL     OW22834   6.163   1.905   4.673
 7312SOL    HW122835   6.077   1.872   4.635
 7312SOL    HW222836   6.218   1.827   4.704
 7313SOL     OW22837   3.207   1.308   2.480
 7313SOL    HW122838   3.120   1.274   2.445
 7313SOL    HW222839   3.240   1.247   2.553
 7314SOL     OW22840   1.926   5.234   5.223
 7314SOL    HW122841   1.933   5.329   5.254
 7314SOL    HW222842   1.829   5.211   5.209
 7315SOL     OW22843   3.270   5.304   3.279
 7315SOL    HW122844   3.271   5.399   3.311
 7315SOL    HW222845   3.178   5.280   3.248
 7316SOL     OW22846   3.985   1.228   1.461
 7316SOL    HW122847   4.028   1.221   1.551
 7316SOL    HW222848   4.011   1.315   1.418
 7317SOL     OW22849   5.337   2.036   0.745
 7317SOL    HW122850   5.410   1.975   0.714
 7317SOL    HW222851   5.290   1.995   0.823
 7318SOL     OW22852   5.102   6.647   1.213
 7318SOL    HW122853   5.164   6.654   1.134
 7318SOL    HW222854   5.015   6.690   1.191
 7319SOL     OW22855   5.141   5.869   6.929
 7319SOL    HW122856   5.195   5.833   7.005
 7319SOL    HW222857   5.102   5.957   6.956
 7320SOL     OW22858   0.648   3.163   6.956
 7320SOL    HW122859   0.683   3.113   0.008
 7320SOL    HW222860   0.680   3.120   6.872
 7321SOL     OW22861   1.999   2.284   5.482
 7321SOL    HW122862   2.028   2.299   5.388
 7321SOL    HW222863   2.025   2.192   5.511
 7322SOL     OW22864   1.630   2.268   3.763
 7322SOL    HW122865   1.598   2.345   3.708
 7322SOL    HW222866   1.721   2.289   3.800
 7323SOL     OW22867   1.486   1.818   0.988
 7323SOL    HW122868   1.442   1.873   0.917
 7323SOL    HW222869   1.489   1.870   1.074
 7324SOL     OW22870   5.047   3.873   4.642
 7324SOL    HW122871   5.126   3.828   4.683
 7324SOL    HW222872   4.968   3.862   4.703
 7325SOL     OW22873   3.978   1.556   6.266
 7325SOL    HW122874   4.047   1.609   6.317
 7325SOL    HW222875   4.024   1.496   6.201
 7326SOL     OW22876   3.956   6.622   0.639
 7326SOL    HW122877   4.050   6.649   0.658
 7326SOL    HW222878   3.940   6.530   0.676
 7327SOL     OW22879   1.465   4.540   3.457
 7327SOL    HW122880   1.556   4.503   3.476
 7327SOL    HW222881   1.450   4.623   3.511
 7328SOL     OW22882   5.069   5.479   5.952
 7328SOL    HW122883   5.138   5.543   5.985
 7328SOL    HW222884   4.985   5.529   5.931
 7329SOL     OW22885   2.479   3.279   0.994
 7329SOL    HW122886   2.385   3.260   0.964
 7329SOL    HW222887   2.514   3.202   1.046
 7330SOL     OW22888   2.936   3.378   0.987
 7330SOL    HW122889   3.020   3.332   0.956
 7330SOL    HW222890   2.857   3.335   0.945
 7331SOL     OW22891   5.153   1.634   2.292
 7331SOL    HW122892   5.167   1.536   2.309
 7331SOL    HW222893   5.056   1.656   2.302
 7332SOL     OW22894   2.822   6.906   5.424
 7332SOL    HW122895   2.821   6.836   5.352
 7332SOL    HW222896   2.730   6.942   5.437
 7333SOL     OW22897   6.111   1.003   1.153
 7333SOL    HW122898   6.038   0.935   1.144
 7333SOL    HW222899   6.137   1.036   1.063
 7334SOL     OW22900   1.551   4.508   4.935
 7334SOL    HW122901   1.546   4.428   4.995
 7334SOL    HW222902   1.615   4.575   4.973
 7335SOL     OW22903   0.893   3.589   2.674
 7335SOL    HW122904   0.898   3.686   2.652
 7335SOL    HW222905   0.892   3.536   2.589
 7336SOL     OW22906   2.351   0.174   1.040
 7336SOL    HW122907   2.286   0.109   1.078
 7336SOL    HW222908   2.381   0.141   0.950
 7337SOL     OW22909   3.418   1.200   3.680
 7337SOL    HW122910   3.409   1.283   3.624
 7337SOL    HW222911   3.388   1.121   3.627
 7338SOL     OW22912   5.085   4.170   1.222
 7338SOL    HW122913   5.013   4.221   1.269
 7338SOL    HW222914   5.082   4.189   1.125
 7339SOL     OW22915   0.207   6.620   4.633
 7339SOL    HW122916   0.269   6.630   4.555
 7339SOL    HW222917   0.153   6.537   4.622
 7340SOL     OW22918   2.549   6.128   7.023
 7340SOL    HW122919   2.476   6.186   6.986
 7340SOL    HW222920   2.541   6.126   0.096
 7341SOL     OW22921   6.374   5.196   3.530
 7341SOL    HW122922   6.333   5.288   3.528
 7341SOL    HW222923   6.452   5.194   3.468
 7342SOL     OW22924   0.964   5.129   0.454
 7342SOL    HW122925   1.043   5.165   0.405
 7342SOL    HW222926   0.952   5.032   0.431
 7343SOL     OW22927   6.823   2.312   3.274
 7343SOL    HW122928   6.838   2.269   3.185
 7343SOL    HW222929   6.746   2.267   3.319
 7344SOL     OW22930   2.256   0.725   6.348
 7344SOL    HW122931   2.332   0.674   6.306
 7344SOL    HW222932   2.290   0.810   6.388
 7345SOL     OW22933   1.998   6.667   6.568
 7345SOL    HW122934   1.966   6.621   6.651
 7345SOL    HW222935   1.982   6.766   6.577
 7346SOL     OW22936   3.722   4.886   2.998
 7346SOL    HW122937   3.630   4.924   3.010
 7346SOL    HW222938   3.768   4.883   3.086
 7347SOL     OW22939   6.373   2.900   3.006
 7347SOL    HW122940   6.380   2.936   2.913
 7347SOL    HW222941   6.278   2.874   3.025
 7348SOL     OW22942   6.503   1.363   5.954
 7348SOL    HW122943   6.549   1.284   5.915
 7348SOL    HW222944   6.463   1.339   6.042
 7349SOL     OW22945   3.948   1.494   1.308
 7349SOL    HW122946   3.894   1.491   1.224
 7349SOL    HW222947   3.887   1.509   1.386
 7350SOL     OW22948   2.694   1.029   3.112
 7350SOL    HW122949   2.784   1.072   3.107
 7350SOL    HW222950   2.637   1.079   3.177
 7351SOL     OW22951   4.283   4.572   0.753
 7351SOL    HW122952   4.361   4.528   0.797
 7351SOL    HW222953   4.198   4.542   0.796
 7352SOL     OW22954   6.753   0.589   3.261
 7352SOL    HW122955   6.784   0.632   3.345
 7352SOL    HW222956   6.656   0.608   3.247
 7353SOL     OW22957   5.597   1.395   5.603
 7353SOL    HW122958   5.513   1.341   5.604
 7353SOL    HW222959   5.668   1.345   5.554
 7354SOL     OW22960   6.000   4.782   4.934
 7354SOL    HW122961   6.018   4.765   5.031
 7354SOL    HW222962   6.014   4.879   4.914
 7355SOL     OW22963   0.230   5.954   1.193
 7355SOL    HW122964   0.265   5.929   1.103
 7355SOL    HW222965   0.250   5.881   1.258
 7356SOL     OW22966   0.184   2.198   5.923
 7356SOL    HW122967   0.166   2.174   5.827
 7356SOL    HW222968   0.271   2.159   5.951
 7357SOL     OW22969   0.861   1.348   0.423
 7357SOL    HW122970   0.765   1.377   0.422
 7357SOL    HW222971   0.920   1.427   0.404
 7358SOL     OW22972   3.671   0.983   3.968
 7358SOL    HW122973   3.734   1.051   4.005
 7358SOL    HW222974   3.576   1.014   3.982
 7359SOL     OW22975   3.185   2.993   3.773
 7359SOL    HW122976   3.257   2.957   3.832
 7359SOL    HW222977   3.191   2.950   3.683
 7360SOL     OW22978   0.556   3.855   6.434
 7360SOL    HW122979   0.508   3.772   6.464
 7360SOL    HW222980   0.495   3.909   6.376
 7361SOL     OW22981   4.473   6.699   1.580
 7361SOL    HW122982   4.461   6.712   1.482
 7361SOL    HW222983   4.446   6.606   1.605
 7362SOL     OW22984   1.889   6.012   6.223
 7362SOL    HW122985   1.827   5.996   6.146
 7362SOL    HW222986   1.968   5.952   6.216
 7363SOL     OW22987   4.704   2.883   6.485
 7363SOL    HW122988   4.715   2.951   6.557
 7363SOL    HW222989   4.608   2.882   6.455
 7364SOL     OW22990   4.559   0.200   1.324
 7364SOL    HW122991   4.478   0.153   1.288
 7364SOL    HW222992   4.576   0.170   1.418
 7365SOL     OW22993   4.577   0.100   1.576
 7365SOL    HW122994   4.649   0.031   1.565
 7365SOL    HW222995   4.567   0.121   1.673
 7366SOL     OW22996   1.326   6.946   0.412
 7366SOL    HW122997   1.357   6.865   0.462
 7366SOL    HW222998   1.389   6.966   0.337
 7367SOL     OW22999   4.793   2.758   0.023
 7367SOL    HW123000   4.714   2.729   0.076
 7367SOL    HW223001   4.862   2.797   0.084
 7368SOL     OW23002   3.405   2.940   4.043
 7368SOL    HW123003   3.353   3.021   4.069
 7368SOL    HW223004   3.397   2.871   4.115
 7369SOL     OW23005   5.505   0.843   6.328
 7369SOL    HW123006   5.438   0.895   6.273
 7369SOL    HW223007   5.591   0.836   6.277
 7370SOL     OW23008   0.814   6.036   0.794
 7370SOL    HW123009   0.736   6.039   0.856
 7370SOL    HW223010   0.784   6.062   0.702
 7371SOL     OW23011   1.642   4.650   4.652
 7371SOL    HW123012   1.678   4.639   4.560
 7371SOL    HW223013   1.689   4.726   4.698
 7372SOL     OW23014   2.986   0.416   5.130
 7372SOL    HW123015   2.900   0.407   5.080
 7372SOL    HW223016   2.971   0.469   5.214
 7373SOL     OW23017   3.752   0.353   1.215
 7373SOL    HW123018   3.787   0.298   1.291
 7373SOL    HW223019   3.713   0.438   1.252
 7374SOL     OW23020   2.255   3.274   6.622
 7374SOL    HW123021   2.288   3.291   6.715
 7374SOL    HW223022   2.181   3.208   6.624
 7375SOL     OW23023   2.993   6.473   2.887
 7375SOL    HW123024   2.962   6.378   2.883
 7375SOL    HW223025   3.035   6.498   2.800
 7376SOL     OW23026   2.917   3.729   6.265
 7376SOL    HW123027   2.939   3.717   6.362
 7376SOL    HW223028   2.942   3.647   6.215
 7377SOL     OW23029   6.114   5.921   1.648
 7377SOL    HW123030   6.184   5.947   1.582
 7377SOL    HW223031   6.120   5.823   1.667
 7378SOL     OW23032   0.215   2.686   5.510
 7378SOL    HW123033   0.191   2.760   5.447
 7378SOL    HW223034   0.215   2.720   5.604
 7379SOL     OW23035   4.541   0.535   0.404
 7379SOL    HW123036   4.569   0.533   0.499
 7379SOL    HW223037   4.588   0.609   0.356
 7380SOL     OW23038   6.648   2.956   6.166
 7380SOL    HW123039   6.642   3.045   6.212
 7380SOL    HW223040   6.680   2.887   6.231
 7381SOL     OW23041   5.041   2.065   0.496
 7381SOL    HW123042   4.967   2.121   0.460
 7381SOL    HW223043   5.129   2.096   0.459
 7382SOL     OW23044   1.037   5.629   3.902
 7382SOL    HW123045   1.049   5.719   3.944
 7382SOL    HW223046   1.009   5.640   3.807
 7383SOL     OW23047   1.265   4.589   3.000
 7383SOL    HW123048   1.189   4.532   2.969
 7383SOL    HW223049   1.247   4.619   3.094
 7384SOL     OW23050   6.544   2.224   0.779
 7384SOL    HW123051   6.551   2.125   0.769
 7384SOL    HW223052   6.582   2.251   0.867
 7385SOL     OW23053   4.854   0.718   1.986
 7385SOL    HW123054   4.786   0.660   1.941
 7385SOL    HW223055   4.812   0.763   2.064
 7386SOL     OW23056   0.087   2.478   5.903
 7386SOL    HW123057   0.155   2.530   5.954
 7386SOL    HW223058   0.102   2.380   5.917
 7387SOL     OW23059   5.371   6.563   3.866
 7387SOL    HW123060   5.441   6.634   3.872
 7387SOL    HW223061   5.404   6.489   3.807
 7388SOL     OW23062   5.412   4.162   4.995
 7388SOL    HW123063   5.325   4.132   4.955
 7388SOL    HW223064   5.481   4.091   4.980
 7389SOL     OW23065   0.646   3.338   4.484
 7389SOL    HW123066   0.684   3.277   4.415
 7389SOL    HW223067   0.638   3.290   4.571
 7390SOL     OW23068   3.462   0.342   6.179
 7390SOL    HW123069   3.515   0.314   6.099
 7390SOL    HW223070   3.517   0.334   6.261
 7391SOL     OW23071   7.017   4.988   6.974
 7391SOL    HW123072   0.053   4.934   0.004
 7391SOL    HW223073   0.034   5.075   6.950
 7392SOL     OW23074   2.218   4.534   2.119
 7392SOL    HW123075   2.265   4.616   2.087
 7392SOL    HW223076   2.284   4.471   2.159
 7393SOL     OW23077   1.072   3.772   0.247
 7393SOL    HW123078   0.992   3.820   0.212
 7393SOL    HW223079   1.084   3.687   0.197
 7394SOL     OW23080   2.443   2.720   5.897
 7394SOL    HW123081   2.512   2.696   5.829
 7394SOL    HW223082   2.360   2.750   5.851
 7395SOL     OW23083   2.344   0.266   6.839
 7395SOL    HW123084   2.383   0.355   6.864
 7395SOL    HW223085   2.272   0.241   6.904
 7396SOL     OW23086   6.733   6.926   1.637
 7396SOL    HW123087   6.666   6.852   1.638
 7396SOL    HW223088   6.713   6.989   1.562
 7397SOL     OW23089   6.400   4.183   4.146
 7397SOL    HW123090   6.467   4.239   4.195
 7397SOL    HW223091   6.438   4.157   4.057
 7398SOL     OW23092   4.650   6.630   3.225
 7398SOL    HW123093   4.610   6.549   3.269
 7398SOL    HW223094   4.683   6.605   3.134
 7399SOL     OW23095   5.378   4.154   4.613
 7399SOL    HW123096   5.392   4.146   4.514
 7399SOL    HW223097   5.367   4.062   4.652
 7400SOL     OW23098   3.091   3.876   0.468
 7400SOL    HW123099   3.178   3.862   0.515
 7400SOL    HW223100   3.087   3.970   0.432
 7401SOL     OW23101   5.826   2.278   5.130
 7401SOL    HW123102   5.767   2.246   5.203
 7401SOL    HW223103   5.772   2.331   5.064
 7402SOL     OW23104   2.866   6.199   4.320
 7402SOL    HW123105   2.943   6.172   4.378
 7402SOL    HW223106   2.875   6.155   4.230
 7403SOL     OW23107   2.894   2.924   1.521
 7403SOL    HW123108   2.869   2.907   1.426
 7403SOL    HW223109   2.812   2.942   1.575
 7404SOL     OW23110   0.704   1.767   2.801
 7404SOL    HW123111   0.714   1.683   2.747
 7404SOL    HW223112   0.669   1.840   2.742
 7405SOL     OW23113   3.828   4.902   6.174
 7405SOL    HW123114   3.774   4.915   6.257
 7405SOL    HW223115   3.871   4.811   6.176
 7406SOL     OW23116   0.174   6.534   2.234
 7406SOL    HW123117   0.182   6.621   2.283
 7406SOL    HW223118   0.265   6.500   2.210
 7407SOL     OW23119   2.740   0.454   6.299
 7407SOL    HW123120   2.753   0.376   6.238
 7407SOL    HW223121   2.798   0.444   6.379
 7408SOL     OW23122   1.018   3.633   4.997
 7408SOL    HW123123   0.985   3.664   4.908
 7408SOL    HW223124   0.977   3.688   5.070
 7409SOL     OW23125   2.493   6.955   5.367
 7409SOL    HW123126   2.441   7.005   5.298
 7409SOL    HW223127   2.477   6.996   5.457
 7410SOL     OW23128   4.555   5.514   6.368
 7410SOL    HW123129   4.509   5.449   6.307
 7410SOL    HW223130   4.491   5.586   6.395
 7411SOL     OW23131   5.006   4.686   5.681
 7411SOL    HW123132   4.982   4.762   5.621
 7411SOL    HW223133   4.998   4.600   5.630
 7412SOL     OW23134   1.426   1.432   6.389
 7412SOL    HW123135   1.486   1.508   6.411
 7412SOL    HW223136   1.335   1.448   6.428
 7413SOL     OW23137   6.922   3.533   3.930
 7413SOL    HW123138   6.827   3.556   3.910
 7413SOL    HW223139   6.981   3.607   3.897
 7414SOL     OW23140   0.805   4.903   1.662
 7414SOL    HW123141   0.877   4.872   1.599
 7414SOL    HW223142   0.769   4.824   1.712
 7415SOL     OW23143   3.417   1.865   3.260
 7415SOL    HW123144   3.491   1.811   3.219
 7415SOL    HW223145   3.343   1.804   3.289
 7416SOL     OW23146   6.435   7.012   3.242
 7416SOL    HW123147   6.482   6.976   3.162
 7416SOL    HW223148   6.355   0.039   3.214
 7417SOL     OW23149   0.756   5.209   0.854
 7417SOL    HW123150   0.728   5.192   0.760
 7417SOL    HW223151   0.799   5.127   0.892
 7418SOL     OW23152   1.102   3.527   0.542
 7418SOL    HW123153   1.177   3.562   0.486
 7418SOL    HW223154   1.073   3.597   0.607
 7419SOL     OW23155   6.124   1.932   5.196
 7419SOL    HW123156   6.067   1.860   5.157
 7419SOL    HW223157   6.188   1.892   5.262
 7420SOL     OW23158   6.820   5.358   2.266
 7420SOL    HW123159   6.838   5.271   2.221
 7420SOL    HW223160   6.853   5.355   2.360
 7421SOL     OW23161   4.376   2.062   1.159
 7421SOL    HW123162   4.322   2.012   1.227
 7421SOL    HW223163   4.471   2.031   1.163
 7422SOL     OW23164   0.820   1.645   0.427
 7422SOL    HW123165   0.885   1.719   0.413
 7422SOL    HW223166   0.815   1.624   0.525
 7423SOL     OW23167   2.059   4.442   0.144
 7423SOL    HW123168   2.054   4.542   0.134
 7423SOL    HW223169   2.139   4.418   0.199
 7424SOL     OW23170   5.344   7.013   5.004
 7424SOL    HW123171   5.312   7.013   4.909
 7424SOL    HW223172   5.292   0.054   5.056
 7425SOL     OW23173   3.728   0.038   4.888
 7425SOL    HW123174   3.776   0.102   4.947
 7425SOL    HW223175   3.792   7.027   4.821
 7426SOL     OW23176   0.108   1.621   6.271
 7426SOL    HW123177   0.101   1.529   6.308
 7426SOL    HW223178   0.017   1.663   6.267
 7427SOL     OW23179   5.222   5.652   5.069
 7427SOL    HW123180   5.298   5.593   5.096
 7427SOL    HW223181   5.205   5.642   4.971
 7428SOL     OW23182   4.414   1.192   5.935
 7428SOL    HW123183   4.437   1.240   5.850
 7428SOL    HW223184   4.423   1.255   6.012
 7429SOL     OW23185   6.429   6.407   4.114
 7429SOL    HW123186   6.397   6.488   4.163
 7429SOL    HW223187   6.353   6.342   4.105
 7430SOL     OW23188   0.578   4.127   4.480
 7430SOL    HW123189   0.618   4.087   4.398
 7430SOL    HW223190   0.534   4.055   4.534
 7431SOL     OW23191   0.768   4.106   2.600
 7431SOL    HW123192   0.778   4.007   2.588
 7431SOL    HW223193   0.780   4.130   2.696
 7432SOL     OW23194   1.688   6.651   5.140
 7432SOL    HW123195   1.675   6.715   5.216
 7432SOL    HW223196   1.600   6.633   5.096
 7433SOL     OW23197   0.528   6.455   1.055
 7433SOL    HW123198   0.605   6.519   1.048
 7433SOL    HW223199   0.495   6.433   0.964
 7434SOL     OW23200   3.908   6.896   0.241
 7434SOL    HW123201   3.838   6.934   0.302
 7434SOL    HW223202   3.996   6.938   0.262
 7435SOL     OW23203   1.735   6.244   7.026
 7435SOL    HW123204   1.697   6.247   6.934
 7435SOL    HW223205   1.682   6.181   0.056
 7436SOL     OW23206   4.280   3.587   7.001
 7436SOL    HW123207   4.347   3.637   6.946
 7436SOL    HW223208   4.195   3.577   6.949
 7437SOL     OW23209   0.074   6.424   5.605
 7437SOL    HW123210   0.052   6.358   5.678
 7437SOL    HW223211   0.084   6.515   5.645
 7438SOL     OW23212   5.622   4.223   1.419
 7438SOL    HW123213   5.635   4.298   1.354
 7438SOL    HW223214   5.579   4.258   1.503
 7439SOL     OW23215   1.198   5.939   2.833
 7439SOL    HW123216   1.105   5.967   2.809
 7439SOL    HW223217   1.195   5.850   2.879
 7440SOL     OW23218   0.725   1.289   3.863
 7440SOL    HW123219   0.737   1.190   3.864
 7440SOL    HW223220   0.790   1.330   3.799
 7441SOL     OW23221   6.313   0.517   3.579
 7441SOL    HW123222   6.322   0.594   3.642
 7441SOL    HW223223   6.352   0.435   3.622
 7442SOL     OW23224   1.779   0.535   6.062
 7442SOL    HW123225   1.694   0.587   6.075
 7442SOL    HW223226   1.857   0.595   6.078
 7443SOL     OW23227   6.470   2.142   1.863
 7443SOL    HW123228   6.517   2.225   1.834
 7443SOL    HW223229   6.476   2.133   1.963
 7444SOL     OW23230   0.295   2.676   4.852
 7444SOL    HW123231   0.221   2.668   4.918
 7444SOL    HW223232   0.283   2.608   4.780
 7445SOL     OW23233   6.048   3.029   1.658
 7445SOL    HW123234   5.967   2.971   1.671
 7445SOL    HW223235   6.026   3.123   1.684
 7446SOL     OW23236   5.980   3.541   2.848
 7446SOL    HW123237   6.014   3.578   2.934
 7446SOL    HW223238   5.972   3.442   2.855
 7447SOL     OW23239   0.098   4.089   6.197
 7447SOL    HW123240   0.114   4.177   6.241
 7447SOL    HW223241   0.010   4.052   6.227
 7448SOL     OW23242   0.266   7.000   6.200
 7448SOL    HW123243   0.306   6.987   6.291
 7448SOL    HW223244   0.192   6.935   6.187
 7449SOL     OW23245   4.047   0.046   1.592
 7449SOL    HW123246   4.145   0.026   1.602
 7449SOL    HW223247   4.035   0.138   1.555
 7450SOL     OW23248   3.828   0.924   1.987
 7450SOL    HW123249   3.839   0.887   1.894
 7450SOL    HW223250   3.732   0.942   2.005
 7451SOL     OW23251   1.459   0.265   2.960
 7451SOL    HW123252   1.450   0.274   2.860
 7451SOL    HW223253   1.390   0.202   2.994
 7452SOL     OW23254   1.940   6.294   3.427
 7452SOL    HW123255   1.956   6.198   3.452
 7452SOL    HW223256   1.952   6.305   3.329
 7453SOL     OW23257   6.239   5.191   5.830
 7453SOL    HW123258   6.152   5.152   5.800
 7453SOL    HW223259   6.312   5.160   5.770
 7454SOL     OW23260   0.978   3.405   6.684
 7454SOL    HW123261   0.886   3.436   6.709
 7454SOL    HW223262   1.039   3.484   6.675
 7455SOL     OW23263   5.179   0.963   1.005
 7455SOL    HW123264   5.269   0.951   1.046
 7455SOL    HW223265   5.173   0.908   0.921
 7456SOL     OW23266   1.009   3.873   5.652
 7456SOL    HW123267   1.022   3.966   5.619
 7456SOL    HW223268   0.912   3.849   5.645
 7457SOL     OW23269   6.321   0.117   5.802
 7457SOL    HW123270   6.233   0.144   5.763
 7457SOL    HW223271   6.389   0.188   5.784
 7458SOL     OW23272   2.324   0.550   1.292
 7458SOL    HW123273   2.238   0.580   1.250
 7458SOL    HW223274   2.346   0.610   1.369
 7459SOL     OW23275   4.425   6.680   4.585
 7459SOL    HW123276   4.350   6.705   4.646
 7459SOL    HW223277   4.392   6.614   4.518
 7460SOL     OW23278   1.109   5.871   0.062
 7460SOL    HW123279   1.043   5.894   0.134
 7460SOL    HW223280   1.183   5.938   0.062
 7461SOL     OW23281   4.318   1.032   4.279
 7461SOL    HW123282   4.250   1.105   4.288
 7461SOL    HW223283   4.318   0.976   4.361
 7462SOL     OW23284   1.734   0.954   2.919
 7462SOL    HW123285   1.754   0.868   2.873
 7462SOL    HW223286   1.662   0.941   2.987
 7463SOL     OW23287   3.763   3.648   1.964
 7463SOL    HW123288   3.772   3.647   2.063
 7463SOL    HW223289   3.793   3.560   1.927
 7464SOL     OW23290   4.671   6.683   6.954
 7464SOL    HW123291   4.690   6.781   6.950
 7464SOL    HW223292   4.692   6.641   6.866
 7465SOL     OW23293   3.682   0.594   2.780
 7465SOL    HW123294   3.722   0.506   2.807
 7465SOL    HW223295   3.752   0.649   2.735
 7466SOL     OW23296   6.496   0.192   6.989
 7466SOL    HW123297   6.527   0.214   0.055
 7466SOL    HW223298   6.482   0.094   6.981
 7467SOL     OW23299   4.933   1.725   1.011
 7467SOL    HW123300   5.025   1.739   1.047
 7467SOL    HW223301   4.897   1.811   0.976
 7468SOL     OW23302   6.023   3.840   4.269
 7468SOL    HW123303   6.048   3.792   4.185
 7468SOL    HW223304   6.045   3.937   4.261
 7469SOL     OW23305   5.643   0.929   1.983
 7469SOL    HW123306   5.714   0.941   2.052
 7469SOL    HW223307   5.665   0.849   1.926
 7470SOL     OW23308   6.851   3.293   2.872
 7470SOL    HW123309   6.833   3.323   2.966
 7470SOL    HW223310   6.949   3.298   2.853
 7471SOL     OW23311   6.196   4.874   5.474
 7471SOL    HW123312   6.103   4.838   5.480
 7471SOL    HW223313   6.194   4.973   5.483
 7472SOL     OW23314   4.225   4.992   3.221
 7472SOL    HW123315   4.243   4.936   3.140
 7472SOL    HW223316   4.139   4.963   3.263
 7473SOL     OW23317   0.757   3.204   5.013
 7473SOL    HW123318   0.694   3.239   5.082
 7473SOL    HW223319   0.841   3.172   5.057
 7474SOL     OW23320   3.101   1.785   3.187
 7474SOL    HW123321   3.090   1.800   3.285
 7474SOL    HW223322   3.011   1.786   3.143
 7475SOL     OW23323   4.613   1.175   6.737
 7475SOL    HW123324   4.652   1.117   6.808
 7475SOL    HW223325   4.629   1.271   6.759
 7476SOL     OW23326   2.471   6.979   4.957
 7476SOL    HW123327   2.565   7.003   4.982
 7476SOL    HW223328   2.410   6.996   5.035
 7477SOL     OW23329   4.868   3.640   4.064
 7477SOL    HW123330   4.935   3.620   3.992
 7477SOL    HW223331   4.874   3.736   4.091
 7478SOL     OW23332   1.045   4.590   1.673
 7478SOL    HW123333   1.032   4.645   1.590
 7478SOL    HW223334   1.099   4.642   1.740
 7479SOL     OW23335   4.066   0.205   5.410
 7479SOL    HW123336   3.996   0.276   5.400
 7479SOL    HW223337   4.024   0.115   5.395
 7480SOL     OW23338   6.451   5.532   0.642
 7480SOL    HW123339   6.490   5.606   0.588
 7480SOL    HW223340   6.359   5.512   0.608
 7481SOL     OW23341   5.750   6.161   0.366
 7481SOL    HW123342   5.781   6.121   0.453
 7481SOL    HW223343   5.819   6.227   0.334
 7482SOL     OW23344   5.316   0.139   4.467
 7482SOL    HW123345   5.342   0.044   4.451
 7482SOL    HW223346   5.395   0.198   4.454
 7483SOL     OW23347   3.266   0.819   5.926
 7483SOL    HW123348   3.172   0.786   5.919
 7483SOL    HW223349   3.288   0.836   6.022
 7484SOL     OW23350   3.584   0.541   2.132
 7484SOL    HW123351   3.628   0.452   2.137
 7484SOL    HW223352   3.629   0.603   2.197
 7485SOL     OW23353   1.197   0.376   5.038
 7485SOL    HW123354   1.270   0.425   5.085
 7485SOL    HW223355   1.113   0.430   5.043
 7486SOL     OW23356   1.136   1.931   5.284
 7486SOL    HW123357   1.166   1.914   5.190
 7486SOL    HW223358   1.161   2.024   5.311
 7487SOL     OW23359   3.571   5.494   3.410
 7487SOL    HW123360   3.653   5.536   3.449
 7487SOL    HW223361   3.562   5.523   3.315
 7488SOL     OW23362   4.340   0.554   5.497
 7488SOL    HW123363   4.266   0.606   5.454
 7488SOL    HW223364   4.425   0.567   5.445
 7489SOL     OW23365   6.757   3.765   3.733
 7489SOL    HW123366   6.791   3.696   3.669
 7489SOL    HW223367   6.826   3.837   3.744
 7490SOL     OW23368   5.519   0.892   3.117
 7490SOL    HW123369   5.430   0.848   3.110
 7490SOL    HW223370   5.555   0.909   3.025
 7491SOL     OW23371   0.797   6.868   0.086
 7491SOL    HW123372   0.709   6.822   0.097
 7491SOL    HW223373   0.855   6.851   0.165
 7492SOL     OW23374   2.459   2.256   3.448
 7492SOL    HW123375   2.467   2.204   3.363
 7492SOL    HW223376   2.534   2.322   3.454
 7493SOL     OW23377   5.190   5.061   6.602
 7493SOL    HW123378   5.152   5.103   6.684
 7493SOL    HW223379   5.183   5.125   6.525
 7494SOL     OW23380   4.983   2.193   1.450
 7494SOL    HW123381   4.980   2.224   1.355
 7494SOL    HW223382   5.050   2.247   1.500
 7495SOL     OW23383   0.872   1.874   2.502
 7495SOL    HW123384   0.787   1.906   2.544
 7495SOL    HW223385   0.921   1.951   2.462
 7496SOL     OW23386   0.301   5.397   5.983
 7496SOL    HW123387   0.301   5.305   5.942
 7496SOL    HW223388   0.393   5.421   6.012
 7497SOL     OW23389   1.836   4.836   2.206
 7497SOL    HW123390   1.928   4.869   2.181
 7497SOL    HW223391   1.815   4.754   2.153
 7498SOL     OW23392   5.335   1.948   4.591
 7498SOL    HW123393   5.430   1.919   4.577
 7498SOL    HW223394   5.289   1.956   4.503
 7499SOL     OW23395   4.043   4.851   3.952
 7499SOL    HW123396   4.116   4.876   4.016
 7499SOL    HW223397   3.954   4.869   3.994
 7500SOL     OW23398   4.819   4.327   1.902
 7500SOL    HW123399   4.816   4.426   1.896
 7500SOL    HW223400   4.742   4.288   1.852
 7501SOL     OW23401   0.464   5.112   3.759
 7501SOL    HW123402   0.449   5.185   3.826
 7501SOL    HW223403   0.390   5.045   3.766
 7502SOL     OW23404   1.916   2.110   4.036
 7502SOL    HW123405   1.993   2.050   4.056
 7502SOL    HW223406   1.835   2.080   4.088
 7503SOL     OW23407   2.434   2.915   6.644
 7503SOL    HW123408   2.412   2.980   6.571
 7503SOL    HW223409   2.356   2.854   6.658
 7504SOL     OW23410   3.945   5.153   3.352
 7504SOL    HW123411   3.882   5.082   3.321
 7504SOL    HW223412   3.962   5.217   3.276
 7505SOL     OW23413   1.478   1.145   4.245
 7505SOL    HW123414   1.400   1.086   4.225
 7505SOL    HW223415   1.479   1.221   4.180
 7506SOL     OW23416   3.439   1.425   3.486
 7506SOL    HW123417   3.489   1.502   3.448
 7506SOL    HW223418   3.439   1.349   3.420
 7507SOL     OW23419   1.916   6.355   5.720
 7507SOL    HW123420   1.848   6.350   5.793
 7507SOL    HW223421   1.916   6.269   5.668
 7508SOL     OW23422   5.185   5.403   3.981
 7508SOL    HW123423   5.089   5.422   3.958
 7508SOL    HW223424   5.229   5.356   3.904
 7509SOL     OW23425   4.185   3.647   6.403
 7509SOL    HW123426   4.202   3.695   6.489
 7509SOL    HW223427   4.260   3.584   6.385
 7510SOL     OW23428   3.644   3.940   4.698
 7510SOL    HW123429   3.709   3.910   4.768
 7510SOL    HW223430   3.615   4.034   4.717
 7511SOL     OW23431   1.053   0.904   2.021
 7511SOL    HW123432   1.092   0.982   2.070
 7511SOL    HW223433   1.058   0.823   2.080
 7512SOL     OW23434   1.889   2.827   1.759
 7512SOL    HW123435   1.904   2.917   1.719
 7512SOL    HW223436   1.953   2.813   1.835
 7513SOL     OW23437   1.576   3.484   6.288
 7513SOL    HW123438   1.501   3.449   6.232
 7513SOL    HW223439   1.585   3.583   6.274
 7514SOL     OW23440   3.279   5.662   3.755
 7514SOL    HW123441   3.286   5.681   3.657
 7514SOL    HW223442   3.247   5.568   3.768
 7515SOL     OW23443   0.384   4.795   2.848
 7515SOL    HW123444   0.463   4.820   2.792
 7515SOL    HW223445   0.394   4.700   2.877
 7516SOL     OW23446   1.194   1.968   1.642
 7516SOL    HW123447   1.113   1.960   1.701
 7516SOL    HW223448   1.274   1.935   1.692
 7517SOL     OW23449   0.740   4.749   1.214
 7517SOL    HW123450   0.674   4.793   1.275
 7517SOL    HW223451   0.691   4.704   1.139
 7518SOL     OW23452   4.985   4.455   3.432
 7518SOL    HW123453   5.067   4.473   3.486
 7518SOL    HW223454   4.956   4.540   3.386
 7519SOL     OW23455   1.699   0.247   4.387
 7519SOL    HW123456   1.716   0.182   4.461
 7519SOL    HW223457   1.783   0.298   4.367
 7520SOL     OW23458   2.703   0.263   3.967
 7520SOL    HW123459   2.654   0.207   3.901
 7520SOL    HW223460   2.639   0.328   4.009
 7521SOL     OW23461   4.128   3.289   5.395
 7521SOL    HW123462   4.137   3.310   5.493
 7521SOL    HW223463   4.116   3.374   5.344
 7522SOL     OW23464   1.608   0.503   2.510
 7522SOL    HW123465   1.676   0.430   2.500
 7522SOL    HW223466   1.536   0.492   2.441
 7523SOL     OW23467   5.941   6.789   6.411
 7523SOL    HW123468   5.846   6.800   6.381
 7523SOL    HW223469   6.001   6.790   6.330
 7524SOL     OW23470   6.181   1.139   4.808
 7524SOL    HW123471   6.129   1.164   4.726
 7524SOL    HW223472   6.167   1.043   4.828
 7525SOL     OW23473   0.770   6.909   0.881
 7525SOL    HW123474   0.775   6.984   0.947
 7525SOL    HW223475   0.712   6.937   0.804
 7526SOL     OW23476   3.433   3.278   4.830
 7526SOL    HW123477   3.511   3.309   4.776
 7526SOL    HW223478   3.462   3.205   4.892
 7527SOL     OW23479   4.634   5.845   2.043
 7527SOL    HW123480   4.695   5.769   2.023
 7527SOL    HW223481   4.685   5.931   2.042
 7528SOL     OW23482   5.674   3.309   6.856
 7528SOL    HW123483   5.602   3.276   6.917
 7528SOL    HW223484   5.670   3.409   6.851
 7529SOL     OW23485   2.733   7.012   4.974
 7529SOL    HW123486   2.789   0.048   4.921
 7529SOL    HW223487   2.767   6.919   4.962
 7530SOL     OW23488   6.794   2.893   2.803
 7530SOL    HW123489   6.729   2.968   2.793
 7530SOL    HW223490   6.811   2.876   2.900
 7531SOL     OW23491   2.817   1.504   4.555
 7531SOL    HW123492   2.725   1.501   4.595
 7531SOL    HW223493   2.884   1.484   4.627
 7532SOL     OW23494   5.015   4.816   2.438
 7532SOL    HW123495   4.930   4.869   2.436
 7532SOL    HW223496   4.994   4.720   2.417
 7533SOL     OW23497   3.681   0.622   4.952
 7533SOL    HW123498   3.760   0.647   4.897
 7533SOL    HW223499   3.680   0.677   5.036
 7534SOL     OW23500   5.558   6.416   4.520
 7534SOL    HW123501   5.507   6.356   4.459
 7534SOL    HW223502   5.617   6.362   4.580
 7535SOL     OW23503   3.256   4.612   0.753
 7535SOL    HW123504   3.233   4.587   0.847
 7535SOL    HW223505   3.320   4.688   0.753
 7536SOL     OW23506   3.406   5.784   5.205
 7536SOL    HW123507   3.462   5.775   5.122
 7536SOL    HW223508   3.312   5.755   5.185
 7537SOL     OW23509   2.290   4.583   5.527
 7537SOL    HW123510   2.242   4.529   5.596
 7537SOL    HW223511   2.228   4.651   5.489
 7538SOL     OW23512   2.890   3.442   4.015
 7538SOL    HW123513   2.844   3.372   3.960
 7538SOL    HW223514   2.928   3.400   4.097
 7539SOL     OW23515   1.373   2.313   4.440
 7539SOL    HW123516   1.274   2.294   4.443
 7539SOL    HW223517   1.388   2.412   4.440
 7540SOL     OW23518   2.100   0.936   6.880
 7540SOL    HW123519   2.132   0.876   6.808
 7540SOL    HW223520   2.000   0.932   6.885
 7541SOL     OW23521   6.672   2.716   5.278
 7541SOL    HW123522   6.718   2.629   5.257
 7541SOL    HW223523   6.690   2.781   5.204
 7542SOL     OW23524   1.455   0.182   6.139
 7542SOL    HW123525   1.373   0.236   6.160
 7542SOL    HW223526   1.504   0.225   6.063
 7543SOL     OW23527   3.475   2.244   0.329
 7543SOL    HW123528   3.521   2.156   0.340
 7543SOL    HW223529   3.412   2.240   0.252
 7544SOL     OW23530   1.028   2.126   2.467
 7544SOL    HW123531   1.125   2.104   2.456
 7544SOL    HW223532   1.017   2.195   2.538
 7545SOL     OW23533   4.191   0.394   3.872
 7545SOL    HW123534   4.229   0.450   3.946
 7545SOL    HW223535   4.102   0.431   3.846
 7546SOL     OW23536   5.443   0.017   5.869
 7546SOL    HW123537   5.528   0.065   5.844
 7546SOL    HW223538   5.388   0.003   5.787
 7547SOL     OW23539   2.873   0.185   6.928
 7547SOL    HW123540   2.932   0.156   6.853
 7547SOL    HW223541   2.799   0.242   6.892
 7548SOL     OW23542   0.949   3.332   1.594
 7548SOL    HW123543   0.906   3.331   1.684
 7548SOL    HW223544   0.905   3.401   1.537
 7549SOL     OW23545   5.644   1.135   2.972
 7549SOL    HW123546   5.728   1.103   3.016
 7549SOL    HW223547   5.669   1.191   2.892
 7550SOL     OW23548   1.288   5.431   1.118
 7550SOL    HW123549   1.228   5.367   1.070
 7550SOL    HW223550   1.263   5.525   1.095
 7551SOL     OW23551   5.155   4.344   6.509
 7551SOL    HW123552   5.227   4.333   6.440
 7551SOL    HW223553   5.185   4.303   6.595
 7552SOL     OW23554   3.553   5.617   3.752
 7552SOL    HW123555   3.584   5.610   3.657
 7552SOL    HW223556   3.453   5.612   3.755
 7553SOL     OW23557   4.242   4.276   5.966
 7553SOL    HW123558   4.247   4.321   5.877
 7553SOL    HW223559   4.335   4.264   6.002
 7554SOL     OW23560   0.075   1.461   1.002
 7554SOL    HW123561   7.021   1.491   1.052
 7554SOL    HW223562   0.151   1.522   1.022
 7555SOL     OW23563   1.305   6.256   5.889
 7555SOL    HW123564   1.235   6.190   5.915
 7555SOL    HW223565   1.263   6.327   5.832
 7556SOL     OW23566   6.484   3.877   3.453
 7556SOL    HW123567   6.409   3.896   3.516
 7556SOL    HW223568   6.531   3.793   3.481
 7557SOL     OW23569   3.912   3.951   0.600
 7557SOL    HW123570   3.920   3.876   0.534
 7557SOL    HW223571   4.001   3.996   0.610
 7558SOL     OW23572   1.595   2.381   3.060
 7558SOL    HW123573   1.693   2.385   3.042
 7558SOL    HW223574   1.565   2.286   3.061
 7559SOL     OW23575   1.474   4.869   0.099
 7559SOL    HW123576   1.465   4.869   0.198
 7559SOL    HW223577   1.392   4.830   0.058
 7560SOL     OW23578   4.652   0.276   5.293
 7560SOL    HW123579   4.614   0.354   5.245
 7560SOL    HW223580   4.612   0.191   5.257
 7561SOL     OW23581   0.064   3.915   0.099
 7561SOL    HW123582   6.998   3.927   0.133
 7561SOL    HW223583   0.111   3.845   0.153
 7562SOL     OW23584   4.510   6.278   4.762
 7562SOL    HW123585   4.480   6.219   4.837
 7562SOL    HW223586   4.610   6.281   4.759
 7563SOL     OW23587   2.377   1.530   3.265
 7563SOL    HW123588   2.313   1.560   3.194
 7563SOL    HW223589   2.465   1.508   3.223
 7564SOL     OW23590   5.705   5.526   4.344
 7564SOL    HW123591   5.706   5.529   4.244
 7564SOL    HW223592   5.749   5.609   4.380
 7565SOL     OW23593   5.012   5.187   6.803
 7565SOL    HW123594   4.958   5.265   6.772
 7565SOL    HW223595   5.059   5.212   6.888
 7566SOL     OW23596   1.763   6.156   4.800
 7566SOL    HW123597   1.858   6.180   4.782
 7566SOL    HW223598   1.709   6.166   4.716
 7567SOL     OW23599   3.015   2.973   0.299
 7567SOL    HW123600   2.941   2.938   0.356
 7567SOL    HW223601   3.005   2.938   0.206
 7568SOL     OW23602   4.349   4.637   2.639
 7568SOL    HW123603   4.416   4.669   2.571
 7568SOL    HW223604   4.256   4.651   2.603
 7569SOL     OW23605   3.818   0.106   1.365
 7569SOL    HW123606   3.757   0.061   1.299
 7569SOL    HW223607   3.766   0.130   1.447
 7570SOL     OW23608   6.059   5.459   5.017
 7570SOL    HW123609   5.987   5.434   4.952
 7570SOL    HW223610   6.032   5.431   5.109
 7571SOL     OW23611   5.684   4.406   1.228
 7571SOL    HW123612   5.751   4.411   1.153
 7571SOL    HW223613   5.592   4.416   1.190
 7572SOL     OW23614   0.435   1.158   3.451
 7572SOL    HW123615   0.482   1.071   3.434
 7572SOL    HW223616   0.447   1.184   3.547
 7573SOL     OW23617   2.823   5.377   5.531
 7573SOL    HW123618   2.896   5.437   5.563
 7573SOL    HW223619   2.806   5.394   5.434
 7574SOL     OW23620   4.723   6.399   2.165
 7574SOL    HW123621   4.699   6.483   2.214
 7574SOL    HW223622   4.754   6.330   2.230
 7575SOL     OW23623   4.832   2.807   4.750
 7575SOL    HW123624   4.838   2.768   4.658
 7575SOL    HW223625   4.760   2.759   4.801
 7576SOL     OW23626   6.643   3.714   1.506
 7576SOL    HW123627   6.631   3.762   1.419
 7576SOL    HW223628   6.736   3.680   1.513
 7577SOL     OW23629   4.662   0.776   4.928
 7577SOL    HW123630   4.656   0.697   4.867
 7577SOL    HW223631   4.584   0.837   4.910
 7578SOL     OW23632   2.584   5.294   4.622
 7578SOL    HW123633   2.622   5.204   4.599
 7578SOL    HW223634   2.628   5.329   4.704
 7579SOL     OW23635   4.546   2.253   3.514
 7579SOL    HW123636   4.626   2.202   3.480
 7579SOL    HW223637   4.577   2.330   3.570
 7580SOL     OW23638   2.071   3.454   2.205
 7580SOL    HW123639   2.134   3.451   2.126
 7580SOL    HW223640   2.048   3.360   2.231
 7581SOL     OW23641   5.431   0.952   1.114
 7581SOL    HW123642   5.371   0.966   1.194
 7581SOL    HW223643   5.456   1.041   1.076
 7582SOL     OW23644   3.280   2.257   1.080
 7582SOL    HW123645   3.360   2.249   1.020
 7582SOL    HW223646   3.294   2.200   1.161
 7583SOL     OW23647   6.990   3.741   2.861
 7583SOL    HW123648   0.029   3.729   2.935
 7583SOL    HW223649   6.973   3.839   2.847
 7584SOL     OW23650   1.985   1.779   1.364
 7584SOL    HW123651   1.920   1.720   1.316
 7584SOL    HW223652   2.066   1.792   1.306
 7585SOL     OW23653   1.440   5.175   6.302
 7585SOL    HW123654   1.492   5.227   6.369
 7585SOL    HW223655   1.440   5.078   6.328
 7586SOL     OW23656   2.397   1.436   2.777
 7586SOL    HW123657   2.472   1.386   2.733
 7586SOL    HW223658   2.373   1.515   2.721
 7587SOL     OW23659   2.021   0.696   6.070
 7587SOL    HW123660   2.096   0.745   6.027
 7587SOL    HW223661   2.048   0.668   6.162
 7588SOL     OW23662   1.117   4.255   1.986
 7588SOL    HW123663   1.086   4.161   1.975
 7588SOL    HW223664   1.216   4.260   1.974
 7589SOL     OW23665   5.176   6.191   6.590
 7589SOL    HW123666   5.177   6.098   6.553
 7589SOL    HW223667   5.197   6.188   6.688
 7590SOL     OW23668   1.495   0.143   6.676
 7590SOL    HW123669   1.452   0.167   6.589
 7590SOL    HW223670   1.592   0.123   6.660
 7591SOL     OW23671   6.230   5.606   6.809
 7591SOL    HW123672   6.305   5.623   6.744
 7591SOL    HW223673   6.243   5.664   6.890
 7592SOL     OW23674   5.062   5.299   6.152
 7592SOL    HW123675   5.063   5.374   6.085
 7592SOL    HW223676   5.106   5.219   6.112
 7593SOL     OW23677   5.828   4.096   0.562
 7593SOL    HW123678   5.845   4.083   0.660
 7593SOL    HW223679   5.734   4.124   0.547
 7594SOL     OW23680   0.974   6.703   3.820
 7594SOL    HW123681   1.020   6.635   3.877
 7594SOL    HW223682   1.039   6.773   3.792
 7595SOL     OW23683   6.340   2.676   6.697
 7595SOL    HW123684   6.315   2.771   6.715
 7595SOL    HW223685   6.284   2.641   6.622
 7596SOL     OW23686   4.760   4.820   2.175
 7596SOL    HW123687   4.724   4.841   2.084
 7596SOL    HW223688   4.690   4.836   2.244
 7597SOL     OW23689   2.806   5.873   1.919
 7597SOL    HW123690   2.722   5.878   1.972
 7597SOL    HW223691   2.791   5.916   1.829
 7598SOL     OW23692   6.753   1.111   2.082
 7598SOL    HW123693   6.840   1.065   2.101
 7598SOL    HW223694   6.683   1.043   2.064
 7599SOL     OW23695   6.098   2.601   2.208
 7599SOL    HW123696   6.039   2.566   2.280
 7599SOL    HW223697   6.096   2.539   2.130
 7600SOL     OW23698   2.335   1.600   2.572
 7600SOL    HW123699   2.311   1.570   2.480
 7600SOL    HW223700   2.424   1.645   2.571
 7601SOL     OW23701   1.772   0.503   4.998
 7601SOL    HW123702   1.775   0.463   4.906
 7601SOL    HW223703   1.758   0.430   5.065
 7602SOL     OW23704   2.006   3.234   5.371
 7602SOL    HW123705   1.996   3.331   5.349
 7602SOL    HW223706   2.069   3.191   5.307
 7603SOL     OW23707   0.010   1.500   1.941
 7603SOL    HW123708   0.052   1.431   2.000
 7603SOL    HW223709   7.012   1.580   1.995
 7604SOL     OW23710   5.013   5.502   0.048
 7604SOL    HW123711   4.991   5.406   0.033
 7604SOL    HW223712   4.929   5.557   0.038
 7605SOL     OW23713   5.740   3.786   6.023
 7605SOL    HW123714   5.809   3.810   5.955
 7605SOL    HW223715   5.653   3.769   5.977
 7606SOL     OW23716   5.897   1.593   3.638
 7606SOL    HW123717   5.961   1.518   3.623
 7606SOL    HW223718   5.948   1.677   3.655
 7607SOL     OW23719   4.932   6.963   6.170
 7607SOL    HW123720   4.982   0.022   6.175
 7607SOL    HW223721   4.901   6.947   6.076
 7608SOL     OW23722   3.987   3.351   4.377
 7608SOL    HW123723   3.925   3.426   4.352
 7608SOL    HW223724   3.953   3.265   4.338
 7609SOL     OW23725   2.153   2.509   3.773
 7609SOL    HW123726   2.182   2.416   3.795
 7609SOL    HW223727   2.169   2.569   3.851
 7610SOL     OW23728   5.444   0.821   2.244
 7610SOL    HW123729   5.509   0.751   2.272
 7610SOL    HW223730   5.429   0.815   2.145
 7611SOL     OW23731   2.073   1.782   1.672
 7611SOL    HW123732   1.982   1.783   1.714
 7611SOL    HW223733   2.069   1.826   1.582
 7612SOL     OW23734   4.187   1.642   2.504
 7612SOL    HW123735   4.228   1.732   2.521
 7612SOL    HW223736   4.194   1.621   2.406
 7613SOL     OW23737   5.231   0.933   3.370
 7613SOL    HW123738   5.245   0.888   3.281
 7613SOL    HW223739   5.135   0.929   3.395
 7614SOL     OW23740   4.211   1.296   0.396
 7614SOL    HW123741   4.181   1.391   0.403
 7614SOL    HW223742   4.173   1.243   0.472
 7615SOL     OW23743   4.001   4.791   5.716
 7615SOL    HW123744   4.034   4.718   5.775
 7615SOL    HW223745   4.052   4.875   5.735
 7616SOL     OW23746   6.759   4.404   3.250
 7616SOL    HW123747   6.712   4.376   3.166
 7616SOL    HW223748   6.821   4.331   3.279
 7617SOL     OW23749   3.293   6.246   2.899
 7617SOL    HW123750   3.253   6.306   2.969
 7617SOL    HW223751   3.360   6.297   2.845
 7618SOL     OW23752   2.214   2.146   0.546
 7618SOL    HW123753   2.181   2.104   0.462
 7618SOL    HW223754   2.140   2.198   0.589
 7619SOL     OW23755   5.712   3.507   5.905
 7619SOL    HW123756   5.768   3.565   5.965
 7619SOL    HW223757   5.715   3.544   5.812
 7620SOL     OW23758   2.742   6.530   1.805
 7620SOL    HW123759   2.782   6.511   1.894
 7620SOL    HW223760   2.682   6.455   1.778
 7621SOL     OW23761   2.184   2.427   0.934
 7621SOL    HW123762   2.228   2.497   0.989
 7621SOL    HW223763   2.162   2.348   0.992
 7622SOL     OW23764   5.194   1.653   1.056
 7622SOL    HW123765   5.202   1.557   1.030
 7622SOL    HW223766   5.238   1.667   1.144
 7623SOL     OW23767   5.943   0.166   5.173
 7623SOL    HW123768   5.993   0.197   5.093
 7623SOL    HW223769   5.882   0.239   5.206
 7624SOL     OW23770   6.924   1.091   4.682
 7624SOL    HW123771   7.022   1.083   4.663
 7624SOL    HW223772   6.872   1.077   4.598
 7625SOL     OW23773   3.590   6.088   0.838
 7625SOL    HW123774   3.496   6.063   0.863
 7625SOL    HW223775   3.607   6.065   0.743
 7626SOL     OW23776   2.391   4.493   4.363
 7626SOL    HW123777   2.394   4.394   4.380
 7626SOL    HW223778   2.454   4.539   4.425
 7627SOL     OW23779   6.491   1.559   7.013
 7627SOL    HW123780   6.504   1.621   0.063
 7627SOL    HW223781   6.469   1.468   0.019
 7628SOL     OW23782   4.599   1.444   1.042
 7628SOL    HW123783   4.551   1.367   1.084
 7628SOL    HW223784   4.668   1.478   1.105
 7629SOL     OW23785   6.594   5.582   3.350
 7629SOL    HW123786   6.596   5.482   3.348
 7629SOL    HW223787   6.538   5.613   3.427
 7630SOL     OW23788   6.469   1.536   2.241
 7630SOL    HW123789   6.391   1.585   2.204
 7630SOL    HW223790   6.521   1.495   2.166
 7631SOL     OW23791   1.540   1.132   3.377
 7631SOL    HW123792   1.443   1.113   3.364
 7631SOL    HW223793   1.551   1.222   3.420
 7632SOL     OW23794   4.326   0.927   6.243
 7632SOL    HW123795   4.272   0.995   6.193
 7632SOL    HW223796   4.408   0.971   6.281
 7633SOL     OW23797   5.349   5.190   6.346
 7633SOL    HW123798   5.366   5.266   6.409
 7633SOL    HW223799   5.389   5.106   6.384
 7634SOL     OW23800   0.648   2.711   1.663
 7634SOL    HW123801   0.554   2.699   1.694
 7634SOL    HW223802   0.707   2.645   1.710
 7635SOL     OW23803   2.456   5.028   6.187
 7635SOL    HW123804   2.506   4.963   6.130
 7635SOL    HW223805   2.415   5.098   6.129
 7636SOL     OW23806   2.460   0.127   3.840
 7636SOL    HW123807   2.373   0.128   3.888
 7636SOL    HW223808   2.447   0.162   3.747
 7637SOL     OW23809   2.683   6.287   4.110
 7637SOL    HW123810   2.728   6.279   4.198
 7637SOL    HW223811   2.589   6.252   4.117
 7638SOL     OW23812   4.203   4.443   1.635
 7638SOL    HW123813   4.129   4.387   1.671
 7638SOL    HW223814   4.290   4.394   1.644
 7639SOL     OW23815   6.639   2.614   4.310
 7639SOL    HW123816   6.632   2.528   4.260
 7639SOL    HW223817   6.736   2.639   4.320
 7640SOL     OW23818   2.598   2.969   5.433
 7640SOL    HW123819   2.653   3.040   5.476
 7640SOL    HW223820   2.551   3.008   5.353
 7641SOL     OW23821   6.201   2.391   3.289
 7641SOL    HW123822   6.155   2.312   3.329
 7641SOL    HW223823   6.292   2.401   3.331
 7642SOL     OW23824   1.540   1.292   2.767
 7642SOL    HW123825   1.619   1.263   2.821
 7642SOL    HW223826   1.564   1.372   2.712
 7643SOL     OW23827   5.726   2.652   3.179
 7643SOL    HW123828   5.794   2.605   3.236
 7643SOL    HW223829   5.768   2.677   3.091
 7644SOL     OW23830   6.267   4.034   3.729
 7644SOL    HW123831   6.228   4.026   3.821
 7644SOL    HW223832   6.359   3.993   3.728
 7645SOL     OW23833   4.057   3.136   0.171
 7645SOL    HW123834   4.024   3.128   0.077
 7645SOL    HW223835   4.157   3.145   0.171
 7646SOL     OW23836   0.544   1.331   1.956
 7646SOL    HW123837   0.585   1.318   1.865
 7646SOL    HW223838   0.450   1.362   1.946
 7647SOL     OW23839   2.542   4.915   0.653
 7647SOL    HW123840   2.450   4.954   0.654
 7647SOL    HW223841   2.560   4.875   0.564
 7648SOL     OW23842   3.656   0.681   4.220
 7648SOL    HW123843   3.678   0.621   4.297
 7648SOL    HW223844   3.622   0.626   4.144
 7649SOL     OW23845   2.914   1.460   1.530
 7649SOL    HW123846   2.887   1.556   1.541
 7649SOL    HW223847   2.990   1.439   1.591
 7650SOL     OW23848   6.023   4.351   0.841
 7650SOL    HW123849   5.959   4.344   0.764
 7650SOL    HW223850   6.114   4.376   0.807
 7651SOL     OW23851   4.738   2.488   6.686
 7651SOL    HW123852   4.814   2.548   6.708
 7651SOL    HW223853   4.671   2.489   6.760
 7652SOL     OW23854   1.356   3.360   3.226
 7652SOL    HW123855   1.428   3.384   3.161
 7652SOL    HW223856   1.278   3.321   3.177
 7653SOL     OW23857   4.126   2.167   1.516
 7653SOL    HW123858   4.049   2.223   1.547
 7653SOL    HW223859   4.133   2.172   1.416
 7654SOL     OW23860   5.257   3.621   4.047
 7654SOL    HW123861   5.314   3.540   4.061
 7654SOL    HW223862   5.316   3.701   4.033
 7655SOL     OW23863   4.846   5.608   5.372
 7655SOL    HW123864   4.809   5.569   5.457
 7655SOL    HW223865   4.777   5.665   5.328
 7656SOL     OW23866   1.420   6.702   3.988
 7656SOL    HW123867   1.444   6.660   4.075
 7656SOL    HW223868   1.491   6.683   3.921
 7657SOL     OW23869   4.313   1.591   4.073
 7657SOL    HW123870   4.269   1.670   4.031
 7657SOL    HW223871   4.382   1.622   4.138
 7658SOL     OW23872   4.462   0.231   6.542
 7658SOL    HW123873   4.420   0.303   6.486
 7658SOL    HW223874   4.520   0.173   6.484
 7659SOL     OW23875   5.037   6.097   7.012
 7659SOL    HW123876   4.950   6.139   0.013
 7659SOL    HW223877   5.092   6.078   0.067
 7660SOL     OW23878   5.826   4.962   4.373
 7660SOL    HW123879   5.794   4.988   4.282
 7660SOL    HW223880   5.752   4.918   4.423
 7661SOL     OW23881   6.127   3.023   3.590
 7661SOL    HW123882   6.139   2.980   3.680
 7661SOL    HW223883   6.207   3.004   3.533
 7662SOL     OW23884   6.534   5.596   2.949
 7662SOL    HW123885   6.526   5.585   2.850
 7662SOL    HW223886   6.630   5.592   2.975
 7663SOL     OW23887   6.737   5.761   0.043
 7663SOL    HW123888   6.765   5.825   0.115
 7663SOL    HW223889   6.781   5.672   0.059
 7664SOL     OW23890   2.619   5.402   5.137
 7664SOL    HW123891   2.689   5.378   5.204
 7664SOL    HW223892   2.584   5.494   5.156
 7665SOL     OW23893   2.491   5.674   4.235
 7665SOL    HW123894   2.503   5.575   4.245
 7665SOL    HW223895   2.399   5.699   4.264
 7666SOL     OW23896   2.427   1.260   1.328
 7666SOL    HW123897   2.431   1.260   1.228
 7666SOL    HW223898   2.351   1.318   1.358
 7667SOL     OW23899   4.815   6.191   6.106
 7667SOL    HW123900   4.902   6.224   6.144
 7667SOL    HW223901   4.770   6.134   6.174
 7668SOL     OW23902   3.165   3.948   1.410
 7668SOL    HW123903   3.131   4.037   1.442
 7668SOL    HW223904   3.107   3.875   1.446
 7669SOL     OW23905   4.391   6.546   4.829
 7669SOL    HW123906   4.433   6.455   4.829
 7669SOL    HW223907   4.435   6.603   4.759
 7670SOL     OW23908   1.425   5.873   1.076
 7670SOL    HW123909   1.418   5.860   0.977
 7670SOL    HW223910   1.366   5.806   1.122
 7671SOL     OW23911   5.508   2.341   4.847
 7671SOL    HW123912   5.478   2.425   4.802
 7671SOL    HW223913   5.527   2.360   4.944
 7672SOL     OW23914   5.908   0.155   2.062
 7672SOL    HW123915   5.812   0.136   2.042
 7672SOL    HW223916   5.924   0.254   2.057
 7673SOL     OW23917   0.317   4.390   6.571
 7673SOL    HW123918   0.316   4.293   6.594
 7673SOL    HW223919   0.270   4.441   6.643
 7674SOL     OW23920   6.067   1.081   5.255
 7674SOL    HW123921   6.026   1.033   5.333
 7674SOL    HW223922   6.067   1.179   5.273
 7675SOL     OW23923   5.161   0.085   3.165
 7675SOL    HW123924   5.097   0.161   3.162
 7675SOL    HW223925   5.251   0.116   3.134
 7676SOL     OW23926   1.413   0.345   1.509
 7676SOL    HW123927   1.397   0.362   1.606
 7676SOL    HW223928   1.364   0.413   1.454
 7677SOL     OW23929   1.956   2.308   2.738
 7677SOL    HW123930   1.880   2.314   2.674
 7677SOL    HW223931   2.019   2.384   2.721
 7678SOL     OW23932   5.452   6.770   6.066
 7678SOL    HW123933   5.458   6.870   6.065
 7678SOL    HW223934   5.364   6.741   6.028
 7679SOL     OW23935   1.076   5.018   4.878
 7679SOL    HW123936   1.165   4.974   4.862
 7679SOL    HW223937   1.016   4.955   4.927
 7680SOL     OW23938   5.022   1.143   6.658
 7680SOL    HW123939   4.933   1.185   6.644
 7680SOL    HW223940   5.090   1.214   6.677
 7681SOL     OW23941   2.846   1.865   5.991
 7681SOL    HW123942   2.930   1.920   5.995
 7681SOL    HW223943   2.869   1.770   6.014
 7682SOL     OW23944   2.724   6.911   1.453
 7682SOL    HW123945   2.757   6.993   1.407
 7682SOL    HW223946   2.677   6.937   1.537
 7683SOL     OW23947   6.208   1.707   2.972
 7683SOL    HW123948   6.258   1.777   2.920
 7683SOL    HW223949   6.115   1.699   2.937
 7684SOL     OW23950   4.382   2.561   6.508
 7684SOL    HW123951   4.470   2.518   6.531
 7684SOL    HW223952   4.356   2.536   6.415
 7685SOL     OW23953   4.243   3.880   1.151
 7685SOL    HW123954   4.188   3.799   1.171
 7685SOL    HW223955   4.208   3.924   1.068
 7686SOL     OW23956   3.454   0.751   3.854
 7686SOL    HW123957   3.546   0.737   3.816
 7686SOL    HW223958   3.441   0.848   3.875
 7687SOL     OW23959   4.590   5.073   6.201
 7687SOL    HW123960   4.641   5.000   6.246
 7687SOL    HW223961   4.599   5.158   6.252
 7688SOL     OW23962   6.530   0.249   3.104
 7688SOL    HW123963   6.618   0.272   3.145
 7688SOL    HW223964   6.499   0.161   3.140
 7689SOL     OW23965   3.237   6.320   4.988
 7689SOL    HW123966   3.212   6.243   5.048
 7689SOL    HW223967   3.330   6.349   5.008
 7690SOL     OW23968   0.469   5.369   2.423
 7690SOL    HW123969   0.523   5.316   2.488
 7690SOL    HW223970   0.504   5.463   2.420
 7691SOL     OW23971   5.926   3.796   5.576
 7691SOL    HW123972   5.841   3.756   5.609
 7691SOL    HW223973   5.975   3.730   5.519
 7692SOL     OW23974   1.448   6.576   1.508
 7692SOL    HW123975   1.438   6.515   1.586
 7692SOL    HW223976   1.542   6.575   1.476
 7693SOL     OW23977   5.699   1.049   0.721
 7693SOL    HW123978   5.718   1.116   0.792
 7693SOL    HW223979   5.740   0.961   0.746
 7694SOL     OW23980   5.997   5.007   4.052
 7694SOL    HW123981   6.016   5.068   4.129
 7694SOL    HW223982   5.982   5.061   3.969
 7695SOL     OW23983   4.367   0.474   6.448
 7695SOL    HW123984   4.313   0.521   6.518
 7695SOL    HW223985   4.436   0.536   6.412
 7696SOL     OW23986   1.285   4.007   5.580
 7696SOL    HW123987   1.245   4.059   5.655
 7696SOL    HW223988   1.320   3.919   5.614
 7697SOL     OW23989   4.437   2.026   2.029
 7697SOL    HW123990   4.365   2.091   2.004
 7697SOL    HW223991   4.415   1.982   2.115
 7698SOL     OW23992   0.044   3.043   5.604
 7698SOL    HW123993   0.142   3.024   5.594
 7698SOL    HW223994   0.032   3.127   5.657
 7699SOL     OW23995   2.765   4.464   0.480
 7699SOL    HW123996   2.730   4.512   0.560
 7699SOL    HW223997   2.855   4.426   0.500
 7700SOL     OW23998   5.442   6.531   4.833
 7700SOL    HW123999   5.486   6.560   4.748
 7700SOL    HW224000   5.475   6.440   4.858
 7701SOL     OW24001   6.471   1.986   5.309
 7701SOL    HW124002   6.548   1.971   5.371
 7701SOL    HW224003   6.490   2.067   5.252
 7702SOL     OW24004   2.278   6.160   5.852
 7702SOL    HW124005   2.193   6.119   5.883
 7702SOL    HW224006   2.320   6.212   5.927
 7703SOL     OW24007   0.727   2.361   5.395
 7703SOL    HW124008   0.628   2.343   5.392
 7703SOL    HW224009   0.757   2.366   5.491
 7704SOL     OW24010   2.856   4.378   0.970
 7704SOL    HW124011   2.831   4.319   0.893
 7704SOL    HW224012   2.929   4.335   1.022
 7705SOL     OW24013   3.833   4.333   5.373
 7705SOL    HW124014   3.790   4.285   5.450
 7705SOL    HW224015   3.791   4.422   5.361
 7706SOL     OW24016   6.662   0.677   5.145
 7706SOL    HW124017   6.685   0.602   5.207
 7706SOL    HW224018   6.677   0.765   5.191
 7707SOL     OW24019   0.329   5.502   6.408
 7707SOL    HW124020   0.339   5.402   6.408
 7707SOL    HW224021   0.266   5.529   6.335
 7708SOL     OW24022   4.786   1.372   4.680
 7708SOL    HW124023   4.877   1.351   4.715
 7708SOL    HW224024   4.779   1.470   4.660
 7709SOL     OW24025   3.792   2.190   1.568
 7709SOL    HW124026   3.753   2.267   1.617
 7709SOL    HW224027   3.828   2.221   1.480
 7710SOL     OW24028   3.167   2.448   6.186
 7710SOL    HW124029   3.148   2.350   6.178
 7710SOL    HW224030   3.126   2.496   6.109
 7711SOL     OW24031   4.452   6.120   5.198
 7711SOL    HW124032   4.486   6.142   5.289
 7711SOL    HW224033   4.395   6.195   5.165
 7712SOL     OW24034   4.859   4.793   0.458
 7712SOL    HW124035   4.778   4.844   0.487
 7712SOL    HW224036   4.864   4.791   0.358
 7713SOL     OW24037   1.014   5.455   6.381
 7713SOL    HW124038   0.914   5.452   6.379
 7713SOL    HW224039   1.044   5.538   6.427
 7714SOL     OW24040   5.145   3.748   4.252
 7714SOL    HW124041   5.161   3.698   4.167
 7714SOL    HW224042   5.129   3.845   4.231
 7715SOL     OW24043   3.969   2.285   1.820
 7715SOL    HW124044   3.990   2.210   1.883
 7715SOL    HW224045   3.875   2.317   1.836
 7716SOL     OW24046   4.624   2.520   3.606
 7716SOL    HW124047   4.657   2.611   3.582
 7716SOL    HW224048   4.596   2.520   3.702
 7717SOL     OW24049   3.041   0.133   6.704
 7717SOL    HW124050   3.041   0.187   6.620
 7717SOL    HW224051   3.031   0.036   6.682
 7718SOL     OW24052   3.098   6.255   4.089
 7718SOL    HW124053   3.188   6.249   4.045
 7718SOL    HW224054   3.106   6.223   4.184
 7719SOL     OW24055   6.063   2.900   5.242
 7719SOL    HW124056   6.152   2.857   5.227
 7719SOL    HW224057   6.048   2.911   5.340
 7720SOL     OW24058   5.641   6.479   1.883
 7720SOL    HW124059   5.583   6.460   1.962
 7720SOL    HW224060   5.732   6.508   1.914
 7721SOL     OW24061   0.798   4.961   2.893
 7721SOL    HW124062   0.887   4.924   2.920
 7721SOL    HW224063   0.733   4.949   2.967
 7722SOL     OW24064   0.525   6.134   4.178
 7722SOL    HW124065   0.609   6.153   4.228
 7722SOL    HW224066   0.534   6.047   4.130
 7723SOL     OW24067   0.090   2.344   0.589
 7723SOL    HW124068   0.006   2.375   0.544
 7723SOL    HW224069   0.084   2.246   0.605
 7724SOL     OW24070   1.837   5.940   0.456
 7724SOL    HW124071   1.767   5.898   0.513
 7724SOL    HW224072   1.927   5.911   0.486
 7725SOL     OW24073   4.958   3.559   4.409
 7725SOL    HW124074   4.872   3.540   4.362
 7725SOL    HW224075   4.970   3.658   4.418
 7726SOL     OW24076   5.555   4.072   3.520
 7726SOL    HW124077   5.501   4.148   3.557
 7726SOL    HW224078   5.534   4.060   3.423
 7727SOL     OW24079   5.737   3.237   1.982
 7727SOL    HW124080   5.741   3.138   1.997
 7727SOL    HW224081   5.693   3.255   1.894
 7728SOL     OW24082   2.441   2.572   2.141
 7728SOL    HW124083   2.507   2.500   2.161
 7728SOL    HW224084   2.426   2.579   2.042
 7729SOL     OW24085   4.984   2.398   0.581
 7729SOL    HW124086   4.927   2.480   0.578
 7729SOL    HW224087   5.064   2.416   0.639
 7730SOL     OW24088   4.640   0.209   2.443
 7730SOL    HW124089   4.630   0.307   2.460
 7730SOL    HW224090   4.674   0.194   2.350
 7731SOL     OW24091   0.027   2.052   4.777
 7731SOL    HW124092   0.067   2.040   4.868
 7731SOL    HW224093   0.095   2.090   4.715
 7732SOL     OW24094   4.237   5.150   0.814
 7732SOL    HW124095   4.209   5.203   0.734
 7732SOL    HW224096   4.223   5.205   0.897
 7733SOL     OW24097   2.633   6.618   0.754
 7733SOL    HW124098   2.646   6.519   0.755
 7733SOL    HW224099   2.717   6.662   0.785
 7734SOL     OW24100   1.488   2.545   2.619
 7734SOL    HW124101   1.497   2.621   2.684
 7734SOL    HW224102   1.415   2.566   2.554
 7735SOL     OW24103   5.164   4.696   0.747
 7735SOL    HW124104   5.150   4.672   0.844
 7735SOL    HW224105   5.118   4.783   0.728
 7736SOL     OW24106   5.518   4.447   5.995
 7736SOL    HW124107   5.537   4.356   6.031
 7736SOL    HW224108   5.579   4.514   6.039
 7737SOL     OW24109   5.008   2.629   0.803
 7737SOL    HW124110   5.093   2.577   0.789
 7737SOL    HW224111   4.938   2.596   0.740
 7738SOL     OW24112   2.131   5.011   7.002
 7738SOL    HW124113   2.114   4.952   6.923
 7738SOL    HW224114   2.229   5.029   7.010
 7739SOL     OW24115   5.790   3.528   2.431
 7739SOL    HW124116   5.724   3.458   2.459
 7739SOL    HW224117   5.799   3.596   2.504
 7740SOL     OW24118   0.422   5.945   3.832
 7740SOL    HW124119   0.388   6.004   3.758
 7740SOL    HW224120   0.374   5.858   3.829
 7741SOL     OW24121   3.288   5.736   4.649
 7741SOL    HW124122   3.329   5.697   4.731
 7741SOL    HW224123   3.190   5.747   4.662
 7742SOL     OW24124   6.632   1.330   3.977
 7742SOL    HW124125   6.572   1.253   3.954
 7742SOL    HW224126   6.668   1.319   4.069
 7743SOL     OW24127   5.236   2.799   2.489
 7743SOL    HW124128   5.246   2.711   2.536
 7743SOL    HW224129   5.298   2.866   2.529
 7744SOL     OW24130   0.492   6.926   4.993
 7744SOL    HW124131   0.588   6.936   5.017
 7744SOL    HW224132   0.439   6.909   5.076
 7745SOL     OW24133   4.875   3.401   5.261
 7745SOL    HW124134   4.814   3.472   5.226
 7745SOL    HW224135   4.862   3.317   5.209
 7746SOL     OW24136   1.239   0.341   6.840
 7746SOL    HW124137   1.179   0.336   6.761
 7746SOL    HW224138   1.330   0.371   6.812
 7747SOL     OW24139   5.091   5.276   0.996
 7747SOL    HW124140   5.105   5.371   1.022
 7747SOL    HW224141   5.174   5.223   1.014
 7748SOL     OW24142   2.714   3.922   6.153
 7748SOL    HW124143   2.756   3.873   6.229
 7748SOL    HW224144   2.772   3.917   6.072
 7749SOL     OW24145   5.570   4.148   5.842
 7749SOL    HW124146   5.581   4.052   5.819
 7749SOL    HW224147   5.581   4.161   5.940
 7750SOL     OW24148   5.475   5.089   3.113
 7750SOL    HW124149   5.502   4.994   3.129
 7750SOL    HW224150   5.511   5.120   3.025
 7751SOL     OW24151   0.160   2.700   1.190
 7751SOL    HW124152   0.137   2.718   1.285
 7751SOL    HW224153   0.243   2.645   1.186
 7752SOL     OW24154   4.114   1.601   3.210
 7752SOL    HW124155   4.200   1.649   3.224
 7752SOL    HW224156   4.076   1.575   3.298
 7753SOL     OW24157   3.549   2.188   5.219
 7753SOL    HW124158   3.563   2.282   5.188
 7753SOL    HW224159   3.487   2.141   5.155
 7754SOL     OW24160   5.612   5.520   1.574
 7754SOL    HW124161   5.704   5.506   1.537
 7754SOL    HW224162   5.618   5.533   1.673
 7755SOL     OW24163   0.683   5.024   4.995
 7755SOL    HW124164   0.675   5.000   4.898
 7755SOL    HW224165   0.746   4.961   5.040
 7756SOL     OW24166   2.106   4.907   2.191
 7756SOL    HW124167   2.144   4.963   2.265
 7756SOL    HW224168   2.182   4.867   2.138
 7757SOL     OW24169   6.992   4.197   1.169
 7757SOL    HW124170   6.936   4.221   1.089
 7757SOL    HW224171   7.015   4.100   1.165
 7758SOL     OW24172   1.045   2.278   4.981
 7758SOL    HW124173   0.998   2.241   5.061
 7758SOL    HW224174   1.044   2.378   4.985
 7759SOL     OW24175   3.629   1.290   2.518
 7759SOL    HW124176   3.707   1.347   2.544
 7759SOL    HW224177   3.657   1.225   2.448
 7760SOL     OW24178   5.212   3.328   0.246
 7760SOL    HW124179   5.244   3.319   0.152
 7760SOL    HW224180   5.124   3.281   0.256
 7761SOL     OW24181   4.890   5.184   3.472
 7761SOL    HW124182   4.813   5.162   3.412
 7761SOL    HW224183   4.921   5.277   3.453
 7762SOL     OW24184   5.353   2.131   1.714
 7762SOL    HW124185   5.320   2.207   1.657
 7762SOL    HW224186   5.446   2.107   1.687
 7763SOL     OW24187   2.384   0.180   3.576
 7763SOL    HW124188   2.287   0.158   3.563
 7763SOL    HW224189   2.396   0.279   3.578
 7764SOL     OW24190   3.247   4.415   5.682
 7764SOL    HW124191   3.150   4.434   5.669
 7764SOL    HW224192   3.286   4.482   5.745
 7765SOL     OW24193   5.390   4.068   4.328
 7765SOL    HW124194   5.408   3.973   4.354
 7765SOL    HW224195   5.293   4.079   4.306
 7766SOL     OW24196   6.737   2.701   6.279
 7766SOL    HW124197   6.706   2.638   6.350
 7766SOL    HW224198   6.837   2.700   6.275
 7767SOL     OW24199   4.358   0.329   3.653
 7767SOL    HW124200   4.292   0.339   3.727
 7767SOL    HW224201   4.368   0.416   3.605
 7768SOL     OW24202   3.881   5.535   4.608
 7768SOL    HW124203   3.958   5.563   4.552
 7768SOL    HW224204   3.911   5.467   4.675
 7769SOL     OW24205   3.689   3.008   6.982
 7769SOL    HW124206   3.708   2.935   6.917
 7769SOL    HW224207   3.659   2.968   0.042
 7770SOL     OW24208   1.329   3.814   3.705
 7770SOL    HW124209   1.409   3.774   3.661
 7770SOL    HW224210   1.355   3.898   3.753
 7771SOL     OW24211   1.471   3.732   5.385
 7771SOL    HW124212   1.400   3.729   5.315
 7771SOL    HW224213   1.436   3.694   5.471
 7772SOL     OW24214   5.552   6.712   2.225
 7772SOL    HW124215   5.578   6.616   2.228
 7772SOL    HW224216   5.616   6.761   2.166
 7773SOL     OW24217   2.444   6.945   6.673
 7773SOL    HW124218   2.469   6.872   6.610
 7773SOL    HW224219   2.526   6.983   6.715
 7774SOL     OW24220   4.906   1.189   2.355
 7774SOL    HW124221   4.843   1.122   2.395
 7774SOL    HW224222   4.854   1.262   2.312
 7775SOL     OW24223   3.116   1.827   1.412
 7775SOL    HW124224   3.149   1.815   1.319
 7775SOL    HW224225   3.089   1.922   1.426
 7776SOL     OW24226   3.036   1.077   4.062
 7776SOL    HW124227   2.965   1.134   4.104
 7776SOL    HW224228   3.099   1.045   4.133
 7777SOL     OW24229   5.972   5.440   3.300
 7777SOL    HW124230   5.934   5.519   3.348
 7777SOL    HW224231   5.959   5.357   3.355
 7778SOL     OW24232   0.749   4.606   2.724
 7778SOL    HW124233   0.807   4.528   2.700
 7778SOL    HW224234   0.676   4.577   2.785
 7779SOL     OW24235   3.210   6.234   2.124
 7779SOL    HW124236   3.298   6.210   2.164
 7779SOL    HW224237   3.144   6.160   2.143
 7780SOL     OW24238   6.584   5.440   4.374
 7780SOL    HW124239   6.535   5.391   4.302
 7780SOL    HW224240   6.668   5.390   4.396
 7781SOL     OW24241   2.657   3.132   0.568
 7781SOL    HW124242   2.557   3.140   0.572
 7781SOL    HW224243   2.692   3.199   0.502
 7782SOL     OW24244   5.893   4.154   4.884
 7782SOL    HW124245   5.891   4.115   4.792
 7782SOL    HW224246   5.988   4.168   4.912
 7783SOL     OW24247   1.733   6.444   4.023
 7783SOL    HW124248   1.685   6.358   4.041
 7783SOL    HW224249   1.831   6.430   4.031
 7784SOL     OW24250   1.821   1.831   2.374
 7784SOL    HW124251   1.750   1.901   2.362
 7784SOL    HW224252   1.859   1.807   2.286
 7785SOL     OW24253   6.727   5.903   3.001
 7785SOL    HW124254   6.678   5.861   3.077
 7785SOL    HW224255   6.771   5.833   2.946
 7786SOL     OW24256   5.109   1.039   6.178
 7786SOL    HW124257   5.114   0.970   6.250
 7786SOL    HW224258   5.048   1.006   6.105
 7787SOL     OW24259   1.944   2.790   1.343
 7787SOL    HW124260   1.932   2.727   1.266
 7787SOL    HW224261   1.960   2.738   1.427
 7788SOL     OW24262   0.947   3.643   2.049
 7788SOL    HW124263   1.018   3.598   2.103
 7788SOL    HW224264   0.979   3.655   1.955
 7789SOL     OW24265   3.562   0.983   6.125
 7789SOL    HW124266   3.561   0.978   6.025
 7789SOL    HW224267   3.637   1.044   6.154
 7790SOL     OW24268   3.929   5.197   3.876
 7790SOL    HW124269   3.898   5.208   3.782
 7790SOL    HW224270   3.849   5.188   3.937
 7791SOL     OW24271   2.961   5.455   1.849
 7791SOL    HW124272   2.997   5.446   1.756
 7791SOL    HW224273   2.977   5.548   1.882
 7792SOL     OW24274   1.099   1.399   2.619
 7792SOL    HW124275   1.030   1.471   2.619
 7792SOL    HW224276   1.180   1.432   2.570
 7793SOL     OW24277   5.075   1.196   0.916
 7793SOL    HW124278   4.977   1.182   0.902
 7793SOL    HW224279   5.114   1.116   0.962
 7794SOL     OW24280   1.635   0.466   3.287
 7794SOL    HW124281   1.645   0.488   3.190
 7794SOL    HW224282   1.619   0.550   3.338
 7795SOL     OW24283   3.992   4.078   1.382
 7795SOL    HW124284   3.962   4.029   1.464
 7795SOL    HW224285   4.092   4.078   1.378
 7796SOL     OW24286   3.016   1.301   0.388
 7796SOL    HW124287   2.979   1.209   0.402
 7796SOL    HW224288   2.981   1.338   0.302
 7797SOL     OW24289   1.244   5.691   3.063
 7797SOL    HW124290   1.314   5.675   2.994
 7797SOL    HW224291   1.176   5.617   3.060
 7798SOL     OW24292   2.187   3.231   0.820
 7798SOL    HW124293   2.182   3.315   0.766
 7798SOL    HW224294   2.096   3.211   0.858
 7799SOL     OW24295   3.007   6.466   4.406
 7799SOL    HW124296   2.908   6.454   4.421
 7799SOL    HW224297   3.051   6.376   4.406
 7800SOL     OW24298   1.881   1.126   2.647
 7800SOL    HW124299   1.869   1.211   2.699
 7800SOL    HW224300   1.897   1.148   2.551
 7801SOL     OW24301   1.667   2.611   0.585
 7801SOL    HW124302   1.628   2.536   0.531
 7801SOL    HW224303   1.671   2.694   0.530
 7802SOL     OW24304   6.302   4.530   3.847
 7802SOL    HW124305   6.252   4.614   3.869
 7802SOL    HW224306   6.268   4.494   3.760
 7803SOL     OW24307   3.212   2.524   5.593
 7803SOL    HW124308   3.145   2.575   5.538
 7803SOL    HW224309   3.256   2.455   5.536
 7804SOL     OW24310   3.081   1.539   5.289
 7804SOL    HW124311   3.073   1.601   5.367
 7804SOL    HW224312   2.990   1.518   5.254
 7805SOL     OW24313   5.818   3.062   6.734
 7805SOL    HW124314   5.902   3.050   6.787
 7805SOL    HW224315   5.784   3.155   6.748
 7806SOL     OW24316   6.261   1.498   5.206
 7806SOL    HW124317   6.277   1.515   5.109
 7806SOL    HW224318   6.347   1.511   5.256
 7807SOL     OW24319   1.665   5.576   5.246
 7807SOL    HW124320   1.643   5.663   5.291
 7807SOL    HW224321   1.662   5.588   5.147
 7808SOL     OW24322   6.461   3.793   3.741
 7808SOL    HW124323   6.403   3.713   3.725
 7808SOL    HW224324   6.552   3.776   3.703
 7809SOL     OW24325   4.315   6.463   2.423
 7809SOL    HW124326   4.241   6.522   2.392
 7809SOL    HW224327   4.401   6.513   2.419
 7810SOL     OW24328   1.726   6.844   5.801
 7810SOL    HW124329   1.726   6.820   5.899
 7810SOL    HW224330   1.805   6.902   5.782
 7811SOL     OW24331   1.424   6.198   2.864
 7811SOL    HW124332   1.421   6.129   2.793
 7811SOL    HW224333   1.331   6.223   2.891
 7812SOL     OW24334   2.966   1.301   5.747
 7812SOL    HW124335   2.879   1.333   5.708
 7812SOL    HW224336   3.011   1.376   5.793
 7813SOL     OW24337   5.673   0.860   0.951
 7813SOL    HW124338   5.754   0.838   0.897
 7813SOL    HW224339   5.595   0.807   0.917
 7814SOL     OW24340   5.679   2.224   1.872
 7814SOL    HW124341   5.723   2.145   1.916
 7814SOL    HW224342   5.677   2.209   1.773
 7815SOL     OW24343   4.777   5.207   3.726
 7815SOL    HW124344   4.765   5.130   3.789
 7815SOL    HW224345   4.811   5.173   3.638
 7816SOL     OW24346   1.105   1.455   5.156
 7816SOL    HW124347   1.154   1.406   5.228
 7816SOL    HW224348   1.166   1.470   5.078
 7817SOL     OW24349   4.826   1.994   6.964
 7817SOL    HW124350   4.733   2.007   6.998
 7817SOL    HW224351   4.862   2.081   6.931
 7818SOL     OW24352   6.213   1.057   3.274
 7818SOL    HW124353   6.147   1.122   3.238
 7818SOL    HW224354   6.194   1.040   3.371
 7819SOL     OW24355   1.485   3.022   5.226
 7819SOL    HW124356   1.473   2.997   5.322
 7819SOL    HW224357   1.535   2.951   5.178
 7820SOL     OW24358   1.231   1.348   5.387
 7820SOL    HW124359   1.181   1.331   5.471
 7820SOL    HW224360   1.310   1.287   5.382
 7821SOL     OW24361   3.720   5.555   6.808
 7821SOL    HW124362   3.750   5.592   6.896
 7821SOL    HW224363   3.730   5.625   6.737
 7822SOL     OW24364   0.561   1.452   4.749
 7822SOL    HW124365   0.649   1.435   4.793
 7822SOL    HW224366   0.508   1.517   4.804
 7823SOL     OW24367   2.777   3.111   5.879
 7823SOL    HW124368   2.779   3.025   5.929
 7823SOL    HW224369   2.866   3.156   5.885
 7824SOL     OW24370   6.125   3.816   3.263
 7824SOL    HW124371   6.137   3.799   3.360
 7824SOL    HW224372   6.042   3.870   3.248
 7825SOL     OW24373   3.776   3.274   2.685
 7825SOL    HW124374   3.775   3.347   2.618
 7825SOL    HW224375   3.865   3.228   2.683
 7826SOL     OW24376   6.601   0.137   0.766
 7826SOL    HW124377   6.651   0.222   0.778
 7826SOL    HW224378   6.544   0.121   0.846
 7827SOL     OW24379   4.250   3.706   0.463
 7827SOL    HW124380   4.308   3.726   0.542
 7827SOL    HW224381   4.222   3.610   0.466
 7828SOL     OW24382   1.209   6.452   1.317
 7828SOL    HW124383   1.279   6.517   1.345
 7828SOL    HW224384   1.228   6.421   1.223
 7829SOL     OW24385   3.702   3.754   3.187
 7829SOL    HW124386   3.701   3.781   3.283
 7829SOL    HW224387   3.641   3.814   3.134
 7830SOL     OW24388   6.383   4.298   0.434
 7830SOL    HW124389   6.375   4.254   0.524
 7830SOL    HW224390   6.296   4.340   0.410
 7831SOL     OW24391   1.834   2.829   0.483
 7831SOL    HW124392   1.782   2.897   0.534
 7831SOL    HW224393   1.917   2.871   0.447
 7832SOL     OW24394   3.561   2.588   5.880
 7832SOL    HW124395   3.607   2.585   5.968
 7832SOL    HW224396   3.520   2.499   5.860
 7833SOL     OW24397   6.796   6.386   1.699
 7833SOL    HW124398   6.784   6.315   1.630
 7833SOL    HW224399   6.730   6.372   1.773
 7834SOL     OW24400   5.890   0.832   1.142
 7834SOL    HW124401   5.862   0.872   1.229
 7834SOL    HW224402   5.809   0.814   1.086
 7835SOL     OW24403   1.870   1.791   4.067
 7835SOL    HW124404   1.863   1.738   4.150
 7835SOL    HW224405   1.948   1.759   4.013
 7836SOL     OW24406   1.943   0.477   0.341
 7836SOL    HW124407   1.929   0.380   0.321
 7836SOL    HW224408   2.023   0.487   0.401
 7837SOL     OW24409   5.507   5.921   2.781
 7837SOL    HW124410   5.449   6.001   2.765
 7837SOL    HW224411   5.556   5.931   2.867
 7838SOL     OW24412   4.464   6.423   3.894
 7838SOL    HW124413   4.535   6.380   3.950
 7838SOL    HW224414   4.394   6.356   3.872
 7839SOL     OW24415   0.231   4.746   3.494
 7839SOL    HW124416   0.265   4.656   3.467
 7839SOL    HW224417   0.170   4.781   3.423
 7840SOL     OW24418   5.177   3.584   6.145
 7840SOL    HW124419   5.183   3.510   6.078
 7840SOL    HW224420   5.136   3.665   6.102
 7841SOL     OW24421   1.109   2.040   6.406
 7841SOL    HW124422   1.067   1.950   6.416
 7841SOL    HW224423   1.164   2.043   6.322
 7842SOL     OW24424   2.705   0.093   2.471
 7842SOL    HW124425   2.618   0.052   2.442
 7842SOL    HW224426   2.772   0.020   2.487
 7843SOL     OW24427   0.287   2.828   2.123
 7843SOL    HW124428   0.190   2.814   2.102
 7843SOL    HW224429   0.323   2.747   2.169
 7844SOL     OW24430   3.820   2.007   3.583
 7844SOL    HW124431   3.737   2.024   3.637
 7844SOL    HW224432   3.900   2.015   3.642
 7845SOL     OW24433   1.019   1.123   3.873
 7845SOL    HW124434   0.998   1.188   3.800
 7845SOL    HW224435   0.937   1.072   3.898
 7846SOL     OW24436   4.481   6.788   2.682
 7846SOL    HW124437   4.429   6.865   2.718
 7846SOL    HW224438   4.578   6.811   2.680
 7847SOL     OW24439   0.148   0.257   6.926
 7847SOL    HW124440   0.176   0.186   6.860
 7847SOL    HW224441   0.122   0.213   7.012
 7848SOL     OW24442   3.718   4.034   1.490
 7848SOL    HW124443   3.660   3.973   1.544
 7848SOL    HW224444   3.739   4.116   1.544
 7849SOL     OW24445   5.442   4.443   4.931
 7849SOL    HW124446   5.420   4.350   4.960
 7849SOL    HW224447   5.360   4.499   4.931
 7850SOL     OW24448   0.850   2.603   4.643
 7850SOL    HW124449   0.938   2.616   4.599
 7850SOL    HW224450   0.861   2.548   4.726
 7851SOL     OW24451   3.805   6.328   1.378
 7851SOL    HW124452   3.895   6.295   1.351
 7851SOL    HW224453   3.734   6.281   1.325
 7852SOL     OW24454   2.486   6.681   0.338
 7852SOL    HW124455   2.470   6.769   0.293
 7852SOL    HW224456   2.447   6.682   0.430
 7853SOL     OW24457   2.213   2.619   7.027
 7853SOL    HW124458   2.277   2.582   0.068
 7853SOL    HW224459   2.256   2.618   6.937
 7854SOL     OW24460   3.223   4.114   3.618
 7854SOL    HW124461   3.201   4.057   3.697
 7854SOL    HW224462   3.263   4.200   3.649
 7855SOL     OW24463   3.482   0.094   5.058
 7855SOL    HW124464   3.429   0.012   5.078
 7855SOL    HW224465   3.564   0.069   5.007
 7856SOL     OW24466   3.151   3.592   6.871
 7856SOL    HW124467   3.097   3.636   6.943
 7856SOL    HW224468   3.248   3.604   6.891
 7857SOL     OW24469   0.548   3.001   5.563
 7857SOL    HW124470   0.555   3.002   5.463
 7857SOL    HW224471   0.615   3.066   5.601
 7858SOL     OW24472   6.074   3.700   2.651
 7858SOL    HW124473   6.038   3.646   2.727
 7858SOL    HW224474   6.100   3.639   2.576
 7859SOL     OW24475   0.569   6.551   0.350
 7859SOL    HW124476   0.574   6.486   0.274
 7859SOL    HW224477   0.600   6.641   0.319
 7860SOL     OW24478   3.867   6.598   1.765
 7860SOL    HW124479   3.767   6.596   1.754
 7860SOL    HW224480   3.896   6.690   1.791
 7861SOL     OW24481   5.429   3.867   0.887
 7861SOL    HW124482   5.424   3.768   0.875
 7861SOL    HW224483   5.525   3.896   0.886
 7862SOL     OW24484   2.940   4.782   1.775
 7862SOL    HW124485   2.909   4.687   1.783
 7862SOL    HW224486   2.964   4.818   1.865
 7863SOL     OW24487   5.105   5.641   2.617
 7863SOL    HW124488   5.059   5.658   2.530
 7863SOL    HW224489   5.100   5.543   2.638
 7864SOL     OW24490   1.120   5.785   4.846
 7864SOL    HW124491   1.137   5.694   4.883
 7864SOL    HW224492   1.063   5.778   4.764
 7865SOL     OW24493   4.408   0.860   3.503
 7865SOL    HW124494   4.397   0.947   3.454
 7865SOL    HW224495   4.377   0.871   3.598
 7866SOL     OW24496   2.413   2.171   5.223
 7866SOL    HW124497   2.503   2.207   5.249
 7866SOL    HW224498   2.378   2.223   5.145
 7867SOL     OW24499   5.818   3.686   1.439
 7867SOL    HW124500   5.732   3.728   1.468
 7867SOL    HW224501   5.843   3.722   1.349
 7868SOL     OW24502   4.951   0.481   0.722
 7868SOL    HW124503   4.916   0.565   0.678
 7868SOL    HW224504   5.001   0.505   0.804
 7869SOL     OW24505   6.106   1.821   4.399
 7869SOL    HW124506   6.181   1.781   4.453
 7869SOL    HW224507   6.019   1.806   4.446
 7870SOL     OW24508   6.531   6.862   3.031
 7870SOL    HW124509   6.609   6.874   2.969
 7870SOL    HW224510   6.508   6.765   3.037
 7871SOL     OW24511   6.251   3.006   4.163
 7871SOL    HW124512   6.258   2.937   4.091
 7871SOL    HW224513   6.214   3.090   4.125
 7872SOL     OW24514   0.245   4.151   4.690
 7872SOL    HW124515   0.183   4.148   4.611
 7872SOL    HW224516   0.320   4.087   4.675
 7873SOL     OW24517   6.941   5.743   5.100
 7873SOL    HW124518   7.005   5.669   5.075
 7873SOL    HW224519   6.992   5.827   5.118
 7874SOL     OW24520   6.330   0.488   0.802
 7874SOL    HW124521   6.248   0.438   0.832
 7874SOL    HW224522   6.397   0.490   0.876
 7875SOL     OW24523   4.864   3.258   0.460
 7875SOL    HW124524   4.769   3.291   0.454
 7875SOL    HW224525   4.905   3.288   0.546
 7876SOL     OW24526   6.924   1.341   5.118
 7876SOL    HW124527   6.909   1.392   5.032
 7876SOL    HW224528   6.919   1.243   5.100
 7877SOL     OW24529   6.057   2.870   2.655
 7877SOL    HW124530   6.121   2.871   2.578
 7877SOL    HW224531   6.082   2.795   2.717
 7878SOL     OW24532   4.011   3.881   1.590
 7878SOL    HW124533   3.964   3.794   1.599
 7878SOL    HW224534   4.092   3.870   1.533
 7879SOL     OW24535   6.532   1.248   4.997
 7879SOL    HW124536   6.488   1.160   5.015
 7879SOL    HW224537   6.464   1.312   4.960
 7880SOL     OW24538   1.706   6.406   6.345
 7880SOL    HW124539   1.763   6.325   6.329
 7880SOL    HW224540   1.621   6.397   6.293
 7881SOL     OW24541   0.944   5.535   4.319
 7881SOL    HW124542   0.859   5.488   4.344
 7881SOL    HW224543   0.997   5.554   4.401
 7882SOL     OW24544   1.525   4.783   1.780
 7882SOL    HW124545   1.442   4.830   1.750
 7882SOL    HW224546   1.547   4.710   1.715
 7883SOL     OW24547   3.610   1.410   2.897
 7883SOL    HW124548   3.660   1.462   2.827
 7883SOL    HW224549   3.633   1.313   2.889
 7884SOL     OW24550   0.364   3.204   4.227
 7884SOL    HW124551   0.384   3.151   4.145
 7884SOL    HW224552   0.410   3.162   4.306
 7885SOL     OW24553   6.239   5.341   2.559
 7885SOL    HW124554   6.144   5.371   2.560
 7885SOL    HW224555   6.297   5.414   2.526
 7886SOL     OW24556   4.811   4.025   2.682
 7886SOL    HW124557   4.903   4.051   2.713
 7886SOL    HW224558   4.811   3.929   2.657
 7887SOL     OW24559   0.826   3.253   1.258
 7887SOL    HW124560   0.774   3.279   1.177
 7887SOL    HW224561   0.924   3.254   1.237
 7888SOL     OW24562   6.185   1.362   4.954
 7888SOL    HW124563   6.208   1.284   4.895
 7888SOL    HW224564   6.171   1.329   5.048
 7889SOL     OW24565   5.302   5.111   1.058
 7889SOL    HW124566   5.301   5.013   1.034
 7889SOL    HW224567   5.369   5.158   1.000
 7890SOL     OW24568   2.318   2.878   3.428
 7890SOL    HW124569   2.233   2.907   3.384
 7890SOL    HW224570   2.315   2.780   3.447
 7891SOL     OW24571   6.304   1.669   4.628
 7891SOL    HW124572   6.351   1.681   4.541
 7891SOL    HW224573   6.365   1.623   4.693
 7892SOL     OW24574   0.996   1.936   4.944
 7892SOL    HW124575   0.983   2.035   4.941
 7892SOL    HW224576   0.951   1.899   5.026
 7893SOL     OW24577   6.132   6.675   0.947
 7893SOL    HW124578   6.205   6.607   0.944
 7893SOL    HW224579   6.076   6.660   1.029
 7894SOL     OW24580   3.086   1.054   0.032
 7894SOL    HW124581   3.136   1.055   0.119
 7894SOL    HW224582   3.081   0.961   7.024
 7895SOL     OW24583   6.523   6.366   2.877
 7895SOL    HW124584   6.565   6.344   2.789
 7895SOL    HW224585   6.568   6.314   2.949
 7896SOL     OW24586   2.589   1.487   0.306
 7896SOL    HW124587   2.506   1.473   0.253
 7896SOL    HW224588   2.570   1.546   0.384
 7897SOL     OW24589   3.955   1.776   0.674
 7897SOL    HW124590   3.980   1.699   0.616
 7897SOL    HW224591   4.027   1.791   0.743
 7898SOL     OW24592   5.251   6.527   3.395
 7898SOL    HW124593   5.317   6.579   3.449
 7898SOL    HW224594   5.233   6.440   3.440
 7899SOL     OW24595   6.050   4.183   3.636
 7899SOL    HW124596   6.010   4.211   3.723
 7899SOL    HW224597   6.137   4.136   3.652
 7900SOL     OW24598   0.500   3.560   0.213
 7900SOL    HW124599   0.596   3.545   0.189
 7900SOL    HW224600   0.467   3.483   0.268
 7901SOL     OW24601   0.621   2.239   0.314
 7901SOL    HW124602   0.602   2.215   0.219
 7901SOL    HW224603   0.618   2.338   0.325
 7902SOL     OW24604   1.804   6.360   1.629
 7902SOL    HW124605   1.743   6.282   1.646
 7902SOL    HW224606   1.880   6.330   1.571
 7903SOL     OW24607   2.968   2.342   5.590
 7903SOL    HW124608   3.053   2.363   5.637
 7903SOL    HW224609   2.894   2.398   5.627
 7904SOL     OW24610   4.469   2.512   2.838
 7904SOL    HW124611   4.513   2.430   2.873
 7904SOL    HW224612   4.531   2.590   2.847
 7905SOL     OW24613   6.174   2.376   0.919
 7905SOL    HW124614   6.170   2.443   0.845
 7905SOL    HW224615   6.095   2.314   0.913
 7906SOL     OW24616   0.959   5.457   6.811
 7906SOL    HW124617   1.013   5.523   6.862
 7906SOL    HW224618   1.019   5.383   6.779
 7907SOL     OW24619   6.146   6.403   2.947
 7907SOL    HW124620   6.107   6.334   2.887
 7907SOL    HW224621   6.123   6.494   2.913
 7908SOL     OW24622   1.699   6.796   6.608
 7908SOL    HW124623   1.609   6.831   6.630
 7908SOL    HW224624   1.696   6.748   6.520
 7909SOL     OW24625   6.475   3.627   0.963
 7909SOL    HW124626   6.471   3.539   1.010
 7909SOL    HW224627   6.513   3.696   1.026
 7910SOL     OW24628   1.438   4.240   5.491
 7910SOL    HW124629   1.390   4.258   5.405
 7910SOL    HW224630   1.400   4.157   5.534
 7911SOL     OW24631   5.550   4.512   5.721
 7911SOL    HW124632   5.506   4.518   5.811
 7911SOL    HW224633   5.480   4.500   5.651
 7912SOL     OW24634   5.577   5.687   0.779
 7912SOL    HW124635   5.502   5.739   0.738
 7912SOL    HW224636   5.654   5.749   0.798
 7913SOL     OW24637   1.473   5.109   6.642
 7913SOL    HW124638   1.506   5.123   6.736
 7913SOL    HW224639   1.373   5.118   6.641
 7914SOL     OW24640   0.922   6.823   4.754
 7914SOL    HW124641   0.829   6.787   4.755
 7914SOL    HW224642   0.980   6.763   4.699
 7915SOL     OW24643   2.538   5.121   2.471
 7915SOL    HW124644   2.588   5.194   2.425
 7915SOL    HW224645   2.458   5.160   2.517
 7916SOL     OW24646   1.249   0.156   3.807
 7916SOL    HW124647   1.266   0.235   3.867
 7916SOL    HW224648   1.243   0.073   3.862
 7917SOL     OW24649   4.970   2.105   1.878
 7917SOL    HW124650   4.900   2.121   1.947
 7917SOL    HW224651   4.933   2.046   1.806
 7918SOL     OW24652   2.258   2.862   3.156
 7918SOL    HW124653   2.348   2.890   3.190
 7918SOL    HW224654   2.200   2.942   3.143
 7919SOL     OW24655   1.096   6.673   4.605
 7919SOL    HW124656   1.195   6.666   4.617
 7919SOL    HW224657   1.075   6.707   4.513
 7920SOL     OW24658   4.479   0.470   1.359
 7920SOL    HW124659   4.488   0.370   1.364
 7920SOL    HW224660   4.504   0.510   1.446
 7921SOL     OW24661   5.379   2.420   1.022
 7921SOL    HW124662   5.442   2.492   1.051
 7921SOL    HW224663   5.390   2.340   1.082
 7922SOL     OW24664   2.833   0.303   2.370
 7922SOL    HW124665   2.794   0.212   2.387
 7922SOL    HW224666   2.826   0.324   2.273
 7923SOL     OW24667   3.890   0.952   6.997
 7923SOL    HW124668   3.880   0.934   6.899
 7923SOL    HW224669   3.923   0.869   0.015
 7924SOL     OW24670   5.588   5.790   0.499
 7924SOL    HW124671   5.609   5.695   0.519
 7924SOL    HW224672   5.497   5.813   0.536
 7925SOL     OW24673   1.433   5.548   6.450
 7925SOL    HW124674   1.519   5.586   6.485
 7925SOL    HW224675   1.383   5.504   6.524
 7926SOL     OW24676   5.505   5.902   5.983
 7926SOL    HW124677   5.474   5.871   6.073
 7926SOL    HW224678   5.600   5.873   5.970
 7927SOL     OW24679   4.168   0.095   3.370
 7927SOL    HW124680   4.218   0.174   3.333
 7927SOL    HW224681   4.143   0.034   3.296
 7928SOL     OW24682   5.669   1.916   3.475
 7928SOL    HW124683   5.598   1.877   3.534
 7928SOL    HW224684   5.727   1.843   3.439
 7929SOL     OW24685   4.858   4.414   5.705
 7929SOL    HW124686   4.911   4.441   5.786
 7929SOL    HW224687   4.903   4.336   5.661
 7930SOL     OW24688   4.164   6.440   6.291
 7930SOL    HW124689   4.188   6.404   6.201
 7930SOL    HW224690   4.248   6.457   6.343
 7931SOL     OW24691   4.402   1.318   1.318
 7931SOL    HW124692   4.441   1.402   1.356
 7931SOL    HW224693   4.302   1.324   1.322
 7932SOL     OW24694   1.439   3.937   1.795
 7932SOL    HW124695   1.387   3.852   1.806
 7932SOL    HW224696   1.461   3.974   1.885
 7933SOL     OW24697   0.995   1.661   0.117
 7933SOL    HW124698   0.969   1.694   0.027
 7933SOL    HW224699   1.048   1.731   0.164
 7934SOL     OW24700   0.413   5.202   1.080
 7934SOL    HW124701   0.328   5.199   1.131
 7934SOL    HW224702   0.476   5.133   1.116
 7935SOL     OW24703   6.399   3.104   3.204
 7935SOL    HW124704   6.366   3.035   3.140
 7935SOL    HW224705   6.411   3.191   3.155
 7936SOL     OW24706   2.033   5.577   3.350
 7936SOL    HW124707   2.076   5.548   3.436
 7936SOL    HW224708   2.076   5.663   3.320
 7937SOL     OW24709   4.362   1.002   0.867
 7937SOL    HW124710   4.346   0.932   0.936
 7937SOL    HW224711   4.290   1.072   0.874
 7938SOL     OW24712   2.615   0.122   3.310
 7938SOL    HW124713   2.655   0.200   3.359
 7938SOL    HW224714   2.682   0.085   3.247
 7939SOL     OW24715   0.867   0.733   2.639
 7939SOL    HW124716   0.943   0.670   2.623
 7939SOL    HW224717   0.895   0.801   2.707
 7940SOL     OW24718   5.715   1.719   4.781
 7940SOL    HW124719   5.729   1.624   4.755
 7940SOL    HW224720   5.676   1.723   4.873
 7941SOL     OW24721   3.363   6.922   1.061
 7941SOL    HW124722   3.350   6.878   0.972
 7941SOL    HW224723   3.277   6.920   1.112
 7942SOL     OW24724   1.391   4.150   0.840
 7942SOL    HW124725   1.457   4.148   0.915
 7942SOL    HW224726   1.417   4.081   0.772
 7943SOL     OW24727   1.455   6.333   6.270
 7943SOL    HW124728   1.443   6.428   6.299
 7943SOL    HW224729   1.386   6.311   6.201
 7944SOL     OW24730   1.259   2.014   1.292
 7944SOL    HW124731   1.262   2.053   1.385
 7944SOL    HW224732   1.220   2.082   1.229
 7945SOL     OW24733   6.381   3.770   2.430
 7945SOL    HW124734   6.282   3.769   2.415
 7945SOL    HW224735   6.411   3.679   2.459
 7946SOL     OW24736   4.831   2.175   6.662
 7946SOL    HW124737   4.815   2.257   6.607
 7946SOL    HW224738   4.815   2.196   6.758
 7947SOL     OW24739   6.787   3.726   5.971
 7947SOL    HW124740   6.854   3.720   5.897
 7947SOL    HW224741   6.757   3.820   5.983
 7948SOL     OW24742   1.071   5.869   1.266
 7948SOL    HW124743   1.081   5.840   1.362
 7948SOL    HW224744   1.087   5.967   1.260
 7949SOL     OW24745   2.538   5.624   5.716
 7949SOL    HW124746   2.503   5.569   5.792
 7949SOL    HW224747   2.468   5.690   5.687
 7950SOL     OW24748   6.681   4.638   5.688
 7950SOL    HW124749   6.779   4.639   5.667
 7950SOL    HW224750   6.659   4.715   5.747
 7951SOL     OW24751   4.126   6.939   3.168
 7951SOL    HW124752   4.186   6.870   3.127
 7951SOL    HW224753   4.044   6.950   3.111
 7952SOL     OW24754   6.832   4.054   5.000
 7952SOL    HW124755   6.869   3.985   4.938
 7952SOL    HW224756   6.738   4.032   5.023
 7953SOL     OW24757   1.791   0.016   0.199
 7953SOL    HW124758   1.691   0.011   0.201
 7953SOL    HW224759   1.823   0.002   0.106
 7954SOL     OW24760   3.736   3.471   0.001
 7954SOL    HW124761   3.739   3.570   0.016
 7954SOL    HW224762   3.684   3.452   6.944
 7955SOL     OW24763   0.824   1.487   6.231
 7955SOL    HW124764   0.920   1.465   6.250
 7955SOL    HW224765   0.815   1.585   6.216
 7956SOL     OW24766   0.385   6.427   0.522
 7956SOL    HW124767   0.319   6.500   0.508
 7956SOL    HW224768   0.461   6.437   0.459
 7957SOL     OW24769   5.350   1.545   5.865
 7957SOL    HW124770   5.384   1.584   5.780
 7957SOL    HW224771   5.390   1.593   5.942
 7958SOL     OW24772   4.095   2.500   6.866
 7958SOL    HW124773   4.052   2.456   6.788
 7958SOL    HW224774   4.099   2.599   6.851
 7959SOL     OW24775   5.435   2.386   0.257
 7959SOL    HW124776   5.509   2.319   0.250
 7959SOL    HW224777   5.395   2.400   0.167
 7960SOL     OW24778   0.852   1.944   5.174
 7960SOL    HW124779   0.863   1.903   5.264
 7960SOL    HW224780   0.857   2.044   5.182
 7961SOL     OW24781   5.891   7.000   0.634
 7961SOL    HW124782   5.891   0.058   0.687
 7961SOL    HW224783   5.904   6.922   0.695
 7962SOL     OW24784   5.897   6.915   5.147
 7962SOL    HW124785   5.937   7.004   5.123
 7962SOL    HW224786   5.907   6.852   5.070
 7963SOL     OW24787   5.974   6.167   3.529
 7963SOL    HW124788   6.011   6.246   3.578
 7963SOL    HW224789   6.030   6.149   3.448
 7964SOL     OW24790   6.097   3.705   1.243
 7964SOL    HW124791   6.095   3.789   1.298
 7964SOL    HW224792   6.088   3.626   1.303
 7965SOL     OW24793   5.266   2.111   6.157
 7965SOL    HW124794   5.207   2.121   6.237
 7965SOL    HW224795   5.361   2.098   6.187
 7966SOL     OW24796   5.683   3.512   5.116
 7966SOL    HW124797   5.606   3.544   5.173
 7966SOL    HW224798   5.752   3.584   5.112
 7967SOL     OW24799   1.100   4.570   0.261
 7967SOL    HW124800   1.138   4.482   0.234
 7967SOL    HW224801   1.131   4.640   0.196
 7968SOL     OW24802   1.892   2.343   3.929
 7968SOL    HW124803   1.990   2.360   3.940
 7968SOL    HW224804   1.870   2.251   3.961
 7969SOL     OW24805   3.399   4.468   6.722
 7969SOL    HW124806   3.450   4.542   6.766
 7969SOL    HW224807   3.454   4.430   6.647
 7970SOL     OW24808   5.808   2.589   4.363
 7970SOL    HW124809   5.815   2.489   4.360
 7970SOL    HW224810   5.893   2.630   4.330
 7971SOL     OW24811   2.796   1.099   6.725
 7971SOL    HW124812   2.760   1.093   6.818
 7971SOL    HW224813   2.828   1.192   6.707
 7972SOL     OW24814   3.360   4.162   4.351
 7972SOL    HW124815   3.360   4.145   4.449
 7972SOL    HW224816   3.453   4.149   4.315
 7973SOL     OW24817   6.093   4.926   2.041
 7973SOL    HW124818   6.070   4.973   2.126
 7973SOL    HW224819   6.176   4.871   2.055
 7974SOL     OW24820   0.731   3.029   4.528
 7974SOL    HW124821   0.755   3.062   4.619
 7974SOL    HW224822   0.699   2.935   4.534
 7975SOL     OW24823   4.807   0.538   0.131
 7975SOL    HW124824   4.842   0.587   0.211
 7975SOL    HW224825   4.881   0.526   0.065
 7976SOL     OW24826   0.873   0.440   0.313
 7976SOL    HW124827   0.944   0.439   0.242
 7976SOL    HW224828   0.804   0.370   0.292
 7977SOL     OW24829   5.662   5.549   3.373
 7977SOL    HW124830   5.570   5.583   3.352
 7977SOL    HW224831   5.693   5.491   3.298
 7978SOL     OW24832   0.407   3.743   1.522
 7978SOL    HW124833   0.345   3.816   1.548
 7978SOL    HW224834   0.468   3.775   1.449
 7979SOL     OW24835   2.668   2.313   5.213
 7979SOL    HW124836   2.745   2.291   5.273
 7979SOL    HW224837   2.624   2.397   5.243
 7980SOL     OW24838   3.712   5.439   1.664
 7980SOL    HW124839   3.644   5.435   1.737
 7980SOL    HW224840   3.693   5.368   1.596
 7981SOL     OW24841   1.732   3.864   4.498
 7981SOL    HW124842   1.668   3.936   4.525
 7981SOL    HW224843   1.822   3.883   4.537
 7982SOL     OW24844   6.841   1.185   6.039
 7982SOL    HW124845   6.913   1.207   6.105
 7982SOL    HW224846   6.827   1.263   5.978
 7983SOL     OW24847   3.715   0.744   1.697
 7983SOL    HW124848   3.648   0.749   1.771
 7983SOL    HW224849   3.704   0.823   1.637
 7984SOL     OW24850   6.414   2.914   2.730
 7984SOL    HW124851   6.491   2.975   2.750
 7984SOL    HW224852   6.434   2.862   2.647
 7985SOL     OW24853   2.938   2.929   5.312
 7985SOL    HW124854   3.031   2.944   5.279
 7985SOL    HW224855   2.882   3.009   5.290
 7986SOL     OW24856   3.961   1.008   4.020
 7986SOL    HW124857   4.016   1.091   4.026
 7986SOL    HW224858   3.964   0.972   3.927
 7987SOL     OW24859   0.986   3.442   6.398
 7987SOL    HW124860   1.066   3.502   6.403
 7987SOL    HW224861   0.945   3.434   6.490
 7988SOL     OW24862   6.683   0.758   1.078
 7988SOL    HW124863   6.761   0.790   1.024
 7988SOL    HW224864   6.613   0.830   1.082
 7989SOL     OW24865   0.603   4.603   1.018
 7989SOL    HW124866   0.606   4.503   1.007
 7989SOL    HW224867   0.510   4.635   1.001
 7990SOL     OW24868   4.857   5.188   4.838
 7990SOL    HW124869   4.875   5.098   4.799
 7990SOL    HW224870   4.854   5.257   4.766
 7991SOL     OW24871   5.641   1.003   4.669
 7991SOL    HW124872   5.645   1.099   4.641
 7991SOL    HW224873   5.708   0.987   4.742
 7992SOL     OW24874   2.099   0.167   6.962
 7992SOL    HW124875   2.127   0.168   0.031
 7992SOL    HW224876   2.055   0.253   6.938
 7993SOL     OW24877   6.064   5.735   0.651
 7993SOL    HW124878   6.059   5.680   0.568
 7993SOL    HW224879   5.997   5.701   0.718
 7994SOL     OW24880   6.851   0.611   4.435
 7994SOL    HW124881   6.793   0.642   4.510
 7994SOL    HW224882   6.914   0.541   4.469
 7995SOL     OW24883   0.260   5.758   1.368
 7995SOL    HW124884   0.280   5.667   1.404
 7995SOL    HW224885   0.316   5.825   1.416
 7996SOL     OW24886   2.468   6.784   3.205
 7996SOL    HW124887   2.379   6.744   3.224
 7996SOL    HW224888   2.467   6.828   3.115
 7997SOL     OW24889   2.541   2.058   5.509
 7997SOL    HW124890   2.610   2.007   5.561
 7997SOL    HW224891   2.454   2.055   5.558
 7998SOL     OW24892   2.146   0.906   1.191
 7998SOL    HW124893   2.150   0.806   1.194
 7998SOL    HW224894   2.122   0.940   1.282
 7999SOL     OW24895   0.854   6.922   3.603
 7999SOL    HW124896   0.945   6.916   3.643
 7999SOL    HW224897   0.825   7.018   3.598
 8000SOL     OW24898   4.198   5.928   1.082
 8000SOL    HW124899   4.218   5.946   0.986
 8000SOL    HW224900   4.123   5.987   1.113
 8001SOL     OW24901   4.676   4.335   1.564
 8001SOL    HW124902   4.612   4.381   1.626
 8001SOL    HW224903   4.637   4.334   1.472
 8002SOL     OW24904   1.054   0.280   4.540
 8002SOL    HW124905   0.985   0.227   4.490
 8002SOL    HW224906   1.060   0.248   4.634
 8003SOL     OW24907   3.030   6.019   2.972
 8003SOL    HW124908   3.010   6.104   2.924
 8003SOL    HW224909   3.038   6.037   3.070
 8004SOL     OW24910   1.647   3.665   4.020
 8004SOL    HW124911   1.675   3.701   4.109
 8004SOL    HW224912   1.561   3.616   4.029
 8005SOL     OW24913   2.189   0.577   3.747
 8005SOL    HW124914   2.101   0.558   3.790
 8005SOL    HW224915   2.181   0.569   3.647
 8006SOL     OW24916   4.839   5.599   5.902
 8006SOL    HW124917   4.775   5.527   5.875
 8006SOL    HW224918   4.790   5.671   5.950
 8007SOL     OW24919   0.651   0.825   0.775
 8007SOL    HW124920   0.618   0.843   0.683
 8007SOL    HW224921   0.743   0.862   0.786
 8008SOL     OW24922   4.458   5.268   0.642
 8008SOL    HW124923   4.540   5.316   0.674
 8008SOL    HW224924   4.387   5.275   0.712
 8009SOL     OW24925   6.484   1.153   0.465
 8009SOL    HW124926   6.403   1.204   0.494
 8009SOL    HW224927   6.566   1.208   0.481
 8010SOL     OW24928   3.536   0.953   5.851
 8010SOL    HW124929   3.456   0.893   5.855
 8010SOL    HW224930   3.574   0.952   5.758
 8011SOL     OW24931   3.849   1.852   2.755
 8011SOL    HW124932   3.846   1.940   2.709
 8011SOL    HW224933   3.919   1.854   2.826
 8012SOL     OW24934   6.693   1.142   4.316
 8012SOL    HW124935   6.724   1.236   4.299
 8012SOL    HW224936   6.721   1.083   4.240
 8013SOL     OW24937   3.499   0.822   2.954
 8013SOL    HW124938   3.552   0.895   2.909
 8013SOL    HW224939   3.411   0.812   2.908
 8014SOL     OW24940   2.640   2.391   2.888
 8014SOL    HW124941   2.619   2.361   2.795
 8014SOL    HW224942   2.731   2.359   2.914
 8015SOL     OW24943   3.655   0.000   4.390
 8015SOL    HW124944   3.751   7.026   4.360
 8015SOL    HW224945   3.605   0.070   4.339
 8016SOL     OW24946   3.523   2.535   5.378
 8016SOL    HW124947   3.450   2.466   5.377
 8016SOL    HW224948   3.596   2.506   5.439
 8017SOL     OW24949   6.142   5.611   1.304
 8017SOL    HW124950   6.148   5.648   1.396
 8017SOL    HW224951   6.228   5.628   1.255
 8018SOL     OW24952   3.149   3.582   0.607
 8018SOL    HW124953   3.078   3.621   0.666
 8018SOL    HW224954   3.188   3.653   0.550
 8019SOL     OW24955   2.729   3.303   0.363
 8019SOL    HW124956   2.726   3.226   0.300
 8019SOL    HW224957   2.822   3.315   0.397
 8020SOL     OW24958   0.069   0.443   6.239
 8020SOL    HW124959   0.056   0.425   6.337
 8020SOL    HW224960   0.004   0.389   6.186
 8021SOL     OW24961   1.030   3.279   0.662
 8021SOL    HW124962   1.069   3.356   0.612
 8021SOL    HW224963   1.103   3.225   0.704
 8022SOL     OW24964   4.190   6.925   2.290
 8022SOL    HW124965   4.127   6.998   2.264
 8022SOL    HW224966   4.284   6.960   2.286
 8023SOL     OW24967   3.967   5.567   2.456
 8023SOL    HW124968   3.918   5.614   2.529
 8023SOL    HW224969   4.029   5.499   2.496
 8024SOL     OW24970   3.071   0.736   6.864
 8024SOL    HW124971   3.170   0.744   6.870
 8024SOL    HW224972   3.033   0.724   6.956
 8025SOL     OW24973   0.853   6.483   1.921
 8025SOL    HW124974   0.870   6.459   2.017
 8025SOL    HW224975   0.940   6.488   1.872
 8026SOL     OW24976   0.715   6.597   6.595
 8026SOL    HW124977   0.686   6.618   6.502
 8026SOL    HW224978   0.785   6.663   6.624
 8027SOL     OW24979   3.674   0.587   6.510
 8027SOL    HW124980   3.728   0.511   6.548
 8027SOL    HW224981   3.678   0.584   6.410
 8028SOL     OW24982   3.547   6.134   6.349
 8028SOL    HW124983   3.505   6.192   6.419
 8028SOL    HW224984   3.477   6.103   6.285
 8029SOL     OW24985   1.066   0.764   1.762
 8029SOL    HW124986   1.109   0.784   1.674
 8029SOL    HW224987   0.968   0.785   1.757
 8030SOL     OW24988   1.043   4.387   1.239
 8030SOL    HW124989   1.132   4.409   1.279
 8030SOL    HW224990   1.054   4.314   1.171
 8031SOL     OW24991   6.564   0.189   1.915
 8031SOL    HW124992   6.616   0.274   1.926
 8031SOL    HW224993   6.625   0.116   1.885
 8032SOL     OW24994   0.318   2.505   0.509
 8032SOL    HW124995   0.304   2.552   0.422
 8032SOL    HW224996   0.237   2.450   0.530
 8033SOL     OW24997   3.809   4.253   1.646
 8033SOL    HW124998   3.907   4.234   1.643
 8033SOL    HW224999   3.770   4.213   1.729
 8034SOL     OW25000   0.439   0.081   5.544
 8034SOL    HW125001   0.356   0.077   5.599
 8034SOL    HW225002   0.489   7.021   5.551
 8035SOL     OW25003   6.226   6.921   4.318
 8035SOL    HW125004   6.131   6.954   4.312
 8035SOL    HW225005   6.288   6.996   4.294
 8036SOL     OW25006   5.010   3.091   3.998
 8036SOL    HW125007   4.946   3.032   3.948
 8036SOL    HW225008   4.996   3.186   3.971
 8037SOL     OW25009   2.693   0.901   6.062
 8037SOL    HW125010   2.750   0.823   6.090
 8037SOL    HW225011   2.645   0.878   5.977
 8038SOL     OW25012   6.559   5.535   1.984
 8038SOL    HW125013   6.583   5.582   1.899
 8038SOL    HW225014   6.531   5.603   2.052
 8039SOL     OW25015   2.264   2.335   4.986
 8039SOL    HW125016   2.168   2.365   4.984
 8039SOL    HW225017   2.324   2.413   4.967
 8040SOL     OW25018   0.644   6.024   6.466
 8040SOL    HW125019   0.688   5.935   6.455
 8040SOL    HW225020   0.644   6.073   6.379
 8041SOL     OW25021   3.305   1.589   3.243
 8041SOL    HW125022   3.362   1.588   3.161
 8041SOL    HW225023   3.219   1.637   3.224
 8042SOL     OW25024   3.628   3.891   5.917
 8042SOL    HW125025   3.689   3.871   5.993
 8042SOL    HW225026   3.570   3.969   5.940
 8043SOL     OW25027   4.813   5.536   0.501
 8043SOL    HW125028   4.789   5.449   0.546
 8043SOL    HW225029   4.841   5.517   0.407
 8044SOL     OW25030   1.603   2.991   1.352
 8044SOL    HW125031   1.549   3.073   1.334
 8044SOL    HW225032   1.586   2.959   1.445
 8045SOL     OW25033   6.301   3.365   4.187
 8045SOL    HW125034   6.372   3.400   4.126
 8045SOL    HW225035   6.310   3.407   4.277
 8046SOL     OW25036   0.377   4.263   1.466
 8046SOL    HW125037   0.390   4.252   1.367
 8046SOL    HW225038   0.448   4.212   1.515
 8047SOL     OW25039   3.018   6.037   6.877
 8047SOL    HW125040   3.047   6.053   6.782
 8047SOL    HW225041   2.954   6.108   6.905
 8048SOL     OW25042   3.937   2.452   5.886
 8048SOL    HW125043   3.999   2.375   5.894
 8048SOL    HW225044   3.855   2.425   5.835
 8049SOL     OW25045   1.550   1.529   0.224
 8049SOL    HW125046   1.602   1.460   0.175
 8049SOL    HW225047   1.560   1.515   0.322
 8050SOL     OW25048   0.318   5.087   6.108
 8050SOL    HW125049   0.401   5.031   6.106
 8050SOL    HW225050   0.284   5.100   6.015
 8051SOL     OW25051   4.783   6.865   3.057
 8051SOL    HW125052   4.862   6.877   3.116
 8051SOL    HW225053   4.750   6.955   3.026
 8052SOL     OW25054   2.889   1.878   2.507
 8052SOL    HW125055   2.826   1.949   2.477
 8052SOL    HW225056   2.983   1.910   2.496
 8053SOL     OW25057   1.443   2.482   6.775
 8053SOL    HW125058   1.514   2.535   6.730
 8053SOL    HW225059   1.448   2.495   6.874
 8054SOL     OW25060   5.027   3.506   4.911
 8054SOL    HW125061   4.940   3.552   4.930
 8054SOL    HW225062   5.011   3.410   4.892
 8055SOL     OW25063   6.500   0.408   6.787
 8055SOL    HW125064   6.470   0.498   6.818
 8055SOL    HW225065   6.497   0.343   6.864
 8056SOL     OW25066   2.370   1.423   4.234
 8056SOL    HW125067   2.404   1.469   4.152
 8056SOL    HW225068   2.376   1.324   4.221
 8057SOL     OW25069   3.054   2.143   1.956
 8057SOL    HW125070   3.000   2.219   1.993
 8057SOL    HW225071   3.049   2.065   2.017
 8058SOL     OW25072   3.831   5.968   2.281
 8058SOL    HW125073   3.796   5.924   2.364
 8058SOL    HW225074   3.754   5.990   2.221
 8059SOL     OW25075   2.964   2.834   5.676
 8059SOL    HW125076   2.961   2.892   5.594
 8059SOL    HW225077   2.870   2.811   5.703
 8060SOL     OW25078   0.030   1.214   6.187
 8060SOL    HW125079   0.087   1.136   6.212
 8060SOL    HW225080   0.061   1.296   6.235
 8061SOL     OW25081   6.814   1.198   1.754
 8061SOL    HW125082   6.735   1.138   1.743
 8061SOL    HW225083   6.883   1.152   1.810
 8062SOL     OW25084   4.420   4.679   5.654
 8062SOL    HW125085   4.491   4.746   5.676
 8062SOL    HW225086   4.383   4.699   5.563
 8063SOL     OW25087   2.640   4.596   3.212
 8063SOL    HW125088   2.646   4.683   3.262
 8063SOL    HW225089   2.635   4.614   3.114
 8064SOL     OW25090   7.006   1.548   0.341
 8064SOL    HW125091   6.974   1.556   0.436
 8064SOL    HW225092   0.074   1.517   0.341
 8065SOL     OW25093   4.511   6.973   6.759
 8065SOL    HW125094   4.611   6.960   6.757
 8065SOL    HW225095   4.468   6.907   6.697
 8066SOL     OW25096   0.416   7.010   5.980
 8066SOL    HW125097   0.481   0.059   5.985
 8066SOL    HW225098   0.368   7.001   6.066
 8067SOL     OW25099   5.737   0.770   4.440
 8067SOL    HW125100   5.663   0.757   4.373
 8067SOL    HW225101   5.697   0.789   4.530
 8068SOL     OW25102   6.854   3.471   1.753
 8068SOL    HW125103   6.757   3.470   1.731
 8068SOL    HW225104   6.875   3.550   1.810
 8069SOL     OW25105   1.153   2.892   2.369
 8069SOL    HW125106   1.112   2.929   2.286
 8069SOL    HW225107   1.110   2.935   2.449
 8070SOL     OW25108   4.980   3.884   1.106
 8070SOL    HW125109   5.013   3.972   1.073
 8070SOL    HW225110   5.056   3.819   1.112
 8071SOL     OW25111   2.818   0.263   6.098
 8071SOL    HW125112   2.875   0.328   6.049
 8071SOL    HW225113   2.728   0.258   6.056
 8072SOL     OW25114   2.318   2.081   4.883
 8072SOL    HW125115   2.299   2.168   4.928
 8072SOL    HW225116   2.416   2.060   4.890
 8073SOL     OW25117   5.423   0.251   0.021
 8073SOL    HW125118   5.519   0.224   0.014
 8073SOL    HW225119   5.369   0.204   6.978
 8074SOL     OW25120   6.801   0.772   0.264
 8074SOL    HW125121   6.733   0.836   0.299
 8074SOL    HW225122   6.756   0.699   0.213
 8075SOL     OW25123   0.342   0.400   1.322
 8075SOL    HW125124   0.330   0.306   1.354
 8075SOL    HW225125   0.427   0.437   1.359
 8076SOL     OW25126   6.665   6.241   0.433
 8076SOL    HW125127   6.712   6.280   0.354
 8076SOL    HW225128   6.711   6.270   0.517
 8077SOL     OW25129   5.835   4.437   1.024
 8077SOL    HW125130   5.887   4.395   0.950
 8077SOL    HW225131   5.879   4.522   1.051
 8078SOL     OW25132   6.380   0.839   1.638
 8078SOL    HW125133   6.405   0.844   1.541
 8078SOL    HW225134   6.462   0.856   1.693
 8079SOL     OW25135   0.669   1.007   6.787
 8079SOL    HW125136   0.664   1.081   6.854
 8079SOL    HW225137   0.588   0.950   6.794
 8080SOL     OW25138   1.469   3.398   3.507
 8080SOL    HW125139   1.532   3.322   3.492
 8080SOL    HW225140   1.413   3.412   3.425
 8081SOL     OW25141   6.721   7.017   5.157
 8081SOL    HW125142   6.705   6.995   5.060
 8081SOL    HW225143   6.799   6.965   5.190
 8082SOL     OW25144   3.617   2.031   4.556
 8082SOL    HW125145   3.654   2.070   4.640
 8082SOL    HW225146   3.584   1.938   4.574
 8083SOL     OW25147   6.493   2.523   4.531
 8083SOL    HW125148   6.545   2.507   4.614
 8083SOL    HW225149   6.553   2.562   4.461
 8084SOL     OW25150   4.039   1.744   5.952
 8084SOL    HW125151   4.121   1.785   5.994
 8084SOL    HW225152   4.061   1.653   5.919
 8085SOL     OW25153   1.991   5.918   4.474
 8085SOL    HW125154   1.983   5.902   4.376
 8085SOL    HW225155   2.017   6.013   4.490
 8086SOL     OW25156   6.462   1.553   2.830
 8086SOL    HW125157   6.480   1.476   2.768
 8086SOL    HW225158   6.426   1.519   2.917
 8087SOL     OW25159   6.697   1.340   6.682
 8087SOL    HW125160   6.729   1.428   6.717
 8087SOL    HW225161   6.711   1.269   6.752
 8088SOL     OW25162   6.744   0.231   4.897
 8088SOL    HW125163   6.796   0.271   4.972
 8088SOL    HW225164   6.702   0.146   4.927
 8089SOL     OW25165   6.284   2.000   6.928
 8089SOL    HW125166   6.261   2.088   6.887
 8089SOL    HW225167   6.337   2.016   7.012
 8090SOL     OW25168   4.501   2.483   5.280
 8090SOL    HW125169   4.557   2.476   5.363
 8090SOL    HW225170   4.518   2.571   5.236
 8091SOL     OW25171   1.059   3.904   4.424
 8091SOL    HW125172   0.973   3.855   4.437
 8091SOL    HW225173   1.041   4.002   4.418
 8092SOL     OW25174   4.745   0.595   5.826
 8092SOL    HW125175   4.654   0.558   5.846
 8092SOL    HW225176   4.814   0.541   5.873
 8093SOL     OW25177   3.582   6.475   3.394
 8093SOL    HW125178   3.606   6.565   3.356
 8093SOL    HW225179   3.540   6.419   3.324
 8094SOL     OW25180   2.016   3.802   3.924
 8094SOL    HW125181   1.942   3.762   3.870
 8094SOL    HW225182   2.015   3.763   4.016
 8095SOL     OW25183   1.356   4.887   5.160
 8095SOL    HW125184   1.397   4.815   5.105
 8095SOL    HW225185   1.427   4.928   5.219
 8096SOL     OW25186   0.915   4.646   0.459
 8096SOL    HW125187   0.980   4.624   0.386
 8096SOL    HW225188   0.877   4.561   0.496
 8097SOL     OW25189   4.411   6.601   6.832
 8097SOL    HW125190   4.469   6.559   6.762
 8097SOL    HW225191   4.466   6.658   6.892
 8098SOL     OW25192   2.541   5.873   5.015
 8098SOL    HW125193   2.626   5.837   4.975
 8098SOL    HW225194   2.471   5.878   4.944
 8099SOL     OW25195   2.216   3.989   2.453
 8099SOL    HW125196   2.255   4.080   2.444
 8099SOL    HW225197   2.211   3.946   2.363
 8100SOL     OW25198   6.673   0.352   6.592
 8100SOL    HW125199   6.628   0.409   6.660
 8100SOL    HW225200   6.678   0.258   6.625
 8101SOL     OW25201   2.422   5.237   1.223
 8101SOL    HW125202   2.424   5.337   1.222
 8101SOL    HW225203   2.331   5.205   1.196
 8102SOL     OW25204   0.526   4.037   3.556
 8102SOL    HW125205   0.618   4.029   3.593
 8102SOL    HW225206   0.505   3.957   3.500
 8103SOL     OW25207   3.928   0.900   1.237
 8103SOL    HW125208   3.953   0.812   1.197
 8103SOL    HW225209   3.934   0.971   1.167
 8104SOL     OW25210   1.799   5.124   6.815
 8104SOL    HW125211   1.841   5.054   6.757
 8104SOL    HW225212   1.817   5.214   6.776
 8105SOL     OW25213   6.819   0.023   3.709
 8105SOL    HW125214   6.783   6.966   3.749
 8105SOL    HW225215   6.919   0.024   3.716
 8106SOL     OW25216   2.796   6.386   6.276
 8106SOL    HW125217   2.784   6.441   6.193
 8106SOL    HW225218   2.708   6.372   6.321
 8107SOL     OW25219   1.560   6.576   6.943
 8107SOL    HW125220   1.551   6.533   6.853
 8107SOL    HW225221   1.494   6.535   7.006
 8108SOL     OW25222   1.398   1.405   6.696
 8108SOL    HW125223   1.451   1.422   6.613
 8108SOL    HW225224   1.301   1.418   6.677
 8109SOL     OW25225   6.304   3.037   1.720
 8109SOL    HW125226   6.205   3.035   1.707
 8109SOL    HW225227   6.332   2.962   1.779
 8110SOL     OW25228   3.982   4.761   1.044
 8110SOL    HW125229   3.972   4.752   0.945
 8110SOL    HW225230   3.962   4.855   1.072
 8111SOL     OW25231   6.469   0.995   2.780
 8111SOL    HW125232   6.551   0.938   2.784
 8111SOL    HW225233   6.388   0.936   2.781
 8112SOL     OW25234   1.646   5.279   6.483
 8112SOL    HW125235   1.634   5.376   6.501
 8112SOL    HW225236   1.604   5.226   6.556
 8113SOL     OW25237   5.014   4.895   6.205
 8113SOL    HW125238   4.975   4.933   6.121
 8113SOL    HW225239   4.957   4.922   6.283
 8114SOL     OW25240   2.004   3.816   2.800
 8114SOL    HW125241   2.065   3.849   2.872
 8114SOL    HW225242   2.053   3.752   2.741
 8115SOL     OW25243   2.339   1.070   5.860
 8115SOL    HW125244   2.257   1.093   5.808
 8115SOL    HW225245   2.370   1.150   5.910
 8116SOL     OW25246   4.038   3.381   1.682
 8116SOL    HW125247   4.093   3.430   1.750
 8116SOL    HW225248   4.033   3.284   1.708
 8117SOL     OW25249   2.612   7.000   4.193
 8117SOL    HW125250   2.588   0.069   4.176
 8117SOL    HW225251   2.539   6.956   4.244
 8118SOL     OW25252   6.741   3.070   6.681
 8118SOL    HW125253   6.749   3.150   6.741
 8118SOL    HW225254   6.770   3.094   6.589
 8119SOL     OW25255   5.460   6.316   6.614
 8119SOL    HW125256   5.506   6.316   6.526
 8119SOL    HW225257   5.403   6.234   6.622
 8120SOL     OW25258   2.150   6.320   2.278
 8120SOL    HW125259   2.159   6.390   2.349
 8120SOL    HW225260   2.142   6.365   2.189
 8121SOL     OW25261   1.401   2.460   2.079
 8121SOL    HW125262   1.374   2.556   2.086
 8121SOL    HW225263   1.379   2.426   1.987
 8122SOL     OW25264   0.633   4.545   1.602
 8122SOL    HW125265   0.679   4.549   1.513
 8122SOL    HW225266   0.658   4.461   1.648
 8123SOL     OW25267   6.756   2.262   0.071
 8123SOL    HW125268   6.722   2.254   0.165
 8123SOL    HW225269   6.848   2.224   0.065
 8124SOL     OW25270   6.273   6.059   5.728
 8124SOL    HW125271   6.229   5.975   5.760
 8124SOL    HW225272   6.207   6.115   5.679
 8125SOL     OW25273   1.101   5.643   2.136
 8125SOL    HW125274   1.131   5.602   2.222
 8125SOL    HW225275   1.135   5.589   2.060
 8126SOL     OW25276   3.763   5.573   5.225
 8126SOL    HW125277   3.768   5.672   5.236
 8126SOL    HW225278   3.847   5.540   5.180
 8127SOL     OW25279   3.712   1.547   6.285
 8127SOL    HW125280   3.811   1.555   6.282
 8127SOL    HW225281   3.687   1.455   6.316
 8128SOL     OW25282   3.179   2.823   1.143
 8128SOL    HW125283   3.128   2.783   1.066
 8128SOL    HW225284   3.155   2.775   1.227
 8129SOL     OW25285   0.529   2.125   2.830
 8129SOL    HW125286   0.494   2.102   2.920
 8129SOL    HW225287   0.468   2.191   2.786
 8130SOL     OW25288   6.897   6.210   6.718
 8130SOL    HW125289   6.817   6.252   6.761
 8130SOL    HW225290   6.895   6.111   6.733
 8131SOL     OW25291   1.541   2.647   0.232
 8131SOL    HW125292   1.640   2.648   0.239
 8131SOL    HW225293   1.501   2.640   0.323
 8132SOL     OW25294   6.550   1.732   5.152
 8132SOL    HW125295   6.476   1.749   5.217
 8132SOL    HW225296   6.636   1.717   5.202
 8133SOL     OW25297   3.093   5.039   1.405
 8133SOL    HW125298   3.160   5.012   1.474
 8133SOL    HW225299   3.141   5.072   1.324
 8134SOL     OW25300   5.465   2.236   5.759
 8134SOL    HW125301   5.539   2.234   5.827
 8134SOL    HW225302   5.377   2.222   5.805
 8135SOL     OW25303   2.471   6.624   1.932
 8135SOL    HW125304   2.430   6.546   1.979
 8135SOL    HW225305   2.448   6.621   1.835
 8136SOL     OW25306   4.823   4.337   2.236
 8136SOL    HW125307   4.826   4.255   2.294
 8136SOL    HW225308   4.808   4.310   2.141
 8137SOL     OW25309   4.396   2.118   6.100
 8137SOL    HW125310   4.352   2.028   6.105
 8137SOL    HW225311   4.418   2.149   6.192
 8138SOL     OW25312   5.088   1.131   2.123
 8138SOL    HW125313   5.003   1.126   2.176
 8138SOL    HW225314   5.165   1.145   2.185
 8139SOL     OW25315   0.082   1.594   3.281
 8139SOL    HW125316   0.103   1.636   3.193
 8139SOL    HW225317   0.150   1.622   3.349
 8140SOL     OW25318   4.881   2.388   3.137
 8140SOL    HW125319   4.833   2.404   3.223
 8140SOL    HW225320   4.861   2.463   3.074
 8141SOL     OW25321   5.546   3.818   4.285
 8141SOL    HW125322   5.530   3.851   4.192
 8141SOL    HW225323   5.639   3.781   4.292
 8142SOL     OW25324   0.183   6.223   0.074
 8142SOL    HW125325   0.098   6.208   0.124
 8142SOL    HW225326   0.162   6.246   7.006
 8143SOL     OW25327   6.275   3.552   5.408
 8143SOL    HW125328   6.214   3.507   5.342
 8143SOL    HW225329   6.292   3.490   5.484
 8144SOL     OW25330   5.168   6.531   0.069
 8144SOL    HW125331   5.082   6.499   0.107
 8144SOL    HW225332   5.242   6.512   0.133
 8145SOL     OW25333   4.878   6.082   3.119
 8145SOL    HW125334   4.855   6.164   3.066
 8145SOL    HW225335   4.901   6.109   3.213
 8146SOL     OW25336   3.728   1.316   4.512
 8146SOL    HW125337   3.678   1.390   4.468
 8146SOL    HW225338   3.692   1.228   4.480
 8147SOL     OW25339   5.062   0.900   2.701
 8147SOL    HW125340   5.095   0.991   2.726
 8147SOL    HW225341   5.063   0.840   2.781
 8148SOL     OW25342   5.964   4.228   3.220
 8148SOL    HW125343   5.888   4.175   3.258
 8148SOL    HW225344   5.940   4.260   3.128
 8149SOL     OW25345   3.600   5.153   3.272
 8149SOL    HW125346   3.599   5.134   3.371
 8149SOL    HW225347   3.506   5.170   3.242
 8150SOL     OW25348   1.103   6.164   1.307
 8150SOL    HW125349   1.173   6.207   1.250
 8150SOL    HW225350   1.013   6.198   1.281
 8151SOL     OW25351   0.423   1.714   4.337
 8151SOL    HW125352   0.463   1.631   4.297
 8151SOL    HW225353   0.496   1.778   4.360
 8152SOL     OW25354   1.536   0.662   3.475
 8152SOL    HW125355   1.577   0.749   3.502
 8152SOL    HW225356   1.469   0.677   3.403
 8153SOL     OW25357   1.939   6.560   0.521
 8153SOL    HW125358   1.972   6.564   0.616
 8153SOL    HW225359   2.014   6.531   0.461
 8154SOL     OW25360   2.785   6.893   3.370
 8154SOL    HW125361   2.689   6.912   3.389
 8154SOL    HW225362   2.841   6.925   3.447
 8155SOL     OW25363   3.357   3.835   4.987
 8155SOL    HW125364   3.352   3.808   4.891
 8155SOL    HW225365   3.287   3.785   5.039
 8156SOL     OW25366   0.354   0.466   5.719
 8156SOL    HW125367   0.259   0.448   5.746
 8156SOL    HW225368   0.411   0.387   5.742
 8157SOL     OW25369   6.098   2.201   0.090
 8157SOL    HW125370   6.011   2.205   0.041
 8157SOL    HW225371   6.083   2.162   0.181
 8158SOL     OW25372   1.627   5.245   2.272
 8158SOL    HW125373   1.549   5.183   2.262
 8158SOL    HW225374   1.706   5.208   2.223
 8159SOL     OW25375   0.647   5.445   1.738
 8159SOL    HW125376   0.603   5.535   1.739
 8159SOL    HW225377   0.617   5.392   1.817
 8160SOL     OW25378   4.581   1.884   1.834
 8160SOL    HW125379   4.556   1.921   1.924
 8160SOL    HW225380   4.529   1.932   1.763
 8161SOL     OW25381   4.117   2.465   1.691
 8161SOL    HW125382   4.204   2.419   1.705
 8161SOL    HW225383   4.042   2.404   1.716
 8162SOL     OW25384   5.744   0.721   1.834
 8162SOL    HW125385   5.713   0.630   1.861
 8162SOL    HW225386   5.707   0.744   1.744
 8163SOL     OW25387   1.826   3.065   5.068
 8163SOL    HW125388   1.898   3.026   5.126
 8163SOL    HW225389   1.759   3.112   5.126
 8164SOL     OW25390   4.640   2.519   2.610
 8164SOL    HW125391   4.668   2.605   2.566
 8164SOL    HW225392   4.632   2.533   2.709
 8165SOL     OW25393   2.145   4.878   1.729
 8165SOL    HW125394   2.201   4.821   1.789
 8165SOL    HW225395   2.052   4.883   1.765
 8166SOL     OW25396   3.648   6.765   1.467
 8166SOL    HW125397   3.697   6.700   1.409
 8166SOL    HW225398   3.641   6.853   1.420
 8167SOL     OW25399   5.474   2.929   4.177
 8167SOL    HW125400   5.554   2.869   4.177
 8167SOL    HW225401   5.475   2.985   4.260
 8168SOL     OW25402   3.059   1.930   2.125
 8168SOL    HW125403   2.969   1.961   2.155
 8168SOL    HW225404   3.096   1.866   2.193
 8169SOL     OW25405   5.564   3.932   4.905
 8169SOL    HW125406   5.647   3.876   4.909
 8169SOL    HW225407   5.512   3.909   4.823
 8170SOL     OW25408   1.121   4.839   4.389
 8170SOL    HW125409   1.079   4.754   4.422
 8170SOL    HW225410   1.102   4.849   4.292
 8171SOL     OW25411   1.598   1.249   6.255
 8171SOL    HW125412   1.525   1.286   6.313
 8171SOL    HW225413   1.631   1.164   6.295
 8172SOL     OW25414   0.144   6.381   1.418
 8172SOL    HW125415   0.214   6.344   1.357
 8172SOL    HW225416   0.145   6.330   1.504
 8173SOL     OW25417   5.678   2.744   0.028
 8173SOL    HW125418   5.748   2.713   6.991
 8173SOL    HW225419   5.623   2.816   7.013
 8174SOL     OW25420   5.307   6.729   2.088
 8174SOL    HW125421   5.232   6.782   2.125
 8174SOL    HW225422   5.394   6.760   2.127
 8175SOL     OW25423   1.608   2.761   4.420
 8175SOL    HW125424   1.630   2.763   4.323
 8175SOL    HW225425   1.660   2.832   4.468
 8176SOL     OW25426   3.776   5.696   3.525
 8176SOL    HW125427   3.846   5.658   3.465
 8176SOL    HW225428   3.819   5.758   3.592
 8177SOL     OW25429   0.935   6.723   5.585
 8177SOL    HW125430   0.902   6.785   5.514
 8177SOL    HW225431   1.033   6.737   5.599
 8178SOL     OW25432   2.011   6.839   5.925
 8178SOL    HW125433   2.020   6.742   5.905
 8178SOL    HW225434   2.092   6.888   5.893
 8179SOL     OW25435   3.344   0.283   0.304
 8179SOL    HW125436   3.337   0.382   0.315
 8179SOL    HW225437   3.300   0.255   0.218
 8180SOL     OW25438   4.527   4.561   5.997
 8180SOL    HW125439   4.446   4.613   5.971
 8180SOL    HW225440   4.533   4.479   5.940
 8181SOL     OW25441   2.285   2.190   2.024
 8181SOL    HW125442   2.352   2.199   2.097
 8181SOL    HW225443   2.285   2.095   1.991
 8182SOL     OW25444   5.448   2.652   6.014
 8182SOL    HW125445   5.365   2.660   5.959
 8182SOL    HW225446   5.445   2.567   6.067
 8183SOL     OW25447   2.038   2.858   3.628
 8183SOL    HW125448   2.093   2.774   3.628
 8183SOL    HW225449   2.038   2.897   3.535
 8184SOL     OW25450   5.817   6.147   4.580
 8184SOL    HW125451   5.808   6.230   4.635
 8184SOL    HW225452   5.775   6.070   4.629
 8185SOL     OW25453   1.770   1.977   3.082
 8185SOL    HW125454   1.806   1.915   3.152
 8185SOL    HW225455   1.846   2.016   3.030
 8186SOL     OW25456   4.208   4.257   6.606
 8186SOL    HW125457   4.196   4.343   6.557
 8186SOL    HW225458   4.303   4.227   6.599
 8187SOL     OW25459   2.101   1.143   5.747
 8187SOL    HW125460   2.074   1.077   5.676
 8187SOL    HW225461   2.020   1.174   5.796
 8188SOL     OW25462   5.392   2.687   2.286
 8188SOL    HW125463   5.329   2.723   2.355
 8188SOL    HW225464   5.473   2.745   2.282
 8189SOL     OW25465   6.943   4.917   2.924
 8189SOL    HW125466   6.925   4.983   2.851
 8189SOL    HW225467   6.857   4.887   2.964
 8190SOL     OW25468   5.759   3.843   2.025
 8190SOL    HW125469   5.793   3.804   2.110
 8190SOL    HW225470   5.783   3.940   2.021
 8191SOL     OW25471   6.819   4.966   2.003
 8191SOL    HW125472   6.850   5.014   1.922
 8191SOL    HW225473   6.807   4.869   1.982
 8192SOL     OW25474   1.229   2.908   0.814
 8192SOL    HW125475   1.301   2.840   0.799
 8192SOL    HW225476   1.152   2.889   0.753
 8193SOL     OW25477   3.940   6.919   5.548
 8193SOL    HW125478   3.982   7.000   5.587
 8193SOL    HW225479   3.981   6.837   5.588
 8194SOL     OW25480   1.832   0.234   2.087
 8194SOL    HW125481   1.757   0.212   2.025
 8194SOL    HW225482   1.837   0.165   2.159
 8195SOL     OW25483   5.320   1.680   1.302
 8195SOL    HW125484   5.387   1.612   1.333
 8195SOL    HW225485   5.361   1.771   1.304
 8196SOL     OW25486   2.176   0.658   7.017
 8196SOL    HW125487   2.092   0.638   0.040
 8196SOL    HW225488   2.163   0.637   6.921
 8197SOL     OW25489   0.593   0.459   1.365
 8197SOL    HW125490   0.606   0.373   1.415
 8197SOL    HW225491   0.640   0.453   1.276
 8198SOL     OW25492   3.113   0.045   2.644
 8198SOL    HW125493   3.072   0.136   2.635
 8198SOL    HW225494   3.100   0.012   2.738
 8199SOL     OW25495   5.844   4.890   1.176
 8199SOL    HW125496   5.840   4.983   1.138
 8199SOL    HW225497   5.783   4.884   1.255
 8200SOL     OW25498   4.183   3.518   1.845
 8200SOL    HW125499   4.249   3.581   1.802
 8200SOL    HW225500   4.222   3.482   1.930
 8201SOL     OW25501   6.689   0.746   4.855
 8201SOL    HW125502   6.635   0.690   4.917
 8201SOL    HW225503   6.699   0.838   4.892
 8202SOL     OW25504   1.538   3.942   4.242
 8202SOL    HW125505   1.628   3.899   4.239
 8202SOL    HW225506   1.528   4.004   4.165
 8203SOL     OW25507   6.070   4.374   0.179
 8203SOL    HW125508   6.102   4.419   0.263
 8203SOL    HW225509   6.105   4.423   0.100
 8204SOL     OW25510   3.093   0.464   0.931
 8204SOL    HW125511   3.126   0.398   0.864
 8204SOL    HW225512   3.008   0.506   0.898
 8205SOL     OW25513   5.208   6.332   3.182
 8205SOL    HW125514   5.131   6.385   3.218
 8205SOL    HW225515   5.294   6.372   3.212
 8206SOL     OW25516   3.877   1.913   4.286
 8206SOL    HW125517   3.858   2.004   4.323
 8206SOL    HW225518   3.873   1.846   4.361
 8207SOL     OW25519   2.792   5.915   0.028
 8207SOL    HW125520   2.870   5.925   6.993
 8207SOL    HW225521   2.723   5.984   0.007
 8208SOL     OW25522   1.900   5.996   0.161
 8208SOL    HW125523   1.988   6.043   0.154
 8208SOL    HW225524   1.898   5.941   0.245
 8209SOL     OW25525   1.159   5.540   4.941
 8209SOL    HW125526   1.140   5.495   5.028
 8209SOL    HW225527   1.118   5.487   4.867
 8210SOL     OW25528   2.326   1.466   0.121
 8210SOL    HW125529   2.318   1.372   0.155
 8210SOL    HW225530   2.297   1.469   0.025
 8211SOL     OW25531   3.686   3.919   3.423
 8211SOL    HW125532   3.636   4.005   3.429
 8211SOL    HW225533   3.660   3.859   3.499
 8212SOL     OW25534   3.890   5.309   6.982
 8212SOL    HW125535   3.821   5.296   6.911
 8212SOL    HW225536   3.857   5.376   0.022
 8213SOL     OW25537   4.507   4.455   1.715
 8213SOL    HW125538   4.487   4.545   1.756
 8213SOL    HW225539   4.484   4.384   1.781
 8214SOL     OW25540   3.733   5.254   3.065
 8214SOL    HW125541   3.677   5.205   3.132
 8214SOL    HW225542   3.744   5.197   2.983
 8215SOL     OW25543   2.198   6.078   6.424
 8215SOL    HW125544   2.116   6.079   6.481
 8215SOL    HW225545   2.208   6.167   6.379
 8216SOL     OW25546   5.177   6.008   1.330
 8216SOL    HW125547   5.192   5.909   1.334
 8216SOL    HW225548   5.092   6.027   1.280
 8217SOL     OW25549   3.776   6.751   4.035
 8217SOL    HW125550   3.704   6.806   4.078
 8217SOL    HW225551   3.859   6.806   4.026
 8218SOL     OW25552   2.125   6.485   4.748
 8218SOL    HW125553   2.185   6.433   4.688
 8218SOL    HW225554   2.148   6.582   4.743
 8219SOL     OW25555   4.103   3.291   3.161
 8219SOL    HW125556   4.086   3.233   3.241
 8219SOL    HW225557   4.200   3.317   3.159
 8220SOL     OW25558   3.953   3.980   5.598
 8220SOL    HW125559   3.876   3.938   5.645
 8220SOL    HW225560   3.933   4.077   5.582
 8221SOL     OW25561   6.555   3.433   4.028
 8221SOL    HW125562   6.605   3.406   4.110
 8221SOL    HW225563   6.591   3.520   3.994
 8222SOL     OW25564   6.036   2.916   6.952
 8222SOL    HW125565   6.106   2.949   6.889
 8222SOL    HW225566   5.996   2.832   6.917
 8223SOL     OW25567   1.675   6.345   5.468
 8223SOL    HW125568   1.707   6.432   5.503
 8223SOL    HW225569   1.580   6.331   5.494
 8224SOL     OW25570   5.669   1.504   6.056
 8224SOL    HW125571   5.630   1.594   6.035
 8224SOL    HW225572   5.746   1.515   6.119
 8225SOL     OW25573   5.834   3.118   0.082
 8225SOL    HW125574   5.795   3.073   0.163
 8225SOL    HW225575   5.908   3.062   0.046
 8226SOL     OW25576   3.549   1.308   6.997
 8226SOL    HW125577   3.576   1.243   0.042
 8226SOL    HW225578   3.559   1.265   6.908
 8227SOL     OW25579   4.652   2.721   2.845
 8227SOL    HW125580   4.682   2.727   2.940
 8227SOL    HW225581   4.710   2.779   2.788
 8228SOL     OW25582   3.127   0.928   4.878
 8228SOL    HW125583   3.062   0.866   4.923
 8228SOL    HW225584   3.092   0.952   4.787
 8229SOL     OW25585   4.676   5.000   1.085
 8229SOL    HW125586   4.658   4.909   1.123
 8229SOL    HW225587   4.606   5.064   1.116
 8230SOL     OW25588   5.925   1.263   6.058
 8230SOL    HW125589   5.854   1.254   5.988
 8230SOL    HW225590   5.882   1.267   6.148
 8231SOL     OW25591   3.218   1.457   2.204
 8231SOL    HW125592   3.277   1.537   2.218
 8231SOL    HW225593   3.211   1.406   2.290
 8232SOL     OW25594   3.869   6.267   3.034
 8232SOL    HW125595   3.797   6.307   2.978
 8232SOL    HW225596   3.957   6.305   3.009
 8233SOL     OW25597   2.206   1.460   6.863
 8233SOL    HW125598   2.170   1.543   6.820
 8233SOL    HW225599   2.151   1.382   6.836
 8234SOL     OW25600   1.405   2.777   0.017
 8234SOL    HW125601   1.419   2.714   6.968
 8234SOL    HW225602   1.419   2.728   0.103
 8235SOL     OW25603   0.589   0.743   1.245
 8235SOL    HW125604   0.513   0.740   1.179
 8235SOL    HW225605   0.606   0.651   1.280
 8236SOL     OW25606   0.673   0.116   1.189
 8236SOL    HW125607   0.746   0.080   1.248
 8236SOL    HW225608   0.711   0.137   1.099
 8237SOL     OW25609   4.000   4.896   5.300
 8237SOL    HW125610   4.007   4.946   5.387
 8237SOL    HW225611   4.058   4.940   5.232
 8238SOL     OW25612   0.321   5.589   0.369
 8238SOL    HW125613   0.361   5.500   0.347
 8238SOL    HW225614   0.271   5.623   0.289
 8239SOL     OW25615   3.630   1.946   5.329
 8239SOL    HW125616   3.713   1.930   5.275
 8239SOL    HW225617   3.587   2.031   5.301
 8240SOL     OW25618   3.672   4.262   5.072
 8240SOL    HW125619   3.662   4.361   5.056
 8240SOL    HW225620   3.633   4.239   5.161
 8241SOL     OW25621   0.889   3.211   5.384
 8241SOL    HW125622   0.844   3.300   5.389
 8241SOL    HW225623   0.962   3.215   5.315
 8242SOL     OW25624   0.330   2.626   2.539
 8242SOL    HW125625   0.413   2.569   2.540
 8242SOL    HW225626   0.251   2.569   2.561
 8243SOL     OW25627   1.565   6.814   3.557
 8243SOL    HW125628   1.596   6.737   3.614
 8243SOL    HW225629   1.579   6.899   3.607
 8244SOL     OW25630   5.954   0.374   4.019
 8244SOL    HW125631   6.044   0.358   4.061
 8244SOL    HW225632   5.960   0.450   3.955
 8245SOL     OW25633   4.973   2.864   2.463
 8245SOL    HW125634   4.942   2.837   2.372
 8245SOL    HW225635   5.071   2.845   2.472
 8246SOL     OW25636   1.965   4.203   6.525
 8246SOL    HW125637   1.930   4.125   6.474
 8246SOL    HW225638   2.054   4.231   6.488
 8247SOL     OW25639   2.710   4.848   3.345
 8247SOL    HW125640   2.686   4.827   3.440
 8247SOL    HW225641   2.810   4.852   3.336
 8248SOL     OW25642   6.865   5.623   3.229
 8248SOL    HW125643   6.784   5.630   3.287
 8248SOL    HW225644   6.946   5.648   3.281
 8249SOL     OW25645   3.114   1.223   6.431
 8249SOL    HW125646   3.046   1.269   6.489
 8249SOL    HW225647   3.068   1.154   6.374
 8250SOL     OW25648   1.606   1.966   6.902
 8250SOL    HW125649   1.552   2.041   6.866
 8250SOL    HW225650   1.650   1.994   6.988
 8251SOL     OW25651   1.241   1.763   5.513
 8251SOL    HW125652   1.226   1.825   5.590
 8251SOL    HW225653   1.224   1.812   5.428
 8252SOL     OW25654   0.744   1.939   6.605
 8252SOL    HW125655   0.764   2.014   6.541
 8252SOL    HW225656   0.820   1.929   6.669
 8253SOL     OW25657   5.622   4.609   6.194
 8253SOL    HW125658   5.568   4.529   6.219
 8253SOL    HW225659   5.561   4.688   6.183
 8254SOL     OW25660   5.905   5.779   0.288
 8254SOL    HW125661   5.949   5.780   0.198
 8254SOL    HW225662   5.806   5.791   0.276
 8255SOL     OW25663   1.024   0.381   5.388
 8255SOL    HW125664   1.080   0.439   5.328
 8255SOL    HW225665   0.928   0.393   5.364
 8256SOL     OW25666   1.339   6.158   3.943
 8256SOL    HW125667   1.417   6.100   3.920
 8256SOL    HW225668   1.327   6.228   3.873
 8257SOL     OW25669   4.961   3.134   3.603
 8257SOL    HW125670   5.029   3.106   3.535
 8257SOL    HW225671   4.978   3.229   3.631
 8258SOL     OW25672   0.198   2.492   3.166
 8258SOL    HW125673   0.189   2.587   3.135
 8258SOL    HW225674   0.119   2.439   3.135
 8259SOL     OW25675   5.735   2.263   4.135
 8259SOL    HW125676   5.665   2.269   4.206
 8259SOL    HW225677   5.720   2.334   4.066
 8260SOL     OW25678   5.070   2.792   6.463
 8260SOL    HW125679   5.023   2.726   6.521
 8260SOL    HW225680   5.014   2.812   6.383
 8261SOL     OW25681   6.231   1.448   2.977
 8261SOL    HW125682   6.225   1.548   2.971
 8261SOL    HW225683   6.227   1.409   2.885
 8262SOL     OW25684   5.057   4.237   2.063
 8262SOL    HW125685   5.104   4.198   1.984
 8262SOL    HW225686   5.050   4.336   2.053
 8263SOL     OW25687   6.382   1.841   6.168
 8263SOL    HW125688   6.471   1.877   6.141
 8263SOL    HW225689   6.315   1.859   6.096
 8264SOL     OW25690   2.878   0.901   1.482
 8264SOL    HW125691   2.952   0.843   1.515
 8264SOL    HW225692   2.852   0.966   1.554
 8265SOL     OW25693   4.802   5.777   0.091
 8265SOL    HW125694   4.756   5.848   0.038
 8265SOL    HW225695   4.746   5.752   0.170
 8266SOL     OW25696   3.214   1.370   3.025
 8266SOL    HW125697   3.136   1.412   3.071
 8266SOL    HW225698   3.277   1.441   2.994
 8267SOL     OW25699   1.789   2.732   3.091
 8267SOL    HW125700   1.710   2.717   3.150
 8267SOL    HW225701   1.792   2.828   3.064
 8268SOL     OW25702   2.983   4.623   0.898
 8268SOL    HW125703   2.935   4.561   0.961
 8268SOL    HW225704   3.063   4.577   0.860
 8269SOL     OW25705   6.412   2.247   4.678
 8269SOL    HW125706   6.323   2.261   4.722
 8269SOL    HW225707   6.436   2.327   4.624
 8270SOL     OW25708   3.530   4.688   6.810
 8270SOL    HW125709   3.623   4.667   6.778
 8270SOL    HW225710   3.536   4.735   6.898
 8271SOL     OW25711   3.679   0.001   5.719
 8271SOL    HW125712   3.735   6.952   5.686
 8271SOL    HW225713   3.736   0.081   5.732
 8272SOL     OW25714   0.405   0.533   1.962
 8272SOL    HW125715   0.486   0.589   1.979
 8272SOL    HW225716   0.330   0.592   1.932
 8273SOL     OW25717   3.902   0.191   6.701
 8273SOL    HW125718   3.988   0.231   6.671
 8273SOL    HW225719   3.872   0.122   6.634
 8274SOL     OW25720   5.415   6.229   4.872
 8274SOL    HW125721   5.355   6.223   4.792
 8274SOL    HW225722   5.372   6.285   4.942
 8275SOL     OW25723   4.641   1.512   5.271
 8275SOL    HW125724   4.588   1.484   5.190
 8275SOL    HW225725   4.736   1.486   5.258
 8276SOL     OW25726   5.753   2.983   0.711
 8276SOL    HW125727   5.697   2.900   0.713
 8276SOL    HW225728   5.848   2.959   0.692
 8277SOL     OW25729   1.133   6.923   1.330
 8277SOL    HW125730   1.213   6.955   1.280
 8277SOL    HW225731   1.159   6.850   1.393
 8278SOL     OW25732   1.237   0.681   1.028
 8278SOL    HW125733   1.294   0.600   1.045
 8278SOL    HW225734   1.246   0.707   0.931
 8279SOL     OW25735   4.673   5.789   6.020
 8279SOL    HW125736   4.669   5.870   5.960
 8279SOL    HW225737   4.645   5.815   6.112
 8280SOL     OW25738   5.448   4.479   6.404
 8280SOL    HW125739   5.382   4.435   6.344
 8280SOL    HW225740   5.405   4.556   6.451
 8281SOL     OW25741   3.250   4.917   6.147
 8281SOL    HW125742   3.167   4.861   6.147
 8281SOL    HW225743   3.277   4.939   6.053
 8282SOL     OW25744   4.372   2.985   1.115
 8282SOL    HW125745   4.360   2.916   1.044
 8282SOL    HW225746   4.291   2.985   1.175
 8283SOL     OW25747   0.699   6.981   2.999
 8283SOL    HW125748   0.761   6.914   3.040
 8283SOL    HW225749   0.631   7.009   3.067
 8284SOL     OW25750   5.291   2.304   2.243
 8284SOL    HW125751   5.384   2.305   2.208
 8284SOL    HW225752   5.236   2.370   2.193
 8285SOL     OW25753   1.117   4.336   0.598
 8285SOL    HW125754   1.071   4.425   0.604
 8285SOL    HW225755   1.205   4.340   0.645
 8286SOL     OW25756   6.438   2.406   6.797
 8286SOL    HW125757   6.349   2.366   6.818
 8286SOL    HW225758   6.428   2.503   6.778
 8287SOL     OW25759   1.047   0.902   3.114
 8287SOL    HW125760   1.050   0.803   3.104
 8287SOL    HW225761   1.102   0.945   3.042
 8288SOL     OW25762   2.272   0.215   2.165
 8288SOL    HW125763   2.292   0.138   2.226
 8288SOL    HW225764   2.259   0.182   2.072
 8289SOL     OW25765   6.037   6.989   0.396
 8289SOL    HW125766   6.074   6.901   0.425
 8289SOL    HW225767   5.981   0.001   0.469
 8290SOL     OW25768   5.258   2.772   1.861
 8290SOL    HW125769   5.226   2.849   1.915
 8290SOL    HW225770   5.192   2.697   1.868
 8291SOL     OW25771   5.121   5.644   6.753
 8291SOL    HW125772   5.117   5.704   6.674
 8291SOL    HW225773   5.123   5.699   6.837
 8292SOL     OW25774   0.319   3.738   5.297
 8292SOL    HW125775   0.258   3.700   5.367
 8292SOL    HW225776   0.332   3.672   5.224
 8293SOL     OW25777   3.171   4.907   3.824
 8293SOL    HW125778   3.258   4.892   3.871
 8293SOL    HW225779   3.104   4.941   3.890
 8294SOL     OW25780   6.360   3.471   5.651
 8294SOL    HW125781   6.320   3.446   5.739
 8294SOL    HW225782   6.455   3.499   5.665
 8295SOL     OW25783   4.815   5.211   2.724
 8295SOL    HW125784   4.764   5.215   2.810
 8295SOL    HW225785   4.861   5.123   2.716
 8296SOL     OW25786   3.561   0.667   2.536
 8296SOL    HW125787   3.602   0.679   2.626
 8296SOL    HW225788   3.539   0.570   2.522
 8297SOL     OW25789   5.674   4.120   1.825
 8297SOL    HW125790   5.741   4.166   1.766
 8297SOL    HW225791   5.710   4.117   1.919
 8298SOL     OW25792   6.641   6.195   1.039
 8298SOL    HW125793   6.680   6.159   0.954
 8298SOL    HW225794   6.709   6.191   1.112
 8299SOL     OW25795   1.335   3.002   6.357
 8299SOL    HW125796   1.287   2.991   6.269
 8299SOL    HW225797   1.431   2.978   6.345
 8300SOL     OW25798   5.908   5.391   4.508
 8300SOL    HW125799   5.848   5.329   4.559
 8300SOL    HW225800   5.862   5.421   4.424
 8301SOL     OW25801   6.827   5.022   0.423
 8301SOL    HW125802   6.915   5.008   0.379
 8301SOL    HW225803   6.841   5.059   0.515
 8302SOL     OW25804   3.772   6.743   5.761
 8302SOL    HW125805   3.757   6.646   5.741
 8302SOL    HW225806   3.801   6.753   5.856
 8303SOL     OW25807   1.163   4.948   4.054
 8303SOL    HW125808   1.236   4.945   3.985
 8303SOL    HW225809   1.195   4.996   4.135
 8304SOL     OW25810   6.696   2.559   3.985
 8304SOL    HW125811   6.788   2.593   3.962
 8304SOL    HW225812   6.703   2.463   4.011
 8305SOL     OW25813   4.772   0.026   5.267
 8305SOL    HW125814   4.858   7.015   5.302
 8305SOL    HW225815   4.778   0.035   5.168
 8306SOL     OW25816   5.562   0.721   3.802
 8306SOL    HW125817   5.498   0.786   3.843
 8306SOL    HW225818   5.642   0.711   3.860
 8307SOL     OW25819   0.553   4.998   4.062
 8307SOL    HW125820   0.622   4.964   3.998
 8307SOL    HW225821   0.593   5.003   4.154
 8308SOL     OW25822   1.351   5.278   0.576
 8308SOL    HW125823   1.387   5.249   0.664
 8308SOL    HW225824   1.304   5.202   0.532
 8309SOL     OW25825   6.440   4.761   3.096
 8309SOL    HW125826   6.506   4.781   3.024
 8309SOL    HW225827   6.482   4.779   3.185
 8310SOL     OW25828   2.661   6.630   3.071
 8310SOL    HW125829   2.750   6.675   3.062
 8310SOL    HW225830   2.600   6.687   3.126
 8311SOL     OW25831   4.333   6.305   2.205
 8311SOL    HW125832   4.254   6.324   2.146
 8311SOL    HW225833   4.329   6.363   2.286
 8312SOL     OW25834   6.824   2.032   0.501
 8312SOL    HW125835   6.836   1.947   0.552
 8312SOL    HW225836   6.841   2.110   0.560
 8313SOL     OW25837   5.395   3.154   5.992
 8313SOL    HW125838   5.455   3.075   5.981
 8313SOL    HW225839   5.311   3.125   6.038
 8314SOL     OW25840   4.184   5.465   3.892
 8314SOL    HW125841   4.277   5.444   3.863
 8314SOL    HW225842   4.137   5.516   3.820
 8315SOL     OW25843   3.275   2.936   6.759
 8315SOL    HW125844   3.202   2.908   6.696
 8315SOL    HW225845   3.263   2.890   6.847
 8316SOL     OW25846   1.471   1.791   5.175
 8316SOL    HW125847   1.459   1.706   5.227
 8316SOL    HW225848   1.510   1.770   5.086
 8317SOL     OW25849   1.332   2.208   5.199
 8317SOL    HW125850   1.385   2.265   5.136
 8317SOL    HW225851   1.392   2.140   5.240
 8318SOL     OW25852   4.499   6.580   5.932
 8318SOL    HW125853   4.456   6.636   6.002
 8318SOL    HW225854   4.598   6.595   5.933
 8319SOL     OW25855   2.464   5.661   0.050
 8319SOL    HW125856   2.423   5.673   6.987
 8319SOL    HW225857   2.412   5.713   0.117
 8320SOL     OW25858   3.932   4.269   5.654
 8320SOL    HW125859   3.911   4.307   5.744
 8320SOL    HW225860   3.887   4.323   5.584
 8321SOL     OW25861   0.318   0.520   0.631
 8321SOL    HW125862   0.328   0.566   0.543
 8321SOL    HW225863   0.356   0.577   0.704
 8322SOL     OW25864   1.481   0.904   1.053
 8322SOL    HW125865   1.407   0.957   1.095
 8322SOL    HW225866   1.496   0.937   0.960
 8323SOL     OW25867   5.735   4.811   6.958
 8323SOL    HW125868   5.684   4.883   6.910
 8323SOL    HW225869   5.827   4.844   6.979
 8324SOL     OW25870   5.208   6.439   6.472
 8324SOL    HW125871   5.186   6.343   6.490
 8324SOL    HW225872   5.249   6.480   6.554
 8325SOL     OW25873   1.415   6.212   4.759
 8325SOL    HW125874   1.343   6.257   4.813
 8325SOL    HW225875   1.500   6.264   4.766
 8326SOL     OW25876   2.120   2.061   6.626
 8326SOL    HW125877   2.185   2.029   6.557
 8326SOL    HW225878   2.153   2.146   6.667
 8327SOL     OW25879   1.186   6.729   5.004
 8327SOL    HW125880   1.202   6.824   4.977
 8327SOL    HW225881   1.200   6.719   5.102
 8328SOL     OW25882   0.951   6.469   0.994
 8328SOL    HW125883   1.042   6.434   0.976
 8328SOL    HW225884   0.952   6.523   1.078
 8329SOL     OW25885   1.528   2.550   5.329
 8329SOL    HW125886   1.435   2.583   5.313
 8329SOL    HW225887   1.533   2.453   5.305
 8330SOL     OW25888   2.759   6.620   0.295
 8330SOL    HW125889   2.748   6.534   0.245
 8330SOL    HW225890   2.670   6.655   0.322
 8331SOL     OW25891   2.227   2.507   5.778
 8331SOL    HW125892   2.148   2.553   5.737
 8331SOL    HW225893   2.311   2.544   5.740
 8332SOL     OW25894   5.486   4.031   1.264
 8332SOL    HW125895   5.505   4.102   1.332
 8332SOL    HW225896   5.552   4.038   1.189
 8333SOL     OW25897   2.771   4.496   6.359
 8333SOL    HW125898   2.798   4.420   6.418
 8333SOL    HW225899   2.847   4.518   6.298
 8334SOL     OW25900   3.327   2.358   5.405
 8334SOL    HW125901   3.320   2.258   5.412
 8334SOL    HW225902   3.265   2.390   5.334
 8335SOL     OW25903   5.061   4.181   5.858
 8335SOL    HW125904   5.060   4.273   5.896
 8335SOL    HW225905   5.081   4.185   5.760
 8336SOL     OW25906   1.067   3.912   3.617
 8336SOL    HW125907   1.085   3.816   3.639
 8336SOL    HW225908   0.969   3.925   3.601
 8337SOL     OW25909   6.834   1.369   4.242
 8337SOL    HW125910   6.875   1.446   4.193
 8337SOL    HW225911   6.906   1.320   4.292
 8338SOL     OW25912   2.489   5.889   1.268
 8338SOL    HW125913   2.558   5.845   1.210
 8338SOL    HW225914   2.398   5.856   1.243
 8339SOL     OW25915   6.104   0.472   1.903
 8339SOL    HW125916   6.170   0.532   1.859
 8339SOL    HW225917   6.130   0.377   1.887
 8340SOL     OW25918   5.939   2.641   6.634
 8340SOL    HW125919   5.925   2.609   6.728
 8340SOL    HW225920   5.895   2.729   6.622
 8341SOL     OW25921   3.904   0.314   0.969
 8341SOL    HW125922   3.857   0.257   0.901
 8341SOL    HW225923   3.843   0.331   1.046
 8342SOL     OW25924   4.082   1.087   0.531
 8342SOL    HW125925   4.005   1.143   0.500
 8342SOL    HW225926   4.062   0.991   0.513
 8343SOL     OW25927   5.588   5.726   2.972
 8343SOL    HW125928   5.538   5.651   2.927
 8343SOL    HW225929   5.686   5.708   2.968
 8344SOL     OW25930   2.281   4.917   6.367
 8344SOL    HW125931   2.298   4.822   6.394
 8344SOL    HW225932   2.349   4.945   6.300
 8345SOL     OW25933   6.032   7.014   3.833
 8345SOL    HW125934   6.090   7.023   3.752
 8345SOL    HW225935   6.049   0.064   3.894
 8346SOL     OW25936   5.963   3.659   4.065
 8346SOL    HW125937   6.028   3.632   3.994
 8346SOL    HW225938   5.869   3.645   4.032
 8347SOL     OW25939   1.572   1.492   6.007
 8347SOL    HW125940   1.639   1.480   6.081
 8347SOL    HW225941   1.525   1.406   5.990
 8348SOL     OW25942   3.337   5.552   1.722
 8348SOL    HW125943   3.321   5.641   1.764
 8348SOL    HW225944   3.419   5.511   1.762
 8349SOL     OW25945   4.266   6.172   1.774
 8349SOL    HW125946   4.328   6.120   1.832
 8349SOL    HW225947   4.255   6.126   1.686
 8350SOL     OW25948   0.958   0.240   0.039
 8350SOL    HW125949   0.981   0.333   0.011
 8350SOL    HW225950   1.040   0.183   0.040
 8351SOL     OW25951   0.078   2.665   2.986
 8351SOL    HW125952   7.019   2.635   2.946
 8351SOL    HW225953   0.068   2.758   3.021
 8352SOL     OW25954   2.904   6.644   6.425
 8352SOL    HW125955   2.920   6.733   6.383
 8352SOL    HW225956   2.913   6.572   6.357
 8353SOL     OW25957   0.446   6.227   2.654
 8353SOL    HW125958   0.484   6.241   2.745
 8353SOL    HW225959   0.427   6.315   2.611
 8354SOL     OW25960   4.454   2.035   2.983
 8354SOL    HW125961   4.507   2.076   3.057
 8354SOL    HW225962   4.419   1.946   3.012
 8355SOL     OW25963   2.846   5.081   6.121
 8355SOL    HW125964   2.770   5.135   6.086
 8355SOL    HW225965   2.812   5.012   6.185
 8356SOL     OW25966   2.972   4.485   1.368
 8356SOL    HW125967   2.997   4.555   1.435
 8356SOL    HW225968   2.873   4.476   1.363
 8357SOL     OW25969   3.462   6.917   4.578
 8357SOL    HW125970   3.514   6.839   4.612
 8357SOL    HW225971   3.524   6.982   4.534
 8358SOL     OW25972   0.351   1.067   4.406
 8358SOL    HW125973   0.389   1.001   4.472
 8358SOL    HW225974   0.345   1.157   4.448
 8359SOL     OW25975   4.244   2.443   5.774
 8359SOL    HW125976   4.178   2.508   5.736
 8359SOL    HW225977   4.195   2.366   5.814
 8360SOL     OW25978   3.573   6.702   1.742
 8360SOL    HW125979   3.478   6.671   1.741
 8360SOL    HW225980   3.598   6.740   1.653
 8361SOL     OW25981   4.841   1.370   0.547
 8361SOL    HW125982   4.927   1.349   0.593
 8361SOL    HW225983   4.803   1.455   0.584
 8362SOL     OW25984   0.117   3.811   1.339
 8362SOL    HW125985   0.209   3.848   1.330
 8362SOL    HW225986   0.060   3.842   1.263
 8363SOL     OW25987   1.047   2.602   1.300
 8363SOL    HW125988   1.076   2.519   1.348
 8363SOL    HW225989   1.017   2.579   1.208
 8364SOL     OW25990   0.670   2.197   3.989
 8364SOL    HW125991   0.692   2.105   3.955
 8364SOL    HW225992   0.709   2.265   3.928
 8365SOL     OW25993   1.342   2.792   1.582
 8365SOL    HW125994   1.370   2.696   1.584
 8365SOL    HW225995   1.307   2.814   1.491
 8366SOL     OW25996   4.912   5.885   2.198
 8366SOL    HW125997   4.827   5.878   2.250
 8366SOL    HW225998   4.961   5.799   2.201
 8367SOL     OW25999   2.017   4.537   3.304
 8367SOL    HW126000   2.035   4.633   3.281
 8367SOL    HW226001   2.036   4.523   3.401
 8368SOL     OW26002   6.347   4.704   5.624
 8368SOL    HW126003   6.307   4.738   5.709
 8368SOL    HW226004   6.337   4.773   5.552
 8369SOL     OW26005   1.833   7.021   6.970
 8369SOL    HW126006   1.853   6.927   6.941
 8369SOL    HW226007   1.876   0.058   6.908
 8370SOL     OW26008   3.233   2.781   0.548
 8370SOL    HW126009   3.253   2.696   0.499
 8370SOL    HW226010   3.251   2.859   0.488
 8371SOL     OW26011   2.990   4.017   6.308
 8371SOL    HW126012   2.979   3.921   6.334
 8371SOL    HW226013   3.022   4.069   6.387
 8372SOL     OW26014   1.786   0.147   1.717
 8372SOL    HW126015   1.754   0.145   1.812
 8372SOL    HW226016   1.786   0.055   1.680
 8373SOL     OW26017   6.192   0.350   4.295
 8373SOL    HW126018   6.156   0.436   4.260
 8373SOL    HW226019   6.226   0.364   4.389
 8374SOL     OW26020   0.865   1.418   3.149
 8374SOL    HW126021   0.908   1.449   3.234
 8374SOL    HW226022   0.767   1.404   3.164
 8375SOL     OW26023   1.832   1.982   5.382
 8375SOL    HW126024   1.881   2.051   5.329
 8375SOL    HW226025   1.885   1.897   5.383
 8376SOL     OW26026   1.293   1.775   3.615
 8376SOL    HW126027   1.309   1.840   3.689
 8376SOL    HW226028   1.348   1.800   3.536
 8377SOL     OW26029   3.466   5.227   1.024
 8377SOL    HW126030   3.389   5.250   0.965
 8377SOL    HW226031   3.489   5.307   1.081
 8378SOL     OW26032   4.255   5.315   4.837
 8378SOL    HW126033   4.309   5.318   4.921
 8378SOL    HW226034   4.310   5.348   4.760
 8379SOL     OW26035   6.131   2.121   1.942
 8379SOL    HW126036   6.221   2.110   1.984
 8379SOL    HW226037   6.071   2.045   1.969
 8380SOL     OW26038   0.688   5.998   2.299
 8380SOL    HW126039   0.686   5.899   2.294
 8380SOL    HW226040   0.777   6.029   2.334
 8381SOL     OW26041   1.336   1.972   2.320
 8381SOL    HW126042   1.397   2.015   2.386
 8381SOL    HW226043   1.290   2.042   2.266
 8382SOL     OW26044   0.466   6.893   1.722
 8382SOL    HW126045   0.406   6.971   1.701
 8382SOL    HW226046   0.480   6.839   1.639
 8383SOL     OW26047   2.937   6.904   5.659
 8383SOL    HW126048   3.030   6.879   5.632
 8383SOL    HW226049   2.874   6.889   5.583
 8384SOL     OW26050   0.609   3.324   3.072
 8384SOL    HW126051   0.527   3.315   3.128
 8384SOL    HW226052   0.617   3.244   3.011
 8385SOL     OW26053   4.682   2.129   2.088
 8385SOL    HW126054   4.644   2.199   2.148
 8385SOL    HW226055   4.611   2.094   2.027
 8386SOL     OW26056   0.892   5.376   1.458
 8386SOL    HW126057   0.836   5.296   1.438
 8386SOL    HW226058   0.859   5.453   1.403
 8387SOL     OW26059   0.996   1.555   2.949
 8387SOL    HW126060   0.960   1.548   2.856
 8387SOL    HW226061   0.957   1.482   3.006
 8388SOL     OW26062   4.067   5.033   1.591
 8388SOL    HW126063   4.152   5.031   1.644
 8388SOL    HW226064   4.024   4.942   1.592
 8389SOL     OW26065   1.464   2.816   3.568
 8389SOL    HW126066   1.427   2.900   3.608
 8389SOL    HW226067   1.564   2.822   3.564
 8390SOL     OW26068   2.898   0.481   6.558
 8390SOL    HW126069   2.985   0.487   6.607
 8390SOL    HW226070   2.828   0.531   6.610
 8391SOL     OW26071   4.657   6.234   0.729
 8391SOL    HW126072   4.696   6.150   0.768
 8391SOL    HW226073   4.564   6.245   0.762
 8392SOL     OW26074   4.522   6.188   0.272
 8392SOL    HW126075   4.504   6.252   0.198
 8392SOL    HW226076   4.453   6.116   0.272
 8393SOL     OW26077   0.771   5.092   2.052
 8393SOL    HW126078   0.799   5.062   1.960
 8393SOL    HW226079   0.833   5.163   2.084
 8394SOL     OW26080   1.439   1.534   3.711
 8394SOL    HW126081   1.415   1.623   3.751
 8394SOL    HW226082   1.369   1.467   3.733
 8395SOL     OW26083   1.224   6.581   5.875
 8395SOL    HW126084   1.321   6.559   5.868
 8395SOL    HW226085   1.178   6.555   5.790
 8396SOL     OW26086   4.523   2.425   1.286
 8396SOL    HW126087   4.602   2.466   1.331
 8396SOL    HW226088   4.461   2.387   1.355
 8397SOL     OW26089   1.768   5.103   3.200
 8397SOL    HW126090   1.823   5.176   3.240
 8397SOL    HW226091   1.827   5.030   3.167
 8398SOL     OW26092   6.073   1.702   0.212
 8398SOL    HW126093   6.063   1.698   0.112
 8398SOL    HW226094   5.984   1.683   0.255
 8399SOL     OW26095   5.481   5.663   6.459
 8399SOL    HW126096   5.414   5.627   6.523
 8399SOL    HW226097   5.555   5.707   6.509
 8400SOL     OW26098   6.632   6.569   4.006
 8400SOL    HW126099   6.695   6.517   3.949
 8400SOL    HW226100   6.581   6.507   4.066
 8401SOL     OW26101   2.997   3.584   5.720
 8401SOL    HW126102   2.967   3.661   5.663
 8401SOL    HW226103   3.083   3.608   5.766
 8402SOL     OW26104   4.847   0.197   5.499
 8402SOL    HW126105   4.784   0.163   5.569
 8402SOL    HW226106   4.806   0.185   5.408
 8403SOL     OW26107   0.852   2.965   5.229
 8403SOL    HW126108   0.858   3.050   5.281
 8403SOL    HW226109   0.757   2.934   5.226
 8404SOL     OW26110   4.552   5.012   5.427
 8404SOL    HW126111   4.453   5.023   5.418
 8404SOL    HW226112   4.595   5.022   5.337
 8405SOL     OW26113   2.015   2.467   4.962
 8405SOL    HW126114   1.990   2.448   5.057
 8405SOL    HW226115   1.933   2.476   4.907
 8406SOL     OW26116   5.006   3.808   2.016
 8406SOL    HW126117   5.071   3.852   2.078
 8406SOL    HW226118   4.943   3.876   1.980
 8407SOL     OW26119   4.924   3.524   3.266
 8407SOL    HW126120   4.825   3.538   3.266
 8407SOL    HW226121   4.967   3.590   3.204
 8408SOL     OW26122   5.059   3.608   3.839
 8408SOL    HW126123   5.102   3.675   3.779
 8408SOL    HW226124   5.106   3.606   3.927
 8409SOL     OW26125   0.897   1.358   3.666
 8409SOL    HW126126   0.836   1.405   3.603
 8409SOL    HW226127   0.984   1.408   3.672
 8410SOL     OW26128   2.308   5.646   2.338
 8410SOL    HW126129   2.275   5.553   2.325
 8410SOL    HW226130   2.399   5.643   2.379
 8411SOL     OW26131   1.846   3.420   3.301
 8411SOL    HW126132   1.928   3.395   3.353
 8411SOL    HW226133   1.872   3.467   3.217
 8412SOL     OW26134   6.706   1.939   2.370
 8412SOL    HW126135   6.676   2.020   2.321
 8412SOL    HW226136   6.712   1.862   2.307
 8413SOL     OW26137   1.820   4.927   1.142
 8413SOL    HW126138   1.893   4.859   1.145
 8413SOL    HW226139   1.859   5.017   1.127
 8414SOL     OW26140   6.389   0.566   3.292
 8414SOL    HW126141   6.353   0.513   3.369
 8414SOL    HW226142   6.444   0.642   3.327
 8415SOL     OW26143   6.898   4.296   1.763
 8415SOL    HW126144   6.955   4.215   1.780
 8415SOL    HW226145   6.802   4.273   1.778
 8416SOL     OW26146   4.909   4.303   2.640
 8416SOL    HW126147   4.839   4.294   2.711
 8416SOL    HW226148   4.875   4.363   2.567
 8417SOL     OW26149   1.865   6.003   6.650
 8417SOL    HW126150   1.952   6.019   6.697
 8417SOL    HW226151   1.860   5.908   6.620
 8418SOL     OW26152   6.228   5.732   2.865
 8418SOL    HW126153   6.305   5.776   2.821
 8418SOL    HW226154   6.243   5.729   2.964
 8419SOL     OW26155   5.195   0.244   4.028
 8419SOL    HW126156   5.248   0.160   4.022
 8419SOL    HW226157   5.171   0.261   4.124
 8420SOL     OW26158   4.052   2.645   5.693
 8420SOL    HW126159   4.059   2.745   5.701
 8420SOL    HW226160   3.990   2.611   5.764
 8421SOL     OW26161   0.369   1.066   1.153
 8421SOL    HW126162   0.411   1.120   1.226
 8421SOL    HW226163   0.283   1.028   1.184
 8422SOL     OW26164   3.460   0.085   2.345
 8422SOL    HW126165   3.371   0.045   2.368
 8422SOL    HW226166   3.516   0.092   2.428
 8423SOL     OW26167   2.301   3.603   1.057
 8423SOL    HW126168   2.201   3.610   1.051
 8423SOL    HW226169   2.339   3.581   0.967
 8424SOL     OW26170   2.742   2.664   1.559
 8424SOL    HW126171   2.842   2.659   1.555
 8424SOL    HW226172   2.708   2.717   1.481
 8425SOL     OW26173   6.149   5.076   6.295
 8425SOL    HW126174   6.085   5.140   6.337
 8425SOL    HW226175   6.183   5.114   6.209
 8426SOL     OW26176   3.376   3.680   2.557
 8426SOL    HW126177   3.374   3.720   2.648
 8426SOL    HW226178   3.323   3.595   2.557
 8427SOL     OW26179   2.116   2.179   0.050
 8427SOL    HW126180   2.040   2.127   0.013
 8427SOL    HW226181   2.197   2.121   0.057
 8428SOL     OW26182   6.179   3.940   0.705
 8428SOL    HW126183   6.214   3.854   0.741
 8428SOL    HW226184   6.165   3.932   0.606
 8429SOL     OW26185   1.477   6.719   3.035
 8429SOL    HW126186   1.537   6.646   3.004
 8429SOL    HW226187   1.474   6.719   3.135
 8430SOL     OW26188   5.253   4.159   2.886
 8430SOL    HW126189   5.217   4.238   2.935
 8430SOL    HW226190   5.353   4.158   2.892
 8431SOL     OW26191   2.930   3.416   2.224
 8431SOL    HW126192   2.965   3.483   2.158
 8431SOL    HW226193   2.832   3.404   2.210
 8432SOL     OW26194   4.659   5.984   6.945
 8432SOL    HW126195   4.561   5.985   6.961
 8432SOL    HW226196   4.686   6.069   6.899
 8433SOL     OW26197   0.655   1.329   4.126
 8433SOL    HW126198   0.558   1.309   4.141
 8433SOL    HW226199   0.680   1.307   4.032
 8434SOL     OW26200   5.608   6.334   6.401
 8434SOL    HW126201   5.601   6.331   6.301
 8434SOL    HW226202   5.694   6.380   6.426
 8435SOL     OW26203   4.732   2.124   1.544
 8435SOL    HW126204   4.684   2.190   1.602
 8435SOL    HW226205   4.810   2.169   1.501
 8436SOL     OW26206   3.080   4.419   1.692
 8436SOL    HW126207   3.139   4.349   1.730
 8436SOL    HW226208   3.009   4.443   1.758
 8437SOL     OW26209   0.444   1.664   0.971
 8437SOL    HW126210   0.381   1.624   1.037
 8437SOL    HW226211   0.427   1.624   0.880
 8438SOL     OW26212   1.849   5.738   0.785
 8438SOL    HW126213   1.828   5.641   0.774
 8438SOL    HW226214   1.818   5.769   0.875
 8439SOL     OW26215   5.652   0.432   1.914
 8439SOL    HW126216   5.567   0.389   1.945
 8439SOL    HW226217   5.647   0.450   1.816
 8440SOL     OW26218   1.018   2.931   4.052
 8440SOL    HW126219   1.073   2.889   4.124
 8440SOL    HW226220   0.921   2.918   4.072
 8441SOL     OW26221   4.698   5.772   2.538
 8441SOL    HW126222   4.606   5.770   2.501
 8441SOL    HW226223   4.708   5.700   2.607
 8442SOL     OW26224   2.751   2.869   0.621
 8442SOL    HW126225   2.723   2.951   0.571
 8442SOL    HW226226   2.682   2.798   0.610
 8443SOL     OW26227   0.435   1.656   1.415
 8443SOL    HW126228   0.358   1.596   1.392
 8443SOL    HW226229   0.452   1.719   1.339
 8444SOL     OW26230   3.918   1.327   3.162
 8444SOL    HW126231   3.835   1.382   3.167
 8444SOL    HW226232   3.981   1.366   3.095
 8445SOL     OW26233   4.555   5.639   2.187
 8445SOL    HW126234   4.581   5.723   2.140
 8445SOL    HW226235   4.467   5.652   2.232
 8446SOL     OW26236   0.104   3.054   2.787
 8446SOL    HW126237   0.162   2.988   2.739
 8446SOL    HW226238   0.015   3.059   2.742
 8447SOL     OW26239   4.497   3.750   1.147
 8447SOL    HW126240   4.414   3.806   1.148
 8447SOL    HW226241   4.495   3.686   1.223
 8448SOL     OW26242   1.790   3.293   5.655
 8448SOL    HW126243   1.818   3.197   5.652
 8448SOL    HW226244   1.786   3.324   5.750
 8449SOL     OW26245   0.855   1.083   4.630
 8449SOL    HW126246   0.865   1.163   4.690
 8449SOL    HW226247   0.772   1.092   4.575
 8450SOL     OW26248   1.916   5.564   1.285
 8450SOL    HW126249   1.996   5.549   1.226
 8450SOL    HW226250   1.840   5.509   1.251
 8451SOL     OW26251   3.149   3.234   0.847
 8451SOL    HW126252   3.226   3.170   0.847
 8451SOL    HW226253   3.140   3.275   0.756
 8452SOL     OW26254   0.323   5.503   1.513
 8452SOL    HW126255   0.244   5.464   1.560
 8452SOL    HW226256   0.367   5.433   1.458
 8453SOL     OW26257   6.478   5.503   5.292
 8453SOL    HW126258   6.470   5.596   5.254
 8453SOL    HW226259   6.574   5.482   5.308
 8454SOL     OW26260   2.480   6.809   4.730
 8454SOL    HW126261   2.494   6.842   4.823
 8454SOL    HW226262   2.567   6.811   4.681
 8455SOL     OW26263   6.065   2.609   0.796
 8455SOL    HW126264   6.060   2.634   0.893
 8455SOL    HW226265   6.151   2.641   0.757
 8456SOL     OW26266   5.099   4.952   3.659
 8456SOL    HW126267   5.016   4.921   3.614
 8456SOL    HW226268   5.106   4.910   3.750
 8457SOL     OW26269   6.742   6.129   5.908
 8457SOL    HW126270   6.744   6.207   5.845
 8457SOL    HW226271   6.679   6.060   5.874
 8458SOL     OW26272   1.754   2.323   1.153
 8458SOL    HW126273   1.812   2.278   1.085
 8458SOL    HW226274   1.686   2.258   1.187
 8459SOL     OW26275   2.627   5.138   3.440
 8459SOL    HW126276   2.646   5.041   3.429
 8459SOL    HW226277   2.663   5.189   3.362
 8460SOL     OW26278   4.162   1.373   1.197
 8460SOL    HW126279   4.223   1.447   1.170
 8460SOL    HW226280   4.076   1.411   1.231
 8461SOL     OW26281   5.296   3.846   3.167
 8461SOL    HW126282   5.250   3.935   3.171
 8461SOL    HW226283   5.345   3.838   3.080
 8462SOL     OW26284   1.957   3.766   0.862
 8462SOL    HW126285   1.952   3.859   0.899
 8462SOL    HW226286   1.992   3.769   0.769
 8463SOL     OW26287   6.870   0.436   0.950
 8463SOL    HW126288   6.819   0.423   1.035
 8463SOL    HW226289   6.862   0.355   0.893
 8464SOL     OW26290   6.341   3.873   6.374
 8464SOL    HW126291   6.266   3.909   6.318
 8464SOL    HW226292   6.308   3.855   6.466
 8465SOL     OW26293   5.086   3.559   0.925
 8465SOL    HW126294   5.121   3.565   0.832
 8465SOL    HW226295   5.148   3.607   0.987
 8466SOL     OW26296   0.436   1.550   5.219
 8466SOL    HW126297   0.506   1.483   5.246
 8466SOL    HW226298   0.424   1.547   5.120
 8467SOL     OW26299   3.008   1.581   0.541
 8467SOL    HW126300   2.955   1.599   0.458
 8467SOL    HW226301   3.032   1.484   0.545
 8468SOL     OW26302   5.464   4.384   0.559
 8468SOL    HW126303   5.489   4.304   0.614
 8468SOL    HW226304   5.367   4.405   0.571
 8469SOL     OW26305   3.632   2.873   5.547
 8469SOL    HW126306   3.565   2.805   5.576
 8469SOL    HW226307   3.709   2.872   5.611
 8470SOL     OW26308   1.138   5.788   1.529
 8470SOL    HW126309   1.086   5.786   1.614
 8470SOL    HW226310   1.218   5.728   1.537
 8471SOL     OW26311   4.532   2.128   4.820
 8471SOL    HW126312   4.523   2.140   4.721
 8471SOL    HW226313   4.462   2.064   4.852
 8472SOL     OW26314   5.458   2.171   6.679
 8472SOL    HW126315   5.391   2.101   6.656
 8472SOL    HW226316   5.426   2.224   6.757
 8473SOL     OW26317   5.125   5.234   5.852
 8473SOL    HW126318   5.125   5.329   5.881
 8473SOL    HW226319   5.162   5.177   5.925
 8474SOL     OW26320   2.874   4.053   5.282
 8474SOL    HW126321   2.873   4.151   5.302
 8474SOL    HW226322   2.785   4.014   5.305
 8475SOL     OW26323   6.718   1.537   3.163
 8475SOL    HW126324   6.655   1.593   3.108
 8475SOL    HW226325   6.671   1.455   3.194
 8476SOL     OW26326   6.040   1.486   1.726
 8476SOL    HW126327   6.108   1.518   1.659
 8476SOL    HW226328   6.021   1.389   1.711
 8477SOL     OW26329   5.860   0.898   1.402
 8477SOL    HW126330   5.908   0.823   1.447
 8477SOL    HW226331   5.765   0.901   1.432
 8478SOL     OW26332   0.446   6.594   5.517
 8478SOL    HW126333   0.397   6.538   5.583
 8478SOL    HW226334   0.503   6.536   5.459
 8479SOL     OW26335   0.896   2.837   0.315
 8479SOL    HW126336   0.955   2.797   0.245
 8479SOL    HW226337   0.806   2.793   0.310
 8480SOL     OW26338   3.662   4.453   0.815
 8480SOL    HW126339   3.616   4.372   0.852
 8480SOL    HW226340   3.600   4.532   0.822
 8481SOL     OW26341   4.141   2.282   2.420
 8481SOL    HW126342   4.191   2.316   2.500
 8481SOL    HW226343   4.054   2.244   2.449
 8482SOL     OW26344   4.330   0.804   6.550
 8482SOL    HW126345   4.309   0.839   6.459
 8482SOL    HW226346   4.403   0.859   6.591
 8483SOL     OW26347   4.036   4.824   3.419
 8483SOL    HW126348   4.110   4.860   3.476
 8483SOL    HW226349   4.070   4.745   3.367
 8484SOL     OW26350   5.878   6.151   5.370
 8484SOL    HW126351   5.801   6.097   5.336
 8484SOL    HW226352   5.847   6.245   5.388
 8485SOL     OW26353   4.226   1.171   6.230
 8485SOL    HW126354   4.134   1.209   6.243
 8485SOL    HW226355   4.291   1.245   6.215
 8486SOL     OW26356   5.995   2.494   5.141
 8486SOL    HW126357   5.920   2.556   5.120
 8486SOL    HW226358   5.972   2.402   5.110
 8487SOL     OW26359   6.586   2.603   6.043
 8487SOL    HW126360   6.601   2.629   6.139
 8487SOL    HW226361   6.671   2.613   5.992
 8488SOL     OW26362   4.663   4.260   2.747
 8488SOL    HW126363   4.632   4.293   2.658
 8488SOL    HW226364   4.698   4.167   2.738
 8489SOL     OW26365   6.028   1.906   2.315
 8489SOL    HW126366   6.125   1.923   2.331
 8489SOL    HW226367   5.973   1.964   2.375
 8490SOL     OW26368   2.990   6.613   0.480
 8490SOL    HW126369   2.979   6.693   0.540
 8490SOL    HW226370   2.910   6.605   0.421
 8491SOL     OW26371   3.148   5.423   2.444
 8491SOL    HW126372   3.069   5.470   2.483
 8491SOL    HW226373   3.119   5.364   2.368
 8492SOL     OW26374   6.406   5.980   4.116
 8492SOL    HW126375   6.498   5.988   4.076
 8492SOL    HW226376   6.409   5.919   4.195
 8493SOL     OW26377   4.905   1.015   6.017
 8493SOL    HW126378   4.957   1.054   5.941
 8493SOL    HW226379   4.811   0.998   5.987
 8494SOL     OW26380   6.999   3.055   2.231
 8494SOL    HW126381   6.973   3.148   2.206
 8494SOL    HW226382   0.049   3.057   2.295
 8495SOL     OW26383   5.771   5.784   6.460
 8495SOL    HW126384   5.746   5.881   6.469
 8495SOL    HW226385   5.852   5.765   6.515
 8496SOL     OW26386   5.572   1.907   2.584
 8496SOL    HW126387   5.475   1.897   2.602
 8496SOL    HW226388   5.586   1.980   2.518
 8497SOL     OW26389   0.114   0.406   2.665
 8497SOL    HW126390   0.152   0.455   2.586
 8497SOL    HW226391   0.036   0.351   2.636
 8498SOL     OW26392   4.972   6.408   4.232
 8498SOL    HW126393   4.912   6.473   4.278
 8498SOL    HW226394   4.924   6.322   4.218
 8499SOL     OW26395   5.754   6.911   5.360
 8499SOL    HW126396   5.722   6.817   5.374
 8499SOL    HW226397   5.788   6.921   5.267
 8500SOL     OW26398   0.956   0.514   0.017
 8500SOL    HW126399   0.884   0.573   0.054
 8500SOL    HW226400   1.044   0.539   0.056
 8501SOL     OW26401   2.493   1.052   6.212
 8501SOL    HW126402   2.467   1.009   6.298
 8501SOL    HW226403   2.573   1.005   6.173
 8502SOL     OW26404   6.212   3.245   6.980
 8502SOL    HW126405   6.243   3.261   0.047
 8502SOL    HW226406   6.122   3.287   6.967
 8503SOL     OW26407   4.637   2.481   5.539
 8503SOL    HW126408   4.688   2.549   5.486
 8503SOL    HW226409   4.568   2.527   5.595
 8504SOL     OW26410   0.942   0.027   2.411
 8504SOL    HW126411   0.901   0.101   2.463
 8504SOL    HW226412   1.042   0.031   2.420
 8505SOL     OW26413   5.498   2.055   2.848
 8505SOL    HW126414   5.451   2.136   2.884
 8505SOL    HW226415   5.458   2.029   2.760
 8506SOL     OW26416   1.154   6.589   6.145
 8506SOL    HW126417   1.201   6.579   6.057
 8506SOL    HW226418   1.059   6.615   6.129
 8507SOL     OW26419   3.844   5.280   5.799
 8507SOL    HW126420   3.915   5.277   5.870
 8507SOL    HW226421   3.814   5.375   5.787
 8508SOL     OW26422   3.315   0.857   6.188
 8508SOL    HW126423   3.401   0.890   6.150
 8508SOL    HW226424   3.332   0.814   6.277
 8509SOL     OW26425   5.213   2.249   2.495
 8509SOL    HW126426   5.259   2.246   2.406
 8509SOL    HW226427   5.159   2.333   2.503
 8510SOL     OW26428   0.526   2.144   4.607
 8510SOL    HW126429   0.556   2.230   4.565
 8510SOL    HW226430   0.535   2.070   4.540
 8511SOL     OW26431   6.046   1.747   3.820
 8511SOL    HW126432   6.126   1.801   3.846
 8511SOL    HW226433   5.964   1.803   3.828
 8512SOL     OW26434   2.039   6.003   5.634
 8512SOL    HW126435   1.978   6.076   5.603
 8512SOL    HW226436   2.036   5.996   5.734
 8513SOL     OW26437   4.785   5.803   6.768
 8513SOL    HW126438   4.870   5.779   6.815
 8513SOL    HW226439   4.728   5.859   6.828
 8514SOL     OW26440   3.573   5.340   4.439
 8514SOL    HW126441   3.616   5.430   4.431
 8514SOL    HW226442   3.493   5.336   4.379
 8515SOL     OW26443   6.198   2.429   1.978
 8515SOL    HW126444   6.234   2.437   2.071
 8515SOL    HW226445   6.174   2.334   1.960
 8516SOL     OW26446   6.721   1.584   2.411
 8516SOL    HW126447   6.749   1.497   2.372
 8516SOL    HW226448   6.723   1.655   2.340
 8517SOL     OW26449   1.401   3.569   5.596
 8517SOL    HW126450   1.308   3.598   5.576
 8517SOL    HW226451   1.408   3.542   5.691
 8518SOL     OW26452   2.821   5.967   0.969
 8518SOL    HW126453   2.898   5.951   1.031
 8518SOL    HW226454   2.832   5.911   0.887
 8519SOL     OW26455   2.669   5.873   3.462
 8519SOL    HW126456   2.714   5.787   3.441
 8519SOL    HW226457   2.731   5.930   3.517
 8520SOL     OW26458   3.384   6.414   6.873
 8520SOL    HW126459   3.308   6.437   6.812
 8520SOL    HW226460   3.464   6.389   6.818
 8521SOL     OW26461   1.843   0.024   2.289
 8521SOL    HW126462   1.773   6.985   2.314
 8521SOL    HW226463   1.928   7.003   2.267
 8522SOL     OW26464   2.470   6.503   4.691
 8522SOL    HW126465   2.455   6.598   4.719
 8522SOL    HW226466   2.565   6.478   4.709
 8523SOL     OW26467   1.765   6.762   6.890
 8523SOL    HW126468   1.749   6.774   6.792
 8523SOL    HW226469   1.691   6.706   6.929
 8524SOL     OW26470   1.883   1.423   6.931
 8524SOL    HW126471   1.957   1.388   6.989
 8524SOL    HW226472   1.919   1.494   6.870
 8525SOL     OW26473   6.188   3.348   3.794
 8525SOL    HW126474   6.191   3.446   3.814
 8525SOL    HW226475   6.110   3.329   3.733
 8526SOL     OW26476   1.878   3.307   2.027
 8526SOL    HW126477   1.800   3.322   1.966
 8526SOL    HW226478   1.920   3.395   2.049
 8527SOL     OW26479   4.552   0.212   4.412
 8527SOL    HW126480   4.639   0.176   4.448
 8527SOL    HW226481   4.568   0.252   4.321
 8528SOL     OW26482   5.579   1.720   6.569
 8528SOL    HW126483   5.566   1.810   6.608
 8528SOL    HW226484   5.506   1.659   6.599
 8529SOL     OW26485   6.684   6.464   5.218
 8529SOL    HW126486   6.781   6.440   5.221
 8529SOL    HW226487   6.659   6.493   5.126
 8530SOL     OW26488   1.899   5.093   6.227
 8530SOL    HW126489   1.811   5.115   6.185
 8530SOL    HW226490   1.970   5.153   6.189
 8531SOL     OW26491   4.196   5.252   1.998
 8531SOL    HW126492   4.243   5.304   1.927
 8531SOL    HW226493   4.098   5.266   1.990
 8532SOL     OW26494   1.780   3.990   0.647
 8532SOL    HW126495   1.874   3.962   0.668
 8532SOL    HW226496   1.772   4.089   0.657
 8533SOL     OW26497   3.721   6.490   5.642
 8533SOL    HW126498   3.632   6.456   5.612
 8533SOL    HW226499   3.793   6.436   5.600
 8534SOL     OW26500   1.976   2.556   1.159
 8534SOL    HW126501   2.073   2.547   1.183
 8534SOL    HW226502   1.940   2.467   1.132
 8535SOL     OW26503   0.438   3.368   5.439
 8535SOL    HW126504   0.349   3.405   5.467
 8535SOL    HW226505   0.484   3.328   5.518
 8536SOL     OW26506   5.993   0.950   5.776
 8536SOL    HW126507   6.059   0.913   5.842
 8536SOL    HW226508   5.917   0.992   5.825
 8537SOL     OW26509   4.602   6.359   3.352
 8537SOL    HW126510   4.583   6.282   3.291
 8537SOL    HW226511   4.517   6.397   3.387
 8538SOL     OW26512   5.200   0.200   5.088
 8538SOL    HW126513   5.119   0.226   5.141
 8538SOL    HW226514   5.190   0.231   4.994
 8539SOL     OW26515   1.080   3.055   2.591
 8539SOL    HW126516   1.093   3.145   2.550
 8539SOL    HW226517   0.984   3.042   2.613
 8540SOL     OW26518   4.203   0.411   6.891
 8540SOL    HW126519   4.200   0.313   6.872
 8540SOL    HW226520   4.289   0.449   6.857
 8541SOL     OW26521   2.503   6.516   5.351
 8541SOL    HW126522   2.526   6.549   5.443
 8541SOL    HW226523   2.571   6.450   5.321
 8542SOL     OW26524   1.028   5.380   5.537
 8542SOL    HW126525   1.098   5.355   5.471
 8542SOL    HW226526   1.054   5.346   5.628
 8543SOL     OW26527   2.926   2.289   5.316
 8543SOL    HW126528   3.007   2.312   5.263
 8543SOL    HW226529   2.928   2.338   5.404
 8544SOL     OW26530   5.033   4.248   5.577
 8544SOL    HW126531   4.982   4.176   5.529
 8544SOL    HW226532   5.085   4.302   5.511
 8545SOL     OW26533   1.883   0.018   6.112
 8545SOL    HW126534   1.867   0.114   6.090
 8545SOL    HW226535   1.925   7.000   6.033
 8546SOL     OW26536   3.746   1.675   3.758
 8546SOL    HW126537   3.843   1.698   3.768
 8546SOL    HW226538   3.738   1.582   3.722
 8547SOL     OW26539   5.249   6.290   5.887
 8547SOL    HW126540   5.276   6.366   5.828
 8547SOL    HW226541   5.287   6.205   5.851
 8548SOL     OW26542   1.178   4.551   4.328
 8548SOL    HW126543   1.242   4.599   4.269
 8548SOL    HW226544   1.099   4.521   4.274
 8549SOL     OW26545   2.187   0.368   4.031
 8549SOL    HW126546   2.118   0.380   3.959
 8549SOL    HW226547   2.267   0.423   4.011
 8550SOL     OW26548   0.290   5.059   5.379
 8550SOL    HW126549   0.231   5.092   5.306
 8550SOL    HW226550   0.368   5.011   5.340
 8551SOL     OW26551   3.813   0.927   4.607
 8551SOL    HW126552   3.740   0.961   4.547
 8551SOL    HW226553   3.776   0.912   4.699
 8552SOL     OW26554   3.497   1.770   1.798
 8552SOL    HW126555   3.530   1.853   1.843
 8552SOL    HW226556   3.574   1.721   1.757
 8553SOL     OW26557   4.715   4.058   0.872
 8553SOL    HW126558   4.808   4.093   0.860
 8553SOL    HW226559   4.719   3.966   0.911
 8554SOL     OW26560   1.134   1.092   6.464
 8554SOL    HW126561   1.132   1.087   6.564
 8554SOL    HW226562   1.223   1.061   6.431
 8555SOL     OW26563   3.102   1.886   3.447
 8555SOL    HW126564   3.153   1.945   3.509
 8555SOL    HW226565   3.006   1.916   3.444
 8556SOL     OW26566   0.333   5.462   5.658
 8556SOL    HW126567   0.303   5.499   5.746
 8556SOL    HW226568   0.260   5.407   5.617
 8557SOL     OW26569   6.360   1.036   6.962
 8557SOL    HW126570   6.416   0.995   0.006
 8557SOL    HW226571   6.404   1.023   6.873
 8558SOL     OW26572   3.120   6.559   4.098
 8558SOL    HW126573   3.091   6.464   4.093
 8558SOL    HW226574   3.068   6.614   4.032
 8559SOL     OW26575   1.801   3.395   2.371
 8559SOL    HW126576   1.847   3.459   2.308
 8559SOL    HW226577   1.750   3.328   2.318
 8560SOL     OW26578   3.593   4.022   1.133
 8560SOL    HW126579   3.586   3.933   1.087
 8560SOL    HW226580   3.503   4.064   1.138
 8561SOL     OW26581   4.054   0.678   2.809
 8561SOL    HW126582   4.139   0.627   2.823
 8561SOL    HW226583   4.011   0.697   2.897
 8562SOL     OW26584   5.441   2.566   6.487
 8562SOL    HW126585   5.529   2.554   6.443
 8562SOL    HW226586   5.368   2.556   6.419
 8563SOL     OW26587   2.074   5.286   2.877
 8563SOL    HW126588   2.123   5.343   2.811
 8563SOL    HW226589   2.131   5.208   2.903
 8564SOL     OW26590   3.741   6.023   0.319
 8564SOL    HW126591   3.678   6.010   0.396
 8564SOL    HW226592   3.801   6.100   0.339
 8565SOL     OW26593   1.134   5.238   1.010
 8565SOL    HW126594   1.106   5.207   0.919
 8565SOL    HW226595   1.067   5.209   1.078
 8566SOL     OW26596   3.680   0.681   3.126
 8566SOL    HW126597   3.773   0.685   3.088
 8566SOL    HW226598   3.615   0.718   3.059
 8567SOL     OW26599   1.748   2.472   1.621
 8567SOL    HW126600   1.773   2.380   1.651
 8567SOL    HW226601   1.704   2.521   1.696
 8568SOL     OW26602   6.111   0.518   5.925
 8568SOL    HW126603   6.112   0.579   5.846
 8568SOL    HW226604   6.129   0.571   6.008
 8569SOL     OW26605   5.295   1.744   0.272
 8569SOL    HW126606   5.254   1.793   0.195
 8569SOL    HW226607   5.225   1.727   0.342
 8570SOL     OW26608   2.140   1.627   3.090
 8570SOL    HW126609   2.079   1.553   3.060
 8570SOL    HW226610   2.118   1.711   3.042
 8571SOL     OW26611   1.222   0.438   3.586
 8571SOL    HW126612   1.265   0.501   3.650
 8571SOL    HW226613   1.156   0.380   3.634
 8572SOL     OW26614   3.205   4.127   5.682
 8572SOL    HW126615   3.217   4.112   5.584
 8572SOL    HW226616   3.227   4.222   5.704
 8573SOL     OW26617   2.203   5.875   6.244
 8573SOL    HW126618   2.217   5.935   6.323
 8573SOL    HW226619   2.154   5.793   6.273
 8574SOL     OW26620   5.271   1.598   5.428
 8574SOL    HW126621   5.207   1.523   5.445
 8574SOL    HW226622   5.219   1.683   5.418
 8575SOL     OW26623   3.434   6.553   4.454
 8575SOL    HW126624   3.479   6.509   4.377
 8575SOL    HW226625   3.502   6.577   4.523
 8576SOL     OW26626   1.492   4.476   4.395
 8576SOL    HW126627   1.422   4.534   4.352
 8576SOL    HW226628   1.576   4.529   4.406
 8577SOL     OW26629   2.306   0.405   0.249
 8577SOL    HW126630   2.397   0.447   0.241
 8577SOL    HW226631   2.254   0.452   0.320
 8578SOL     OW26632   0.868   0.063   6.046
 8578SOL    HW126633   0.824   0.072   6.136
 8578SOL    HW226634   0.967   0.060   6.057
 8579SOL     OW26635   3.324   0.153   1.997
 8579SOL    HW126636   3.317   0.251   2.019
 8579SOL    HW226637   3.419   0.125   2.002
 8580SOL     OW26638   2.161   0.492   1.867
 8580SOL    HW126639   2.182   0.395   1.865
 8580SOL    HW226640   2.190   0.535   1.782
 8581SOL     OW26641   3.890   3.938   2.084
 8581SOL    HW126642   3.895   3.839   2.098
 8581SOL    HW226643   3.931   3.960   1.995
 8582SOL     OW26644   4.342   5.577   5.967
 8582SOL    HW126645   4.268   5.511   5.951
 8582SOL    HW226646   4.306   5.653   6.020
 8583SOL     OW26647   2.959   0.220   2.870
 8583SOL    HW126648   2.878   0.236   2.926
 8583SOL    HW226649   2.949   0.266   2.782
 8584SOL     OW26650   6.213   1.776   4.961
 8584SOL    HW126651   6.124   1.749   4.999
 8584SOL    HW226652   6.238   1.866   4.997
 8585SOL     OW26653   4.793   2.389   2.260
 8585SOL    HW126654   4.879   2.437   2.243
 8585SOL    HW226655   4.719   2.436   2.212
 8586SOL     OW26656   5.881   5.682   5.623
 8586SOL    HW126657   5.884   5.781   5.640
 8586SOL    HW226658   5.878   5.633   5.710
 8587SOL     OW26659   6.569   1.715   0.245
 8587SOL    HW126660   6.649   1.655   0.245
 8587SOL    HW226661   6.518   1.702   0.331
 8588SOL     OW26662   1.542   0.719   5.218
 8588SOL    HW126663   1.505   0.654   5.152
 8588SOL    HW226664   1.629   0.686   5.253
 8589SOL     OW26665   5.364   2.969   6.908
 8589SOL    HW126666   5.452   2.950   6.951
 8589SOL    HW226667   5.378   3.032   6.831
 8590SOL     OW26668   1.085   1.553   3.619
 8590SOL    HW126669   1.120   1.516   3.705
 8590SOL    HW226670   1.135   1.637   3.597
 8591SOL     OW26671   0.470   4.275   5.086
 8591SOL    HW126672   0.555   4.265   5.034
 8591SOL    HW226673   0.490   4.274   5.184
 8592SOL     OW26674   6.836   1.959   3.968
 8592SOL    HW126675   6.760   2.024   3.963
 8592SOL    HW226676   6.851   1.932   4.063
 8593SOL     OW26677   6.534   1.276   0.226
 8593SOL    HW126678   6.502   1.216   0.299
 8593SOL    HW226679   6.473   1.269   0.148
 8594SOL     OW26680   5.905   4.274   6.220
 8594SOL    HW126681   5.877   4.324   6.302
 8594SOL    HW226682   5.993   4.309   6.189
 8595SOL     OW26683   5.002   6.512   3.230
 8595SOL    HW126684   4.932   6.507   3.301
 8595SOL    HW226685   4.968   6.566   3.153
 8596SOL     OW26686   1.245   2.576   5.265
 8596SOL    HW126687   1.197   2.528   5.338
 8596SOL    HW226688   1.198   2.663   5.246
 8597SOL     OW26689   5.956   2.380   6.428
 8597SOL    HW126690   5.868   2.386   6.475
 8597SOL    HW226691   6.017   2.318   6.478
 8598SOL     OW26692   6.974   0.567   5.525
 8598SOL    HW126693   6.989   0.530   5.433
 8598SOL    HW226694   0.025   0.544   5.583
 8599SOL     OW26695   6.289   4.414   5.032
 8599SOL    HW126696   6.226   4.373   5.098
 8599SOL    HW226697   6.309   4.348   4.959
 8600SOL     OW26698   4.526   2.788   1.756
 8600SOL    HW126699   4.443   2.753   1.711
 8600SOL    HW226700   4.519   2.887   1.766
 8601SOL     OW26701   5.950   5.829   2.886
 8601SOL    HW126702   6.049   5.832   2.896
 8601SOL    HW226703   5.916   5.737   2.908
 8602SOL     OW26704   1.621   0.183   5.487
 8602SOL    HW126705   1.546   0.210   5.427
 8602SOL    HW226706   1.584   0.137   5.568
 8603SOL     OW26707   0.660   1.169   6.550
 8603SOL    HW126708   0.666   1.121   6.637
 8603SOL    HW226709   0.619   1.109   6.481
 8604SOL     OW26710   1.956   5.486   6.051
 8604SOL    HW126711   2.032   5.430   6.017
 8604SOL    HW226712   1.919   5.446   6.134
 8605SOL     OW26713   0.011   4.582   3.865
 8605SOL    HW126714   7.001   4.495   3.897
 8605SOL    HW226715   6.964   4.647   3.849
 8606SOL     OW26716   1.454   0.528   0.007
 8606SOL    HW126717   1.372   0.582   7.015
 8606SOL    HW226718   1.441   0.436   6.995
 8607SOL     OW26719   2.971   3.193   1.429
 8607SOL    HW126720   2.871   3.197   1.427
 8607SOL    HW226721   3.002   3.103   1.398
 8608SOL     OW26722   1.471   5.624   2.105
 8608SOL    HW126723   1.522   5.669   2.031
 8608SOL    HW226724   1.457   5.528   2.082
 8609SOL     OW26725   4.934   1.938   4.507
 8609SOL    HW126726   5.011   1.882   4.478
 8609SOL    HW226727   4.903   1.909   4.597
 8610SOL     OW26728   6.955   5.403   2.815
 8610SOL    HW126729   6.934   5.308   2.837
 8610SOL    HW226730   0.024   5.422   2.838
 8611SOL     OW26731   2.250   1.184   5.105
 8611SOL    HW126732   2.225   1.280   5.108
 8611SOL    HW226733   2.300   1.159   5.188
 8612SOL     OW26734   3.623   3.604   4.933
 8612SOL    HW126735   3.603   3.623   4.837
 8612SOL    HW226736   3.537   3.588   4.983
 8613SOL     OW26737   3.905   3.193   3.644
 8613SOL    HW126738   3.960   3.267   3.683
 8613SOL    HW226739   3.817   3.229   3.613
 8614SOL     OW26740   0.873   1.875   3.516
 8614SOL    HW126741   0.818   1.956   3.498
 8614SOL    HW226742   0.961   1.901   3.557
 8615SOL     OW26743   3.328   1.739   5.538
 8615SOL    HW126744   3.238   1.754   5.497
 8615SOL    HW226745   3.396   1.725   5.467
 8616SOL     OW26746   5.836   4.433   4.847
 8616SOL    HW126747   5.924   4.468   4.816
 8616SOL    HW226748   5.840   4.333   4.853
 8617SOL     OW26749   1.255   6.870   3.089
 8617SOL    HW126750   1.251   6.956   3.039
 8617SOL    HW226751   1.344   6.827   3.075
 8618SOL     OW26752   5.731   4.083   1.089
 8618SOL    HW126753   5.811   4.143   1.089
 8618SOL    HW226754   5.745   4.009   1.024
 8619SOL     OW26755   5.033   5.983   0.538
 8619SOL    HW126756   5.110   5.963   0.478
 8619SOL    HW226757   4.987   5.898   0.564
 8620SOL     OW26758   1.878   6.311   3.760
 8620SOL    HW126759   1.901   6.246   3.687
 8620SOL    HW226760   1.831   6.390   3.721
 8621SOL     OW26761   5.669   3.434   2.154
 8621SOL    HW126762   5.763   3.468   2.148
 8621SOL    HW226763   5.661   3.350   2.100
 8622SOL     OW26764   0.311   5.386   2.707
 8622SOL    HW126765   0.258   5.358   2.626
 8622SOL    HW226766   0.371   5.311   2.735
 8623SOL     OW26767   1.950   2.048   3.411
 8623SOL    HW126768   2.042   2.050   3.373
 8623SOL    HW226769   1.949   2.095   3.500
 8624SOL     OW26770   3.428   4.256   5.248
 8624SOL    HW126771   3.424   4.223   5.342
 8624SOL    HW226772   3.336   4.280   5.217
 8625SOL     OW26773   4.624   3.436   6.128
 8625SOL    HW126774   4.555   3.507   6.112
 8625SOL    HW226775   4.609   3.396   6.218
 8626SOL     OW26776   5.072   1.940   1.504
 8626SOL    HW126777   5.072   1.901   1.596
 8626SOL    HW226778   5.026   2.029   1.505
 8627SOL     OW26779   1.695   0.161   2.802
 8627SOL    HW126780   1.684   0.248   2.755
 8627SOL    HW226781   1.786   0.124   2.783
 8628SOL     OW26782   0.953   0.012   1.037
 8628SOL    HW126783   0.991   0.098   1.072
 8628SOL    HW226784   0.991   6.962   1.090
 8629SOL     OW26785   0.552   6.732   4.530
 8629SOL    HW126786   0.487   6.670   4.486
 8629SOL    HW226787   0.573   6.808   4.468
 8630SOL     OW26788   4.764   2.724   1.666
 8630SOL    HW126789   4.768   2.626   1.648
 8630SOL    HW226790   4.671   2.749   1.691
 8631SOL     OW26791   2.364   5.744   6.059
 8631SOL    HW126792   2.299   5.807   6.102
 8631SOL    HW226793   2.338   5.728   5.964
 8632SOL     OW26794   6.066   5.350   3.844
 8632SOL    HW126795   5.975   5.330   3.808
 8632SOL    HW226796   6.129   5.276   3.819
 8633SOL     OW26797   6.203   4.273   5.283
 8633SOL    HW126798   6.189   4.351   5.344
 8633SOL    HW226799   6.290   4.229   5.305
 8634SOL     OW26800   5.040   4.840   6.522
 8634SOL    HW126801   5.114   4.906   6.528
 8634SOL    HW226802   4.983   4.847   6.604
 8635SOL     OW26803   4.816   2.808   6.793
 8635SOL    HW126804   4.783   2.899   6.770
 8635SOL    HW226805   4.796   2.788   6.889
 8636SOL     OW26806   4.323   5.909   2.028
 8636SOL    HW126807   4.224   5.897   2.042
 8636SOL    HW226808   4.366   5.935   2.114
 8637SOL     OW26809   1.762   2.381   6.871
 8637SOL    HW126810   1.743   2.332   6.785
 8637SOL    HW226811   1.860   2.380   6.888
 8638SOL     OW26812   4.834   2.775   4.211
 8638SOL    HW126813   4.881   2.862   4.203
 8638SOL    HW226814   4.773   2.763   4.132
 8639SOL     OW26815   3.235   4.521   0.499
 8639SOL    HW126816   3.247   4.570   0.585
 8639SOL    HW226817   3.163   4.567   0.445
 8640SOL     OW26818   4.247   2.562   0.676
 8640SOL    HW126819   4.307   2.486   0.701
 8640SOL    HW226820   4.299   2.647   0.675
 8641SOL     OW26821   3.393   5.065   3.102
 8641SOL    HW126822   3.427   5.103   3.016
 8641SOL    HW226823   3.301   5.100   3.119
 8642SOL     OW26824   2.420   5.953   2.997
 8642SOL    HW126825   2.371   5.867   2.978
 8642SOL    HW226826   2.468   5.944   3.084
 8643SOL     OW26827   3.466   6.424   1.504
 8643SOL    HW126828   3.521   6.461   1.429
 8643SOL    HW226829   3.397   6.492   1.531
 8644SOL     OW26830   5.783   2.631   6.026
 8644SOL    HW126831   5.737   2.655   5.940
 8644SOL    HW226832   5.862   2.574   6.005
 8645SOL     OW26833   5.369   5.462   2.960
 8645SOL    HW126834   5.288   5.472   3.017
 8645SOL    HW226835   5.377   5.541   2.899
 8646SOL     OW26836   0.179   2.937   5.035
 8646SOL    HW126837   0.144   2.847   5.060
 8646SOL    HW226838   0.235   2.973   5.110
 8647SOL     OW26839   1.501   5.327   1.587
 8647SOL    HW126840   1.491   5.284   1.498
 8647SOL    HW226841   1.579   5.286   1.635
 8648SOL     OW26842   4.503   5.296   0.378
 8648SOL    HW126843   4.489   5.265   0.472
 8648SOL    HW226844   4.484   5.394   0.372
 8649SOL     OW26845   5.501   1.472   0.922
 8649SOL    HW126846   5.416   1.429   0.950
 8649SOL    HW226847   5.519   1.552   0.980
 8650SOL     OW26848   1.868   0.068   5.698
 8650SOL    HW126849   1.924   0.141   5.740
 8650SOL    HW226850   1.891   0.062   5.601
 8651SOL     OW26851   4.030   1.911   1.838
 8651SOL    HW126852   4.015   1.813   1.821
 8651SOL    HW226853   3.947   1.962   1.815
 8652SOL     OW26854   0.772   2.349   3.728
 8652SOL    HW126855   0.710   2.424   3.705
 8652SOL    HW226856   0.857   2.386   3.765
 8653SOL     OW26857   5.878   1.272   6.960
 8653SOL    HW126858   5.850   1.183   6.996
 8653SOL    HW226859   5.936   1.259   6.879
 8654SOL     OW26860   6.942   4.661   3.136
 8654SOL    HW126861   6.977   4.623   3.050
 8654SOL    HW226862   6.899   4.589   3.190
 8655SOL     OW26863   0.791   0.240   4.863
 8655SOL    HW126864   0.792   0.204   4.956
 8655SOL    HW226865   0.696   0.254   4.833
 8656SOL     OW26866   4.169   6.618   1.008
 8656SOL    HW126867   4.247   6.679   0.990
 8656SOL    HW226868   4.148   6.619   1.106
 8657SOL     OW26869   2.948   1.874   2.774
 8657SOL    HW126870   3.002   1.809   2.827
 8657SOL    HW226871   2.937   1.840   2.681
 8658SOL     OW26872   6.309   4.096   1.341
 8658SOL    HW126873   6.322   4.124   1.246
 8658SOL    HW226874   6.273   4.173   1.394
 8659SOL     OW26875   3.874   0.768   2.654
 8659SOL    HW126876   3.957   0.747   2.707
 8659SOL    HW226877   3.878   0.862   2.621
 8660SOL     OW26878   0.455   3.845   1.988
 8660SOL    HW126879   0.488   3.897   2.067
 8660SOL    HW226880   0.512   3.763   1.976
 8661SOL     OW26881   6.406   3.517   1.912
 8661SOL    HW126882   6.314   3.531   1.950
 8661SOL    HW226883   6.429   3.591   1.850
 8662SOL     OW26884   1.332   2.089   2.605
 8662SOL    HW126885   1.379   2.109   2.691
 8662SOL    HW226886   1.347   2.164   2.541
 8663SOL     OW26887   4.122   4.709   2.503
 8663SOL    HW126888   4.123   4.783   2.436
 8663SOL    HW226889   4.091   4.624   2.460
 8664SOL     OW26890   3.533   6.365   4.292
 8664SOL    HW126891   3.502   6.292   4.231
 8664SOL    HW226892   3.618   6.404   4.256
 8665SOL     OW26893   5.899   4.058   6.737
 8665SOL    HW126894   5.930   3.973   6.779
 8665SOL    HW226895   5.876   4.125   6.808
 8666SOL     OW26896   4.760   0.672   2.919
 8666SOL    HW126897   4.738   0.648   3.013
 8666SOL    HW226898   4.856   0.650   2.901
 8667SOL     OW26899   5.542   2.309   2.111
 8667SOL    HW126900   5.585   2.234   2.061
 8667SOL    HW226901   5.613   2.371   2.146
 8668SOL     OW26902   4.417   2.056   4.370
 8668SOL    HW126903   4.367   2.068   4.285
 8668SOL    HW226904   4.392   1.969   4.412
 8669SOL     OW26905   6.841   6.098   6.408
 8669SOL    HW126906   6.805   6.144   6.327
 8669SOL    HW226907   6.895   6.163   6.463
 8670SOL     OW26908   0.141   5.282   5.542
 8670SOL    HW126909   0.112   5.321   5.455
 8670SOL    HW226910   0.190   5.196   5.526
 8671SOL     OW26911   0.360   2.848   3.144
 8671SOL    HW126912   0.346   2.785   3.221
 8671SOL    HW226913   0.286   2.915   3.141
 8672SOL     OW26914   0.025   1.359   2.636
 8672SOL    HW126915   0.014   1.298   2.714
 8672SOL    HW226916   6.988   1.435   2.642
 8673SOL     OW26917   0.970   1.343   1.126
 8673SOL    HW126918   1.062   1.370   1.097
 8673SOL    HW226919   0.902   1.396   1.075
 8674SOL     OW26920   6.985   4.178   3.247
 8674SOL    HW126921   0.036   4.129   3.208
 8674SOL    HW226922   7.016   4.234   3.324
 8675SOL     OW26923   4.407   2.430   4.812
 8675SOL    HW126924   4.455   2.369   4.875
 8675SOL    HW226925   4.308   2.415   4.819
 8676SOL     OW26926   4.670   2.247   1.122
 8676SOL    HW126927   4.609   2.287   1.190
 8676SOL    HW226928   4.675   2.148   1.135
 8677SOL     OW26929   2.697   0.197   6.508
 8677SOL    HW126930   2.730   0.164   6.596
 8677SOL    HW226931   2.597   0.195   6.506
 8678SOL     OW26932   2.819   2.383   0.048
 8678SOL    HW126933   2.748   2.338   0.102
 8678SOL    HW226934   2.889   2.419   0.108
 8679SOL     OW26935   1.844   2.067   6.421
 8679SOL    HW126936   1.892   2.061   6.509
 8679SOL    HW226937   1.858   2.157   6.382
 8680SOL     OW26938   0.043   0.430   0.676
 8680SOL    HW126939   7.002   0.488   0.632
 8680SOL    HW226940   0.135   0.466   0.656
 8681SOL     OW26941   5.678   5.035   1.635
 8681SOL    HW126942   5.719   5.037   1.543
 8681SOL    HW226943   5.603   5.101   1.639
 8682SOL     OW26944   2.519   0.779   2.647
 8682SOL    HW126945   2.490   0.686   2.627
 8682SOL    HW226946   2.477   0.809   2.733
 8683SOL     OW26947   2.446   4.408   3.879
 8683SOL    HW126948   2.356   4.369   3.899
 8683SOL    HW226949   2.482   4.451   3.962
 8684SOL     OW26950   2.260   4.353   3.315
 8684SOL    HW126951   2.338   4.375   3.373
 8684SOL    HW226952   2.216   4.437   3.285
 8685SOL     OW26953   4.948   3.283   4.818
 8685SOL    HW126954   4.970   3.294   4.721
 8685SOL    HW226955   4.877   3.213   4.827
 8686SOL     OW26956   1.488   4.917   2.849
 8686SOL    HW126957   1.473   4.864   2.933
 8686SOL    HW226958   1.557   4.987   2.866
 8687SOL     OW26959   5.557   4.367   5.325
 8687SOL    HW126960   5.620   4.345   5.400
 8687SOL    HW226961   5.506   4.285   5.300
 8688SOL     OW26962   1.260   3.934   4.614
 8688SOL    HW126963   1.189   3.903   4.551
 8688SOL    HW226964   1.324   3.994   4.566
 8689SOL     OW26965   4.750   3.588   0.802
 8689SOL    HW126966   4.684   3.516   0.824
 8689SOL    HW226967   4.754   3.654   0.877
 8690SOL     OW26968   1.312   1.691   2.439
 8690SOL    HW126969   1.298   1.781   2.399
 8690SOL    HW226970   1.319   1.623   2.366
 8691SOL     OW26971   3.453   2.291   6.378
 8691SOL    HW126972   3.497   2.248   6.299
 8691SOL    HW226973   3.455   2.227   6.455
 8692SOL     OW26974   5.414   2.686   4.536
 8692SOL    HW126975   5.346   2.723   4.599
 8692SOL    HW226976   5.369   2.658   4.451
 8693SOL     OW26977   6.933   6.853   5.287
 8693SOL    HW126978   6.997   6.826   5.359
 8693SOL    HW226979   6.847   6.804   5.299
 8694SOL     OW26980   4.447   3.631   6.031
 8694SOL    HW126981   4.416   3.613   5.938
 8694SOL    HW226982   4.490   3.722   6.035
 8695SOL     OW26983   3.223   5.186   1.205
 8695SOL    HW126984   3.235   5.163   1.109
 8695SOL    HW226985   3.301   5.154   1.258
 8696SOL     OW26986   2.370   5.787   6.585
 8696SOL    HW126987   2.418   5.699   6.585
 8696SOL    HW226988   2.422   5.853   6.640
 8697SOL     OW26989   1.071   3.377   4.998
 8697SOL    HW126990   1.171   3.381   5.001
 8697SOL    HW226991   1.034   3.469   4.986
 8698SOL     OW26992   4.220   4.524   6.535
 8698SOL    HW126993   4.237   4.581   6.616
 8698SOL    HW226994   4.307   4.501   6.492
 8699SOL     OW26995   2.423   2.326   0.854
 8699SOL    HW126996   2.438   2.227   0.854
 8699SOL    HW226997   2.325   2.345   0.863
 8700SOL     OW26998   0.613   1.795   4.668
 8700SOL    HW126999   0.631   1.714   4.614
 8700SOL    HW227000   0.699   1.833   4.701
 8701SOL     OW27001   1.933   3.700   6.639
 8701SOL    HW127002   2.002   3.628   6.633
 8701SOL    HW227003   1.894   3.715   6.548
 8702SOL     OW27004   5.846   4.458   1.468
 8702SOL    HW127005   5.799   4.438   1.381
 8702SOL    HW227006   5.914   4.529   1.454
 8703SOL     OW27007   2.184   5.506   1.943
 8703SOL    HW127008   2.252   5.495   2.016
 8703SOL    HW227009   2.095   5.525   1.984
 8704SOL     OW27010   7.013   1.759   4.259
 8704SOL    HW127011   6.922   1.785   4.227
 8704SOL    HW227012   7.009   1.736   4.356
 8705SOL     OW27013   3.606   2.067   0.519
 8705SOL    HW127014   3.556   1.988   0.484
 8705SOL    HW227015   3.541   2.135   0.553
 8706SOL     OW27016   4.766   2.618   6.431
 8706SOL    HW127017   4.760   2.553   6.506
 8706SOL    HW227018   4.735   2.708   6.461
 8707SOL     OW27019   1.071   1.115   4.164
 8707SOL    HW127020   1.008   1.145   4.236
 8707SOL    HW227021   1.039   1.148   4.075
 8708SOL     OW27022   6.019   2.636   1.068
 8708SOL    HW127023   5.947   2.701   1.093
 8708SOL    HW227024   6.019   2.560   1.133
 8709SOL     OW27025   6.831   5.884   4.205
 8709SOL    HW127026   6.818   5.979   4.178
 8709SOL    HW227027   6.874   5.880   4.295
 8710SOL     OW27028   2.244   2.204   3.703
 8710SOL    HW127029   2.190   2.130   3.664
 8710SOL    HW227030   2.340   2.192   3.678
 8711SOL     OW27031   1.534   1.210   2.078
 8711SOL    HW127032   1.628   1.220   2.044
 8711SOL    HW227033   1.532   1.231   2.176
 8712SOL     OW27034   0.961   4.459   4.190
 8712SOL    HW127035   0.871   4.499   4.204
 8712SOL    HW227036   0.953   4.381   4.128
 8713SOL     OW27037   0.275   3.771   2.503
 8713SOL    HW127038   0.351   3.766   2.438
 8713SOL    HW227039   0.231   3.681   2.510
 8714SOL     OW27040   6.392   4.398   6.347
 8714SOL    HW127041   6.353   4.418   6.436
 8714SOL    HW227042   6.457   4.470   6.321
 8715SOL     OW27043   2.286   4.929   1.346
 8715SOL    HW127044   2.262   4.940   1.250
 8715SOL    HW227045   2.362   4.865   1.355
 8716SOL     OW27046   5.891   0.444   2.059
 8716SOL    HW127047   5.813   0.431   1.998
 8716SOL    HW227048   5.974   0.454   2.004
 8717SOL     OW27049   3.346   2.148   0.598
 8717SOL    HW127050   3.294   2.227   0.629
 8717SOL    HW227051   3.298   2.104   0.522
 8718SOL     OW27052   2.850   5.726   6.511
 8718SOL    HW127053   2.921   5.730   6.440
 8718SOL    HW227054   2.846   5.634   6.549
 8719SOL     OW27055   3.018   1.256   4.902
 8719SOL    HW127056   3.099   1.230   4.850
 8719SOL    HW227057   2.947   1.186   4.890
 8720SOL     OW27058   0.754   6.123   4.306
 8720SOL    HW127059   0.736   6.030   4.337
 8720SOL    HW227060   0.851   6.144   4.318
 8721SOL     OW27061   1.281   0.388   1.114
 8721SOL    HW127062   1.226   0.309   1.140
 8721SOL    HW227063   1.345   0.361   1.042
 8722SOL     OW27064   3.483   1.278   0.539
 8722SOL    HW127065   3.424   1.235   0.607
 8722SOL    HW227066   3.576   1.242   0.547
 8723SOL     OW27067   3.695   6.423   2.631
 8723SOL    HW127068   3.713   6.407   2.728
 8723SOL    HW227069   3.720   6.516   2.607
 8724SOL     OW27070   3.766   1.230   4.870
 8724SOL    HW127071   3.834   1.283   4.820
 8724SOL    HW227072   3.674   1.258   4.842
 8725SOL     OW27073   0.117   0.678   2.181
 8725SOL    HW127074   0.135   0.754   2.243
 8725SOL    HW227075   0.203   0.652   2.135
 8726SOL     OW27076   6.600   0.927   0.517
 8726SOL    HW127077   6.694   0.954   0.537
 8726SOL    HW227078   6.550   1.005   0.478
 8727SOL     OW27079   5.184   5.638   6.372
 8727SOL    HW127080   5.213   5.710   6.436
 8727SOL    HW227081   5.117   5.675   6.308
 8728SOL     OW27082   6.252   6.483   4.462
 8728SOL    HW127083   6.262   6.548   4.386
 8728SOL    HW227084   6.156   6.474   4.486
 8729SOL     OW27085   5.773   5.836   5.975
 8729SOL    HW127086   5.728   5.748   5.960
 8729SOL    HW227087   5.811   5.837   6.068
 8730SOL     OW27088   3.940   4.817   1.764
 8730SOL    HW127089   4.020   4.770   1.724
 8730SOL    HW227090   3.971   4.881   1.834
 8731SOL     OW27091   7.020   1.786   3.811
 8731SOL    HW127092   7.003   1.847   3.733
 8731SOL    HW227093   6.978   1.824   3.893
 8732SOL     OW27094   5.037   6.330   5.645
 8732SOL    HW127095   5.040   6.244   5.696
 8732SOL    HW227096   5.116   6.335   5.584
 8733SOL     OW27097   6.796   4.685   2.182
 8733SOL    HW127098   6.795   4.663   2.084
 8733SOL    HW227099   6.879   4.738   2.203
 8734SOL     OW27100   1.298   4.989   0.381
 8734SOL    HW127101   1.391   4.955   0.400
 8734SOL    HW227102   1.232   4.933   0.431
 8735SOL     OW27103   1.379   2.727   5.961
 8735SOL    HW127104   1.321   2.791   6.012
 8735SOL    HW227105   1.335   2.705   5.874
 8736SOL     OW27106   1.744   5.713   3.265
 8736SOL    HW127107   1.706   5.739   3.176
 8736SOL    HW227108   1.836   5.676   3.253
 8737SOL     OW27109   0.369   5.499   6.987
 8737SOL    HW127110   0.316   5.502   6.903
 8737SOL    HW227111   0.371   5.405   7.022
 8738SOL     OW27112   1.814   2.618   1.988
 8738SOL    HW127113   1.850   2.526   1.975
 8738SOL    HW227114   1.873   2.668   2.051
 8739SOL     OW27115   5.366   4.537   3.092
 8739SOL    HW127116   5.457   4.576   3.075
 8739SOL    HW227117   5.303   4.610   3.120
 8740SOL     OW27118   3.150   1.476   3.456
 8740SOL    HW127119   3.200   1.480   3.370
 8740SOL    HW227120   3.212   1.448   3.530
 8741SOL     OW27121   1.092   1.683   2.633
 8741SOL    HW127122   1.173   1.720   2.586
 8741SOL    HW227123   1.010   1.732   2.602
 8742SOL     OW27124   2.412   2.900   1.648
 8742SOL    HW127125   2.511   2.912   1.649
 8742SOL    HW227126   2.390   2.804   1.665
 8743SOL     OW27127   0.928   3.426   0.346
 8743SOL    HW127128   0.995   3.460   0.412
 8743SOL    HW227129   0.923   3.326   0.352
 8744SOL     OW27130   3.392   4.043   5.954
 8744SOL    HW127131   3.363   4.055   5.859
 8744SOL    HW227132   3.332   3.978   6.000
 8745SOL     OW27133   5.923   1.981   6.519
 8745SOL    HW127134   5.830   1.977   6.556
 8745SOL    HW227135   5.928   1.924   6.437
 8746SOL     OW27136   4.096   4.872   4.865
 8746SOL    HW127137   4.087   4.845   4.769
 8746SOL    HW227138   4.022   4.935   4.888
 8747SOL     OW27139   1.107   0.212   2.195
 8747SOL    HW127140   1.066   0.122   2.176
 8747SOL    HW227141   1.034   0.278   2.213
 8748SOL     OW27142   5.539   1.806   4.314
 8748SOL    HW127143   5.572   1.794   4.408
 8748SOL    HW227144   5.616   1.828   4.254
 8749SOL     OW27145   2.791   1.174   4.141
 8749SOL    HW127146   2.716   1.115   4.111
 8749SOL    HW227147   2.773   1.206   4.234
 8750SOL     OW27148   4.640   3.548   1.535
 8750SOL    HW127149   4.704   3.573   1.462
 8750SOL    HW227150   4.652   3.610   1.613
 8751SOL     OW27151   2.358   0.208   0.471
 8751SOL    HW127152   2.290   0.143   0.505
 8751SOL    HW227153   2.323   0.301   0.479
 8752SOL     OW27154   6.876   3.440   5.923
 8752SOL    HW127155   6.887   3.414   6.019
 8752SOL    HW227156   6.844   3.534   5.917
 8753SOL     OW27157   1.764   1.877   0.932
 8753SOL    HW127158   1.802   1.814   0.999
 8753SOL    HW227159   1.664   1.867   0.929
 8754SOL     OW27160   0.864   6.214   6.561
 8754SOL    HW127161   0.823   6.124   6.548
 8754SOL    HW227162   0.807   6.268   6.622
 8755SOL     OW27163   0.363   2.717   1.505
 8755SOL    HW127164   0.431   2.776   1.461
 8755SOL    HW227165   0.284   2.706   1.445
 8756SOL     OW27166   1.383   1.907   1.819
 8756SOL    HW127167   1.363   1.846   1.896
 8756SOL    HW227168   1.391   2.001   1.852
 8757SOL     OW27169   5.752   5.933   4.826
 8757SOL    HW127170   5.706   6.017   4.854
 8757SOL    HW227171   5.847   5.935   4.856
 8758SOL     OW27172   3.445   5.579   6.177
 8758SOL    HW127173   3.433   5.599   6.274
 8758SOL    HW227174   3.542   5.584   6.154
 8759SOL     OW27175   6.111   1.190   1.551
 8759SOL    HW127176   6.050   1.156   1.622
 8759SOL    HW227177   6.186   1.242   1.592
 8760SOL     OW27178   2.026   2.563   4.219
 8760SOL    HW127179   2.070   2.517   4.142
 8760SOL    HW227180   2.092   2.624   4.263
 8761SOL     OW27181   4.928   2.738   3.026
 8761SOL    HW127182   4.839   2.706   3.057
 8761SOL    HW227183   4.924   2.759   2.928
 8762SOL     OW27184   4.288   6.717   3.131
 8762SOL    HW127185   4.361   6.785   3.142
 8762SOL    HW227186   4.260   6.683   3.221
 8763SOL     OW27187   0.018   1.713   4.933
 8763SOL    HW127188   7.000   1.755   5.012
 8763SOL    HW227189   6.983   1.717   4.854
 8764SOL     OW27190   3.360   4.534   6.282
 8764SOL    HW127191   3.340   4.440   6.254
 8764SOL    HW227192   3.418   4.577   6.213
 8765SOL     OW27193   4.770   6.632   4.034
 8765SOL    HW127194   4.798   6.579   3.953
 8765SOL    HW227195   4.675   6.661   4.023
 8766SOL     OW27196   5.633   0.084   4.655
 8766SOL    HW127197   5.609   0.153   4.586
 8766SOL    HW227198   5.654   7.025   4.610
 8767SOL     OW27199   1.920   0.933   4.562
 8767SOL    HW127200   1.842   0.985   4.529
 8767SOL    HW227201   1.916   0.840   4.525
 8768SOL     OW27202   6.558   1.925   0.900
 8768SOL    HW127203   6.534   1.835   0.935
 8768SOL    HW227204   6.521   1.937   0.808
 8769SOL     OW27205   5.931   0.141   6.382
 8769SOL    HW127206   6.030   0.153   6.372
 8769SOL    HW227207   5.884   0.199   6.315
 8770SOL     OW27208   5.063   2.161   0.169
 8770SOL    HW127209   4.997   2.089   0.151
 8770SOL    HW227210   5.015   2.246   0.192
 8771SOL     OW27211   0.935   2.304   6.218
 8771SOL    HW127212   1.029   2.338   6.209
 8771SOL    HW227213   0.901   2.326   6.310
 8772SOL     OW27214   0.722   6.719   3.707
 8772SOL    HW127215   0.742   6.810   3.671
 8772SOL    HW227216   0.805   6.679   3.745
 8773SOL     OW27217   0.201   1.608   3.765
 8773SOL    HW127218   0.123   1.658   3.803
 8773SOL    HW227219   0.273   1.601   3.834
 8774SOL     OW27220   1.628   1.821   6.641
 8774SOL    HW127221   1.588   1.881   6.710
 8774SOL    HW227222   1.724   1.843   6.629
 8775SOL     OW27223   5.390   2.304   3.005
 8775SOL    HW127224   5.313   2.292   3.068
 8775SOL    HW227225   5.451   2.375   3.041
 8776SOL     OW27226   4.715   2.983   1.456
 8776SOL    HW127227   4.653   2.933   1.517
 8776SOL    HW227228   4.806   2.986   1.497
 8777SOL     OW27229   6.620   2.189   3.433
 8777SOL    HW127230   6.581   2.097   3.429
 8777SOL    HW227231   6.686   2.194   3.508
 8778SOL     OW27232   2.566   3.821   0.064
 8778SOL    HW127233   2.588   3.891   7.023
 8778SOL    HW227234   2.542   3.736   0.019
 8779SOL     OW27235   3.933   5.568   3.349
 8779SOL    HW127236   3.904   5.564   3.254
 8779SOL    HW227237   3.983   5.485   3.373
 8780SOL     OW27238   0.810   4.162   4.130
 8780SOL    HW127239   0.721   4.120   4.144
 8780SOL    HW227240   0.872   4.097   4.088
 8781SOL     OW27241   2.911   1.240   1.369
 8781SOL    HW127242   2.902   1.306   1.444
 8781SOL    HW227243   2.888   1.149   1.402
 8782SOL     OW27244   6.619   2.635   0.520
 8782SOL    HW127245   6.547   2.602   0.460
 8782SOL    HW227246   6.677   2.700   0.470
 8783SOL     OW27247   4.356   4.086   5.520
 8783SOL    HW127248   4.455   4.089   5.530
 8783SOL    HW227249   4.326   4.157   5.455
 8784SOL     OW27250   4.426   0.679   0.034
 8784SOL    HW127251   4.434   0.620   6.980
 8784SOL    HW227252   4.360   0.639   0.098
 8785SOL     OW27253   0.075   5.791   5.705
 8785SOL    HW127254   0.125   5.707   5.725
 8785SOL    HW227255   0.129   5.870   5.733
 8786SOL     OW27256   5.764   1.623   3.403
 8786SOL    HW127257   5.761   1.619   3.503
 8786SOL    HW227258   5.803   1.537   3.368
 8787SOL     OW27259   3.416   5.214   2.130
 8787SOL    HW127260   3.442   5.222   2.227
 8787SOL    HW227261   3.444   5.125   2.096
 8788SOL     OW27262   0.159   5.857   4.476
 8788SOL    HW127263   0.215   5.847   4.558
 8788SOL    HW227264   0.217   5.883   4.399
 8789SOL     OW27265   1.274   2.771   6.718
 8789SOL    HW127266   1.227   2.813   6.796
 8789SOL    HW227267   1.373   2.772   6.735
 8790SOL     OW27268   4.597   2.718   5.168
 8790SOL    HW127269   4.574   2.739   5.073
 8790SOL    HW227270   4.600   2.802   5.222
 8791SOL     OW27271   4.136   6.008   5.244
 8791SOL    HW127272   4.168   5.943   5.312
 8791SOL    HW227273   4.045   6.040   5.268
 8792SOL     OW27274   5.852   5.456   1.476
 8792SOL    HW127275   5.944   5.459   1.514
 8792SOL    HW227276   5.855   5.418   1.384
 8793SOL     OW27277   6.124   6.110   5.248
 8793SOL    HW127278   6.184   6.170   5.301
 8793SOL    HW227279   6.031   6.114   5.287
 8794SOL     OW27280   0.140   1.644   3.018
 8794SOL    HW127281   0.170   1.712   2.950
 8794SOL    HW227282   0.048   1.614   2.995
 8795SOL     OW27283   0.935   6.786   6.690
 8795SOL    HW127284   0.956   6.822   6.780
 8795SOL    HW227285   0.947   6.858   6.621
 8796SOL     OW27286   5.624   4.219   4.723
 8796SOL    HW127287   5.545   4.225   4.662
 8796SOL    HW227288   5.618   4.135   4.777
 8797SOL     OW27289   4.807   6.112   4.576
 8797SOL    HW127290   4.832   6.192   4.632
 8797SOL    HW227291   4.887   6.052   4.567
 8798SOL     OW27292   2.044   6.058   5.923
 8798SOL    HW127293   1.957   6.099   5.950
 8798SOL    HW227294   2.047   5.963   5.954
 8799SOL     OW27295   1.237   6.051   1.510
 8799SOL    HW127296   1.199   5.962   1.535
 8799SOL    HW227297   1.173   6.098   1.448
 8800SOL     OW27298   6.988   5.793   3.875
 8800SOL    HW127299   6.980   5.778   3.777
 8800SOL    HW227300   6.951   5.883   3.899
 8801SOL     OW27301   5.046   3.300   5.483
 8801SOL    HW127302   4.970   3.324   5.423
 8801SOL    HW227303   5.036   3.204   5.512
 8802SOL     OW27304   1.166   6.560   6.785
 8802SOL    HW127305   1.070   6.584   6.792
 8802SOL    HW227306   1.185   6.480   6.842
 8803SOL     OW27307   5.429   5.489   5.135
 8803SOL    HW127308   5.447   5.446   5.223
 8803SOL    HW227309   5.515   5.524   5.096
 8804SOL     OW27310   1.711   6.271   2.096
 8804SOL    HW127311   1.752   6.312   2.177
 8804SOL    HW227312   1.642   6.333   2.059
 8805SOL     OW27313   5.234   4.847   2.605
 8805SOL    HW127314   5.310   4.909   2.583
 8805SOL    HW227315   5.163   4.855   2.535
 8806SOL     OW27316   1.232   0.793   2.511
 8806SOL    HW127317   1.172   0.873   2.516
 8806SOL    HW227318   1.313   0.809   2.566
 8807SOL     OW27319   5.765   2.213   1.386
 8807SOL    HW127320   5.793   2.246   1.476
 8807SOL    HW227321   5.774   2.287   1.319
 8808SOL     OW27322   1.947   1.950   0.008
 8808SOL    HW127323   1.993   1.882   0.065
 8808SOL    HW227324   1.874   1.994   0.061
 8809SOL     OW27325   0.952   3.313   3.351
 8809SOL    HW127326   0.954   3.213   3.340
 8809SOL    HW227327   0.858   3.342   3.369
 8810SOL     OW27328   0.048   2.459   4.617
 8810SOL    HW127329   0.021   2.551   4.587
 8810SOL    HW227330   0.034   2.394   4.542
 8811SOL     OW27331   4.577   4.694   2.389
 8811SOL    HW127332   4.560   4.625   2.319
 8811SOL    HW227333   4.509   4.767   2.380
 8812SOL     OW27334   5.553   0.834   0.293
 8812SOL    HW127335   5.520   0.841   0.199
 8812SOL    HW227336   5.493   0.886   0.354
 8813SOL     OW27337   1.835   3.043   2.142
 8813SOL    HW127338   1.774   3.014   2.068
 8813SOL    HW227339   1.856   3.140   2.131
 8814SOL     OW27340   5.926   6.719   4.932
 8814SOL    HW127341   5.835   6.691   4.961
 8814SOL    HW227342   5.993   6.650   4.961
 8815SOL     OW27343   5.260   1.019   1.337
 8815SOL    HW127344   5.253   0.979   1.429
 8815SOL    HW227345   5.172   1.007   1.290
 8816SOL     OW27346   0.151   0.254   3.806
 8816SOL    HW127347   0.205   0.215   3.881
 8816SOL    HW227348   0.212   0.305   3.745
 8817SOL     OW27349   1.376   2.726   3.300
 8817SOL    HW127350   1.413   2.764   3.384
 8817SOL    HW227351   1.276   2.724   3.305
 8818SOL     OW27352   1.080   6.376   6.470
 8818SOL    HW127353   1.045   6.456   6.519
 8818SOL    HW227354   1.007   6.308   6.462
 8819SOL     OW27355   5.088   5.900   6.494
 8819SOL    HW127356   4.995   5.915   6.525
 8819SOL    HW227357   5.090   5.898   6.394
 8820SOL     OW27358   3.990   6.649   5.597
 8820SOL    HW127359   4.029   6.589   5.666
 8820SOL    HW227360   3.891   6.638   5.595
 8821SOL     OW27361   0.716   5.230   5.893
 8821SOL    HW127362   0.660   5.277   5.825
 8821SOL    HW227363   0.801   5.198   5.850
 8822SOL     OW27364   6.076   0.286   4.913
 8822SOL    HW127365   5.989   0.253   4.879
 8822SOL    HW227366   6.081   0.386   4.902
 8823SOL     OW27367   4.123   1.908   2.834
 8823SOL    HW127368   4.094   1.990   2.882
 8823SOL    HW227369   4.183   1.933   2.758
 8824SOL     OW27370   1.880   0.785   4.005
 8824SOL    HW127371   1.792   0.827   3.986
 8824SOL    HW227372   1.950   0.828   3.947
 8825SOL     OW27373   0.487   6.884   0.373
 8825SOL    HW127374   0.525   6.824   0.303
 8825SOL    HW227375   0.392   6.906   0.351
 8826SOL     OW27376   0.680   4.162   0.183
 8826SOL    HW127377   0.721   4.244   0.222
 8826SOL    HW227378   0.629   4.113   0.253
 8827SOL     OW27379   5.089   6.504   3.719
 8827SOL    HW127380   5.157   6.553   3.774
 8827SOL    HW227381   5.135   6.449   3.650
 8828SOL     OW27382   5.206   2.160   5.896
 8828SOL    HW127383   5.142   2.235   5.881
 8828SOL    HW227384   5.230   2.156   5.993
 8829SOL     OW27385   6.902   0.981   2.429
 8829SOL    HW127386   6.847   1.058   2.461
 8829SOL    HW227387   6.849   0.897   2.437
 8830SOL     OW27388   3.280   0.565   3.013
 8830SOL    HW127389   3.277   0.661   3.041
 8830SOL    HW227390   3.356   0.518   3.058
 8831SOL     OW27391   0.156   3.061   2.473
 8831SOL    HW127392   0.081   3.015   2.521
 8831SOL    HW227393   0.232   2.997   2.460
 8832SOL     OW27394   5.408   0.523   5.827
 8832SOL    HW127395   5.355   0.575   5.759
 8832SOL    HW227396   5.503   0.553   5.824
 8833SOL     OW27397   4.715   2.834   0.938
 8833SOL    HW127398   4.667   2.748   0.924
 8833SOL    HW227399   4.658   2.896   0.992
 8834SOL     OW27400   5.244   4.714   6.277
 8834SOL    HW127401   5.221   4.644   6.345
 8834SOL    HW227402   5.162   4.767   6.256
 8835SOL     OW27403   6.328   1.089   5.223
 8835SOL    HW127404   6.350   1.176   5.266
 8835SOL    HW227405   6.229   1.075   5.223
 8836SOL     OW27406   4.156   1.170   0.931
 8836SOL    HW127407   4.072   1.126   0.899
 8836SOL    HW227408   4.138   1.220   1.015
 8837SOL     OW27409   4.635   5.974   0.480
 8837SOL    HW127410   4.672   6.056   0.436
 8837SOL    HW227411   4.557   5.999   0.537
 8838SOL     OW27412   2.091   3.356   3.126
 8838SOL    HW127413   2.158   3.424   3.155
 8838SOL    HW227414   2.050   3.385   3.039
 8839SOL     OW27415   4.746   5.134   1.381
 8839SOL    HW127416   4.685   5.103   1.454
 8839SOL    HW227417   4.775   5.228   1.400
 8840SOL     OW27418   6.944   0.971   1.119
 8840SOL    HW127419   6.892   1.054   1.141
 8840SOL    HW227420   6.918   0.938   1.028
 8841SOL     OW27421   3.591   1.264   0.886
 8841SOL    HW127422   3.627   1.277   0.979
 8841SOL    HW227423   3.533   1.342   0.863
 8842SOL     OW27424   3.687   2.880   4.087
 8842SOL    HW127425   3.695   2.951   4.018
 8842SOL    HW227426   3.607   2.822   4.067
 8843SOL     OW27427   2.269   5.560   5.239
 8843SOL    HW127428   2.358   5.578   5.197
 8843SOL    HW227429   2.268   5.468   5.278
 8844SOL     OW27430   3.059   3.003   6.058
 8844SOL    HW127431   3.098   2.979   5.970
 8844SOL    HW227432   3.044   3.102   6.062
 8845SOL     OW27433   0.662   3.481   2.255
 8845SOL    HW127434   0.594   3.554   2.249
 8845SOL    HW227435   0.706   3.468   2.167
 8846SOL     OW27436   5.500   5.277   4.295
 8846SOL    HW127437   5.562   5.206   4.328
 8846SOL    HW227438   5.447   5.313   4.371
 8847SOL     OW27439   1.233   1.789   4.052
 8847SOL    HW127440   1.232   1.855   4.127
 8847SOL    HW227441   1.268   1.833   3.969
 8848SOL     OW27442   6.782   2.266   0.655
 8848SOL    HW127443   6.816   2.335   0.591
 8848SOL    HW227444   6.692   2.294   0.688
 8849SOL     OW27445   3.535   5.619   4.497
 8849SOL    HW127446   3.572   5.629   4.589
 8849SOL    HW227447   3.436   5.611   4.501
 8850SOL     OW27448   2.867   1.942   1.034
 8850SOL    HW127449   2.786   1.930   0.977
 8850SOL    HW227450   2.945   1.963   0.976
 8851SOL     OW27451   0.142   5.026   2.726
 8851SOL    HW127452   0.056   5.070   2.700
 8851SOL    HW227453   0.206   5.030   2.649
 8852SOL     OW27454   5.201   3.644   4.743
 8852SOL    HW127455   5.248   3.588   4.674
 8852SOL    HW227456   5.143   3.585   4.799
 8853SOL     OW27457   4.534   2.028   5.619
 8853SOL    HW127458   4.589   2.104   5.653
 8853SOL    HW227459   4.501   2.048   5.527
 8854SOL     OW27460   2.235   0.800   5.912
 8854SOL    HW127461   2.239   0.899   5.902
 8854SOL    HW227462   2.323   0.767   5.947
 8855SOL     OW27463   6.272   5.308   6.077
 8855SOL    HW127464   6.187   5.324   6.128
 8855SOL    HW227465   6.250   5.268   5.988
 8856SOL     OW27466   5.688   1.055   5.206
 8856SOL    HW127467   5.613   1.121   5.206
 8856SOL    HW227468   5.654   0.966   5.177
 8857SOL     OW27469   1.271   3.623   4.786
 8857SOL    HW127470   1.348   3.677   4.754
 8857SOL    HW227471   1.301   3.564   4.861
 8858SOL     OW27472   0.199   3.557   5.471
 8858SOL    HW127473   0.146   3.638   5.498
 8858SOL    HW227474   0.144   3.475   5.488
 8859SOL     OW27475   2.833   6.205   5.535
 8859SOL    HW127476   2.875   6.278   5.588
 8859SOL    HW227477   2.877   6.199   5.446
 8860SOL     OW27478   1.731   2.071   0.680
 8860SOL    HW127479   1.711   2.158   0.724
 8860SOL    HW227480   1.769   2.007   0.748
 8861SOL     OW27481   2.519   2.666   1.230
 8861SOL    HW127482   2.543   2.732   1.300
 8861SOL    HW227483   2.537   2.573   1.263
 8862SOL     OW27484   6.423   2.164   5.077
 8862SOL    HW127485   6.348   2.123   5.026
 8862SOL    HW227486   6.432   2.260   5.052
 8863SOL     OW27487   1.238   5.914   5.640
 8863SOL    HW127488   1.258   5.851   5.715
 8863SOL    HW227489   1.179   5.869   5.573
 8864SOL     OW27490   1.690   3.812   5.961
 8864SOL    HW127491   1.651   3.785   6.049
 8864SOL    HW227492   1.680   3.738   5.896
 8865SOL     OW27493   3.114   1.997   5.871
 8865SOL    HW127494   3.191   1.933   5.881
 8865SOL    HW227495   3.144   2.077   5.819
 8866SOL     OW27496   5.011   6.490   5.093
 8866SOL    HW127497   5.015   6.582   5.054
 8866SOL    HW227498   5.091   6.438   5.064
 8867SOL     OW27499   6.503   1.060   3.998
 8867SOL    HW127500   6.472   1.098   4.085
 8867SOL    HW227501   6.591   1.013   4.012
 8868SOL     OW27502   5.141   3.617   0.663
 8868SOL    HW127503   5.235   3.649   0.651
 8868SOL    HW227504   5.099   3.601   0.574
 8869SOL     OW27505   3.140   2.101   2.791
 8869SOL    HW127506   3.097   2.031   2.734
 8869SOL    HW227507   3.186   2.057   2.868
 8870SOL     OW27508   4.719   1.388   2.287
 8870SOL    HW127509   4.738   1.418   2.194
 8870SOL    HW227510   4.705   1.467   2.346
 8871SOL     OW27511   1.922   2.094   3.695
 8871SOL    HW127512   1.857   2.169   3.703
 8871SOL    HW227513   1.900   2.023   3.761
 8872SOL     OW27514   1.306   2.353   1.842
 8872SOL    HW127515   1.335   2.374   1.748
 8872SOL    HW227516   1.207   2.360   1.848
 8873SOL     OW27517   6.834   5.937   4.821
 8873SOL    HW127518   6.823   6.034   4.804
 8873SOL    HW227519   6.924   5.919   4.860
 8874SOL     OW27520   0.718   1.773   5.997
 8874SOL    HW127521   0.744   1.816   6.083
 8874SOL    HW227522   0.620   1.752   5.999
 8875SOL     OW27523   1.500   1.378   4.439
 8875SOL    HW127524   1.466   1.297   4.392
 8875SOL    HW227525   1.496   1.457   4.377
 8876SOL     OW27526   2.811   0.739   4.295
 8876SOL    HW127527   2.798   0.792   4.211
 8876SOL    HW227528   2.857   0.653   4.273
 8877SOL     OW27529   3.181   6.870   4.560
 8877SOL    HW127530   3.280   6.882   4.571
 8877SOL    HW227531   3.163   6.799   4.491
 8878SOL     OW27532   5.722   4.997   5.429
 8878SOL    HW127533   5.640   4.940   5.421
 8878SOL    HW227534   5.751   5.027   5.337
 8879SOL     OW27535   4.502   5.299   4.434
 8879SOL    HW127536   4.591   5.259   4.454
 8879SOL    HW227537   4.430   5.242   4.476
 8880SOL     OW27538   0.060   6.372   5.130
 8880SOL    HW127539   0.112   6.318   5.064
 8880SOL    HW227540   0.068   6.331   5.221
 8881SOL     OW27541   6.458   1.547   1.377
 8881SOL    HW127542   6.489   1.638   1.348
 8881SOL    HW227543   6.536   1.487   1.390
 8882SOL     OW27544   5.473   2.737   0.483
 8882SOL    HW127545   5.536   2.766   0.556
 8882SOL    HW227546   5.525   2.715   0.401
 8883SOL     OW27547   6.478   1.532   5.378
 8883SOL    HW127548   6.417   1.460   5.412
 8883SOL    HW227549   6.558   1.491   5.334
 8884SOL     OW27550   6.645   1.154   5.864
 8884SOL    HW127551   6.675   1.143   5.769
 8884SOL    HW227552   6.724   1.145   5.925
 8885SOL     OW27553   5.429   3.715   1.968
 8885SOL    HW127554   5.482   3.637   1.936
 8885SOL    HW227555   5.455   3.797   1.916
 8886SOL     OW27556   3.096   5.141   6.226
 8886SOL    HW127557   3.131   5.051   6.199
 8886SOL    HW227558   2.998   5.145   6.206
 8887SOL     OW27559   1.845   0.784   0.912
 8887SOL    HW127560   1.852   0.875   0.870
 8887SOL    HW227561   1.927   0.767   0.966
 8888SOL     OW27562   2.951   2.270   2.677
 8888SOL    HW127563   3.045   2.254   2.708
 8888SOL    HW227564   2.889   2.210   2.728
 8889SOL     OW27565   3.636   0.231   4.701
 8889SOL    HW127566   3.657   0.325   4.726
 8889SOL    HW227567   3.685   0.169   4.762
 8890SOL     OW27568   0.451   3.809   3.461
 8890SOL    HW127569   0.525   3.767   3.408
 8890SOL    HW227570   0.458   3.779   3.556
 8891SOL     OW27571   2.957   1.618   6.026
 8891SOL    HW127572   2.921   1.575   6.109
 8891SOL    HW227573   3.016   1.553   5.979
 8892SOL     OW27574   1.246   6.567   2.687
 8892SOL    HW127575   1.264   6.522   2.774
 8892SOL    HW227576   1.221   6.663   2.703
 8893SOL     OW27577   0.424   0.689   0.006
 8893SOL    HW127578   0.334   0.646   0.016
 8893SOL    HW227579   0.495   0.619   0.018
 8894SOL     OW27580   4.448   2.812   6.381
 8894SOL    HW127581   4.403   2.723   6.382
 8894SOL    HW227582   4.379   2.884   6.383
 8895SOL     OW27583   2.081   0.918   2.694
 8895SOL    HW127584   2.009   0.969   2.647
 8895SOL    HW227585   2.120   0.974   2.767
 8896SOL     OW27586   2.216   4.230   4.898
 8896SOL    HW127587   2.194   4.297   4.970
 8896SOL    HW227588   2.243   4.144   4.940
 8897SOL     OW27589   1.362   2.214   1.070
 8897SOL    HW127590   1.397   2.169   0.988
 8897SOL    HW227591   1.420   2.192   1.148
 8898SOL     OW27592   0.009   3.107   4.862
 8898SOL    HW127593   0.091   3.058   4.892
 8898SOL    HW227594   0.014   3.202   4.891
 8899SOL     OW27595   3.009   5.238   1.545
 8899SOL    HW127596   2.940   5.203   1.608
 8899SOL    HW227597   3.025   5.172   1.472
 8900SOL     OW27598   6.934   1.299   3.413
 8900SOL    HW127599   6.881   1.382   3.432
 8900SOL    HW227600   0.005   1.321   3.414
 8901SOL     OW27601   1.821   6.558   1.836
 8901SOL    HW127602   1.859   6.499   1.766
 8901SOL    HW227603   1.738   6.516   1.873
 8902SOL     OW27604   3.151   6.027   5.392
 8902SOL    HW127605   3.061   6.048   5.356
 8902SOL    HW227606   3.185   6.105   5.445
 8903SOL     OW27607   0.514   0.347   2.638
 8903SOL    HW127608   0.600   0.380   2.676
 8903SOL    HW227609   0.452   0.323   2.713
 8904SOL     OW27610   1.478   4.807   3.104
 8904SOL    HW127611   1.396   4.763   3.140
 8904SOL    HW227612   1.559   4.756   3.134
 8905SOL     OW27613   2.202   4.362   4.654
 8905SOL    HW127614   2.226   4.285   4.594
 8905SOL    HW227615   2.213   4.334   4.749
 8906SOL     OW27616   1.468   5.164   4.297
 8906SOL    HW127617   1.453   5.074   4.338
 8906SOL    HW227618   1.438   5.235   4.361
 8907SOL     OW27619   3.775   2.809   6.758
 8907SOL    HW127620   3.799   2.854   6.672
 8907SOL    HW227621   3.858   2.790   6.810
 8908SOL     OW27622   0.789   2.414   2.576
 8908SOL    HW127623   0.814   2.489   2.638
 8908SOL    HW227624   0.850   2.415   2.497
 8909SOL     OW27625   3.466   0.222   5.621
 8909SOL    HW127626   3.546   0.183   5.666
 8909SOL    HW227627   3.418   0.150   5.570
 8910SOL     OW27628   3.920   3.264   0.418
 8910SOL    HW127629   3.962   3.214   0.493
 8910SOL    HW227630   3.975   3.253   0.335
 8911SOL     OW27631   4.481   2.200   3.990
 8911SOL    HW127632   4.471   2.115   3.939
 8911SOL    HW227633   4.569   2.200   4.038
 8912SOL     OW27634   5.138   1.684   6.455
 8912SOL    HW127635   5.143   1.600   6.401
 8912SOL    HW227636   5.111   1.760   6.396
 8913SOL     OW27637   4.019   4.419   1.377
 8913SOL    HW127638   3.994   4.326   1.401
 8913SOL    HW227639   4.102   4.445   1.427
 8914SOL     OW27640   5.187   1.916   3.640
 8914SOL    HW127641   5.157   1.999   3.687
 8914SOL    HW227642   5.119   1.889   3.572
 8915SOL     OW27643   0.851   5.891   2.632
 8915SOL    HW127644   0.864   5.920   2.727
 8915SOL    HW227645   0.754   5.901   2.607
 8916SOL     OW27646   5.938   2.938   2.231
 8916SOL    HW127647   5.910   2.901   2.142
 8916SOL    HW227648   5.950   2.863   2.296
 8917SOL     OW27649   5.665   5.313   5.001
 8917SOL    HW127650   5.576   5.306   4.956
 8917SOL    HW227651   5.681   5.408   5.028
 8918SOL     OW27652   4.798   4.087   5.943
 8918SOL    HW127653   4.766   3.993   5.938
 8918SOL    HW227654   4.888   4.095   5.900
 8919SOL     OW27655   2.551   3.327   1.404
 8919SOL    HW127656   2.559   3.235   1.366
 8919SOL    HW227657   2.636   3.378   1.388
 8920SOL     OW27658   6.657   5.613   5.595
 8920SOL    HW127659   6.726   5.595   5.525
 8920SOL    HW227660   6.697   5.665   5.670
 8921SOL     OW27661   1.524   5.674   3.844
 8921SOL    HW127662   1.475   5.595   3.808
 8921SOL    HW227663   1.472   5.715   3.919
 8922SOL     OW27664   6.307   4.048   6.665
 8922SOL    HW127665   6.401   4.078   6.678
 8922SOL    HW227666   6.305   3.949   6.647
 8923SOL     OW27667   2.182   4.311   4.059
 8923SOL    HW127668   2.251   4.281   4.125
 8923SOL    HW227669   2.113   4.239   4.048
 8924SOL     OW27670   2.533   5.665   5.187
 8924SOL    HW127671   2.574   5.690   5.275
 8924SOL    HW227672   2.531   5.745   5.128
 8925SOL     OW27673   4.621   5.930   1.627
 8925SOL    HW127674   4.576   5.938   1.716
 8925SOL    HW227675   4.701   5.871   1.635
 8926SOL     OW27676   5.354   0.418   6.640
 8926SOL    HW127677   5.360   0.345   6.708
 8926SOL    HW227678   5.284   0.484   6.668
 8927SOL     OW27679   2.591   1.757   4.532
 8927SOL    HW127680   2.651   1.703   4.474
 8927SOL    HW227681   2.590   1.852   4.500
 8928SOL     OW27682   0.592   6.938   4.343
 8928SOL    HW127683   0.508   6.992   4.347
 8928SOL    HW227684   0.670   7.000   4.334
 8929SOL     OW27685   5.192   4.082   3.483
 8929SOL    HW127686   5.262   4.150   3.502
 8929SOL    HW227687   5.187   4.064   3.385
 8930SOL     OW27688   0.765   5.330   5.443
 8930SOL    HW127689   0.863   5.328   5.465
 8930SOL    HW227690   0.753   5.330   5.344
 8931SOL     OW27691   4.934   1.152   1.729
 8931SOL    HW127692   4.946   1.235   1.675
 8931SOL    HW227693   5.019   1.132   1.779
 8932SOL     OW27694   5.823   0.757   0.301
 8932SOL    HW127695   5.727   0.781   0.287
 8932SOL    HW227696   5.856   0.706   0.222
 8933SOL     OW27697   1.215   0.643   5.504
 8933SOL    HW127698   1.281   0.671   5.573
 8933SOL    HW227699   1.135   0.703   5.507
 8934SOL     OW27700   4.344   6.827   3.554
 8934SOL    HW127701   4.347   6.927   3.557
 8934SOL    HW227702   4.437   6.791   3.559
 8935SOL     OW27703   5.524   1.539   2.813
 8935SOL    HW127704   5.493   1.528   2.907
 8935SOL    HW227705   5.584   1.619   2.807
 8936SOL     OW27706   1.841   3.815   2.452
 8936SOL    HW127707   1.812   3.873   2.528
 8936SOL    HW227708   1.909   3.749   2.485
 8937SOL     OW27709   4.304   0.408   4.859
 8937SOL    HW127710   4.285   0.423   4.762
 8937SOL    HW227711   4.235   0.454   4.914
 8938SOL     OW27712   5.833   6.640   1.174
 8938SOL    HW127713   5.914   6.615   1.227
 8938SOL    HW227714   5.765   6.567   1.180
 8939SOL     OW27715   0.841   3.063   4.281
 8939SOL    HW127716   0.806   3.152   4.254
 8939SOL    HW227717   0.793   3.031   4.363
 8940SOL     OW27718   6.331   3.189   1.976
 8940SOL    HW127719   6.346   3.121   2.048
 8940SOL    HW227720   6.328   3.144   1.887
 8941SOL     OW27721   6.015   1.744   3.311
 8941SOL    HW127722   5.979   1.779   3.225
 8941SOL    HW227723   5.940   1.710   3.367
 8942SOL     OW27724   4.971   4.226   3.573
 8942SOL    HW127725   4.961   4.306   3.514
 8942SOL    HW227726   5.050   4.173   3.542
 8943SOL     OW27727   4.597   2.975   0.427
 8943SOL    HW127728   4.603   3.047   0.358
 8943SOL    HW227729   4.688   2.939   0.446
 8944SOL     OW27730   4.177   5.830   5.468
 8944SOL    HW127731   4.225   5.765   5.527
 8944SOL    HW227732   4.082   5.801   5.456
 8945SOL     OW27733   6.567   4.480   2.022
 8945SOL    HW127734   6.516   4.460   2.106
 8945SOL    HW227735   6.605   4.395   1.985
 8946SOL     OW27736   4.054   1.693   4.954
 8946SOL    HW127737   4.030   1.757   4.881
 8946SOL    HW227738   3.981   1.691   5.022
 8947SOL     OW27739   1.925   4.807   0.759
 8947SOL    HW127740   1.978   4.781   0.678
 8947SOL    HW227741   1.978   4.789   0.841
 8948SOL     OW27742   5.417   0.531   3.127
 8948SOL    HW127743   5.481   0.597   3.166
 8948SOL    HW227744   5.458   0.488   3.047
 8949SOL     OW27745   3.386   6.483   1.099
 8949SOL    HW127746   3.457   6.521   1.038
 8949SOL    HW227747   3.366   6.390   1.070
 8950SOL     OW27748   3.334   3.802   2.788
 8950SOL    HW127749   3.308   3.732   2.855
 8950SOL    HW227750   3.253   3.857   2.765
 8951SOL     OW27751   0.711   0.599   3.938
 8951SOL    HW127752   0.762   0.514   3.931
 8951SOL    HW227753   0.705   0.627   4.034
 8952SOL     OW27754   1.780   4.323   4.503
 8952SOL    HW127755   1.686   4.312   4.536
 8952SOL    HW227756   1.789   4.278   4.414
 8953SOL     OW27757   0.556   5.336   1.494
 8953SOL    HW127758   0.589   5.382   1.577
 8953SOL    HW227759   0.556   5.237   1.510
 8954SOL     OW27760   2.050   4.055   5.351
 8954SOL    HW127761   2.106   4.128   5.311
 8954SOL    HW227762   2.065   4.051   5.450
 8955SOL     OW27763   5.950   2.983   5.488
 8955SOL    HW127764   6.003   3.059   5.525
 8955SOL    HW227765   5.853   3.008   5.486
 8956SOL     OW27766   0.610   5.970   1.002
 8956SOL    HW127767   0.665   5.975   1.086
 8956SOL    HW227768   0.552   5.889   1.006
 8957SOL     OW27769   1.235   6.902   2.676
 8957SOL    HW127770   1.309   6.917   2.742
 8957SOL    HW227771   1.231   6.979   2.613
 8958SOL     OW27772   6.976   3.735   4.415
 8958SOL    HW127773   7.014   3.642   4.415
 8958SOL    HW227774   0.017   3.798   4.378
 8959SOL     OW27775   5.526   2.038   4.040
 8959SOL    HW127776   5.552   1.987   4.122
 8959SOL    HW227777   5.563   2.131   4.045
 8960SOL     OW27778   5.492   5.000   2.828
 8960SOL    HW127779   5.543   4.915   2.837
 8960SOL    HW227780   5.526   5.050   2.748
 8961SOL     OW27781   2.822   1.492   4.973
 8961SOL    HW127782   2.866   1.404   4.989
 8961SOL    HW227783   2.726   1.487   4.997
 8962SOL     OW27784   6.917   5.887   2.304
 8962SOL    HW127785   6.932   5.985   2.293
 8962SOL    HW227786   6.938   5.840   2.218
 8963SOL     OW27787   2.523   6.289   6.085
 8963SOL    HW127788   2.525   6.372   6.029
 8963SOL    HW227789   2.532   6.313   6.181
 8964SOL     OW27790   1.839   2.620   3.384
 8964SOL    HW127791   1.902   2.658   3.317
 8964SOL    HW227792   1.750   2.605   3.341
 8965SOL     OW27793   4.032   6.188   0.613
 8965SOL    HW127794   4.122   6.224   0.589
 8965SOL    HW227795   3.962   6.252   0.581
 8966SOL     OW27796   5.190   6.783   5.535
 8966SOL    HW127797   5.199   6.804   5.632
 8966SOL    HW227798   5.122   6.710   5.523
 8967SOL     OW27799   2.733   0.402   3.074
 8967SOL    HW127800   2.700   0.313   3.104
 8967SOL    HW227801   2.772   0.451   3.151
 8968SOL     OW27802   3.419   4.905   2.545
 8968SOL    HW127803   3.330   4.866   2.523
 8968SOL    HW227804   3.434   4.902   2.644
 8969SOL     OW27805   6.863   1.237   2.898
 8969SOL    HW127806   6.959   1.221   2.875
 8969SOL    HW227807   6.850   1.224   2.996
 8970SOL     OW27808   2.262   1.251   3.211
 8970SOL    HW127809   2.204   1.172   3.195
 8970SOL    HW227810   2.215   1.315   3.272
 8971SOL     OW27811   3.320   4.091   1.176
 8971SOL    HW127812   3.297   4.024   1.247
 8971SOL    HW227813   3.283   4.061   1.088
 8972SOL     OW27814   5.515   4.288   6.567
 8972SOL    HW127815   5.502   4.374   6.518
 8972SOL    HW227816   5.573   4.227   6.513
 8973SOL     OW27817   2.606   1.963   3.057
 8973SOL    HW127818   2.548   1.887   3.026
 8973SOL    HW227819   2.675   1.983   2.987
 8974SOL     OW27820   1.839   4.199   4.221
 8974SOL    HW127821   1.746   4.218   4.191
 8974SOL    HW227822   1.884   4.139   4.155
 8975SOL     OW27823   6.919   3.724   6.248
 8975SOL    HW127824   6.875   3.798   6.299
 8975SOL    HW227825   6.898   3.733   6.150
 8976SOL     OW27826   5.911   0.423   1.650
 8976SOL    HW127827   5.978   0.455   1.717
 8976SOL    HW227828   5.819   0.452   1.678
 8977SOL     OW27829   6.854   4.596   6.417
 8977SOL    HW127830   6.777   4.592   6.481
 8977SOL    HW227831   6.819   4.585   6.323
 8978SOL     OW27832   6.456   5.795   5.599
 8978SOL    HW127833   6.507   5.710   5.582
 8978SOL    HW227834   6.511   5.855   5.656
 8979SOL     OW27835   2.098   5.092   3.516
 8979SOL    HW127836   2.116   5.113   3.420
 8979SOL    HW227837   2.180   5.112   3.571
 8980SOL     OW27838   4.000   0.831   0.524
 8980SOL    HW127839   4.044   0.743   0.506
 8980SOL    HW227840   3.901   0.821   0.511
 8981SOL     OW27841   3.941   2.173   6.931
 8981SOL    HW127842   3.858   2.208   6.975
 8981SOL    HW227843   4.014   2.240   6.938
 8982SOL     OW27844   6.780   1.452   1.875
 8982SOL    HW127845   6.761   1.370   1.822
 8982SOL    HW227846   6.876   1.454   1.900
 8983SOL     OW27847   1.496   6.973   2.541
 8983SOL    HW127848   1.508   6.945   2.636
 8983SOL    HW227849   1.574   6.941   2.487
 8984SOL     OW27850   6.839   2.029   4.462
 8984SOL    HW127851   6.890   2.112   4.438
 8984SOL    HW227852   6.902   1.959   4.496
 8985SOL     OW27853   4.246   0.988   1.983
 8985SOL    HW127854   4.232   0.988   1.884
 8985SOL    HW227855   4.316   1.055   2.007
 8986SOL     OW27856   6.828   6.009   0.488
 8986SOL    HW127857   6.785   5.943   0.549
 8986SOL    HW227858   6.761   6.076   0.458
 8987SOL     OW27859   2.175   6.463   2.046
 8987SOL    HW127860   2.275   6.453   2.046
 8987SOL    HW227861   2.146   6.506   1.960
 8988SOL     OW27862   2.460   0.293   1.259
 8988SOL    HW127863   2.408   0.375   1.283
 8988SOL    HW227864   2.418   0.249   1.180
 8989SOL     OW27865   5.792   1.268   2.495
 8989SOL    HW127866   5.742   1.246   2.412
 8989SOL    HW227867   5.875   1.212   2.500
 8990SOL     OW27868   3.396   1.181   3.036
 8990SOL    HW127869   3.318   1.236   3.006
 8990SOL    HW227870   3.460   1.170   2.960
 8991SOL     OW27871   1.244   2.246   0.475
 8991SOL    HW127872   1.171   2.218   0.413
 8991SOL    HW227873   1.270   2.169   0.533
 8992SOL     OW27874   6.709   4.502   6.201
 8992SOL    HW127875   6.729   4.417   6.250
 8992SOL    HW227876   6.632   4.487   6.139
 8993SOL     OW27877   5.233   3.814   3.733
 8993SOL    HW127878   5.170   3.891   3.746
 8993SOL    HW227879   5.326   3.848   3.721
 8994SOL     OW27880   1.164   6.394   2.909
 8994SOL    HW127881   1.085   6.435   2.864
 8994SOL    HW227882   1.162   6.416   3.006
 8995SOL     OW27883   2.160   3.823   3.691
 8995SOL    HW127884   2.123   3.819   3.783
 8995SOL    HW227885   2.232   3.892   3.688
 8996SOL     OW27886   2.419   3.560   0.801
 8996SOL    HW127887   2.432   3.655   0.773
 8996SOL    HW227888   2.494   3.504   0.766
 8997SOL     OW27889   4.773   0.728   5.191
 8997SOL    HW127890   4.864   0.771   5.198
 8997SOL    HW227891   4.725   0.768   5.113
 8998SOL     OW27892   0.962   1.673   6.483
 8998SOL    HW127893   0.907   1.606   6.533
 8998SOL    HW227894   1.036   1.705   6.542
 8999SOL     OW27895   5.263   2.718   5.765
 8999SOL    HW127896   5.248   2.815   5.748
 8999SOL    HW227897   5.293   2.674   5.681
 9000SOL     OW27898   3.685   4.947   1.330
 9000SOL    HW127899   3.695   4.865   1.387
 9000SOL    HW227900   3.713   4.927   1.236
 9001SOL     OW27901   1.667   4.295   3.203
 9001SOL    HW127902   1.635   4.388   3.185
 9001SOL    HW227903   1.767   4.294   3.208
 9002SOL     OW27904   5.560   3.551   5.506
 9002SOL    HW127905   5.536   3.564   5.410
 9002SOL    HW227906   5.502   3.480   5.545
 9003SOL     OW27907   6.587   3.465   6.774
 9003SOL    HW127908   6.614   3.420   6.859
 9003SOL    HW227909   6.668   3.503   6.729
 9004SOL     OW27910   4.752   5.723   1.240
 9004SOL    HW127911   4.778   5.627   1.232
 9004SOL    HW227912   4.765   5.769   1.152
 9005SOL     OW27913   5.153   2.835   3.763
 9005SOL    HW127914   5.191   2.866   3.850
 9005SOL    HW227915   5.209   2.871   3.688
 9006SOL     OW27916   1.987   6.575   1.209
 9006SOL    HW127917   1.910   6.510   1.214
 9006SOL    HW227918   2.066   6.530   1.168
 9007SOL     OW27919   2.031   6.222   5.257
 9007SOL    HW127920   1.999   6.287   5.188
 9007SOL    HW227921   1.996   6.249   5.347
 9008SOL     OW27922   0.300   4.396   2.270
 9008SOL    HW127923   0.300   4.359   2.177
 9008SOL    HW227924   0.301   4.496   2.266
 9009SOL     OW27925   3.790   5.627   0.033
 9009SOL    HW127926   3.718   5.643   0.101
 9009SOL    HW227927   3.858   5.700   0.039
 9010SOL     OW27928   0.008   5.670   4.763
 9010SOL    HW127929   0.026   5.608   4.839
 9010SOL    HW227930   0.026   5.764   4.792
 9011SOL     OW27931   4.498   2.413   2.407
 9011SOL    HW127932   4.410   2.400   2.454
 9011SOL    HW227933   4.566   2.447   2.473
 9012SOL     OW27934   5.582   5.025   2.567
 9012SOL    HW127935   5.567   5.100   2.504
 9012SOL    HW227936   5.680   5.014   2.584
 9013SOL     OW27937   4.491   6.412   2.742
 9013SOL    HW127938   4.419   6.354   2.705
 9013SOL    HW227939   4.451   6.495   2.780
 9014SOL     OW27940   2.066   0.520   1.611
 9014SOL    HW127941   2.151   0.484   1.574
 9014SOL    HW227942   1.990   0.459   1.586
 9015SOL     OW27943   5.979   1.729   5.113
 9015SOL    HW127944   5.972   1.630   5.101
 9015SOL    HW227945   5.889   1.770   5.101
 9016SOL     OW27946   0.001   5.927   6.715
 9016SOL    HW127947   6.999   5.840   6.674
 9016SOL    HW227948   0.054   5.979   6.649
 9017SOL     OW27949   0.320   3.189   2.898
 9017SOL    HW127950   0.396   3.170   2.837
 9017SOL    HW227951   0.235   3.157   2.857
 9018SOL     OW27952   4.561   1.937   6.373
 9018SOL    HW127953   4.543   2.035   6.379
 9018SOL    HW227954   4.498   1.888   6.434
 9019SOL     OW27955   1.648   5.592   0.357
 9019SOL    HW127956   1.612   5.569   0.266
 9019SOL    HW227957   1.616   5.526   0.424
 9020SOL     OW27958   0.763   4.887   3.859
 9020SOL    HW127959   0.740   4.878   3.762
 9020SOL    HW227960   0.830   4.961   3.870
 9021SOL     OW27961   5.561   5.374   5.344
 9021SOL    HW127962   5.622   5.419   5.409
 9021SOL    HW227963   5.522   5.292   5.386
 9022SOL     OW27964   2.772   6.838   6.899
 9022SOL    HW127965   2.672   6.833   6.903
 9022SOL    HW227966   2.805   6.778   6.826
 9023SOL     OW27967   3.001   3.186   3.797
 9023SOL    HW127968   3.061   3.110   3.773
 9023SOL    HW227969   2.978   3.238   3.714
 9024SOL     OW27970   1.073   0.340   6.593
 9024SOL    HW127971   1.037   0.425   6.554
 9024SOL    HW227972   0.997   0.285   6.628
 9025SOL     OW27973   0.391   3.483   6.890
 9025SOL    HW127974   0.411   3.488   6.792
 9025SOL    HW227975   0.442   3.555   6.938
 9026SOL     OW27976   2.748   3.466   5.691
 9026SOL    HW127977   2.845   3.478   5.711
 9026SOL    HW227978   2.738   3.426   5.600
 9027SOL     OW27979   2.097   2.736   2.561
 9027SOL    HW127980   2.065   2.816   2.512
 9027SOL    HW227981   2.136   2.670   2.496
 9028SOL     OW27982   2.496   4.514   4.114
 9028SOL    HW127983   2.580   4.554   4.152
 9028SOL    HW227984   2.421   4.529   4.178
 9029SOL     OW27985   5.988   5.428   2.439
 9029SOL    HW127986   5.907   5.369   2.436
 9029SOL    HW227987   5.971   5.510   2.385
 9030SOL     OW27988   3.662   2.099   2.241
 9030SOL    HW127989   3.658   2.141   2.150
 9030SOL    HW227990   3.574   2.058   2.263
 9031SOL     OW27991   2.003   1.336   1.219
 9031SOL    HW127992   2.098   1.369   1.227
 9031SOL    HW227993   1.941   1.414   1.221
 9032SOL     OW27994   0.347   2.739   1.765
 9032SOL    HW127995   0.351   2.737   1.665
 9032SOL    HW227996   0.323   2.831   1.796
 9033SOL     OW27997   1.293   3.831   2.511
 9033SOL    HW127998   1.297   3.792   2.602
 9033SOL    HW227999   1.335   3.922   2.511
 9034SOL     OW28000   1.983   6.598   6.866
 9034SOL    HW128001   1.919   6.670   6.895
 9034SOL    HW228002   2.053   6.586   6.936
 9035SOL     OW28003   6.895   1.324   4.825
 9035SOL    HW128004   6.922   1.234   4.791
 9035SOL    HW228005   6.827   1.364   4.764
 9036SOL     OW28006   0.637   1.060   4.416
 9036SOL    HW128007   0.556   1.055   4.357
 9036SOL    HW228008   0.641   0.978   4.472
 9037SOL     OW28009   2.504   3.684   5.939
 9037SOL    HW128010   2.477   3.591   5.915
 9037SOL    HW228011   2.577   3.715   5.879
 9038SOL     OW28012   4.377   5.295   5.552
 9038SOL    HW128013   4.351   5.221   5.490
 9038SOL    HW228014   4.415   5.371   5.499
 9039SOL     OW28015   2.310   4.451   6.728
 9039SOL    HW128016   2.256   4.457   6.644
 9039SOL    HW228017   2.406   4.437   6.705
 9040SOL     OW28018   2.552   1.911   2.113
 9040SOL    HW128019   2.475   1.876   2.166
 9040SOL    HW228020   2.579   1.844   2.044
 9041SOL     OW28021   1.602   3.020   5.857
 9041SOL    HW128022   1.559   3.021   5.767
 9041SOL    HW228023   1.700   3.009   5.847
 9042SOL     OW28024   1.568   5.533   2.990
 9042SOL    HW128025   1.662   5.511   2.964
 9042SOL    HW228026   1.515   5.448   3.000
 9043SOL     OW28027   0.083   2.420   6.794
 9043SOL    HW128028   0.137   2.336   6.804
 9043SOL    HW228029   0.067   2.459   6.884
 9044SOL     OW28030   0.305   4.068   0.273
 9044SOL    HW128031   0.211   4.055   0.242
 9044SOL    HW228032   0.351   3.979   0.276
 9045SOL     OW28033   2.271   4.735   4.234
 9045SOL    HW128034   2.338   4.797   4.193
 9045SOL    HW228035   2.316   4.650   4.260
 9046SOL     OW28036   3.587   4.659   6.090
 9046SOL    HW128037   3.665   4.649   6.151
 9046SOL    HW228038   3.614   4.713   6.010
 9047SOL     OW28039   1.014   4.630   4.533
 9047SOL    HW128040   1.033   4.590   4.623
 9047SOL    HW228041   1.064   4.579   4.463
 9048SOL     OW28042   2.037   1.741   5.618
 9048SOL    HW128043   2.008   1.735   5.523
 9048SOL    HW228044   1.987   1.673   5.672
 9049SOL     OW28045   4.768   6.618   5.859
 9049SOL    HW128046   4.785   6.716   5.851
 9049SOL    HW228047   4.854   6.568   5.844
 9050SOL     OW28048   6.915   5.457   5.840
 9050SOL    HW128049   7.009   5.488   5.834
 9050SOL    HW228050   6.904   5.373   5.787
 9051SOL     OW28051   5.490   6.615   6.374
 9051SOL    HW128052   5.420   6.609   6.303
 9051SOL    HW228053   5.502   6.525   6.417
 9052SOL     OW28054   2.815   4.898   4.969
 9052SOL    HW128055   2.731   4.913   4.916
 9052SOL    HW228056   2.816   4.804   5.004
 9053SOL     OW28057   2.559   1.449   2.412
 9053SOL    HW128058   2.579   1.383   2.485
 9053SOL    HW228059   2.547   1.540   2.452
 9054SOL     OW28060   1.841   6.805   1.695
 9054SOL    HW128061   1.935   6.825   1.665
 9054SOL    HW228062   1.842   6.728   1.758
 9055SOL     OW28063   0.976   2.287   4.218
 9055SOL    HW128064   1.061   2.272   4.168
 9055SOL    HW228065   0.959   2.385   4.226
 9056SOL     OW28066   4.700   2.714   1.962
 9056SOL    HW128067   4.719   2.801   2.007
 9056SOL    HW228068   4.666   2.731   1.869
 9057SOL     OW28069   3.721   6.530   6.956
 9057SOL    HW128070   3.773   6.591   6.896
 9057SOL    HW228071   3.684   6.454   6.903
 9058SOL     OW28072   2.397   2.195   4.598
 9058SOL    HW128073   2.371   2.148   4.683
 9058SOL    HW228074   2.476   2.254   4.616
 9059SOL     OW28075   0.106   1.290   2.109
 9059SOL    HW128076   0.053   1.304   2.192
 9059SOL    HW228077   0.202   1.309   2.128
 9060SOL     OW28078   0.005   5.007   1.127
 9060SOL    HW128079   0.025   4.909   1.127
 9060SOL    HW228080   6.956   5.026   1.188
 9061SOL     OW28081   4.996   4.079   2.269
 9061SOL    HW128082   5.068   4.019   2.236
 9061SOL    HW228083   4.978   4.150   2.201
 9062SOL     OW28084   0.907   5.962   2.886
 9062SOL    HW128085   0.956   6.025   2.947
 9062SOL    HW228086   0.888   5.877   2.935
 9063SOL     OW28087   4.723   0.855   1.208
 9063SOL    HW128088   4.718   0.806   1.295
 9063SOL    HW228089   4.722   0.954   1.225
 9064SOL     OW28090   1.344   5.576   3.314
 9064SOL    HW128091   1.403   5.606   3.388
 9064SOL    HW228092   1.365   5.629   3.231
 9065SOL     OW28093   3.896   4.334   7.001
 9065SOL    HW128094   3.847   4.252   0.005
 9065SOL    HW228095   3.837   4.414   7.012
 9066SOL     OW28096   4.892   4.706   3.870
 9066SOL    HW128097   4.891   4.623   3.815
 9066SOL    HW228098   4.915   4.682   3.965
 9067SOL     OW28099   2.209   6.703   4.409
 9067SOL    HW128100   2.221   6.683   4.507
 9067SOL    HW228101   2.290   6.750   4.375
 9068SOL     OW28102   4.524   6.830   6.035
 9068SOL    HW128103   4.534   6.923   5.999
 9068SOL    HW228104   4.428   6.813   6.059
 9069SOL     OW28105   5.047   2.480   2.224
 9069SOL    HW128106   5.112   2.544   2.182
 9069SOL    HW228107   5.059   2.481   2.323
 9070SOL     OW28108   1.761   0.723   6.355
 9070SOL    HW128109   1.849   0.676   6.352
 9070SOL    HW228110   1.687   0.656   6.346
 9071SOL     OW28111   5.006   2.655   6.704
 9071SOL    HW128112   5.021   2.611   6.793
 9071SOL    HW228113   4.945   2.733   6.716
 9072SOL     OW28114   6.112   6.993   2.098
 9072SOL    HW128115   6.034   0.028   2.095
 9072SOL    HW228116   6.193   0.013   2.064
 9073SOL     OW28117   4.471   3.328   5.473
 9073SOL    HW128118   4.465   3.407   5.413
 9073SOL    HW228119   4.531   3.259   5.432
 9074SOL     OW28120   1.941   0.872   3.176
 9074SOL    HW128121   1.935   0.833   3.268
 9074SOL    HW228122   1.870   0.832   3.119
 9075SOL     OW28123   4.901   5.763   0.633
 9075SOL    HW128124   4.977   5.728   0.688
 9075SOL    HW228125   4.851   5.687   0.593
 9076SOL     OW28126   0.831   6.218   2.639
 9076SOL    HW128127   0.916   6.235   2.688
 9076SOL    HW228128   0.776   6.152   2.689
 9077SOL     OW28129   6.277   2.114   6.437
 9077SOL    HW128130   6.310   2.146   6.348
 9077SOL    HW228131   6.257   2.016   6.432
 9078SOL     OW28132   5.240   6.961   0.404
 9078SOL    HW128133   5.284   7.017   0.334
 9078SOL    HW228134   5.309   6.908   0.452
 9079SOL     OW28135   1.240   1.113   5.936
 9079SOL    HW128136   1.201   1.062   6.012
 9079SOL    HW228137   1.172   1.177   5.900
 9080SOL     OW28138   6.479   4.140   2.431
 9080SOL    HW128139   6.468   4.089   2.345
 9080SOL    HW228140   6.548   4.095   2.487
 9081SOL     OW28141   5.098   1.365   0.704
 9081SOL    HW128142   5.098   1.300   0.780
 9081SOL    HW228143   5.063   1.453   0.736
 9082SOL     OW28144   3.392   4.887   6.614
 9082SOL    HW128145   3.323   4.940   6.663
 9082SOL    HW228146   3.409   4.802   6.664
 9083SOL     OW28147   3.396   0.332   0.787
 9083SOL    HW128148   3.307   0.324   0.742
 9083SOL    HW228149   3.458   0.384   0.728
 9084SOL     OW28150   7.004   3.926   4.772
 9084SOL    HW128151   0.048   3.856   4.763
 9084SOL    HW228152   0.017   4.008   4.811
 9085SOL     OW28153   2.893   4.843   0.740
 9085SOL    HW128154   2.890   4.901   0.821
 9085SOL    HW228155   2.936   4.756   0.762
 9086SOL     OW28156   0.213   2.900   0.383
 9086SOL    HW128157   0.247   2.961   0.455
 9086SOL    HW228158   0.171   2.819   0.424
 9087SOL     OW28159   5.065   1.762   1.706
 9087SOL    HW128160   4.974   1.757   1.748
 9087SOL    HW228161   5.104   1.670   1.701
 9088SOL     OW28162   6.024   5.572   0.429
 9088SOL    HW128163   6.063   5.494   0.381
 9088SOL    HW228164   5.960   5.620   0.369
 9089SOL     OW28165   5.402   5.183   3.442
 9089SOL    HW128166   5.410   5.091   3.481
 9089SOL    HW228167   5.339   5.180   3.364
 9090SOL     OW28168   5.083   5.932   6.221
 9090SOL    HW128169   5.126   5.905   6.135
 9090SOL    HW228170   5.100   6.029   6.238
 9091SOL     OW28171   2.807   2.185   1.809
 9091SOL    HW128172   2.812   2.258   1.877
 9091SOL    HW228173   2.853   2.103   1.844
 9092SOL     OW28174   2.191   1.486   5.112
 9092SOL    HW128175   2.220   1.576   5.147
 9092SOL    HW228176   2.123   1.499   5.040
 9093SOL     OW28177   2.183   3.463   0.654
 9093SOL    HW128178   2.180   3.484   0.556
 9093SOL    HW228179   2.246   3.526   0.700
 9094SOL     OW28180   6.234   3.713   0.827
 9094SOL    HW128181   6.188   3.628   0.799
 9094SOL    HW228182   6.313   3.690   0.884
 9095SOL     OW28183   2.193   3.039   0.190
 9095SOL    HW128184   2.157   2.947   0.178
 9095SOL    HW228185   2.228   3.072   0.103
 9096SOL     OW28186   6.391   3.691   3.155
 9096SOL    HW128187   6.483   3.730   3.161
 9096SOL    HW228188   6.327   3.763   3.129
 9097SOL     OW28189   6.364   6.325   5.783
 9097SOL    HW128190   6.272   6.317   5.821
 9097SOL    HW228191   6.393   6.237   5.746
 9098SOL     OW28192   3.312   4.043   4.595
 9098SOL    HW128193   3.212   4.040   4.588
 9098SOL    HW228194   3.339   4.018   4.688
 9099SOL     OW28195   1.725   2.023   0.131
 9099SOL    HW128196   1.726   2.120   0.155
 9099SOL    HW228197   1.695   1.970   0.210
 9100SOL     OW28198   1.579   2.972   7.011
 9100SOL    HW128199   1.521   2.891   7.024
 9100SOL    HW228200   1.521   3.053   7.008
 9101SOL     OW28201   1.997   1.873   6.788
 9101SOL    HW128202   1.974   1.915   6.876
 9101SOL    HW228203   2.039   1.942   6.728
 9102SOL     OW28204   5.353   6.148   2.735
 9102SOL    HW128205   5.327   6.123   2.641
 9102SOL    HW228206   5.281   6.202   2.777
 9103SOL     OW28207   0.554   4.944   6.075
 9103SOL    HW128208   0.568   4.910   6.168
 9103SOL    HW228209   0.575   5.042   6.071
 9104SOL     OW28210   5.241   0.026   2.757
 9104SOL    HW128211   5.215   7.020   2.848
 9104SOL    HW228212   5.238   6.977   2.693
 9105SOL     OW28213   2.755   1.074   5.619
 9105SOL    HW128214   2.703   1.017   5.682
 9105SOL    HW228215   2.852   1.067   5.640
 9106SOL     OW28216   6.218   4.812   1.783
 9106SOL    HW128217   6.175   4.775   1.701
 9106SOL    HW228218   6.247   4.736   1.842
 9107SOL     OW28219   4.553   0.406   0.177
 9107SOL    HW128220   4.637   0.432   0.129
 9107SOL    HW228221   4.552   0.446   0.268
 9108SOL     OW28222   4.079   6.027   6.806
 9108SOL    HW128223   4.023   6.098   6.849
 9108SOL    HW228224   4.169   6.025   6.849
 9109SOL     OW28225   3.244   1.224   4.751
 9109SOL    HW128226   3.233   1.160   4.675
 9109SOL    HW228227   3.342   1.237   4.770
 9110SOL     OW28228   1.471   2.822   3.062
 9110SOL    HW128229   1.422   2.791   3.144
 9110SOL    HW228230   1.478   2.922   3.063
 9111SOL     OW28231   4.065   4.181   1.692
 9111SOL    HW128232   4.042   4.119   1.767
 9111SOL    HW228233   4.143   4.144   1.642
 9112SOL     OW28234   0.919   5.129   1.806
 9112SOL    HW128235   0.853   5.071   1.759
 9112SOL    HW228236   0.899   5.225   1.785
 9113SOL     OW28237   3.168   5.965   0.188
 9113SOL    HW128238   3.102   5.999   0.254
 9113SOL    HW228239   3.242   6.032   0.178
 9114SOL     OW28240   2.816   4.123   1.559
 9114SOL    HW128241   2.745   4.165   1.615
 9114SOL    HW228242   2.782   4.111   1.465
 9115SOL     OW28243   1.724   4.522   4.023
 9115SOL    HW128244   1.716   4.505   3.924
 9115SOL    HW228245   1.820   4.519   4.050
 9116SOL     OW28246   2.450   1.632   5.657
 9116SOL    HW128247   2.509   1.653   5.579
 9116SOL    HW228248   2.401   1.714   5.684
 9117SOL     OW28249   6.851   3.118   6.434
 9117SOL    HW128250   6.751   3.122   6.430
 9117SOL    HW228251   6.886   3.070   6.353
 9118SOL     OW28252   0.199   5.299   1.200
 9118SOL    HW128253   0.200   5.257   1.291
 9118SOL    HW228254   0.272   5.367   1.195
 9119SOL     OW28255   6.224   6.865   0.757
 9119SOL    HW128256   6.203   6.958   0.789
 9119SOL    HW228257   6.213   6.801   0.833
 9120SOL     OW28258   5.818   1.266   6.299
 9120SOL    HW128259   5.823   1.346   6.358
 9120SOL    HW228260   5.821   1.183   6.354
 9121SOL     OW28261   1.443   1.138   6.738
 9121SOL    HW128262   1.426   1.103   6.830
 9121SOL    HW228263   1.447   1.238   6.740
 9122SOL     OW28264   0.725   2.440   0.856
 9122SOL    HW128265   0.634   2.449   0.815
 9122SOL    HW228266   0.716   2.436   0.956
 9123SOL     OW28267   2.802   6.222   6.942
 9123SOL    HW128268   2.702   6.221   6.941
 9123SOL    HW228269   2.834   6.276   7.020
 9124SOL     OW28270   5.916   4.492   5.787
 9124SOL    HW128271   5.879   4.567   5.842
 9124SOL    HW228272   5.980   4.529   5.720
 9125SOL     OW28273   4.879   6.088   1.999
 9125SOL    HW128274   4.895   6.005   2.054
 9125SOL    HW228275   4.903   6.070   1.904
 9126SOL     OW28276   5.800   0.278   2.413
 9126SOL    HW128277   5.855   0.337   2.354
 9126SOL    HW228278   5.860   0.210   2.457
 9127SOL     OW28279   5.197   6.419   6.826
 9127SOL    HW128280   5.177   6.470   6.910
 9127SOL    HW228281   5.273   6.461   6.778
 9128SOL     OW28282   4.941   2.725   5.148
 9128SOL    HW128283   4.913   2.761   5.059
 9128SOL    HW228284   4.935   2.625   5.147
 9129SOL     OW28285   2.029   1.551   6.478
 9129SOL    HW128286   2.124   1.582   6.479
 9129SOL    HW228287   1.980   1.597   6.405
 9130SOL     OW28288   5.984   5.610   1.081
 9130SOL    HW128289   6.025   5.596   1.172
 9130SOL    HW228290   6.052   5.653   1.021
 9131SOL     OW28291   0.412   4.451   3.941
 9131SOL    HW128292   0.381   4.451   4.037
 9131SOL    HW228293   0.351   4.508   3.887
 9132SOL     OW28294   1.656   3.079   4.289
 9132SOL    HW128295   1.570   3.029   4.281
 9132SOL    HW228296   1.728   3.018   4.323
 9133SOL     OW28297   1.544   4.614   0.871
 9133SOL    HW128298   1.510   4.621   0.778
 9133SOL    HW228299   1.613   4.684   0.887
 9134SOL     OW28300   2.734   4.872   6.262
 9134SOL    HW128301   2.744   4.807   6.187
 9134SOL    HW228302   2.818   4.875   6.315
 9135SOL     OW28303   0.228   5.946   4.127
 9135SOL    HW128304   0.316   5.913   4.094
 9135SOL    HW228305   0.155   5.889   4.090
 9136SOL     OW28306   4.391   5.307   6.199
 9136SOL    HW128307   4.356   5.283   6.109
 9136SOL    HW228308   4.371   5.233   6.263
 9137SOL     OW28309   4.307   1.226   2.493
 9137SOL    HW128310   4.236   1.270   2.439
 9137SOL    HW228311   4.383   1.198   2.433
 9138SOL     OW28312   3.559   4.635   1.012
 9138SOL    HW128313   3.629   4.594   1.070
 9138SOL    HW228314   3.548   4.731   1.034
 9139SOL     OW28315   3.507   1.007   5.419
 9139SOL    HW128316   3.507   0.980   5.323
 9139SOL    HW228317   3.576   1.079   5.433
 9140SOL     OW28318   0.025   2.350   3.417
 9140SOL    HW128319   6.983   2.320   3.351
 9140SOL    HW228320   0.107   2.293   3.409
 9141SOL     OW28321   5.619   0.795   5.637
 9141SOL    HW128322   5.640   0.879   5.587
 9141SOL    HW228323   5.620   0.815   5.735
 9142SOL     OW28324   1.109   4.104   6.198
 9142SOL    HW128325   1.048   4.033   6.232
 9142SOL    HW228326   1.186   4.061   6.150
 9143SOL     OW28327   5.436   4.460   1.120
 9143SOL    HW128328   5.413   4.482   1.215
 9143SOL    HW228329   5.371   4.505   1.059
 9144SOL     OW28330   1.443   4.767   4.890
 9144SOL    HW128331   1.487   4.678   4.884
 9144SOL    HW228332   1.354   4.763   4.846
 9145SOL     OW28333   0.243   4.114   6.601
 9145SOL    HW128334   0.276   4.055   6.527
 9145SOL    HW228335   0.147   4.093   6.620
 9146SOL     OW28336   6.778   1.861   1.534
 9146SOL    HW128337   6.753   1.904   1.621
 9146SOL    HW228338   6.787   1.931   1.463
 9147SOL     OW28339   4.071   6.295   6.066
 9147SOL    HW128340   3.995   6.342   6.021
 9147SOL    HW228341   4.097   6.215   6.011
 9148SOL     OW28342   3.912   5.943   3.257
 9148SOL    HW128343   3.999   5.899   3.278
 9148SOL    HW228344   3.857   5.881   3.200
 9149SOL     OW28345   5.957   3.319   3.676
 9149SOL    HW128346   5.892   3.331   3.750
 9149SOL    HW228347   5.962   3.222   3.651
 9150SOL     OW28348   4.282   1.378   3.287
 9150SOL    HW128349   4.266   1.371   3.188
 9150SOL    HW228350   4.330   1.463   3.307
 9151SOL     OW28351   1.554   3.646   2.181
 9151SOL    HW128352   1.516   3.554   2.188
 9151SOL    HW228353   1.654   3.641   2.187
 9152SOL     OW28354   2.432   5.712   2.675
 9152SOL    HW128355   2.505   5.645   2.682
 9152SOL    HW228356   2.368   5.701   2.751
 9153SOL     OW28357   1.341   3.432   6.171
 9153SOL    HW128358   1.352   3.380   6.085
 9153SOL    HW228359   1.271   3.387   6.227
 9154SOL     OW28360   2.072   5.847   0.662
 9154SOL    HW128361   2.019   5.786   0.721
 9154SOL    HW228362   2.051   5.942   0.684
 9155SOL     OW28363   1.606   4.177   0.303
 9155SOL    HW128364   1.529   4.207   0.360
 9155SOL    HW228365   1.603   4.077   0.293
 9156SOL     OW28366   5.617   2.606   1.923
 9156SOL    HW128367   5.574   2.682   1.873
 9156SOL    HW228368   5.592   2.520   1.880
 9157SOL     OW28369   5.138   3.674   5.590
 9157SOL    HW128370   5.125   3.724   5.676
 9157SOL    HW228371   5.208   3.718   5.536
 9158SOL     OW28372   0.671   3.678   3.348
 9158SOL    HW128373   0.695   3.583   3.326
 9158SOL    HW228374   0.729   3.740   3.295
 9159SOL     OW28375   0.213   4.094   3.142
 9159SOL    HW128376   0.296   4.143   3.170
 9159SOL    HW228377   0.218   3.999   3.174
 9160SOL     OW28378   6.850   0.013   0.183
 9160SOL    HW128379   6.831   0.008   0.281
 9160SOL    HW228380   6.845   0.109   0.154
 9161SOL     OW28381   5.439   3.851   3.992
 9161SOL    HW128382   5.365   3.916   3.975
 9161SOL    HW228383   5.480   3.824   3.905
 9162SOL     OW28384   5.211   1.878   2.178
 9162SOL    HW128385   5.203   1.873   2.078
 9162SOL    HW228386   5.191   1.789   2.218
 9163SOL     OW28387   3.372   1.836   3.921
 9163SOL    HW128388   3.438   1.765   3.945
 9163SOL    HW228389   3.333   1.816   3.831
 9164SOL     OW28390   2.772   6.991   0.426
 9164SOL    HW128391   2.796   6.970   0.331
 9164SOL    HW228392   2.832   0.037   0.460
 9165SOL     OW28393   5.388   6.475   0.232
 9165SOL    HW128394   5.446   6.415   0.177
 9165SOL    HW228395   5.353   6.424   0.311
 9166SOL     OW28396   3.080   5.515   1.619
 9166SOL    HW128397   3.175   5.529   1.649
 9166SOL    HW228398   3.070   5.423   1.583
 9167SOL     OW28399   0.872   4.164   4.627
 9167SOL    HW128400   0.892   4.156   4.530
 9167SOL    HW228401   0.866   4.073   4.668
 9168SOL     OW28402   2.166   0.193   6.382
 9168SOL    HW128403   2.097   0.251   6.424
 9168SOL    HW228404   2.247   0.189   6.440
 9169SOL     OW28405   6.647   6.474   3.186
 9169SOL    HW128406   6.587   6.432   3.254
 9169SOL    HW228407   6.692   6.554   3.226
 9170SOL     OW28408   6.431   6.170   6.717
 9170SOL    HW128409   6.471   6.087   6.755
 9170SOL    HW228410   6.458   6.248   6.773
 9171SOL     OW28411   2.645   5.853   6.036
 9171SOL    HW128412   2.683   5.802   5.959
 9171SOL    HW228413   2.550   5.827   6.051
 9172SOL     OW28414   2.700   2.234   4.100
 9172SOL    HW128415   2.708   2.330   4.072
 9172SOL    HW228416   2.635   2.187   4.040
 9173SOL     OW28417   0.418   4.990   5.044
 9173SOL    HW128418   0.515   5.015   5.039
 9173SOL    HW228419   0.409   4.891   5.029
 9174SOL     OW28420   0.194   5.114   0.260
 9174SOL    HW128421   0.138   5.123   0.342
 9174SOL    HW228422   0.268   5.049   0.277
 9175SOL     OW28423   1.510   0.059   5.098
 9175SOL    HW128424   1.516   0.148   5.053
 9175SOL    HW228425   1.602   0.026   5.117
 9176SOL     OW28426   1.597   1.012   5.533
 9176SOL    HW128427   1.603   0.917   5.564
 9176SOL    HW228428   1.686   1.056   5.543
 9177SOL     OW28429   1.198   4.859   3.633
 9177SOL    HW128430   1.138   4.869   3.554
 9177SOL    HW228431   1.212   4.949   3.676
 9178SOL     OW28432   2.189   4.595   0.770
 9178SOL    HW128433   2.260   4.527   0.752
 9178SOL    HW228434   2.229   4.673   0.819
 9179SOL     OW28435   2.907   4.864   4.643
 9179SOL    HW128436   2.868   4.852   4.735
 9179SOL    HW228437   2.991   4.918   4.649
 9180SOL     OW28438   5.015   2.120   3.010
 9180SOL    HW128439   5.050   2.198   3.061
 9180SOL    HW228440   5.042   2.127   2.914
 9181SOL     OW28441   4.102   1.336   2.355
 9181SOL    HW128442   4.163   1.410   2.326
 9181SOL    HW228443   4.030   1.324   2.288
 9182SOL     OW28444   1.435   7.007   1.589
 9182SOL    HW128445   1.522   7.011   1.540
 9182SOL    HW228446   1.360   0.005   1.527
 9183SOL     OW28447   5.321   5.451   6.618
 9183SOL    HW128448   5.360   5.398   6.694
 9183SOL    HW228449   5.233   5.490   6.647
 9184SOL     OW28450   4.887   6.710   0.167
 9184SOL    HW128451   4.911   6.746   0.077
 9184SOL    HW228452   4.929   6.766   0.238
 9185SOL     OW28453   4.326   1.253   5.447
 9185SOL    HW128454   4.372   1.214   5.368
 9185SOL    HW228455   4.253   1.191   5.477
 9186SOL     OW28456   5.558   6.918   6.528
 9186SOL    HW128457   5.621   6.844   6.552
 9186SOL    HW228458   5.465   6.892   6.557
 9187SOL     OW28459   2.558   6.396   2.357
 9187SOL    HW128460   2.503   6.334   2.413
 9187SOL    HW228461   2.642   6.351   2.329
 9188SOL     OW28462   2.367   6.105   1.592
 9188SOL    HW128463   2.419   6.027   1.625
 9188SOL    HW228464   2.274   6.102   1.629
 9189SOL     OW28465   5.740   5.111   1.903
 9189SOL    HW128466   5.796   5.045   1.952
 9189SOL    HW228467   5.708   5.071   1.817
 9190SOL     OW28468   1.623   5.143   0.644
 9190SOL    HW128469   1.562   5.138   0.723
 9190SOL    HW228470   1.715   5.116   0.670
 9191SOL     OW28471   6.844   0.674   6.001
 9191SOL    HW128472   6.806   0.766   5.990
 9191SOL    HW228473   6.825   0.642   6.094
 9192SOL     OW28474   0.021   3.792   3.897
 9192SOL    HW128475   0.031   3.889   3.877
 9192SOL    HW228476   0.107   3.744   3.880
 9193SOL     OW28477   2.963   3.360   6.800
 9193SOL    HW128478   3.008   3.437   6.845
 9193SOL    HW228479   2.888   3.393   6.743
 9194SOL     OW28480   3.559   0.317   4.441
 9194SOL    HW128481   3.621   0.396   4.443
 9194SOL    HW228482   3.558   0.272   4.530
 9195SOL     OW28483   1.567   1.429   3.506
 9195SOL    HW128484   1.613   1.505   3.461
 9195SOL    HW228485   1.515   1.463   3.585
 9196SOL     OW28486   4.915   2.276   5.573
 9196SOL    HW128487   4.972   2.196   5.588
 9196SOL    HW228488   4.824   2.261   5.611
 9197SOL     OW28489   2.431   3.735   1.249
 9197SOL    HW128490   2.363   3.675   1.206
 9197SOL    HW228491   2.494   3.769   1.180
 9198SOL     OW28492   0.250   4.939   4.065
 9198SOL    HW128493   0.348   4.959   4.069
 9198SOL    HW228494   0.199   5.024   4.059
 9199SOL     OW28495   6.289   4.906   4.911
 9199SOL    HW128496   6.295   4.879   5.007
 9199SOL    HW228497   6.208   4.963   4.898
 9200SOL     OW28498   2.683   0.244   0.309
 9200SOL    HW128499   2.658   0.185   0.386
 9200SOL    HW228500   2.736   0.191   0.242
 9201SOL     OW28501   1.902   4.188   0.381
 9201SOL    HW128502   1.938   4.195   0.288
 9201SOL    HW228503   1.805   4.166   0.378
 9202SOL     OW28504   2.422   0.445   3.702
 9202SOL    HW128505   2.481   0.435   3.782
 9202SOL    HW228506   2.345   0.504   3.725
 9203SOL     OW28507   6.859   0.249   0.729
 9203SOL    HW128508   6.951   0.277   0.703
 9203SOL    HW228509   6.836   0.162   0.685
 9204SOL     OW28510   5.027   0.399   5.558
 9204SOL    HW128511   5.018   0.482   5.503
 9204SOL    HW228512   4.948   0.340   5.542
 9205SOL     OW28513   0.032   4.485   1.637
 9205SOL    HW128514   7.021   4.402   1.676
 9205SOL    HW228515   0.132   4.483   1.645
 9206SOL     OW28516   3.552   6.018   0.533
 9206SOL    HW128517   3.509   5.939   0.576
 9206SOL    HW228518   3.483   6.086   0.508
 9207SOL     OW28519   5.330   5.455   6.184
 9207SOL    HW128520   5.332   5.356   6.200
 9207SOL    HW228521   5.317   5.502   6.271
 9208SOL     OW28522   1.581   3.642   3.110
 9208SOL    HW128523   1.572   3.542   3.116
 9208SOL    HW228524   1.601   3.667   3.015
 9209SOL     OW28525   3.078   0.262   6.467
 9209SOL    HW128526   3.119   0.252   6.376
 9209SOL    HW228527   3.022   0.345   6.469
 9210SOL     OW28528   6.959   0.339   3.654
 9210SOL    HW128529   7.014   0.420   3.635
 9210SOL    HW228530   7.010   0.278   3.715
 9211SOL     OW28531   0.742   1.721   2.300
 9211SOL    HW128532   0.805   1.776   2.354
 9211SOL    HW228533   0.782   1.630   2.283
 9212SOL     OW28534   3.086   4.995   4.385
 9212SOL    HW128535   2.987   4.991   4.388
 9212SOL    HW228536   3.118   5.059   4.456
 9213SOL     OW28537   6.233   4.491   6.581
 9213SOL    HW128538   6.206   4.406   6.627
 9213SOL    HW228539   6.152   4.544   6.558
 9214SOL     OW28540   0.357   4.679   0.908
 9214SOL    HW128541   0.346   4.689   0.810
 9214SOL    HW228542   0.268   4.666   0.951
 9215SOL     OW28543   1.180   1.117   0.956
 9215SOL    HW128544   1.161   1.030   1.000
 9215SOL    HW228545   1.272   1.148   0.981
 9216SOL     OW28546   1.990   6.801   3.164
 9216SOL    HW128547   2.069   6.829   3.219
 9216SOL    HW228548   1.906   6.824   3.212
 9217SOL     OW28549   0.726   2.418   7.015
 9217SOL    HW128550   0.738   2.474   6.933
 9217SOL    HW228551   0.629   2.395   7.025
 9218SOL     OW28552   2.685   0.733   0.596
 9218SOL    HW128553   2.632   0.818   0.591
 9218SOL    HW228554   2.623   0.656   0.605
 9219SOL     OW28555   0.106   1.641   0.607
 9219SOL    HW128556   0.203   1.667   0.608
 9219SOL    HW228557   0.096   1.548   0.642
 9220SOL     OW28558   2.759   6.215   1.900
 9220SOL    HW128559   2.752   6.293   1.961
 9220SOL    HW228560   2.855   6.202   1.873
 9221SOL     OW28561   2.894   5.448   4.637
 9221SOL    HW128562   2.912   5.354   4.607
 9221SOL    HW228563   2.833   5.446   4.716
 9222SOL     OW28564   2.788   2.276   5.914
 9222SOL    HW128565   2.837   2.359   5.939
 9222SOL    HW228566   2.837   2.229   5.840
 9223SOL     OW28567   2.773   3.146   5.243
 9223SOL    HW128568   2.749   3.201   5.323
 9223SOL    HW228569   2.689   3.115   5.198
 9224SOL     OW28570   2.348   5.052   4.887
 9224SOL    HW128571   2.301   4.988   4.826
 9224SOL    HW228572   2.325   5.146   4.861
 9225SOL     OW28573   2.159   6.468   0.060
 9225SOL    HW128574   2.251   6.454   0.096
 9225SOL    HW228575   2.140   6.565   0.053
 9226SOL     OW28576   3.588   6.571   1.247
 9226SOL    HW128577   3.493   6.546   1.226
 9226SOL    HW228578   3.649   6.509   1.198
 9227SOL     OW28579   1.633   6.010   2.084
 9227SOL    HW128580   1.641   6.109   2.094
 9227SOL    HW228581   1.552   5.988   2.030
 9228SOL     OW28582   0.714   0.217   6.764
 9228SOL    HW128583   0.702   0.192   6.861
 9228SOL    HW228584   0.795   0.172   6.728
 9229SOL     OW28585   0.510   5.838   5.588
 9229SOL    HW128586   0.500   5.882   5.677
 9229SOL    HW228587   0.537   5.743   5.600
 9230SOL     OW28588   5.554   0.723   4.246
 9230SOL    HW128589   5.491   0.645   4.242
 9230SOL    HW228590   5.512   0.802   4.202
 9231SOL     OW28591   1.792   3.029   3.059
 9231SOL    HW128592   1.734   3.073   3.128
 9231SOL    HW228593   1.887   3.054   3.075
 9232SOL     OW28594   4.227   4.798   1.407
 9232SOL    HW128595   4.240   4.867   1.336
 9232SOL    HW228596   4.159   4.731   1.376
 9233SOL     OW28597   4.709   4.751   1.211
 9233SOL    HW128598   4.738   4.665   1.170
 9233SOL    HW228599   4.788   4.795   1.255
 9234SOL     OW28600   2.557   6.149   3.584
 9234SOL    HW128601   2.646   6.114   3.556
 9234SOL    HW228602   2.551   6.149   3.684
 9235SOL     OW28603   0.714   1.999   3.179
 9235SOL    HW128604   0.764   1.923   3.140
 9235SOL    HW228605   0.759   2.085   3.156
 9236SOL     OW28606   3.430   2.722   5.656
 9236SOL    HW128607   3.379   2.648   5.611
 9236SOL    HW228608   3.478   2.685   5.735
 9237SOL     OW28609   1.737   3.407   3.996
 9237SOL    HW128610   1.747   3.382   3.900
 9237SOL    HW228611   1.727   3.506   4.004
 9238SOL     OW28612   4.615   3.370   6.523
 9238SOL    HW128613   4.559   3.361   6.605
 9238SOL    HW228614   4.701   3.415   6.546
 9239SOL     OW28615   1.738   4.024   0.029
 9239SOL    HW128616   1.825   4.070   0.046
 9239SOL    HW228617   1.703   4.049   6.966
 9240SOL     OW28618   4.453   0.733   2.642
 9240SOL    HW128619   4.528   0.678   2.604
 9240SOL    HW228620   4.489   0.792   2.714
 9241SOL     OW28621   0.499   6.048   0.063
 9241SOL    HW128622   0.574   6.067   7.027
 9241SOL    HW228623   0.461   5.958   0.043
 9242SOL     OW28624   6.323   6.045   1.529
 9242SOL    HW128625   6.337   6.067   1.625
 9242SOL    HW228626   6.333   6.128   1.474
 9243SOL     OW28627   6.516   6.397   4.416
 9243SOL    HW128628   6.576   6.476   4.418
 9243SOL    HW228629   6.424   6.423   4.445
 9244SOL     OW28630   2.982   5.180   6.951
 9244SOL    HW128631   3.062   5.189   7.010
 9244SOL    HW228632   2.912   5.244   6.979
 9245SOL     OW28633   0.772   5.981   1.220
 9245SOL    HW128634   0.748   5.992   1.317
 9245SOL    HW228635   0.841   6.049   1.195
 9246SOL     OW28636   0.100   4.766   4.410
 9246SOL    HW128637   0.068   4.672   4.395
 9246SOL    HW228638   0.141   4.801   4.326
 9247SOL     OW28639   1.784   6.507   2.312
 9247SOL    HW128640   1.813   6.425   2.362
 9247SOL    HW228641   1.845   6.520   2.233
 9248SOL     OW28642   3.367   1.732   6.414
 9248SOL    HW128643   3.307   1.809   6.396
 9248SOL    HW228644   3.462   1.758   6.398
 9249SOL     OW28645   4.794   6.799   3.377
 9249SOL    HW128646   4.777   6.896   3.359
 9249SOL    HW228647   4.741   6.744   3.312
 9250SOL     OW28648   5.517   3.508   3.760
 9250SOL    HW128649   5.426   3.500   3.719
 9250SOL    HW228650   5.512   3.486   3.857
 9251SOL     OW28651   3.412   1.744   2.674
 9251SOL    HW128652   3.458   1.669   2.626
 9251SOL    HW228653   3.473   1.780   2.745
 9252SOL     OW28654   1.730   6.828   4.456
 9252SOL    HW128655   1.702   6.737   4.487
 9252SOL    HW228656   1.829   6.837   4.465
 9253SOL     OW28657   0.865   0.151   5.488
 9253SOL    HW128658   0.922   0.103   5.554
 9253SOL    HW228659   0.911   0.235   5.458
 9254SOL     OW28660   5.627   3.476   1.529
 9254SOL    HW128661   5.557   3.541   1.558
 9254SOL    HW228662   5.695   3.523   1.472
 9255SOL     OW28663   0.109   4.583   0.369
 9255SOL    HW128664   0.030   4.564   0.310
 9255SOL    HW228665   0.153   4.497   0.395
 9256SOL     OW28666   4.322   5.011   1.834
 9256SOL    HW128667   4.349   4.919   1.864
 9256SOL    HW228668   4.289   5.063   1.913
 9257SOL     OW28669   1.042   3.808   1.396
 9257SOL    HW128670   1.085   3.729   1.355
 9257SOL    HW228671   1.056   3.888   1.338
 9258SOL     OW28672   3.985   3.933   3.658
 9258SOL    HW128673   4.030   3.856   3.702
 9258SOL    HW228674   3.899   3.954   3.706
 9259SOL     OW28675   0.878   2.724   0.040
 9259SOL    HW128676   0.930   2.651   7.022
 9259SOL    HW228677   0.785   2.725   0.004
 9260SOL     OW28678   5.672   3.587   6.809
 9260SOL    HW128679   5.677   3.659   6.879
 9260SOL    HW228680   5.714   3.620   6.724
 9261SOL     OW28681   4.364   0.166   0.132
 9261SOL    HW128682   4.287   0.114   0.169
 9261SOL    HW228683   4.405   0.221   0.204
 9262SOL     OW28684   4.892   1.057   5.415
 9262SOL    HW128685   4.982   1.072   5.375
 9262SOL    HW228686   4.886   0.963   5.449
 9263SOL     OW28687   5.472   3.878   2.226
 9263SOL    HW128688   5.498   3.840   2.315
 9263SOL    HW228689   5.492   3.811   2.154
 9264SOL     OW28690   6.504   3.207   0.165
 9264SOL    HW128691   6.455   3.162   0.090
 9264SOL    HW228692   6.452   3.195   0.249
 9265SOL     OW28693   1.893   1.147   5.342
 9265SOL    HW128694   1.836   1.180   5.416
 9265SOL    HW228695   1.977   1.201   5.338
 9266SOL     OW28696   1.864   6.244   2.342
 9266SOL    HW128697   1.961   6.266   2.330
 9266SOL    HW228698   1.852   6.145   2.338
 9267SOL     OW28699   2.617   5.003   5.203
 9267SOL    HW128700   2.670   4.963   5.278
 9267SOL    HW228701   2.668   4.992   5.118
 9268SOL     OW28702   0.300   1.121   2.627
 9268SOL    HW128703   0.303   1.175   2.542
 9268SOL    HW228704   0.351   1.036   2.613
 9269SOL     OW28705   3.870   1.249   5.663
 9269SOL    HW128706   3.897   1.176   5.726
 9269SOL    HW228707   3.920   1.333   5.684
 9270SOL     OW28708   0.770   6.839   5.770
 9270SOL    HW128709   0.843   6.808   5.709
 9270SOL    HW228710   0.771   6.939   5.776
 9271SOL     OW28711   1.125   5.061   7.016
 9271SOL    HW128712   1.033   5.081   0.024
 9271SOL    HW228713   1.119   5.040   6.919
 9272SOL     OW28714   2.631   4.722   6.824
 9272SOL    HW128715   2.595   4.693   6.913
 9272SOL    HW228716   2.666   4.642   6.775
 9273SOL     OW28717   3.872   5.818   5.571
 9273SOL    HW128718   3.825   5.809   5.483
 9273SOL    HW228719   3.864   5.912   5.604
 9274SOL     OW28720   5.707   2.415   1.184
 9274SOL    HW128721   5.768   2.398   1.107
 9274SOL    HW228722   5.676   2.510   1.183
 9275SOL     OW28723   0.582   0.451   6.370
 9275SOL    HW128724   0.644   0.434   6.448
 9275SOL    HW228725   0.490   0.422   6.394
 9276SOL     OW28726   4.486   6.028   4.912
 9276SOL    HW128727   4.388   6.040   4.893
 9276SOL    HW228728   4.505   6.055   5.007
 9277SOL     OW28729   3.618   2.609   0.550
 9277SOL    HW128730   3.627   2.585   0.453
 9277SOL    HW228731   3.677   2.687   0.570
 9278SOL     OW28732   1.159   2.395   1.467
 9278SOL    HW128733   1.219   2.326   1.508
 9278SOL    HW228734   1.172   2.482   1.514
 9279SOL     OW28735   3.370   0.058   1.390
 9279SOL    HW128736   3.443   0.111   1.432
 9279SOL    HW228737   3.403   0.014   1.307
 9280SOL     OW28738   2.082   0.422   3.014
 9280SOL    HW128739   2.024   0.353   3.059
 9280SOL    HW228740   2.070   0.416   2.915
 9281SOL     OW28741   2.002   3.073   0.406
 9281SOL    HW128742   2.045   3.069   0.496
 9281SOL    HW228743   2.072   3.064   0.335
 9282SOL     OW28744   4.537   2.211   6.405
 9282SOL    HW128745   4.517   2.247   6.496
 9282SOL    HW228746   4.617   2.258   6.368
 9283SOL     OW28747   5.966   1.628   2.803
 9283SOL    HW128748   5.873   1.663   2.801
 9283SOL    HW228749   6.026   1.690   2.752
 9284SOL     OW28750   3.204   3.656   1.945
 9284SOL    HW128751   3.300   3.664   1.972
 9284SOL    HW228752   3.198   3.609   1.858
 9285SOL     OW28753   6.184   2.625   6.478
 9285SOL    HW128754   6.091   2.652   6.503
 9285SOL    HW228755   6.227   2.699   6.428
 9286SOL     OW28756   5.332   6.348   5.107
 9286SOL    HW128757   5.348   6.447   5.110
 9286SOL    HW228758   5.343   6.310   5.199
 9287SOL     OW28759   2.800   6.452   2.054
 9287SOL    HW128760   2.887   6.446   2.103
 9287SOL    HW228761   2.746   6.528   2.091
 9288SOL     OW28762   4.624   2.554   5.966
 9288SOL    HW128763   4.684   2.478   5.940
 9288SOL    HW228764   4.569   2.582   5.887
 9289SOL     OW28765   4.840   3.172   2.819
 9289SOL    HW128766   4.837   3.143   2.915
 9289SOL    HW228767   4.768   3.240   2.804
 9290SOL     OW28768   4.783   2.115   4.954
 9290SOL    HW128769   4.693   2.136   4.917
 9290SOL    HW228770   4.849   2.108   4.879
 9291SOL     OW28771   0.753   2.159   4.786
 9291SOL    HW128772   0.723   2.182   4.878
 9291SOL    HW228773   0.674   2.155   4.725
 9292SOL     OW28774   6.609   3.805   6.640
 9292SOL    HW128775   6.600   3.790   6.739
 9292SOL    HW228776   6.694   3.763   6.608
 9293SOL     OW28777   5.452   4.403   6.805
 9293SOL    HW128778   5.353   4.410   6.811
 9293SOL    HW228779   5.477   4.352   6.722
 9294SOL     OW28780   5.670   5.921   6.998
 9294SOL    HW128781   5.640   5.997   6.940
 9294SOL    HW228782   5.636   5.935   0.064
 9295SOL     OW28783   4.949   1.776   3.557
 9295SOL    HW128784   4.926   1.708   3.488
 9295SOL    HW228785   4.883   1.770   3.632
 9296SOL     OW28786   6.420   6.938   6.001
 9296SOL    HW128787   6.391   7.003   5.930
 9296SOL    HW228788   6.450   6.853   5.957
 9297SOL     OW28789   0.797   0.671   0.460
 9297SOL    HW128790   0.876   0.703   0.512
 9297SOL    HW228791   0.823   0.592   0.405
 9298SOL     OW28792   0.998   6.499   4.975
 9298SOL    HW128793   1.048   6.584   4.991
 9298SOL    HW228794   0.995   6.480   4.877
 9299SOL     OW28795   2.320   2.862   4.179
 9299SOL    HW128796   2.294   2.951   4.141
 9299SOL    HW228797   2.381   2.815   4.115
 9300SOL     OW28798   5.558   4.380   3.984
 9300SOL    HW128799   5.592   4.321   4.058
 9300SOL    HW228800   5.630   4.393   3.916
 9301SOL     OW28801   5.826   4.136   2.712
 9301SOL    HW128802   5.733   4.138   2.749
 9301SOL    HW228803   5.847   4.044   2.680
 9302SOL     OW28804   2.400   1.932   2.509
 9302SOL    HW128805   2.433   1.931   2.603
 9302SOL    HW228806   2.337   2.009   2.496
 9303SOL     OW28807   3.429   4.947   1.038
 9303SOL    HW128808   3.410   5.045   1.036
 9303SOL    HW228809   3.378   4.904   1.112
 9304SOL     OW28810   4.440   3.383   0.774
 9304SOL    HW128811   4.504   3.383   0.851
 9304SOL    HW228812   4.354   3.426   0.802
 9305SOL     OW28813   5.124   2.620   2.693
 9305SOL    HW128814   5.144   2.549   2.761
 9305SOL    HW228815   5.151   2.709   2.730
 9306SOL     OW28816   6.510   4.366   3.918
 9306SOL    HW128817   6.573   4.419   3.977
 9306SOL    HW228818   6.439   4.427   3.883
 9307SOL     OW28819   2.044   1.284   6.474
 9307SOL    HW128820   2.117   1.250   6.415
 9307SOL    HW228821   2.061   1.381   6.495
 9308SOL     OW28822   6.770   2.872   0.822
 9308SOL    HW128823   6.697   2.866   0.890
 9308SOL    HW228824   6.740   2.930   0.747
 9309SOL     OW28825   4.811   3.895   6.566
 9309SOL    HW128826   4.719   3.930   6.585
 9309SOL    HW228827   4.853   3.952   6.495
 9310SOL     OW28828   3.763   6.286   0.860
 9310SOL    HW128829   3.701   6.208   0.866
 9310SOL    HW228830   3.759   6.325   0.767
 9311SOL     OW28831   6.383   3.026   1.091
 9311SOL    HW128832   6.292   3.045   1.128
 9311SOL    HW228833   6.444   3.102   1.113
 9312SOL     OW28834   1.516   4.794   5.409
 9312SOL    HW128835   1.530   4.887   5.444
 9312SOL    HW228836   1.442   4.751   5.461
 9313SOL     OW28837   5.935   6.730   2.560
 9313SOL    HW128838   5.998   6.654   2.579
 9313SOL    HW228839   5.953   6.805   2.623
 9314SOL     OW28840   5.193   4.820   0.426
 9314SOL    HW128841   5.218   4.917   0.424
 9314SOL    HW228842   5.099   4.810   0.457
 9315SOL     OW28843   6.393   6.562   6.526
 9315SOL    HW128844   6.365   6.630   6.592
 9315SOL    HW228845   6.370   6.470   6.560
 9316SOL     OW28846   3.924   5.932   4.257
 9316SOL    HW128847   3.871   5.854   4.288
 9316SOL    HW228848   3.985   5.904   4.183
 9317SOL     OW28849   6.161   4.098   4.667
 9317SOL    HW128850   6.246   4.087   4.717
 9317SOL    HW228851   6.139   4.196   4.661
 9318SOL     OW28852   6.219   0.183   6.371
 9318SOL    HW128853   6.296   0.243   6.389
 9318SOL    HW228854   6.232   0.137   6.283
 9319SOL     OW28855   6.868   3.469   4.820
 9319SOL    HW128856   6.955   3.479   4.869
 9319SOL    HW228857   6.839   3.559   4.787
 9320SOL     OW28858   4.447   2.944   6.781
 9320SOL    HW128859   4.430   2.848   6.761
 9320SOL    HW228860   4.420   3.000   6.702
 9321SOL     OW28861   6.270   5.859   3.213
 9321SOL    HW128862   6.264   5.774   3.264
 9321SOL    HW228863   6.365   5.879   3.191
 9322SOL     OW28864   0.525   6.493   0.060
 9322SOL    HW128865   0.489   6.475   6.995
 9322SOL    HW228866   0.575   6.413   0.092
 9323SOL     OW28867   6.809   1.440   5.955
 9323SOL    HW128868   6.841   1.505   6.024
 9323SOL    HW228869   6.714   1.461   5.932
 9324SOL     OW28870   2.014   5.652   0.050
 9324SOL    HW128871   1.941   5.705   0.006
 9324SOL    HW228872   2.022   5.563   0.006
 9325SOL     OW28873   0.321   2.722   0.709
 9325SOL    HW128874   0.267   2.698   0.790
 9325SOL    HW228875   0.343   2.639   0.659
 9326SOL     OW28876   2.237   6.088   1.349
 9326SOL    HW128877   2.298   6.128   1.417
 9326SOL    HW228878   2.288   6.070   1.265
 9327SOL     OW28879   3.848   1.113   3.321
 9327SOL    HW128880   3.856   1.194   3.264
 9327SOL    HW228881   3.835   1.139   3.416
 9328SOL     OW28882   3.002   1.145   2.388
 9328SOL    HW128883   3.046   1.071   2.439
 9328SOL    HW228884   2.903   1.143   2.407
 9329SOL     OW28885   1.530   3.635   1.910
 9329SOL    HW128886   1.523   3.638   2.010
 9329SOL    HW228887   1.439   3.617   1.871
 9330SOL     OW28888   5.758   0.324   0.390
 9330SOL    HW128889   5.763   0.419   0.420
 9330SOL    HW228890   5.663   0.301   0.369
 9331SOL     OW28891   0.364   1.419   6.646
 9331SOL    HW128892   0.403   1.493   6.592
 9331SOL    HW228893   0.401   1.422   6.739
 9332SOL     OW28894   3.499   3.865   4.425
 9332SOL    HW128895   3.566   3.936   4.445
 9332SOL    HW228896   3.409   3.894   4.456
 9333SOL     OW28897   5.446   4.918   1.481
 9333SOL    HW128898   5.518   4.955   1.540
 9333SOL    HW228899   5.488   4.873   1.402
 9334SOL     OW28900   2.913   0.136   4.795
 9334SOL    HW128901   2.998   0.189   4.801
 9334SOL    HW228902   2.919   0.071   4.719
 9335SOL     OW28903   0.840   0.986   0.938
 9335SOL    HW128904   0.926   0.955   0.898
 9335SOL    HW228905   0.832   0.952   1.032
 9336SOL     OW28906   3.199   6.951   5.631
 9336SOL    HW128907   3.266   6.970   5.703
 9336SOL    HW228908   3.204   7.023   5.561
 9337SOL     OW28909   4.912   7.007   2.573
 9337SOL    HW128910   4.901   0.079   2.581
 9337SOL    HW228911   4.825   6.965   2.545
 9338SOL     OW28912   4.090   0.300   1.476
 9338SOL    HW128913   4.155   0.336   1.543
 9338SOL    HW228914   4.089   0.360   1.396
 9339SOL     OW28915   4.058   5.794   0.824
 9339SOL    HW128916   3.971   5.837   0.848
 9339SOL    HW228917   4.130   5.863   0.824
 9340SOL     OW28918   5.498   3.245   0.677
 9340SOL    HW128919   5.485   3.255   0.775
 9340SOL    HW228920   5.587   3.205   0.658
 9341SOL     OW28921   6.793   5.284   6.061
 9341SOL    HW128922   6.835   5.340   5.989
 9341SOL    HW228923   6.694   5.297   6.060
 9342SOL     OW28924   0.984   6.159   6.224
 9342SOL    HW128925   1.007   6.094   6.295
 9342SOL    HW228926   1.052   6.155   6.151
 9343SOL     OW28927   6.408   5.417   4.748
 9343SOL    HW128928   6.360   5.330   4.756
 9343SOL    HW228929   6.373   5.480   4.817
 9344SOL     OW28930   4.446   6.553   1.326
 9344SOL    HW128931   4.375   6.623   1.317
 9344SOL    HW228932   4.501   6.551   1.243
 9345SOL     OW28933   6.751   2.758   0.302
 9345SOL    HW128934   6.743   2.855   0.278
 9345SOL    HW228935   6.832   2.719   0.258
 9346SOL     OW28936   6.249   0.154   0.327
 9346SOL    HW128937   6.216   0.239   0.367
 9346SOL    HW228938   6.177   0.085   0.331
 9347SOL     OW28939   1.577   6.502   1.975
 9347SOL    HW128940   1.489   6.461   1.996
 9347SOL    HW228941   1.572   6.601   1.985
 9348SOL     OW28942   2.838   5.118   0.617
 9348SOL    HW128943   2.812   5.046   0.681
 9348SOL    HW228944   2.937   5.115   0.601
 9349SOL     OW28945   2.078   5.908   2.759
 9349SOL    HW128946   2.062   5.883   2.664
 9349SOL    HW228947   2.048   6.002   2.775
 9350SOL     OW28948   0.702   2.786   5.991
 9350SOL    HW128949   0.701   2.864   6.054
 9350SOL    HW228950   0.666   2.814   5.903
 9351SOL     OW28951   2.470   1.147   6.541
 9351SOL    HW128952   2.526   1.219   6.500
 9351SOL    HW228953   2.485   1.147   6.640
 9352SOL     OW28954   2.469   4.799   5.670
 9352SOL    HW128955   2.463   4.747   5.584
 9352SOL    HW228956   2.450   4.738   5.747
 9353SOL     OW28957   6.320   0.783   0.835
 9353SOL    HW128958   6.330   0.775   0.934
 9353SOL    HW228959   6.289   0.695   0.798
 9354SOL     OW28960   0.854   1.758   6.247
 9354SOL    HW128961   0.899   1.741   6.335
 9354SOL    HW228962   0.848   1.857   6.232
 9355SOL     OW28963   0.226   1.970   5.380
 9355SOL    HW128964   0.283   1.907   5.328
 9355SOL    HW228965   0.272   1.995   5.465
 9356SOL     OW28966   5.547   0.181   3.612
 9356SOL    HW128967   5.459   0.187   3.567
 9356SOL    HW228968   5.586   0.273   3.623
 9357SOL     OW28969   0.709   1.594   0.181
 9357SOL    HW128970   0.737   1.593   0.277
 9357SOL    HW228971   0.790   1.598   0.123
 9358SOL     OW28972   0.929   2.741   1.517
 9358SOL    HW128973   0.843   2.777   1.482
 9358SOL    HW228974   0.977   2.693   1.444
 9359SOL     OW28975   0.848   0.165   5.141
 9359SOL    HW128976   0.858   0.259   5.175
 9359SOL    HW228977   0.784   0.115   5.199
 9360SOL     OW28978   0.616   0.189   6.027
 9360SOL    HW128979   0.715   0.187   6.011
 9360SOL    HW228980   0.585   0.284   6.028
 9361SOL     OW28981   2.116   5.644   4.071
 9361SOL    HW128982   2.059   5.594   4.136
 9361SOL    HW228983   2.109   5.742   4.090
 9362SOL     OW28984   2.196   0.666   2.108
 9362SOL    HW128985   2.223   0.620   2.024
 9362SOL    HW228986   2.144   0.603   2.166
 9363SOL     OW28987   2.155   4.691   2.631
 9363SOL    HW128988   2.209   4.757   2.579
 9363SOL    HW228989   2.143   4.608   2.576
 9364SOL     OW28990   0.875   2.964   0.802
 9364SOL    HW128991   0.834   2.873   0.800
 9364SOL    HW228992   0.915   2.984   0.712
 9365SOL     OW28993   3.419   0.876   4.810
 9365SOL    HW128994   3.430   0.840   4.718
 9365SOL    HW228995   3.322   0.885   4.832
 9366SOL     OW28996   4.080   6.076   2.665
 9366SOL    HW128997   4.098   5.995   2.610
 9366SOL    HW228998   4.157   6.139   2.657
 9367SOL     OW28999   6.528   1.125   1.505
 9367SOL    HW129000   6.540   1.045   1.563
 9367SOL    HW229001   6.472   1.100   1.425
 9368SOL     OW29002   2.596   0.528   2.866
 9368SOL    HW129003   2.515   0.569   2.908
 9368SOL    HW229004   2.645   0.473   2.933
 9369SOL     OW29005   3.416   5.184   0.649
 9369SOL    HW129006   3.509   5.169   0.616
 9369SOL    HW229007   3.404   5.281   0.671
 9370SOL     OW29008   4.337   1.720   5.080
 9370SOL    HW129009   4.240   1.697   5.073
 9370SOL    HW229010   4.392   1.637   5.064
 9371SOL     OW29011   4.470   5.164   1.152
 9371SOL    HW129012   4.468   5.164   1.252
 9371SOL    HW229013   4.453   5.257   1.119
 9372SOL     OW29014   4.173   5.794   1.660
 9372SOL    HW129015   4.207   5.707   1.623
 9372SOL    HW229016   4.101   5.777   1.727
 9373SOL     OW29017   0.129   3.015   1.009
 9373SOL    HW129018   0.060   3.013   1.082
 9373SOL    HW229019   0.203   2.953   1.032
 9374SOL     OW29020   0.173   5.819   5.997
 9374SOL    HW129021   0.262   5.824   6.042
 9374SOL    HW229022   0.127   5.908   6.003
 9375SOL     OW29023   0.535   1.440   6.864
 9375SOL    HW129024   0.464   1.508   6.881
 9375SOL    HW229025   0.544   1.382   6.945
 9376SOL     OW29026   2.606   3.783   1.037
 9376SOL    HW129027   2.530   3.803   0.974
 9376SOL    HW229028   2.624   3.685   1.038
 9377SOL     OW29029   2.158   0.981   3.518
 9377SOL    HW129030   2.071   1.029   3.511
 9377SOL    HW229031   2.150   0.891   3.475
 9378SOL     OW29032   3.784   1.248   5.122
 9378SOL    HW129033   3.705   1.284   5.173
 9378SOL    HW229034   3.761   1.245   5.025
 9379SOL     OW29035   5.055   7.000   4.228
 9379SOL    HW129036   5.138   6.969   4.274
 9379SOL    HW229037   5.025   0.060   4.268
 9380SOL     OW29038   5.359   5.556   0.522
 9380SOL    HW129039   5.297   5.558   0.443
 9380SOL    HW229040   5.316   5.599   0.600
 9381SOL     OW29041   5.357   1.268   5.561
 9381SOL    HW129042   5.341   1.176   5.526
 9381SOL    HW229043   5.279   1.327   5.539
 9382SOL     OW29044   2.654   5.200   5.933
 9382SOL    HW129045   2.616   5.166   5.847
 9382SOL    HW229046   2.736   5.254   5.914
 9383SOL     OW29047   5.872   3.884   2.632
 9383SOL    HW129048   5.945   3.816   2.638
 9383SOL    HW229049   5.784   3.839   2.621
 9384SOL     OW29050   3.512   0.232   1.536
 9384SOL    HW129051   3.512   0.311   1.597
 9384SOL    HW229052   3.525   0.148   1.590
 9385SOL     OW29053   4.318   1.322   4.074
 9385SOL    HW129054   4.385   1.299   4.144
 9385SOL    HW229055   4.303   1.421   4.073
 9386SOL     OW29056   4.854   6.629   0.654
 9386SOL    HW129057   4.868   6.534   0.624
 9386SOL    HW229058   4.933   6.684   0.627
 9387SOL     OW29059   2.716   1.300   6.989
 9387SOL    HW129060   2.693   1.397   6.984
 9387SOL    HW229061   2.634   1.247   7.009
 9388SOL     OW29062   2.353   0.225   5.521
 9388SOL    HW129063   2.351   0.309   5.574
 9388SOL    HW229064   2.368   0.147   5.582
 9389SOL     OW29065   2.172   3.804   1.536
 9389SOL    HW129066   2.101   3.776   1.472
 9389SOL    HW229067   2.177   3.737   1.611
 9390SOL     OW29068   5.117   4.476   4.407
 9390SOL    HW129069   5.180   4.436   4.472
 9390SOL    HW229070   5.028   4.492   4.451
 9391SOL     OW29071   1.396   4.089   4.403
 9391SOL    HW129072   1.432   4.042   4.322
 9391SOL    HW229073   1.467   4.094   4.473
 9392SOL     OW29074   5.448   4.382   2.765
 9392SOL    HW129075   5.428   4.479   2.754
 9392SOL    HW229076   5.489   4.346   2.681
 9393SOL     OW29077   1.766   5.957   5.983
 9393SOL    HW129078   1.671   5.978   5.961
 9393SOL    HW229079   1.793   5.873   5.936
 9394SOL     OW29080   4.347   0.307   0.392
 9394SOL    HW129081   4.415   0.246   0.432
 9394SOL    HW229082   4.370   0.402   0.414
 9395SOL     OW29083   1.210   1.403   1.030
 9395SOL    HW129084   1.207   1.502   1.047
 9395SOL    HW229085   1.299   1.378   0.992
 9396SOL     OW29086   0.990   0.490   6.180
 9396SOL    HW129087   0.891   0.485   6.164
 9396SOL    HW229088   1.008   0.554   6.255
 9397SOL     OW29089   4.003   1.012   4.993
 9397SOL    HW129090   3.974   1.016   5.089
 9397SOL    HW229091   3.926   1.035   4.934
 9398SOL     OW29092   0.740   1.898   0.169
 9398SOL    HW129093   0.647   1.927   0.195
 9398SOL    HW229094   0.741   1.799   0.155
 9399SOL     OW29095   1.116   1.947   4.421
 9399SOL    HW129096   1.105   2.032   4.472
 9399SOL    HW229097   1.142   1.967   4.327
 9400SOL     OW29098   5.974   1.514   1.034
 9400SOL    HW129099   5.972   1.531   1.132
 9400SOL    HW229100   5.962   1.601   0.985
 9401SOL     OW29101   0.256   2.189   3.483
 9401SOL    HW129102   0.324   2.170   3.412
 9401SOL    HW229103   0.243   2.107   3.539
 9402SOL     OW29104   2.846   0.039   4.356
 9402SOL    HW129105   2.931   0.021   4.307
 9402SOL    HW229106   2.768   0.005   4.303
 9403SOL     OW29107   5.307   2.001   1.194
 9403SOL    HW129108   5.292   1.960   1.284
 9403SOL    HW229109   5.366   2.081   1.204
 9404SOL     OW29110   2.308   2.631   1.036
 9404SOL    HW129111   2.388   2.633   1.095
 9404SOL    HW229112   2.252   2.712   1.052
 9405SOL     OW29113   6.273   5.892   5.395
 9405SOL    HW129114   6.336   5.875   5.470
 9405SOL    HW229115   6.315   5.866   5.309
 9406SOL     OW29116   1.004   2.203   0.317
 9406SOL    HW129117   0.972   2.273   0.382
 9406SOL    HW229118   0.969   2.114   0.344
 9407SOL     OW29119   1.729   4.916   4.682
 9407SOL    HW129120   1.765   4.998   4.639
 9407SOL    HW229121   1.632   4.928   4.702
 9408SOL     OW29122   6.260   4.330   4.478
 9408SOL    HW129123   6.247   4.381   4.393
 9408SOL    HW229124   6.172   4.322   4.526
 9409SOL     OW29125   6.101   5.721   2.104
 9409SOL    HW129126   6.046   5.779   2.045
 9409SOL    HW229127   6.195   5.755   2.106
 9410SOL     OW29128   4.147   0.714   0.825
 9410SOL    HW129129   4.212   0.645   0.794
 9410SOL    HW229130   4.151   0.793   0.763
 9411SOL     OW29131   3.224   4.048   3.035
 9411SOL    HW129132   3.186   4.046   3.127
 9411SOL    HW229133   3.181   3.977   2.980
 9412SOL     OW29134   4.679   6.889   1.867
 9412SOL    HW129135   4.584   6.869   1.889
 9412SOL    HW229136   4.706   6.839   1.784
 9413SOL     OW29137   4.856   3.901   3.036
 9413SOL    HW129138   4.882   3.947   3.121
 9413SOL    HW229139   4.761   3.870   3.042
 9414SOL     OW29140   2.368   2.282   2.443
 9414SOL    HW129141   2.307   2.226   2.500
 9414SOL    HW229142   2.386   2.235   2.357
 9415SOL     OW29143   5.443   0.344   2.025
 9415SOL    HW129144   5.489   0.272   2.077
 9415SOL    HW229145   5.359   0.307   1.985
 9416SOL     OW29146   5.736   5.437   5.559
 9416SOL    HW129147   5.658   5.440   5.622
 9416SOL    HW229148   5.768   5.531   5.541
 9417SOL     OW29149   3.368   5.310   2.660
 9417SOL    HW129150   3.374   5.407   2.637
 9417SOL    HW229151   3.274   5.278   2.647
 9418SOL     OW29152   3.160   1.864   5.121
 9418SOL    HW129153   3.124   1.806   5.193
 9418SOL    HW229154   3.110   1.846   5.036
 9419SOL     OW29155   2.183   2.788   6.714
 9419SOL    HW129156   2.218   2.696   6.732
 9419SOL    HW229157   2.084   2.782   6.699
 9420SOL     OW29158   5.667   4.089   5.389
 9420SOL    HW129159   5.721   4.045   5.460
 9420SOL    HW229160   5.726   4.148   5.333
 9421SOL     OW29161   3.608   6.311   6.776
 9421SOL    HW129162   3.585   6.243   6.844
 9421SOL    HW229163   3.646   6.266   6.695
 9422SOL     OW29164   2.451   6.328   5.673
 9422SOL    HW129165   2.353   6.315   5.659
 9422SOL    HW229166   2.491   6.242   5.705
 9423SOL     OW29167   4.685   5.128   2.179
 9423SOL    HW129168   4.667   5.220   2.143
 9423SOL    HW229169   4.762   5.088   2.130
 9424SOL     OW29170   6.625   0.415   4.330
 9424SOL    HW129171   6.722   0.400   4.310
 9424SOL    HW229172   6.601   0.509   4.306
 9425SOL     OW29173   6.996   3.946   0.411
 9425SOL    HW129174   6.976   4.023   0.472
 9425SOL    HW229175   6.937   3.868   0.435
 9426SOL     OW29176   5.170   3.132   6.159
 9426SOL    HW129177   5.109   3.055   6.173
 9426SOL    HW229178   5.232   3.141   6.237
 9427SOL     OW29179   4.590   4.347   2.495
 9427SOL    HW129180   4.532   4.402   2.435
 9427SOL    HW229181   4.661   4.302   2.442
 9428SOL     OW29182   0.991   6.250   5.530
 9428SOL    HW129183   0.935   6.321   5.486
 9428SOL    HW229184   0.933   6.172   5.554
 9429SOL     OW29185   2.675   2.249   3.742
 9429SOL    HW129186   2.738   2.212   3.810
 9429SOL    HW229187   2.622   2.175   3.701
 9430SOL     OW29188   1.854   0.998   4.233
 9430SOL    HW129189   1.841   1.056   4.153
 9430SOL    HW229190   1.784   0.926   4.233
 9431SOL     OW29191   0.888   4.563   5.606
 9431SOL    HW129192   0.893   4.513   5.693
 9431SOL    HW229193   0.799   4.548   5.563
 9432SOL     OW29194   0.050   1.258   4.357
 9432SOL    HW129195   0.064   1.172   4.407
 9432SOL    HW229196   0.120   1.324   4.385
 9433SOL     OW29197   4.798   5.419   2.356
 9433SOL    HW129198   4.745   5.360   2.416
 9433SOL    HW229199   4.763   5.411   2.262
 9434SOL     OW29200   4.032   5.348   4.099
 9434SOL    HW129201   4.092   5.362   4.020
 9434SOL    HW229202   3.944   5.314   4.068
 9435SOL     OW29203   6.043   3.808   1.000
 9435SOL    HW129204   6.105   3.771   0.931
 9435SOL    HW229205   6.077   3.786   1.091
 9436SOL     OW29206   2.997   0.925   3.295
 9436SOL    HW129207   2.929   0.853   3.283
 9436SOL    HW229208   3.078   0.903   3.240
 9437SOL     OW29209   5.503   0.640   4.890
 9437SOL    HW129210   5.575   0.570   4.887
 9437SOL    HW229211   5.424   0.604   4.939
 9438SOL     OW29212   4.639   0.448   2.803
 9438SOL    HW129213   4.701   0.524   2.821
 9438SOL    HW229214   4.691   0.370   2.769
 9439SOL     OW29215   2.252   4.082   0.432
 9439SOL    HW129216   2.216   3.999   0.390
 9439SOL    HW229217   2.346   4.065   0.464
 9440SOL     OW29218   1.523   5.421   4.040
 9440SOL    HW129219   1.602   5.410   3.979
 9440SOL    HW229220   1.474   5.334   4.047
 9441SOL     OW29221   0.381   6.554   4.424
 9441SOL    HW129222   0.378   6.461   4.463
 9441SOL    HW229223   0.367   6.549   4.326
 9442SOL     OW29224   6.003   3.314   1.234
 9442SOL    HW129225   6.025   3.379   1.307
 9442SOL    HW229226   5.913   3.335   1.197
 9443SOL     OW29227   2.203   4.198   1.200
 9443SOL    HW129228   2.270   4.139   1.244
 9443SOL    HW229229   2.246   4.285   1.177
 9444SOL     OW29230   1.965   4.857   6.655
 9444SOL    HW129231   1.963   4.771   6.604
 9444SOL    HW229232   1.976   4.933   6.591
 9445SOL     OW29233   0.376   1.278   4.013
 9445SOL    HW129234   0.301   1.216   4.036
 9445SOL    HW229235   0.384   1.284   3.913
 9446SOL     OW29236   6.383   4.042   4.430
 9446SOL    HW129237   6.341   4.133   4.424
 9446SOL    HW229238   6.450   4.032   4.355
 9447SOL     OW29239   5.129   5.178   2.140
 9447SOL    HW129240   5.106   5.081   2.147
 9447SOL    HW229241   5.166   5.197   2.049
 9448SOL     OW29242   5.675   1.991   6.677
 9448SOL    HW129243   5.597   2.049   6.652
 9448SOL    HW229244   5.709   2.017   6.767
 9449SOL     OW29245   5.612   0.026   2.027
 9449SOL    HW129246   5.643   6.965   2.063
 9449SOL    HW229247   5.607   0.021   1.927
 9450SOL     OW29248   1.125   0.014   3.312
 9450SOL    HW129249   1.143   6.996   3.225
 9450SOL    HW229250   1.027   0.034   3.319
 9451SOL     OW29251   4.121   5.162   0.261
 9451SOL    HW129252   4.190   5.104   0.218
 9451SOL    HW229253   4.030   5.135   0.228
 9452SOL     OW29254   6.136   4.010   6.231
 9452SOL    HW129255   6.166   3.963   6.148
 9452SOL    HW229256   6.119   4.106   6.210
 9453SOL     OW29257   5.802   4.619   1.850
 9453SOL    HW129258   5.844   4.689   1.792
 9453SOL    HW229259   5.871   4.551   1.876
 9454SOL     OW29260   6.058   4.991   0.464
 9454SOL    HW129261   6.147   5.036   0.464
 9454SOL    HW229262   6.058   4.918   0.532
 9455SOL     OW29263   4.158   0.645   1.471
 9455SOL    HW129264   4.123   0.574   1.410
 9455SOL    HW229265   4.222   0.704   1.420
 9456SOL     OW29266   6.650   2.124   3.116
 9456SOL    HW129267   6.554   2.109   3.092
 9456SOL    HW229268   6.699   2.037   3.110
 9457SOL     OW29269   6.822   6.232   4.103
 9457SOL    HW129270   6.830   6.161   4.032
 9457SOL    HW229271   6.816   6.322   4.060
 9458SOL     OW29272   5.827   4.230   0.162
 9458SOL    HW129273   5.907   4.289   0.176
 9458SOL    HW229274   5.764   4.240   0.239
 9459SOL     OW29275   4.711   4.183   4.852
 9459SOL    HW129276   4.747   4.130   4.929
 9459SOL    HW229277   4.672   4.269   4.886
 9460SOL     OW29278   1.052   2.891   2.057
 9460SOL    HW129279   0.952   2.890   2.055
 9460SOL    HW229280   1.087   2.862   1.968
 9461SOL     OW29281   1.706   1.197   1.648
 9461SOL    HW129282   1.770   1.164   1.579
 9461SOL    HW229283   1.758   1.237   1.724
 9462SOL     OW29284   6.764   1.300   5.598
 9462SOL    HW129285   6.860   1.323   5.583
 9462SOL    HW229286   6.729   1.250   5.519
 9463SOL     OW29287   6.534   4.022   6.952
 9463SOL    HW129288   6.475   4.096   6.921
 9463SOL    HW229289   6.521   4.008   0.024
 9464SOL     OW29290   1.331   0.681   1.758
 9464SOL    HW129291   1.231   0.692   1.758
 9464SOL    HW229292   1.365   0.690   1.852
 9465SOL     OW29293   6.536   5.688   0.386
 9465SOL    HW129294   6.550   5.730   0.296
 9465SOL    HW229295   6.474   5.745   0.439
 9466SOL     OW29296   4.534   3.676   5.581
 9466SOL    HW129297   4.632   3.691   5.575
 9466SOL    HW229298   4.495   3.669   5.489
 9467SOL     OW29299   1.422   3.674   0.724
 9467SOL    HW129300   1.354   3.611   0.761
 9467SOL    HW229301   1.506   3.624   0.703
 9468SOL     OW29302   6.204   1.407   0.792
 9468SOL    HW129303   6.109   1.434   0.805
 9468SOL    HW229304   6.241   1.372   0.878
 9469SOL     OW29305   6.596   6.860   1.359
 9469SOL    HW129306   6.678   6.812   1.326
 9469SOL    HW229307   6.601   6.956   1.335
 9470SOL     OW29308   4.112   3.155   0.610
 9470SOL    HW129309   4.184   3.143   0.679
 9470SOL    HW229310   4.022   3.142   0.653
 9471SOL     OW29311   6.290   2.603   4.916
 9471SOL    HW129312   6.198   2.640   4.927
 9471SOL    HW229313   6.343   2.663   4.856
 9472SOL     OW29314   1.387   3.280   5.246
 9472SOL    HW129315   1.427   3.191   5.223
 9472SOL    HW229316   1.437   3.320   5.322
 9473SOL     OW29317   3.434   3.435   1.225
 9473SOL    HW129318   3.531   3.413   1.217
 9473SOL    HW229319   3.410   3.507   1.160
 9474SOL     OW29320   6.133   4.550   0.573
 9474SOL    HW129321   6.058   4.483   0.565
 9474SOL    HW229322   6.095   4.641   0.585
 9475SOL     OW29323   5.027   3.751   5.905
 9475SOL    HW129324   5.005   3.798   5.991
 9475SOL    HW229325   4.945   3.741   5.850
 9476SOL     OW29326   4.256   4.088   1.361
 9476SOL    HW129327   4.249   4.154   1.286
 9476SOL    HW229328   4.319   4.122   1.430
 9477SOL     OW29329   2.088   4.745   1.016
 9477SOL    HW129330   2.179   4.781   0.998
 9477SOL    HW229331   2.088   4.646   1.003
 9478SOL     OW29332   5.584   4.217   6.151
 9478SOL    HW129333   5.645   4.184   6.223
 9478SOL    HW229334   5.494   4.176   6.162
 9479SOL     OW29335   4.061   0.824   2.095
 9479SOL    HW129336   3.969   0.856   2.071
 9479SOL    HW229337   4.124   0.901   2.099
 9480SOL     OW29338   5.824   0.561   0.500
 9480SOL    HW129339   5.892   0.584   0.569
 9480SOL    HW229340   5.844   0.613   0.416
 9481SOL     OW29341   4.666   0.497   3.395
 9481SOL    HW129342   4.596   0.504   3.466
 9481SOL    HW229343   4.756   0.488   3.437
 9482SOL     OW29344   6.435   4.976   5.392
 9482SOL    HW129345   6.350   4.928   5.415
 9482SOL    HW229346   6.422   5.027   5.306
 9483SOL     OW29347   6.185   5.936   6.637
 9483SOL    HW129348   6.216   5.907   6.728
 9483SOL    HW229349   6.263   5.970   6.584
 9484SOL     OW29350   2.927   5.886   5.040
 9484SOL    HW129351   2.920   5.837   4.952
 9484SOL    HW229352   2.836   5.907   5.074
 9485SOL     OW29353   0.434   1.825   5.201
 9485SOL    HW129354   0.374   1.832   5.121
 9485SOL    HW229355   0.444   1.729   5.226
 9486SOL     OW29356   6.443   5.636   6.647
 9486SOL    HW129357   6.535   5.597   6.648
 9486SOL    HW229358   6.416   5.654   6.552
 9487SOL     OW29359   3.271   3.516   3.560
 9487SOL    HW129360   3.190   3.460   3.547
 9487SOL    HW229361   3.244   3.608   3.591
 9488SOL     OW29362   1.868   1.021   1.484
 9488SOL    HW129363   1.869   0.931   1.441
 9488SOL    HW229364   1.959   1.062   1.478
 9489SOL     OW29365   6.043   3.875   0.223
 9489SOL    HW129366   5.985   3.806   0.179
 9489SOL    HW229367   6.078   3.937   0.153
 9490SOL     OW29368   6.154   3.461   4.864
 9490SOL    HW129369   6.131   3.507   4.778
 9490SOL    HW229370   6.163   3.363   4.848
 9491SOL     OW29371   5.908   0.160   2.840
 9491SOL    HW129372   5.836   0.136   2.774
 9491SOL    HW229373   5.868   0.165   2.932
 9492SOL     OW29374   4.923   2.409   3.768
 9492SOL    HW129375   4.946   2.387   3.863
 9492SOL    HW229376   4.876   2.497   3.764
 9493SOL     OW29377   3.622   6.016   2.101
 9493SOL    HW129378   3.564   6.081   2.150
 9493SOL    HW229379   3.571   5.931   2.085
 9494SOL     OW29380   5.262   2.576   2.076
 9494SOL    HW129381   5.313   2.632   2.140
 9494SOL    HW229382   5.318   2.558   1.995
 9495SOL     OW29383   5.548   2.981   1.019
 9495SOL    HW129384   5.500   2.959   0.934
 9495SOL    HW229385   5.642   3.009   0.998
 9496SOL     OW29386   5.849   2.832   1.175
 9496SOL    HW129387   5.877   2.877   1.260
 9496SOL    HW229388   5.843   2.900   1.102
 9497SOL     OW29389   5.008   5.274   5.065
 9497SOL    HW129390   4.988   5.200   5.000
 9497SOL    HW229391   4.923   5.314   5.098
 9498SOL     OW29392   1.027   6.037   4.967
 9498SOL    HW129393   1.073   5.948   4.966
 9498SOL    HW229394   0.972   6.047   4.884
 9499SOL     OW29395   5.798   6.571   4.258
 9499SOL    HW129396   5.775   6.528   4.346
 9499SOL    HW229397   5.786   6.505   4.184
 9500SOL     OW29398   3.052   1.831   0.660
 9500SOL    HW129399   3.077   1.887   0.580
 9500SOL    HW229400   3.058   1.734   0.635
 9501SOL     OW29401   2.104   3.889   5.138
 9501SOL    HW129402   2.101   3.910   5.236
 9501SOL    HW229403   2.186   3.930   5.098
 9502SOL     OW29404   5.921   4.724   4.003
 9502SOL    HW129405   5.919   4.823   3.992
 9502SOL    HW229406   5.929   4.680   3.914
 9503SOL     OW29407   6.160   0.930   0.109
 9503SOL    HW129408   6.134   0.845   0.063
 9503SOL    HW229409   6.244   0.965   0.068
 9504SOL     OW29410   6.309   5.883   2.056
 9504SOL    HW129411   6.402   5.871   2.090
 9504SOL    HW229412   6.312   5.916   1.961
 9505SOL     OW29413   4.465   4.189   6.411
 9505SOL    HW129414   4.557   4.175   6.374
 9505SOL    HW229415   4.451   4.287   6.430
 9506SOL     OW29416   2.579   0.881   1.015
 9506SOL    HW129417   2.634   0.916   0.940
 9506SOL    HW229418   2.634   0.877   1.098
 9507SOL     OW29419   6.412   0.166   1.559
 9507SOL    HW129420   6.490   0.143   1.502
 9507SOL    HW229421   6.329   0.168   1.503
 9508SOL     OW29422   4.194   0.777   2.553
 9508SOL    HW129423   4.158   0.690   2.588
 9508SOL    HW229424   4.293   0.781   2.570
 9509SOL     OW29425   5.442   1.523   3.569
 9509SOL    HW129426   5.439   1.623   3.569
 9509SOL    HW229427   5.442   1.490   3.474
 9510SOL     OW29428   1.863   2.712   2.688
 9510SOL    HW129429   1.874   2.624   2.734
 9510SOL    HW229430   1.952   2.743   2.655
 9511SOL     OW29431   0.669   1.526   1.068
 9511SOL    HW129432   0.742   1.592   1.083
 9511SOL    HW229433   0.584   1.574   1.047
 9512SOL     OW29434   6.404   1.757   2.050
 9512SOL    HW129435   6.484   1.739   1.993
 9512SOL    HW229436   6.327   1.702   2.018
 9513SOL     OW29437   4.603   4.051   5.261
 9513SOL    HW129438   4.666   4.066   5.337
 9513SOL    HW229439   4.546   3.971   5.281
 9514SOL     OW29440   3.629   3.229   0.778
 9514SOL    HW129441   3.624   3.318   0.732
 9514SOL    HW229442   3.536   3.194   0.793
 9515SOL     OW29443   0.527   5.476   3.167
 9515SOL    HW129444   0.530   5.425   3.081
 9515SOL    HW229445   0.619   5.478   3.207
 9516SOL     OW29446   0.366   3.859   5.853
 9516SOL    HW129447   0.291   3.916   5.887
 9516SOL    HW229448   0.453   3.909   5.864
 9517SOL     OW29449   6.995   0.212   1.229
 9517SOL    HW129450   6.980   0.137   1.294
 9517SOL    HW229451   0.065   0.216   1.205
 9518SOL     OW29452   0.656   0.995   1.483
 9518SOL    HW129453   0.620   1.049   1.407
 9518SOL    HW229454   0.755   1.000   1.485
 9519SOL     OW29455   1.039   2.756   5.214
 9519SOL    HW129456   0.992   2.838   5.245
 9519SOL    HW229457   0.976   2.678   5.217
 9520SOL     OW29458   3.726   6.424   2.016
 9520SOL    HW129459   3.684   6.353   1.961
 9520SOL    HW229460   3.784   6.482   1.959
 9521SOL     OW29461   5.329   4.892   3.484
 9521SOL    HW129462   5.251   4.915   3.541
 9521SOL    HW229463   5.329   4.794   3.464
 9522SOL     OW29464   2.819   4.982   6.885
 9522SOL    HW129465   2.883   5.059   6.890
 9522SOL    HW229466   2.844   4.914   6.954
 9523SOL     OW29467   2.178   6.552   5.391
 9523SOL    HW129468   2.226   6.635   5.419
 9523SOL    HW229469   2.190   6.539   5.293
 9524SOL     OW29470   5.062   2.942   0.653
 9524SOL    HW129471   5.053   2.920   0.750
 9524SOL    HW229472   5.133   3.012   0.641
 9525SOL     OW29473   4.249   6.960   4.495
 9525SOL    HW129474   4.283   0.003   4.557
 9525SOL    HW229475   4.323   6.928   4.437
 9526SOL     OW29476   4.768   6.215   1.564
 9526SOL    HW129477   4.710   6.139   1.594
 9526SOL    HW229478   4.842   6.228   1.629
 9527SOL     OW29479   0.167   2.385   0.871
 9527SOL    HW129480   0.165   2.485   0.872
 9527SOL    HW229481   0.147   2.351   0.779
 9528SOL     OW29482   6.896   1.371   1.523
 9528SOL    HW129483   6.839   1.337   1.598
 9528SOL    HW229484   6.982   1.320   1.520
 9529SOL     OW29485   1.418   3.046   4.909
 9529SOL    HW129486   1.352   3.070   4.980
 9529SOL    HW229487   1.369   3.010   4.829
 9530SOL     OW29488   1.913   1.394   3.890
 9530SOL    HW129489   1.846   1.450   3.842
 9530SOL    HW229490   1.948   1.445   3.968
 9531SOL     OW29491   2.919   6.690   3.887
 9531SOL    HW129492   2.893   6.644   3.802
 9531SOL    HW229493   2.893   6.787   3.881
 9532SOL     OW29494   2.924   1.464   2.336
 9532SOL    HW129495   2.957   1.456   2.241
 9532SOL    HW229496   2.908   1.373   2.373
 9533SOL     OW29497   0.994   1.665   4.818
 9533SOL    HW129498   0.997   1.759   4.852
 9533SOL    HW229499   0.976   1.602   4.893
 9534SOL     OW29500   5.614   1.869   4.570
 9534SOL    HW129501   5.634   1.813   4.651
 9534SOL    HW229502   5.661   1.957   4.579
 9535SOL     OW29503   3.443   1.828   4.612
 9535SOL    HW129504   3.422   1.788   4.523
 9535SOL    HW229505   3.369   1.888   4.640
 9536SOL     OW29506   2.647   6.734   6.414
 9536SOL    HW129507   2.570   6.675   6.438
 9536SOL    HW229508   2.732   6.692   6.446
 9537SOL     OW29509   2.896   0.150   0.609
 9537SOL    HW129510   2.904   0.249   0.600
 9537SOL    HW229511   2.881   0.125   0.705
 9538SOL     OW29512   6.171   3.996   2.608
 9538SOL    HW129513   6.247   3.932   2.614
 9538SOL    HW229514   6.085   3.948   2.621
 9539SOL     OW29515   0.129   3.867   6.848
 9539SOL    HW129516   0.096   3.864   6.943
 9539SOL    HW229517   0.085   3.794   6.795
 9540SOL     OW29518   5.211   2.997   5.721
 9540SOL    HW129519   5.273   3.063   5.679
 9540SOL    HW229520   5.151   3.045   5.786
 9541SOL     OW29521   6.714   1.879   3.501
 9541SOL    HW129522   6.620   1.844   3.503
 9541SOL    HW229523   6.776   1.806   3.470
 9542SOL     OW29524   4.772   4.238   4.326
 9542SOL    HW129525   4.788   4.180   4.406
 9542SOL    HW229526   4.768   4.334   4.356
 9543SOL     OW29527   4.953   2.652   1.462
 9543SOL    HW129528   4.897   2.700   1.529
 9543SOL    HW229529   5.008   2.718   1.411
 9544SOL     OW29530   4.507   1.185   1.109
 9544SOL    HW129531   4.459   1.204   1.194
 9544SOL    HW229532   4.470   1.102   1.068
 9545SOL     OW29533   1.140   6.975   4.794
 9545SOL    HW129534   1.054   6.926   4.783
 9545SOL    HW229535   1.123   0.046   4.793
 9546SOL     OW29536   2.259   4.543   1.706
 9546SOL    HW129537   2.242   4.583   1.616
 9546SOL    HW229538   2.174   4.502   1.741
 9547SOL     OW29539   5.829   5.432   3.583
 9547SOL    HW129540   5.765   5.485   3.528
 9547SOL    HW229541   5.854   5.484   3.665
 9548SOL     OW29542   5.714   0.126   2.661
 9548SOL    HW129543   5.704   0.170   2.572
 9548SOL    HW229544   5.632   0.142   2.716
 9549SOL     OW29545   2.433   5.850   0.442
 9549SOL    HW129546   2.337   5.825   0.454
 9549SOL    HW229547   2.482   5.840   0.529
 9550SOL     OW29548   2.055   1.284   0.064
 9550SOL    HW129549   2.059   1.234   0.150
 9550SOL    HW229550   2.109   1.236   7.021
 9551SOL     OW29551   1.914   5.673   4.906
 9551SOL    HW129552   1.980   5.742   4.877
 9551SOL    HW229553   1.922   5.658   5.004
 9552SOL     OW29554   0.727   4.854   3.590
 9552SOL    HW129555   0.646   4.820   3.542
 9552SOL    HW229556   0.784   4.776   3.618
 9553SOL     OW29557   5.512   4.924   6.436
 9553SOL    HW129558   5.495   4.828   6.413
 9553SOL    HW229559   5.604   4.950   6.407
 9554SOL     OW29560   1.782   1.766   1.728
 9554SOL    HW129561   1.784   1.804   1.636
 9554SOL    HW229562   1.735   1.678   1.727
 9555SOL     OW29563   0.065   2.863   6.154
 9555SOL    HW129564   0.027   2.807   6.227
 9555SOL    HW229565   7.017   2.903   6.101
 9556SOL     OW29566   6.686   1.122   1.252
 9556SOL    HW129567   6.672   1.073   1.338
 9556SOL    HW229568   6.768   1.179   1.259
 9557SOL     OW29569   4.890   1.694   2.269
 9557SOL    HW129570   4.833   1.654   2.198
 9557SOL    HW229571   4.886   1.794   2.263
 9558SOL     OW29572   6.629   3.844   1.089
 9558SOL    HW129573   6.613   3.934   1.129
 9558SOL    HW229574   6.718   3.810   1.117
 9559SOL     OW29575   0.596   3.874   2.952
 9559SOL    HW129576   0.636   3.957   2.991
 9559SOL    HW229577   0.526   3.899   2.886
 9560SOL     OW29578   3.901   2.684   5.350
 9560SOL    HW129579   3.847   2.635   5.418
 9560SOL    HW229580   3.936   2.618   5.282
 9561SOL     OW29581   3.194   5.750   6.293
 9561SOL    HW129582   3.199   5.848   6.312
 9561SOL    HW229583   3.275   5.704   6.330
 9562SOL     OW29584   5.688   5.065   4.176
 9562SOL    HW129585   5.727   5.155   4.156
 9562SOL    HW229586   5.627   5.038   4.101
 9563SOL     OW29587   0.425   6.390   6.826
 9563SOL    HW129588   0.357   6.443   6.776
 9563SOL    HW229589   0.383   6.307   6.862
 9564SOL     OW29590   1.352   0.632   5.953
 9564SOL    HW129591   1.375   0.683   5.869
 9564SOL    HW229592   1.312   0.544   5.928
 9565SOL     OW29593   3.171   5.658   5.168
 9565SOL    HW129594   3.095   5.697   5.219
 9565SOL    HW229595   3.201   5.573   5.212
 9566SOL     OW29596   3.005   4.805   6.096
 9566SOL    HW129597   2.941   4.871   6.057
 9566SOL    HW229598   3.035   4.742   6.025
 9567SOL     OW29599   6.056   5.056   4.931
 9567SOL    HW129600   5.975   5.105   4.899
 9567SOL    HW229601   6.079   5.085   5.023
 9568SOL     OW29602   5.535   3.883   5.799
 9568SOL    HW129603   5.513   3.924   5.711
 9568SOL    HW229604   5.464   3.905   5.865
 9569SOL     OW29605   6.100   0.058   1.601
 9569SOL    HW129606   6.038   0.089   1.674
 9569SOL    HW229607   6.106   6.986   1.602
 9570SOL     OW29608   1.165   1.802   6.607
 9570SOL    HW129609   1.242   1.816   6.545
 9570SOL    HW229610   1.189   1.833   6.699
 9571SOL     OW29611   3.056   2.022   0.866
 9571SOL    HW129612   3.069   1.957   0.791
 9571SOL    HW229613   3.144   2.065   0.888
 9572SOL     OW29614   0.290   4.035   0.739
 9572SOL    HW129615   0.334   4.103   0.680
 9572SOL    HW229616   0.313   3.943   0.707
 9573SOL     OW29617   4.797   1.455   3.104
 9573SOL    HW129618   4.716   1.399   3.118
 9573SOL    HW229619   4.776   1.550   3.128
 9574SOL     OW29620   2.658   2.436   3.429
 9574SOL    HW129621   2.646   2.470   3.336
 9574SOL    HW229622   2.612   2.498   3.493
 9575SOL     OW29623   4.081   1.459   2.974
 9575SOL    HW129624   4.094   1.513   3.058
 9575SOL    HW229625   4.083   1.519   2.895
 9576SOL     OW29626   3.798   3.615   5.329
 9576SOL    HW129627   3.791   3.560   5.413
 9576SOL    HW229628   3.808   3.554   5.251
 9577SOL     OW29629   0.797   5.701   3.595
 9577SOL    HW129630   0.775   5.793   3.564
 9577SOL    HW229631   0.896   5.687   3.590
 9578SOL     OW29632   7.006   3.934   1.122
 9578SOL    HW129633   0.028   3.890   1.047
 9578SOL    HW229634   6.927   3.878   1.148
 9579SOL     OW29635   2.093   4.812   2.866
 9579SOL    HW129636   2.054   4.739   2.922
 9579SOL    HW229637   2.122   4.774   2.778
 9580SOL     OW29638   4.122   3.742   5.898
 9580SOL    HW129639   4.143   3.836   5.871
 9580SOL    HW229640   4.106   3.687   5.816
 9581SOL     OW29641   1.116   6.080   5.979
 9581SOL    HW129642   1.060   6.043   5.905
 9581SOL    HW229643   1.173   6.008   6.017
 9582SOL     OW29644   4.482   5.341   2.999
 9582SOL    HW129645   4.410   5.404   2.970
 9582SOL    HW229646   4.474   5.325   3.098
 9583SOL     OW29647   1.632   4.611   1.595
 9583SOL    HW129648   1.724   4.608   1.557
 9583SOL    HW229649   1.574   4.669   1.537
 9584SOL     OW29650   4.915   4.765   0.199
 9584SOL    HW129651   5.014   4.781   0.190
 9584SOL    HW229652   4.890   4.681   0.151
 9585SOL     OW29653   6.736   0.876   2.828
 9585SOL    HW129654   6.820   0.913   2.788
 9585SOL    HW229655   6.740   0.886   2.928
 9586SOL     OW29656   5.229   3.943   2.510
 9586SOL    HW129657   5.262   3.881   2.581
 9586SOL    HW229658   5.153   3.997   2.545
 9587SOL     OW29659   4.374   6.451   1.741
 9587SOL    HW129660   4.320   6.467   1.823
 9587SOL    HW229661   4.355   6.359   1.706
 9588SOL     OW29662   6.200   1.038   3.546
 9588SOL    HW129663   6.127   1.086   3.594
 9588SOL    HW229664   6.286   1.051   3.594
 9589SOL     OW29665   3.253   2.012   4.608
 9589SOL    HW129666   3.225   1.990   4.514
 9589SOL    HW229667   3.215   2.101   4.634
 9590SOL     OW29668   0.232   4.915   4.613
 9590SOL    HW129669   0.322   4.927   4.570
 9590SOL    HW229670   0.179   4.848   4.561
 9591SOL     OW29671   1.115   4.385   2.651
 9591SOL    HW129672   1.179   4.309   2.653
 9591SOL    HW229673   1.048   4.369   2.578
 9592SOL     OW29674   4.416   5.941   0.646
 9592SOL    HW129675   4.329   5.981   0.676
 9592SOL    HW229676   4.401   5.845   0.621
 9593SOL     OW29677   2.186   1.926   3.262
 9593SOL    HW129678   2.132   1.885   3.189
 9593SOL    HW229679   2.268   1.969   3.223
 9594SOL     OW29680   5.959   0.339   1.212
 9594SOL    HW129681   5.995   0.433   1.216
 9594SOL    HW229682   5.940   0.307   1.304
 9595SOL     OW29683   1.375   5.664   5.046
 9595SOL    HW129684   1.305   5.613   4.996
 9595SOL    HW229685   1.334   5.704   5.128
 9596SOL     OW29686   5.331   5.928   2.082
 9596SOL    HW129687   5.421   5.920   2.123
 9596SOL    HW229688   5.332   5.888   1.990
 9597SOL     OW29689   2.417   4.608   1.283
 9597SOL    HW129690   2.413   4.548   1.363
 9597SOL    HW229691   2.444   4.700   1.311
 9598SOL     OW29692   0.050   6.232   6.198
 9598SOL    HW129693   0.113   6.270   6.266
 9598SOL    HW229694   6.990   6.280   6.203
 9599SOL     OW29695   3.894   2.140   5.048
 9599SOL    HW129696   3.817   2.118   4.988
 9599SOL    HW229697   3.974   2.160   4.992
 9600SOL     OW29698   1.574   6.366   6.593
 9600SOL    HW129699   1.537   6.457   6.611
 9600SOL    HW229700   1.617   6.365   6.503
 9601SOL     OW29701   1.158   6.768   5.285
 9601SOL    HW129702   1.237   6.804   5.335
 9601SOL    HW229703   1.080   6.828   5.299
 9602SOL     OW29704   1.311   5.589   6.202
 9602SOL    HW129705   1.353   5.575   6.291
 9602SOL    HW229706   1.364   5.542   6.132
 9603SOL     OW29707   1.118   4.782   2.355
 9603SOL    HW129708   1.192   4.739   2.406
 9603SOL    HW229709   1.035   4.726   2.363
 9604SOL     OW29710   0.267   0.652   6.229
 9604SOL    HW129711   0.193   0.601   6.272
 9604SOL    HW229712   0.231   0.735   6.187
 9605SOL     OW29713   3.258   4.832   1.283
 9605SOL    HW129714   3.173   4.857   1.235
 9605SOL    HW229715   3.255   4.867   1.376
 9606SOL     OW29716   0.066   0.394   5.333
 9606SOL    HW129717   0.019   0.316   5.375
 9606SOL    HW229718   0.153   0.364   5.294
 9607SOL     OW29719   0.050   2.125   2.763
 9607SOL    HW129720   7.000   2.165   2.712
 9607SOL    HW229721   0.015   2.084   2.848
 9608SOL     OW29722   6.283   1.178   2.004
 9608SOL    HW129723   6.240   1.124   1.932
 9608SOL    HW229724   6.296   1.272   1.972
 9609SOL     OW29725   1.447   2.342   3.423
 9609SOL    HW129726   1.520   2.290   3.378
 9609SOL    HW229727   1.488   2.405   3.490
 9610SOL     OW29728   4.048   0.825   5.598
 9610SOL    HW129729   4.088   0.758   5.660
 9610SOL    HW229730   3.954   0.844   5.626
 9611SOL     OW29731   4.899   5.763   0.982
 9611SOL    HW129732   4.932   5.847   1.026
 9611SOL    HW229733   4.867   5.783   0.890
 9612SOL     OW29734   5.527   3.112   3.608
 9612SOL    HW129735   5.443   3.141   3.654
 9612SOL    HW229736   5.602   3.111   3.673
 9613SOL     OW29737   5.493   0.722   4.638
 9613SOL    HW129738   5.479   0.663   4.718
 9613SOL    HW229739   5.557   0.795   4.661
 9614SOL     OW29740   2.819   2.513   0.679
 9614SOL    HW129741   2.878   2.433   0.691
 9614SOL    HW229742   2.871   2.595   0.703
 9615SOL     OW29743   0.725   5.442   3.554
 9615SOL    HW129744   0.750   5.538   3.538
 9615SOL    HW229745   0.788   5.403   3.621
 9616SOL     OW29746   1.136   2.358   0.971
 9616SOL    HW129747   1.222   2.335   1.016
 9616SOL    HW229748   1.114   2.454   0.988
 9617SOL     OW29749   0.095   2.236   3.103
 9617SOL    HW129750   0.035   2.175   3.155
 9617SOL    HW229751   0.186   2.196   3.097
 9618SOL     OW29752   4.869   3.722   1.729
 9618SOL    HW129753   4.959   3.729   1.687
 9618SOL    HW229754   4.873   3.662   1.808
 9619SOL     OW29755   0.469   6.998   1.246
 9619SOL    HW129756   0.449   6.941   1.166
 9619SOL    HW229757   0.557   0.016   1.234
 9620SOL     OW29758   4.005   1.207   6.967
 9620SOL    HW129759   3.968   1.120   6.999
 9620SOL    HW229760   4.079   1.236   0.001
 9621SOL     OW29761   0.216   0.981   1.621
 9621SOL    HW129762   0.218   1.074   1.658
 9621SOL    HW229763   0.300   0.963   1.570
 9622SOL     OW29764   6.654   5.937   5.709
 9622SOL    HW129765   6.670   5.950   5.611
 9622SOL    HW229766   6.730   5.884   5.749
 9623SOL     OW29767   3.173   6.061   5.829
 9623SOL    HW129768   3.166   6.006   5.912
 9623SOL    HW229769   3.102   6.033   5.764
 9624SOL     OW29770   4.516   5.711   5.731
 9624SOL    HW129771   4.561   5.797   5.753
 9624SOL    HW229772   4.499   5.659   5.814
 9625SOL     OW29773   4.788   4.334   6.064
 9625SOL    HW129774   4.765   4.238   6.048
 9625SOL    HW229775   4.856   4.365   5.997
 9626SOL     OW29776   2.482   2.753   6.365
 9626SOL    HW129777   2.545   2.831   6.360
 9626SOL    HW229778   2.509   2.684   6.298
 9627SOL     OW29779   0.246   5.726   0.607
 9627SOL    HW129780   0.252   5.656   0.536
 9627SOL    HW229781   0.175   5.792   0.583
 9628SOL     OW29782   5.751   1.070   5.861
 9628SOL    HW129783   5.701   1.003   5.915
 9628SOL    HW229784   5.703   1.157   5.862
 9629SOL     OW29785   0.633   5.606   3.844
 9629SOL    HW129786   0.677   5.654   3.768
 9629SOL    HW229787   0.536   5.630   3.848
 9630SOL     OW29788   5.296   0.757   6.556
 9630SOL    HW129789   5.223   0.813   6.517
 9630SOL    HW229790   5.383   0.778   6.510
 9631SOL     OW29791   4.518   6.524   0.796
 9631SOL    HW129792   4.420   6.538   0.779
 9631SOL    HW229793   4.561   6.487   0.714
 9632SOL     OW29794   2.808   5.119   3.217
 9632SOL    HW129795   2.871   5.056   3.262
 9632SOL    HW229796   2.748   5.069   3.154
 9633SOL     OW29797   3.624   3.023   5.042
 9633SOL    HW129798   3.639   2.949   5.107
 9633SOL    HW229799   3.650   3.110   5.085
 9634SOL     OW29800   5.620   4.756   2.860
 9634SOL    HW129801   5.715   4.730   2.848
 9634SOL    HW229802   5.567   4.727   2.781
 9635SOL     OW29803   0.581   4.611   4.562
 9635SOL    HW129804   0.580   4.647   4.469
 9635SOL    HW229805   0.570   4.511   4.559
 9636SOL     OW29806   5.756   3.599   3.860
 9636SOL    HW129807   5.771   3.682   3.807
 9636SOL    HW229808   5.668   3.559   3.836
 9637SOL     OW29809   1.547   3.475   6.999
 9637SOL    HW129810   1.531   3.523   0.058
 9637SOL    HW229811   1.646   3.467   6.983
 9638SOL     OW29812   6.494   4.643   5.342
 9638SOL    HW129813   6.446   4.664   5.257
 9638SOL    HW229814   6.442   4.575   5.394
 9639SOL     OW29815   5.109   2.475   1.325
 9639SOL    HW129816   5.103   2.462   1.226
 9639SOL    HW229817   5.029   2.526   1.357
 9640SOL     OW29818   3.375   0.080   2.909
 9640SOL    HW129819   3.351   0.150   2.976
 9640SOL    HW229820   3.292   0.035   2.877
 9641SOL     OW29821   0.326   3.185   4.658
 9641SOL    HW129822   0.284   3.107   4.705
 9641SOL    HW229823   0.259   3.259   4.652
 9642SOL     OW29824   0.655   2.769   4.553
 9642SOL    HW129825   0.585   2.772   4.624
 9642SOL    HW229826   0.719   2.694   4.572
 9643SOL     OW29827   5.694   4.816   4.554
 9643SOL    HW129828   5.752   4.791   4.632
 9643SOL    HW229829   5.609   4.763   4.557
 9644SOL     OW29830   1.076   4.616   3.801
 9644SOL    HW129831   1.049   4.646   3.893
 9644SOL    HW229832   1.168   4.650   3.781
 9645SOL     OW29833   1.183   4.967   6.705
 9645SOL    HW129834   1.094   4.925   6.720
 9645SOL    HW229835   1.243   4.902   6.658
 9646SOL     OW29836   3.014   5.285   0.905
 9646SOL    HW129837   3.008   5.378   0.870
 9646SOL    HW229838   2.979   5.282   0.999
 9647SOL     OW29839   5.383   6.711   3.547
 9647SOL    HW129840   5.382   6.809   3.525
 9647SOL    HW229841   5.426   6.697   3.636
 9648SOL     OW29842   2.951   2.238   1.195
 9648SOL    HW129843   2.874   2.240   1.133
 9648SOL    HW229844   3.035   2.215   1.145
 9649SOL     OW29845   6.915   5.915   1.150
 9649SOL    HW129846   7.010   5.910   1.118
 9649SOL    HW229847   6.858   5.856   1.093
 9650SOL     OW29848   0.893   4.834   5.014
 9650SOL    HW129849   0.863   4.789   4.931
 9650SOL    HW229850   0.975   4.788   5.049
 9651SOL     OW29851   4.020   1.900   6.943
 9651SOL    HW129852   3.993   1.839   7.017
 9651SOL    HW229853   4.001   1.994   6.968
 9652SOL     OW29854   0.447   3.824   0.325
 9652SOL    HW129855   0.473   3.744   0.270
 9652SOL    HW229856   0.500   3.825   0.410
 9653SOL     OW29857   5.304   4.580   5.587
 9653SOL    HW129858   5.256   4.599   5.673
 9653SOL    HW229859   5.272   4.643   5.517
 9654SOL     OW29860   3.663   3.767   3.642
 9654SOL    HW129861   3.669   3.838   3.712
 9654SOL    HW229862   3.742   3.705   3.650
 9655SOL     OW29863   4.988   1.036   1.209
 9655SOL    HW129864   4.893   1.063   1.226
 9655SOL    HW229865   5.003   1.029   1.110
 9656SOL     OW29866   4.755   4.263   6.652
 9656SOL    HW129867   4.666   4.251   6.695
 9656SOL    HW229868   4.799   4.346   6.687
 9657SOL     OW29869   5.030   4.737   2.754
 9657SOL    HW129870   5.104   4.791   2.714
 9657SOL    HW229871   5.062   4.645   2.775
 9658SOL     OW29872   5.238   1.050   2.878
 9658SOL    HW129873   5.170   1.051   2.952
 9658SOL    HW229874   5.255   1.143   2.847
 9659SOL     OW29875   3.286   3.258   6.722
 9659SOL    HW129876   3.256   3.182   6.664
 9659SOL    HW229877   3.336   3.222   6.801
 9660SOL     OW29878   1.731   6.561   1.480
 9660SOL    HW129879   1.788   6.639   1.506
 9660SOL    HW229880   1.739   6.489   1.550
 9661SOL     OW29881   4.057   3.734   2.263
 9661SOL    HW129882   4.087   3.789   2.186
 9661SOL    HW229883   4.061   3.788   2.347
 9662SOL     OW29884   4.697   0.066   5.670
 9662SOL    HW129885   4.615   0.022   5.632
 9662SOL    HW229886   4.776   0.006   5.658
 9663SOL     OW29887   1.143   5.412   3.018
 9663SOL    HW129888   1.097   5.355   3.086
 9663SOL    HW229889   1.101   5.398   2.928
 9664SOL     OW29890   2.840   4.758   2.734
 9664SOL    HW129891   2.802   4.806   2.655
 9664SOL    HW229892   2.940   4.769   2.734
 9665SOL     OW29893   6.399   4.721   6.566
 9665SOL    HW129894   6.358   4.632   6.550
 9665SOL    HW229895   6.492   4.710   6.601
 9666SOL     OW29896   4.986   4.170   0.869
 9666SOL    HW129897   4.965   4.200   0.776
 9666SOL    HW229898   5.074   4.122   0.870
 9667SOL     OW29899   5.591   6.171   6.872
 9667SOL    HW129900   5.666   6.194   6.810
 9667SOL    HW229901   5.514   6.135   6.820
 9668SOL     OW29902   1.657   1.054   6.591
 9668SOL    HW129903   1.718   1.130   6.613
 9668SOL    HW229904   1.566   1.073   6.626
 9669SOL     OW29905   3.181   0.475   0.008
 9669SOL    HW129906   3.243   0.528   0.066
 9669SOL    HW229907   3.086   0.489   0.039
 9670SOL     OW29908   0.531   1.245   1.349
 9670SOL    HW129909   0.497   1.338   1.363
 9670SOL    HW229910   0.624   1.249   1.311
 9671SOL     OW29911   0.846   5.126   6.541
 9671SOL    HW129912   0.792   5.176   6.473
 9671SOL    HW229913   0.903   5.058   6.495
 9672SOL     OW29914   0.795   3.335   4.197
 9672SOL    HW129915   0.778   3.360   4.101
 9672SOL    HW229916   0.799   3.418   4.253
 9673SOL     OW29917   2.213   2.651   6.424
 9673SOL    HW129918   2.288   2.709   6.394
 9673SOL    HW229919   2.139   2.707   6.462
 9674SOL     OW29920   1.681   0.075   3.776
 9674SOL    HW129921   1.702   7.012   3.814
 9674SOL    HW229922   1.586   0.077   3.745
 9675SOL     OW29923   6.461   4.480   5.712
 9675SOL    HW129924   6.412   4.558   5.671
 9675SOL    HW229925   6.556   4.505   5.726
 9676SOL     OW29926   0.628   3.672   5.390
 9676SOL    HW129927   0.652   3.769   5.400
 9676SOL    HW229928   0.528   3.663   5.390
 9677SOL     OW29929   0.103   4.746   2.713
 9677SOL    HW129930   0.030   4.799   2.670
 9677SOL    HW229931   0.184   4.747   2.655
 9678SOL     OW29932   3.797   3.147   5.423
 9678SOL    HW129933   3.846   3.230   5.450
 9678SOL    HW229934   3.795   3.082   5.499
 9679SOL     OW29935   1.288   0.623   3.797
 9679SOL    HW129936   1.261   0.710   3.838
 9679SOL    HW229937   1.383   0.604   3.819
 9680SOL     OW29938   4.302   0.332   2.410
 9680SOL    HW129939   4.226   0.369   2.463
 9680SOL    HW229940   4.341   0.404   2.352
 9681SOL     OW29941   1.182   3.554   1.363
 9681SOL    HW129942   1.219   3.618   1.430
 9681SOL    HW229943   1.182   3.461   1.402
 9682SOL     OW29944   4.828   6.892   5.890
 9682SOL    HW129945   4.743   6.939   5.865
 9682SOL    HW229946   4.892   6.897   5.814
 9683SOL     OW29947   3.969   5.901   4.772
 9683SOL    HW129948   3.956   5.932   4.678
 9683SOL    HW229949   4.067   5.885   4.788
 9684SOL     OW29950   6.962   3.183   5.819
 9684SOL    HW129951   6.913   3.261   5.857
 9684SOL    HW229952   6.968   3.111   5.888
 9685SOL     OW29953   3.350   4.637   1.663
 9685SOL    HW129954   3.431   4.630   1.721
 9685SOL    HW229955   3.334   4.548   1.619
 9686SOL     OW29956   0.249   1.484   5.443
 9686SOL    HW129957   0.294   1.499   5.531
 9686SOL    HW229958   0.313   1.505   5.369
 9687SOL     OW29959   5.673   1.458   3.731
 9687SOL    HW129960   5.758   1.497   3.696
 9687SOL    HW229961   5.595   1.491   3.677
 9688SOL     OW29962   0.176   5.167   1.668
 9688SOL    HW129963   0.191   5.163   1.569
 9688SOL    HW229964   0.256   5.130   1.715
 9689SOL     OW29965   1.556   5.432   1.198
 9689SOL    HW129966   1.456   5.437   1.205
 9689SOL    HW229967   1.598   5.474   1.278
 9690SOL     OW29968   0.194   4.774   5.127
 9690SOL    HW129969   0.174   4.737   5.036
 9690SOL    HW229970   0.126   4.843   5.151
 9691SOL     OW29971   4.145   3.474   2.322
 9691SOL    HW129972   4.190   3.434   2.241
 9691SOL    HW229973   4.112   3.565   2.299
 9692SOL     OW29974   4.922   4.583   0.642
 9692SOL    HW129975   4.997   4.625   0.693
 9692SOL    HW229976   4.900   4.640   0.562
 9693SOL     OW29977   4.852   3.564   6.320
 9693SOL    HW129978   4.886   3.481   6.277
 9693SOL    HW229979   4.847   3.551   6.419
 9694SOL     OW29980   2.550   6.038   0.935
 9694SOL    HW129981   2.636   6.010   0.979
 9694SOL    HW229982   2.567   6.060   0.839
 9695SOL     OW29983   1.573   2.913   3.949
 9695SOL    HW129984   1.517   2.984   3.992
 9695SOL    HW229985   1.656   2.955   3.912
 9696SOL     OW29986   4.830   3.142   3.336
 9696SOL    HW129987   4.890   3.211   3.295
 9696SOL    HW229988   4.858   3.125   3.430
 9697SOL     OW29989   0.098   0.462   1.415
 9697SOL    HW129990   0.187   0.438   1.378
 9697SOL    HW229991   0.055   0.381   1.456
 9698SOL     OW29992   6.953   3.341   1.989
 9698SOL    HW129993   6.881   3.309   2.050
 9698SOL    HW229994   6.914   3.361   1.899
 9699SOL     OW29995   0.780   6.136   2.057
 9699SOL    HW129996   0.789   6.204   2.129
 9699SOL    HW229997   0.733   6.055   2.093
 9700SOL     OW29998   5.772   0.750   6.590
 9700SOL    HW129999   5.735   0.838   6.559
 9700SOL    HW230000   5.699   0.682   6.591
 9701SOL     OW30001   5.500   3.916   0.492
 9701SOL    HW130002   5.563   3.953   0.423
 9701SOL    HW230003   5.427   3.865   0.446
 9702SOL     OW30004   3.498   3.886   1.611
 9702SOL    HW130005   3.562   3.825   1.656
 9702SOL    HW230006   3.447   3.938   1.679
 9703SOL     OW30007   6.253   4.951   3.151
 9703SOL    HW130008   6.236   4.974   3.247
 9703SOL    HW230009   6.299   4.862   3.146
 9704SOL     OW30010   1.204   4.496   2.136
 9704SOL    HW130011   1.183   4.584   2.092
 9704SOL    HW230012   1.197   4.423   2.068
 9705SOL     OW30013   0.084   3.805   5.552
 9705SOL    HW130014   0.161   3.854   5.593
 9705SOL    HW230015   0.029   3.869   5.498
 9706SOL     OW30016   0.889   0.547   1.979
 9706SOL    HW130017   0.880   0.474   2.047
 9706SOL    HW230018   0.980   0.588   1.986
 9707SOL     OW30019   0.871   5.308   2.206
 9707SOL    HW130020   0.862   5.400   2.242
 9707SOL    HW230021   0.948   5.261   2.250
 9708SOL     OW30022   2.743   1.071   1.658
 9708SOL    HW130023   2.684   1.134   1.607
 9708SOL    HW230024   2.690   0.991   1.686
 9709SOL     OW30025   5.189   1.903   1.911
 9709SOL    HW130026   5.134   1.843   1.852
 9709SOL    HW230027   5.146   1.993   1.916
 9710SOL     OW30028   4.880   4.835   4.410
 9710SOL    HW130029   4.909   4.816   4.317
 9710SOL    HW230030   4.790   4.795   4.426
 9711SOL     OW30031   2.676   0.794   6.447
 9711SOL    HW130032   2.755   0.810   6.389
 9711SOL    HW230033   2.704   0.744   6.529
 9712SOL     OW30034   5.096   0.075   5.499
 9712SOL    HW130035   5.088   0.034   5.408
 9712SOL    HW230036   5.017   0.134   5.515
 9713SOL     OW30037   2.047   0.435   2.733
 9713SOL    HW130038   2.079   0.362   2.671
 9713SOL    HW230039   2.075   0.523   2.696
 9714SOL     OW30040   2.074   3.039   4.164
 9714SOL    HW130041   2.027   3.127   4.154
 9714SOL    HW230042   2.018   2.978   4.220
 9715SOL     OW30043   0.181   2.508   6.372
 9715SOL    HW130044   0.247   2.555   6.431
 9715SOL    HW230045   0.176   2.412   6.398
 9716SOL     OW30046   2.405   6.600   0.591
 9716SOL    HW130047   2.347   6.552   0.657
 9716SOL    HW230048   2.499   6.603   0.625
 9717SOL     OW30049   3.828   2.875   6.029
 9717SOL    HW130050   3.729   2.874   6.042
 9717SOL    HW230051   3.872   2.824   6.103
 9718SOL     OW30052   3.636   2.559   6.970
 9718SOL    HW130053   3.569   2.574   0.016
 9718SOL    HW230054   3.708   2.629   6.976
 9719SOL     OW30055   4.481   0.497   5.877
 9719SOL    HW130056   4.412   0.490   5.805
 9719SOL    HW230057   4.435   0.502   5.966
 9720SOL     OW30058   2.177   2.517   2.346
 9720SOL    HW130059   2.221   2.430   2.368
 9720SOL    HW230060   2.248   2.588   2.334
 9721SOL     OW30061   0.898   1.665   1.107
 9721SOL    HW130062   0.931   1.665   1.013
 9721SOL    HW230063   0.961   1.719   1.164
 9722SOL     OW30064   4.197   2.579   5.473
 9722SOL    HW130065   4.151   2.594   5.386
 9722SOL    HW230066   4.134   2.595   5.548
 9723SOL     OW30067   5.942   0.607   4.878
 9723SOL    HW130068   5.956   0.692   4.826
 9723SOL    HW230069   5.998   0.610   4.961
 9724SOL     OW30070   1.534   4.302   1.389
 9724SOL    HW130071   1.574   4.216   1.421
 9724SOL    HW230072   1.605   4.371   1.380
 9725SOL     OW30073   5.544   5.864   3.807
 9725SOL    HW130074   5.536   5.931   3.733
 9725SOL    HW230075   5.535   5.771   3.769
 9726SOL     OW30076   6.970   0.054   3.236
 9726SOL    HW130077   6.922   0.105   3.165
 9726SOL    HW230078   6.941   0.086   3.326
 9727SOL     OW30079   5.922   2.643   1.467
 9727SOL    HW130080   5.970   2.587   1.399
 9727SOL    HW230081   5.824   2.627   1.460
 9728SOL     OW30082   5.229   2.383   4.586
 9728SOL    HW130083   5.175   2.307   4.549
 9728SOL    HW230084   5.324   2.375   4.555
 9729SOL     OW30085   0.337   3.627   2.817
 9729SOL    HW130086   0.281   3.545   2.808
 9729SOL    HW230087   0.412   3.611   2.881
 9730SOL     OW30088   1.090   5.514   3.385
 9730SOL    HW130089   1.053   5.430   3.347
 9730SOL    HW230090   1.180   5.532   3.345
 9731SOL     OW30091   6.320   2.452   1.400
 9731SOL    HW130092   6.332   2.353   1.408
 9731SOL    HW230093   6.375   2.498   1.470
 9732SOL     OW30094   1.461   3.135   2.533
 9732SOL    HW130095   1.451   3.040   2.502
 9732SOL    HW230096   1.461   3.137   2.632
 9733SOL     OW30097   6.072   5.365   2.110
 9733SOL    HW130098   6.004   5.379   2.039
 9733SOL    HW230099   6.101   5.453   2.147
 9734SOL     OW30100   4.158   4.842   6.465
 9734SOL    HW130101   4.070   4.870   6.426
 9734SOL    HW230102   4.144   4.809   6.558
 9735SOL     OW30103   0.434   1.670   0.165
 9735SOL    HW130104   0.358   1.630   0.114
 9735SOL    HW230105   0.518   1.621   0.142
 9736SOL     OW30106   5.237   2.358   5.035
 9736SOL    HW130107   5.194   2.311   4.958
 9736SOL    HW230108   5.302   2.297   5.080
 9737SOL     OW30109   5.472   3.260   4.846
 9737SOL    HW130110   5.430   3.217   4.767
 9737SOL    HW230111   5.514   3.347   4.819
 9738SOL     OW30112   2.350   6.439   1.479
 9738SOL    HW130113   2.416   6.449   1.405
 9738SOL    HW230114   2.395   6.398   1.558
 9739SOL     OW30115   5.605   7.020   0.515
 9739SOL    HW130116   5.550   6.944   0.549
 9739SOL    HW230117   5.700   6.990   0.504
 9740SOL     OW30118   6.182   0.657   1.682
 9740SOL    HW130119   6.233   0.571   1.689
 9740SOL    HW230120   6.246   0.733   1.670
 9741SOL     OW30121   2.584   2.451   3.163
 9741SOL    HW130122   2.630   2.452   3.074
 9741SOL    HW230123   2.488   2.476   3.151
 9742SOL     OW30124   3.843   1.950   6.493
 9742SOL    HW130125   3.915   1.956   6.562
 9742SOL    HW230126   3.769   1.893   6.528
 9743SOL     OW30127   6.720   3.399   4.248
 9743SOL    HW130128   6.787   3.398   4.322
 9743SOL    HW230129   6.710   3.493   4.213
 9744SOL     OW30130   1.966   1.982   2.555
 9744SOL    HW130131   1.906   2.027   2.621
 9744SOL    HW230132   1.913   1.917   2.501
 9745SOL     OW30133   0.627   6.819   6.011
 9745SOL    HW130134   0.688   6.832   5.933
 9745SOL    HW230135   0.545   6.875   6.000
 9746SOL     OW30136   3.137   6.293   5.987
 9746SOL    HW130137   3.187   6.219   5.942
 9746SOL    HW230138   3.049   6.307   5.940
 9747SOL     OW30139   3.525   1.766   3.647
 9747SOL    HW130140   3.525   1.769   3.547
 9747SOL    HW230141   3.612   1.729   3.679
 9748SOL     OW30142   0.313   1.592   2.267
 9748SOL    HW130143   0.227   1.621   2.308
 9748SOL    HW230144   0.389   1.622   2.324
 9749SOL     OW30145   6.819   0.817   1.718
 9749SOL    HW130146   6.848   0.750   1.786
 9749SOL    HW230147   6.893   0.830   1.651
 9750SOL     OW30148   5.518   2.707   5.562
 9750SOL    HW130149   5.476   2.766   5.492
 9750SOL    HW230150   5.583   2.645   5.518
 9751SOL     OW30151   2.799   6.503   1.269
 9751SOL    HW130152   2.801   6.599   1.244
 9751SOL    HW230153   2.846   6.490   1.356
 9752SOL     OW30154   3.273   3.017   0.400
 9752SOL    HW130155   3.211   3.004   0.323
 9752SOL    HW230156   3.301   3.113   0.405
 9753SOL     OW30157   6.705   5.729   3.628
 9753SOL    HW130158   6.652   5.684   3.556
 9753SOL    HW230159   6.656   5.722   3.714
 9754SOL     OW30160   3.097   1.069   2.129
 9754SOL    HW130161   3.077   1.096   2.223
 9754SOL    HW230162   3.094   0.969   2.121
 9755SOL     OW30163   3.733   3.731   7.025
 9755SOL    HW130164   3.676   3.757   6.948
 9755SOL    HW230165   3.723   3.799   0.071
 9756SOL     OW30166   5.748   0.391   6.441
 9756SOL    HW130167   5.738   0.325   6.515
 9756SOL    HW230168   5.706   0.355   6.358
 9757SOL     OW30169   5.628   3.472   4.291
 9757SOL    HW130170   5.685   3.551   4.270
 9757SOL    HW230171   5.591   3.482   4.384
 9758SOL     OW30172   2.546   0.272   2.090
 9758SOL    HW130173   2.548   0.348   2.025
 9758SOL    HW230174   2.521   0.307   2.180
 9759SOL     OW30175   6.597   2.306   1.365
 9759SOL    HW130176   6.522   2.241   1.380
 9759SOL    HW230177   6.624   2.303   1.269
 9760SOL     OW30178   4.765   0.519   6.320
 9760SOL    HW130179   4.831   0.570   6.265
 9760SOL    HW230180   4.687   0.578   6.342
 9761SOL     OW30181   1.002   2.220   1.158
 9761SOL    HW130182   1.049   2.276   1.091
 9761SOL    HW230183   0.928   2.169   1.113
 9762SOL     OW30184   3.114   1.090   5.928
 9762SOL    HW130185   3.205   1.129   5.918
 9762SOL    HW230186   3.049   1.143   5.873
 9763SOL     OW30187   6.542   2.569   0.976
 9763SOL    HW130188   6.538   2.669   0.983
 9763SOL    HW230189   6.485   2.529   1.048
 9764SOL     OW30190   0.860   2.556   2.907
 9764SOL    HW130191   0.845   2.587   2.813
 9764SOL    HW230192   0.945   2.504   2.912
 9765SOL     OW30193   6.594   1.758   1.265
 9765SOL    HW130194   6.679   1.809   1.282
 9765SOL    HW230195   6.596   1.719   1.173
 9766SOL     OW30196   0.616   2.852   3.004
 9766SOL    HW130197   0.611   2.774   2.942
 9766SOL    HW230198   0.538   2.850   3.067
 9767SOL     OW30199   3.468   1.658   5.096
 9767SOL    HW130200   3.455   1.605   5.012
 9767SOL    HW230201   3.379   1.690   5.129
 9768SOL     OW30202   5.047   2.399   0.312
 9768SOL    HW130203   5.029   2.399   0.411
 9768SOL    HW230204   5.106   2.476   0.290
 9769SOL     OW30205   3.531   1.331   5.618
 9769SOL    HW130206   3.595   1.277   5.564
 9769SOL    HW230207   3.511   1.283   5.704
 9770SOL     OW30208   1.675   3.304   5.196
 9770SOL    HW130209   1.697   3.400   5.178
 9770SOL    HW230210   1.627   3.297   5.284
 9771SOL     OW30211   3.549   0.988   1.709
 9771SOL    HW130212   3.459   0.994   1.666
 9771SOL    HW230213   3.620   0.995   1.638
 9772SOL     OW30214   0.832   0.870   1.186
 9772SOL    HW130215   0.742   0.835   1.210
 9772SOL    HW230216   0.900   0.797   1.195
 9773SOL     OW30217   5.889   6.239   2.169
 9773SOL    HW130218   5.964   6.174   2.155
 9773SOL    HW230219   5.927   6.330   2.184
 9774SOL     OW30220   2.009   4.958   4.423
 9774SOL    HW130221   2.070   5.032   4.450
 9774SOL    HW230222   1.999   4.894   4.500
 9775SOL     OW30223   1.383   1.491   2.599
 9775SOL    HW130224   1.399   1.425   2.525
 9775SOL    HW230225   1.355   1.579   2.559
 9776SOL     OW30226   2.114   5.499   1.118
 9776SOL    HW130227   2.108   5.478   1.021
 9776SOL    HW230228   2.201   5.547   1.136
 9777SOL     OW30229   4.401   2.174   5.166
 9777SOL    HW130230   4.451   2.138   5.244
 9777SOL    HW230231   4.429   2.126   5.083
 9778SOL     OW30232   1.551   3.942   2.991
 9778SOL    HW130233   1.648   3.922   2.980
 9778SOL    HW230234   1.540   4.036   3.025
 9779SOL     OW30235   3.242   0.381   3.508
 9779SOL    HW130236   3.198   0.403   3.595
 9779SOL    HW230237   3.176   0.390   3.434
 9780SOL     OW30238   0.566   1.360   0.446
 9780SOL    HW130239   0.561   1.287   0.515
 9780SOL    HW230240   0.515   1.440   0.477
 9781SOL     OW30241   1.310   1.444   2.297
 9781SOL    HW130242   1.367   1.374   2.341
 9781SOL    HW230243   1.265   1.403   2.217
 9782SOL     OW30244   0.626   2.524   0.378
 9782SOL    HW130245   0.536   2.504   0.417
 9782SOL    HW230246   0.665   2.604   0.423
 9783SOL     OW30247   4.223   1.017   2.705
 9783SOL    HW130248   4.188   1.096   2.655
 9783SOL    HW230249   4.203   0.934   2.654
 9784SOL     OW30250   1.671   1.461   6.730
 9784SOL    HW130251   1.574   1.457   6.757
 9784SOL    HW230252   1.728   1.466   6.812
 9785SOL     OW30253   0.795   3.844   4.563
 9785SOL    HW130254   0.771   3.884   4.652
 9785SOL    HW230255   0.712   3.817   4.515
 9786SOL     OW30256   2.216   4.195   6.392
 9786SOL    HW130257   2.213   4.173   6.295
 9786SOL    HW230258   2.211   4.111   6.445
 9787SOL     OW30259   2.918   3.621   1.719
 9787SOL    HW130260   2.991   3.646   1.783
 9787SOL    HW230261   2.868   3.542   1.756
 9788SOL     OW30262   2.814   6.805   2.785
 9788SOL    HW130263   2.878   6.766   2.850
 9788SOL    HW230264   2.731   6.833   2.833
 9789SOL     OW30265   3.709   1.116   0.226
 9789SOL    HW130266   3.664   1.029   0.243
 9789SOL    HW230267   3.758   1.112   0.139
 9790SOL     OW30268   4.388   5.335   5.066
 9790SOL    HW130269   4.481   5.319   5.031
 9790SOL    HW230270   4.393   5.388   5.150
 9791SOL     OW30271   0.407   0.697   0.826
 9791SOL    HW130272   0.375   0.683   0.919
 9791SOL    HW230273   0.475   0.771   0.825
 9792SOL     OW30274   3.699   4.871   0.742
 9792SOL    HW130275   3.668   4.849   0.650
 9792SOL    HW230276   3.775   4.811   0.767
 9793SOL     OW30277   5.858   0.874   3.256
 9793SOL    HW130278   5.810   0.802   3.205
 9793SOL    HW230279   5.928   0.833   3.314
 9794SOL     OW30280   3.778   5.135   4.334
 9794SOL    HW130281   3.799   5.199   4.259
 9794SOL    HW230282   3.717   5.180   4.399
 9795SOL     OW30283   1.145   3.367   3.614
 9795SOL    HW130284   1.111   3.460   3.602
 9795SOL    HW230285   1.219   3.351   3.550
 9796SOL     OW30286   3.100   3.534   4.313
 9796SOL    HW130287   3.032   3.604   4.335
 9796SOL    HW230288   3.165   3.570   4.246
 9797SOL     OW30289   3.249   5.541   6.902
 9797SOL    HW130290   3.296   5.482   6.836
 9797SOL    HW230291   3.219   5.625   6.857
 9798SOL     OW30292   6.950   4.297   6.552
 9798SOL    HW130293   6.972   4.355   6.630
 9798SOL    HW230294   7.022   4.305   6.482
 9799SOL     OW30295   3.492   6.627   0.081
 9799SOL    HW130296   3.459   6.720   0.064
 9799SOL    HW230297   3.552   6.599   0.006
 9800SOL     OW30298   6.391   4.465   4.678
 9800SOL    HW130299   6.384   4.416   4.591
 9800SOL    HW230300   6.414   4.399   4.750
 9801SOL     OW30301   4.086   6.503   1.253
 9801SOL    HW130302   4.163   6.442   1.272
 9801SOL    HW230303   4.038   6.525   1.338
 9802SOL     OW30304   4.096   3.996   0.219
 9802SOL    HW130305   4.101   3.919   0.283
 9802SOL    HW230306   4.053   4.074   0.264
 9803SOL     OW30307   1.224   3.594   6.405
 9803SOL    HW130308   1.283   3.558   6.333
 9803SOL    HW230309   1.261   3.680   6.440
 9804SOL     OW30310   0.752   4.227   3.403
 9804SOL    HW130311   0.810   4.290   3.351
 9804SOL    HW230312   0.725   4.270   3.489
 9805SOL     OW30313   0.108   5.581   4.253
 9805SOL    HW130314   0.130   5.483   4.255
 9805SOL    HW230315   0.170   5.630   4.315
 9806SOL     OW30316   3.626   1.625   0.343
 9806SOL    HW130317   3.712   1.590   0.380
 9806SOL    HW230318   3.613   1.591   0.250
 9807SOL     OW30319   3.768   3.510   3.339
 9807SOL    HW130320   3.856   3.494   3.295
 9807SOL    HW230321   3.704   3.548   3.272
 9808SOL     OW30322   3.241   5.644   2.322
 9808SOL    HW130323   3.221   5.555   2.363
 9808SOL    HW230324   3.296   5.631   2.239
 9809SOL     OW30325   6.315   2.356   0.639
 9809SOL    HW130326   6.361   2.433   0.684
 9809SOL    HW230327   6.360   2.270   0.666
 9810SOL     OW30328   2.428   2.979   1.105
 9810SOL    HW130329   2.351   2.925   1.140
 9810SOL    HW230330   2.478   2.925   1.037
 9811SOL     OW30331   5.868   3.365   3.933
 9811SOL    HW130332   5.827   3.450   3.898
 9811SOL    HW230333   5.861   3.364   4.033
 9812SOL     OW30334   3.323   5.516   5.903
 9812SOL    HW130335   3.321   5.601   5.849
 9812SOL    HW230336   3.336   5.538   5.999
 9813SOL     OW30337   4.116   0.566   2.160
 9813SOL    HW130338   4.114   0.661   2.132
 9813SOL    HW230339   4.160   0.511   2.089
 9814SOL     OW30340   0.201   1.560   5.997
 9814SOL    HW130341   0.282   1.620   5.999
 9814SOL    HW230342   0.137   1.589   6.068
 9815SOL     OW30343   4.133   2.311   4.411
 9815SOL    HW130344   4.204   2.267   4.356
 9815SOL    HW230345   4.124   2.406   4.384
 9816SOL     OW30346   2.737   1.276   0.708
 9816SOL    HW130347   2.704   1.266   0.614
 9816SOL    HW230348   2.682   1.346   0.755
 9817SOL     OW30349   6.223   0.224   1.810
 9817SOL    HW130350   6.233   0.155   1.738
 9817SOL    HW230351   6.262   0.188   1.895
 9818SOL     OW30352   4.223   3.020   5.334
 9818SOL    HW130353   4.132   2.983   5.319
 9818SOL    HW230354   4.216   3.115   5.366
 9819SOL     OW30355   3.285   0.702   1.871
 9819SOL    HW130356   3.245   0.743   1.953
 9819SOL    HW230357   3.219   0.704   1.796
 9820SOL     OW30358   4.035   2.618   0.470
 9820SOL    HW130359   4.095   2.586   0.544
 9820SOL    HW230360   3.960   2.672   0.508
 9821SOL     OW30361   0.232   5.257   0.035
 9821SOL    HW130362   0.136   5.271   0.008
 9821SOL    HW230363   0.235   5.204   0.120
 9822SOL     OW30364   0.678   0.404   2.890
 9822SOL    HW130365   0.720   0.492   2.913
 9822SOL    HW230366   0.592   0.394   2.938
 9823SOL     OW30367   3.321   6.598   1.774
 9823SOL    HW130368   3.241   6.651   1.801
 9823SOL    HW230369   3.326   6.515   1.829
 9824SOL     OW30370   1.822   3.767   6.382
 9824SOL    HW130371   1.862   3.700   6.320
 9824SOL    HW230372   1.872   3.853   6.376
 9825SOL     OW30373   4.044   5.092   5.503
 9825SOL    HW130374   3.976   5.163   5.484
 9825SOL    HW230375   4.055   5.082   5.602
 9826SOL     OW30376   5.342   0.097   5.615
 9826SOL    HW130377   5.339   0.190   5.652
 9826SOL    HW230378   5.251   0.072   5.583
 9827SOL     OW30379   0.968   4.148   4.352
 9827SOL    HW130380   0.923   4.161   4.264
 9827SOL    HW230381   1.060   4.186   4.349
 9828SOL     OW30382   3.056   2.849   6.597
 9828SOL    HW130383   2.973   2.860   6.651
 9828SOL    HW230384   3.033   2.839   6.501
 9829SOL     OW30385   2.570   4.470   1.019
 9829SOL    HW130386   2.666   4.449   1.002
 9829SOL    HW230387   2.563   4.545   1.085
 9830SOL     OW30388   6.729   1.296   0.511
 9830SOL    HW130389   6.791   1.281   0.587
 9830SOL    HW230390   6.778   1.285   0.424
 9831SOL     OW30391   5.510   6.783   0.971
 9831SOL    HW130392   5.572   6.851   1.011
 9831SOL    HW230393   5.564   6.713   0.925
 9832SOL     OW30394   3.805   5.197   1.331
 9832SOL    HW130395   3.745   5.119   1.347
 9832SOL    HW230396   3.807   5.218   1.234
 9833SOL     OW30397   4.623   4.298   5.813
 9833SOL    HW130398   4.610   4.266   5.907
 9833SOL    HW230399   4.705   4.356   5.809
 9834SOL     OW30400   2.160   2.032   4.099
 9834SOL    HW130401   2.188   2.030   4.195
 9834SOL    HW230402   2.228   1.986   4.043
 9835SOL     OW30403   4.845   1.864   4.785
 9835SOL    HW130404   4.878   1.836   4.875
 9835SOL    HW230405   4.756   1.908   4.795
 9836SOL     OW30406   5.461   5.258   2.390
 9836SOL    HW130407   5.376   5.204   2.387
 9836SOL    HW230408   5.438   5.355   2.397
 9837SOL     OW30409   1.568   6.446   4.880
 9837SOL    HW130410   1.600   6.366   4.930
 9837SOL    HW230411   1.512   6.503   4.940
 9838SOL     OW30412   6.810   5.440   5.056
 9838SOL    HW130413   6.868   5.519   5.077
 9838SOL    HW230414   6.746   5.425   5.131
 9839SOL     OW30415   6.861   2.198   2.607
 9839SOL    HW130416   6.887   2.138   2.532
 9839SOL    HW230417   6.781   2.161   2.654
 9840SOL     OW30418   6.270   0.748   1.139
 9840SOL    HW130419   6.224   0.837   1.147
 9840SOL    HW230420   6.201   0.676   1.137
 9841SOL     OW30421   1.765   3.782   4.238
 9841SOL    HW130422   1.856   3.751   4.209
 9841SOL    HW230423   1.770   3.814   4.332
 9842SOL     OW30424   2.977   3.323   3.554
 9842SOL    HW130425   2.959   3.418   3.526
 9842SOL    HW230426   2.972   3.264   3.474
 9843SOL     OW30427   6.008   3.599   3.106
 9843SOL    HW130428   6.061   3.670   3.153
 9843SOL    HW230429   5.985   3.526   3.170
 9844SOL     OW30430   5.251   0.324   2.604
 9844SOL    HW130431   5.344   0.361   2.606
 9844SOL    HW230432   5.208   0.340   2.693
 9845SOL     OW30433   1.399   1.841   3.359
 9845SOL    HW130434   1.400   1.770   3.289
 9845SOL    HW230435   1.333   1.912   3.334
 9846SOL     OW30436   3.235   3.274   3.065
 9846SOL    HW130437   3.186   3.347   3.113
 9846SOL    HW230438   3.179   3.192   3.063
 9847SOL     OW30439   2.354   4.577   4.696
 9847SOL    HW130440   2.279   4.516   4.671
 9847SOL    HW230441   2.389   4.552   4.787
 9848SOL     OW30442   5.314   3.769   0.337
 9848SOL    HW130443   5.312   3.769   0.237
 9848SOL    HW230444   5.227   3.733   0.372
 9849SOL     OW30445   6.970   0.094   5.307
 9849SOL    HW130446   6.944   7.026   5.322
 9849SOL    HW230447   0.027   0.098   5.252
 9850SOL     OW30448   4.418   7.009   2.818
 9850SOL    HW130449   4.456   0.070   2.788
 9850SOL    HW230450   4.318   7.017   2.826
 9851SOL     OW30451   5.380   3.264   5.142
 9851SOL    HW130452   5.301   3.224   5.096
 9851SOL    HW230453   5.460   3.257   5.082
 9852SOL     OW30454   4.587   1.907   4.179
 9852SOL    HW130455   4.678   1.932   4.214
 9852SOL    HW230456   4.517   1.943   4.240
 9853SOL     OW30457   0.385   3.928   1.245
 9853SOL    HW130458   0.417   4.022   1.242
 9853SOL    HW230459   0.437   3.873   1.180
 9854SOL     OW30460   4.495   6.000   3.602
 9854SOL    HW130461   4.540   5.916   3.631
 9854SOL    HW230462   4.564   6.071   3.586
 9855SOL     OW30463   1.668   3.481   0.835
 9855SOL    HW130464   1.636   3.388   0.815
 9855SOL    HW230465   1.717   3.517   0.755
 9856SOL     OW30466   4.086   2.735   0.908
 9856SOL    HW130467   4.073   2.655   0.848
 9856SOL    HW230468   4.074   2.707   1.003
 9857SOL     OW30469   6.260   3.992   2.957
 9857SOL    HW130470   6.162   4.010   2.958
 9857SOL    HW230471   6.309   4.074   2.926
 9858SOL     OW30472   3.800   1.401   1.074
 9858SOL    HW130473   3.768   1.496   1.083
 9858SOL    HW230474   3.857   1.393   0.993
 9859SOL     OW30475   6.373   0.447   1.625
 9859SOL    HW130476   6.454   0.479   1.673
 9859SOL    HW230477   6.353   0.353   1.653
 9860SOL     OW30478   0.211   1.325   2.448
 9860SOL    HW130479   0.280   1.382   2.493
 9860SOL    HW230480   0.125   1.331   2.499
 9861SOL     OW30481   3.377   6.875   5.115
 9861SOL    HW130482   3.304   6.807   5.108
 9861SOL    HW230483   3.417   6.871   5.207
 9862SOL     OW30484   0.931   2.277   0.755
 9862SOL    HW130485   0.856   2.324   0.800
 9862SOL    HW230486   1.013   2.282   0.813
 9863SOL     OW30487   2.871   0.092   0.873
 9863SOL    HW130488   2.799   0.160   0.884
 9863SOL    HW230489   2.950   0.117   0.929
 9864SOL     OW30490   4.416   6.137   2.964
 9864SOL    HW130491   4.316   6.147   2.960
 9864SOL    HW230492   4.459   6.211   2.912
 9865SOL     OW30493   1.301   2.729   4.739
 9865SOL    HW130494   1.312   2.820   4.699
 9865SOL    HW230495   1.258   2.738   4.829
 9866SOL     OW30496   4.061   4.821   2.755
 9866SOL    HW130497   4.130   4.778   2.813
 9866SOL    HW230498   4.083   4.804   2.659
 9867SOL     OW30499   3.984   0.660   6.267
 9867SOL    HW130500   3.963   0.757   6.258
 9867SOL    HW230501   4.016   0.642   6.360
 9868SOL     OW30502   0.225   5.037   6.512
 9868SOL    HW130503   0.161   5.080   6.576
 9868SOL    HW230504   0.174   4.991   6.440
 9869SOL     OW30505   1.891   4.016   3.358
 9869SOL    HW130506   1.961   3.995   3.289
 9869SOL    HW230507   1.814   3.953   3.347
 9870SOL     OW30508   5.198   4.513   2.373
 9870SOL    HW130509   5.188   4.414   2.363
 9870SOL    HW230510   5.283   4.542   2.330
 9871SOL     OW30511   1.387   1.588   5.363
 9871SOL    HW130512   1.337   1.667   5.400
 9871SOL    HW230513   1.328   1.507   5.367
 9872SOL     OW30514   1.473   4.797   3.523
 9872SOL    HW130515   1.375   4.807   3.541
 9872SOL    HW230516   1.525   4.853   3.588
 9873SOL     OW30517   1.126   2.670   0.610
 9873SOL    HW130518   1.095   2.652   0.517
 9873SOL    HW230519   1.202   2.610   0.632
 9874SOL     OW30520   0.805   2.655   3.601
 9874SOL    HW130521   0.833   2.735   3.654
 9874SOL    HW230522   0.711   2.629   3.625
 9875SOL     OW30523   1.136   0.646   3.055
 9875SOL    HW130524   1.221   0.661   3.005
 9875SOL    HW230525   1.105   0.551   3.041
 9876SOL     OW30526   6.996   5.854   2.790
 9876SOL    HW130527   0.066   5.848   2.768
 9876SOL    HW230528   6.971   5.950   2.802
 9877SOL     OW30529   3.751   7.002   1.893
 9877SOL    HW130530   3.776   0.045   1.826
 9877SOL    HW230531   3.707   0.018   1.971
 9878SOL     OW30532   0.767   0.390   5.305
 9878SOL    HW130533   0.691   0.356   5.361
 9878SOL    HW230534   0.749   0.485   5.278
 9879SOL     OW30535   5.578   6.215   5.580
 9879SOL    HW130536   5.518   6.170   5.646
 9879SOL    HW230537   5.530   6.227   5.493
 9880SOL     OW30538   2.023   1.758   4.694
 9880SOL    HW130539   2.073   1.838   4.663
 9880SOL    HW230540   1.925   1.772   4.680
 9881SOL     OW30541   7.005   2.268   6.232
 9881SOL    HW130542   6.990   2.305   6.324
 9881SOL    HW230543   0.056   2.315   6.190
 9882SOL     OW30544   1.712   1.685   2.577
 9882SOL    HW130545   1.623   1.727   2.595
 9882SOL    HW230546   1.765   1.744   2.516
 9883SOL     OW30547   1.996   0.891   2.015
 9883SOL    HW130548   2.041   0.809   2.049
 9883SOL    HW230549   1.902   0.894   2.050
 9884SOL     OW30550   3.912   0.833   4.221
 9884SOL    HW130551   3.815   0.808   4.212
 9884SOL    HW230552   3.929   0.918   4.170
 9885SOL     OW30553   6.176   4.572   3.341
 9885SOL    HW130554   6.077   4.581   3.333
 9885SOL    HW230555   6.211   4.509   3.272
 9886SOL     OW30556   1.232   3.480   2.361
 9886SOL    HW130557   1.310   3.469   2.299
 9886SOL    HW230558   1.215   3.578   2.376
 9887SOL     OW30559   4.357   0.438   6.103
 9887SOL    HW130560   4.288   0.504   6.133
 9887SOL    HW230561   4.382   0.378   6.179
 9888SOL     OW30562   0.173   4.792   0.509
 9888SOL    HW130563   0.144   4.708   0.463
 9888SOL    HW230564   0.143   4.871   0.455
 9889SOL     OW30565   0.677   4.725   0.628
 9889SOL    HW130566   0.727   4.742   0.543
 9889SOL    HW230567   0.737   4.680   0.694
 9890SOL     OW30568   1.246   3.508   0.880
 9890SOL    HW130569   1.313   3.512   0.955
 9890SOL    HW230570   1.185   3.430   0.894
 9891SOL     OW30571   4.998   1.394   1.997
 9891SOL    HW130572   5.055   1.418   1.919
 9891SOL    HW230573   5.038   1.314   2.044
 9892SOL     OW30574   0.119   5.765   6.924
 9892SOL    HW130575   0.060   5.836   6.885
 9892SOL    HW230576   0.176   5.727   6.852
 9893SOL     OW30577   2.227   1.500   1.240
 9893SOL    HW130578   2.220   1.553   1.324
 9893SOL    HW230579   2.183   1.550   1.165
 9894SOL     OW30580   1.437   1.320   0.893
 9894SOL    HW130581   1.446   1.415   0.861
 9894SOL    HW230582   1.428   1.259   0.815
 9895SOL     OW30583   4.817   3.600   6.032
 9895SOL    HW130584   4.887   3.668   6.053
 9895SOL    HW230585   4.805   3.539   6.111
 9896SOL     OW30586   6.269   6.777   6.677
 9896SOL    HW130587   6.353   6.785   6.730
 9896SOL    HW230588   6.267   6.848   6.606
 9897SOL     OW30589   5.616   4.754   3.945
 9897SOL    HW130590   5.716   4.755   3.951
 9897SOL    HW230591   5.583   4.848   3.934
 9898SOL     OW30592   2.927   6.415   5.661
 9898SOL    HW130593   2.995   6.488   5.647
 9898SOL    HW230594   2.912   6.403   5.759
 9899SOL     OW30595   7.017   5.258   6.951
 9899SOL    HW130596   7.000   5.345   6.905
 9899SOL    HW230597   6.954   5.248   0.001
 9900SOL     OW30598   2.087   3.501   3.494
 9900SOL    HW130599   2.101   3.469   3.587
 9900SOL    HW230600   2.038   3.589   3.496
 9901SOL     OW30601   2.016   2.545   5.596
 9901SOL    HW130602   2.036   2.449   5.574
 9901SOL    HW230603   1.918   2.562   5.588
 9902SOL     OW30604   2.608   4.223   6.770
 9902SOL    HW130605   2.579   4.176   6.687
 9902SOL    HW230606   2.631   4.318   6.748
 9903SOL     OW30607   6.005   0.721   3.915
 9903SOL    HW130608   5.912   0.729   3.950
 9903SOL    HW230609   6.006   0.660   3.835
 9904SOL     OW30610   0.041   2.531   0.017
 9904SOL    HW130611   0.027   2.625   0.048
 9904SOL    HW230612   0.006   2.467   0.086
 9905SOL     OW30613   4.749   1.292   0.276
 9905SOL    HW130614   4.838   1.271   0.235
 9905SOL    HW230615   4.761   1.318   0.372
 9906SOL     OW30616   4.043   3.216   4.602
 9906SOL    HW130617   4.032   3.264   4.515
 9906SOL    HW230618   3.955   3.181   4.633
 9907SOL     OW30619   1.027   0.421   1.632
 9907SOL    HW130620   1.100   0.470   1.680
 9907SOL    HW230621   0.941   0.471   1.642
 9908SOL     OW30622   5.170   3.226   2.959
 9908SOL    HW130623   5.261   3.188   2.939
 9908SOL    HW230624   5.104   3.151   2.966
 9909SOL     OW30625   1.847   0.263   5.188
 9909SOL    HW130626   1.833   0.166   5.209
 9909SOL    HW230627   1.881   0.310   5.269
 9910SOL     OW30628   0.492   4.188   3.194
 9910SOL    HW130629   0.472   4.198   3.291
 9910SOL    HW230630   0.583   4.147   3.183
 9911SOL     OW30631   2.548   5.921   2.540
 9911SOL    HW130632   2.517   6.016   2.546
 9911SOL    HW230633   2.478   5.861   2.578
 9912SOL     OW30634   5.143   0.586   6.701
 9912SOL    HW130635   5.206   0.647   6.652
 9912SOL    HW230636   5.049   0.612   6.680
 9913SOL     OW30637   4.891   3.104   6.427
 9913SOL    HW130638   4.857   3.111   6.521
 9913SOL    HW230639   4.907   3.008   6.404
 9914SOL     OW30640   6.810   4.018   4.602
 9914SOL    HW130641   6.751   3.947   4.563
 9914SOL    HW230642   6.892   3.976   4.641
 9915SOL     OW30643   5.533   0.996   4.126
 9915SOL    HW130644   5.517   1.042   4.214
 9915SOL    HW230645   5.574   1.061   4.062
 9916SOL     OW30646   2.349   2.334   1.416
 9916SOL    HW130647   2.310   2.418   1.379
 9916SOL    HW230648   2.449   2.342   1.416
 9917SOL     OW30649   6.305   4.716   4.695
 9917SOL    HW130650   6.321   4.756   4.785
 9917SOL    HW230651   6.308   4.616   4.702
 9918SOL     OW30652   4.304   2.385   2.614
 9918SOL    HW130653   4.369   2.446   2.658
 9918SOL    HW230654   4.287   2.306   2.673
 9919SOL     OW30655   6.685   6.539   0.531
 9919SOL    HW130656   6.694   6.468   0.601
 9919SOL    HW230657   6.776   6.571   0.505
 9920SOL     OW30658   4.757   1.499   2.046
 9920SOL    HW130659   4.719   1.553   1.971
 9920SOL    HW230660   4.844   1.459   2.017
 9921SOL     OW30661   3.415   5.276   6.147
 9921SOL    HW130662   3.426   5.374   6.160
 9921SOL    HW230663   3.345   5.259   6.077
 9922SOL     OW30664   0.530   4.944   0.636
 9922SOL    HW130665   0.564   4.851   0.623
 9922SOL    HW230666   0.600   5.009   0.606
 9923SOL     OW30667   5.298   4.856   0.973
 9923SOL    HW130668   5.346   4.878   0.888
 9923SOL    HW230669   5.306   4.758   0.992
 9924SOL     OW30670   0.538   3.779   4.860
 9924SOL    HW130671   0.596   3.861   4.867
 9924SOL    HW230672   0.595   3.697   4.867
 9925SOL     OW30673   5.517   2.622   3.682
 9925SOL    HW130674   5.417   2.632   3.691
 9925SOL    HW230675   5.559   2.712   3.682
 9926SOL     OW30676   2.397   5.139   6.921
 9926SOL    HW130677   2.409   5.062   6.858
 9926SOL    HW230678   2.478   5.197   6.918
 9927SOL     OW30679   6.200   0.089   3.149
 9927SOL    HW130680   6.146   0.006   3.132
 9927SOL    HW230681   6.139   0.163   3.178
 9928SOL     OW30682   4.835   4.609   1.970
 9928SOL    HW130683   4.846   4.630   2.067
 9928SOL    HW230684   4.767   4.670   1.930
 9929SOL     OW30685   1.573   4.529   2.657
 9929SOL    HW130686   1.577   4.624   2.624
 9929SOL    HW230687   1.482   4.510   2.694
 9930SOL     OW30688   6.722   0.510   3.689
 9930SOL    HW130689   6.783   0.432   3.705
 9930SOL    HW230690   6.649   0.508   3.757
 9931SOL     OW30691   0.521   4.746   5.852
 9931SOL    HW130692   0.488   4.806   5.779
 9931SOL    HW230693   0.570   4.801   5.920
 9932SOL     OW30694   1.181   6.266   4.884
 9932SOL    HW130695   1.185   6.344   4.947
 9932SOL    HW230696   1.115   6.200   4.917
 9933SOL     OW30697   0.168   6.018   2.076
 9933SOL    HW130698   0.250   6.074   2.091
 9933SOL    HW230699   0.103   6.033   2.151
 9934SOL     OW30700   6.498   2.245   6.159
 9934SOL    HW130701   6.512   2.153   6.122
 9934SOL    HW230702   6.577   2.302   6.139
 9935SOL     OW30703   3.039   0.532   6.298
 9935SOL    HW130704   3.060   0.587   6.379
 9935SOL    HW230705   2.997   0.589   6.228
 9936SOL     OW30706   0.764   4.361   3.635
 9936SOL    HW130707   0.827   4.283   3.633
 9936SOL    HW230708   0.725   4.369   3.727
 9937SOL     OW30709   6.790   2.127   6.608
 9937SOL    HW130710   6.808   2.191   6.533
 9937SOL    HW230711   6.748   2.176   6.685
 9938SOL     OW30712   6.833   6.329   2.634
 9938SOL    HW130713   6.737   6.304   2.642
 9938SOL    HW230714   6.848   6.379   2.549
 9939SOL     OW30715   3.459   2.866   2.718
 9939SOL    HW130716   3.467   2.767   2.714
 9939SOL    HW230717   3.465   2.904   2.626
 9940SOL     OW30718   7.013   1.101   0.344
 9940SOL    HW130719   7.015   1.029   0.274
 9940SOL    HW230720   6.962   1.180   0.309
 9941SOL     OW30721   2.892   5.101   5.587
 9941SOL    HW130722   2.836   5.031   5.543
 9941SOL    HW230723   2.853   5.191   5.571
 9942SOL     OW30724   2.757   5.609   3.611
 9942SOL    HW130725   2.678   5.632   3.668
 9942SOL    HW230726   2.815   5.544   3.660
 9943SOL     OW30727   1.405   6.914   4.842
 9943SOL    HW130728   1.309   6.924   4.816
 9943SOL    HW230729   1.425   6.974   4.919
 9944SOL     OW30730   1.153   3.551   0.095
 9944SOL    HW130731   1.230   3.520   0.151
 9944SOL    HW230732   1.107   3.472   0.055
 9945SOL     OW30733   6.498   5.890   6.741
 9945SOL    HW130734   6.487   5.800   6.698
 9945SOL    HW230735   6.594   5.905   6.764
 9946SOL     OW30736   5.094   1.452   4.988
 9946SOL    HW130737   5.124   1.473   4.894
 9946SOL    HW230738   5.100   1.535   5.044
 9947SOL     OW30739   5.834   4.746   3.564
 9947SOL    HW130740   5.762   4.815   3.568
 9947SOL    HW230741   5.854   4.724   3.469
 9948SOL     OW30742   5.217   4.047   3.977
 9948SOL    HW130743   5.198   4.087   4.066
 9948SOL    HW230744   5.131   4.026   3.930
 9949SOL     OW30745   5.745   5.340   2.373
 9949SOL    HW130746   5.703   5.252   2.353
 9949SOL    HW230747   5.680   5.397   2.423
 9950SOL     OW30748   3.517   5.956   5.848
 9950SOL    HW130749   3.483   5.990   5.935
 9950SOL    HW230750   3.539   6.033   5.788
 9951SOL     OW30751   6.216   2.009   2.999
 9951SOL    HW130752   6.194   2.060   3.082
 9951SOL    HW230753   6.164   2.046   2.922
 9952SOL     OW30754   0.610   5.119   0.297
 9952SOL    HW130755   0.665   5.155   0.221
 9952SOL    HW230756   0.671   5.090   0.371
 9953SOL     OW30757   6.459   2.233   3.693
 9953SOL    HW130758   6.465   2.330   3.716
 9953SOL    HW230759   6.378   2.216   3.637
 9954SOL     OW30760   4.274   0.147   5.577
 9954SOL    HW130761   4.221   0.168   5.495
 9954SOL    HW230762   4.353   0.090   5.553
 9955SOL     OW30763   0.453   4.361   4.442
 9955SOL    HW130764   0.401   4.381   4.358
 9955SOL    HW230765   0.516   4.285   4.425
 9956SOL     OW30766   0.812   6.041   0.514
 9956SOL    HW130767   0.854   5.955   0.541
 9956SOL    HW230768   0.722   6.024   0.474
 9957SOL     OW30769   6.350   5.161   2.318
 9957SOL    HW130770   6.320   5.203   2.404
 9957SOL    HW230771   6.274   5.162   2.253
 9958SOL     OW30772   2.185   4.115   0.897
 9958SOL    HW130773   2.168   4.120   0.995
 9958SOL    HW230774   2.192   4.207   0.859
 9959SOL     OW30775   3.753   3.463   0.984
 9959SOL    HW130776   3.663   3.435   0.951
 9959SOL    HW230777   3.750   3.476   1.083
 9960SOL     OW30778   0.571   1.418   2.236
 9960SOL    HW130779   0.486   1.464   2.262
 9960SOL    HW230780   0.580   1.418   2.136
 9961SOL     OW30781   1.972   4.507   4.565
 9961SOL    HW130782   2.037   4.480   4.635
 9961SOL    HW230783   1.915   4.428   4.540
 9962SOL     OW30784   5.125   6.412   4.803
 9962SOL    HW130785   5.151   6.506   4.823
 9962SOL    HW230786   5.207   6.358   4.782
 9963SOL     OW30787   3.412   0.759   0.678
 9963SOL    HW130788   3.470   0.681   0.655
 9963SOL    HW230789   3.361   0.739   0.762
 9964SOL     OW30790   4.818   5.805   5.011
 9964SOL    HW130791   4.765   5.818   5.095
 9964SOL    HW230792   4.847   5.894   4.976
 9965SOL     OW30793   3.842   6.932   7.002
 9965SOL    HW130794   3.832   0.005   6.998
 9965SOL    HW230795   3.875   6.906   0.066
 9966SOL     OW30796   0.249   0.014   3.008
 9966SOL    HW130797   0.265   0.020   3.106
 9966SOL    HW230798   0.256   6.946   2.978
 9967SOL     OW30799   1.191   5.174   0.227
 9967SOL    HW130800   1.227   5.095   0.277
 9967SOL    HW230801   1.179   5.150   0.131
 9968SOL     OW30802   3.218   3.384   2.812
 9968SOL    HW130803   3.123   3.409   2.793
 9968SOL    HW230804   3.225   3.344   2.904
 9969SOL     OW30805   1.361   3.375   1.660
 9969SOL    HW130806   1.281   3.345   1.609
 9969SOL    HW230807   1.400   3.455   1.615
 9970SOL     OW30808   5.933   4.860   1.725
 9970SOL    HW130809   5.985   4.804   1.660
 9970SOL    HW230810   5.995   4.899   1.793
 9971SOL     OW30811   2.529   6.069   0.317
 9971SOL    HW130812   2.489   5.982   0.346
 9971SOL    HW230813   2.491   6.143   0.373
 9972SOL     OW30814   6.834   4.886   1.584
 9972SOL    HW130815   6.788   4.806   1.623
 9972SOL    HW230816   6.909   4.856   1.525
 9973SOL     OW30817   5.712   0.183   4.049
 9973SOL    HW130818   5.657   0.169   3.967
 9973SOL    HW230819   5.776   0.259   4.034
 9974SOL     OW30820   2.381   0.629   4.194
 9974SOL    HW130821   2.422   0.719   4.209
 9974SOL    HW230822   2.282   0.635   4.204
 9975SOL     OW30823   6.772   3.431   0.600
 9975SOL    HW130824   6.725   3.503   0.652
 9975SOL    HW230825   6.803   3.359   0.663
 9976SOL     OW30826   2.081   6.965   5.301
 9976SOL    HW130827   2.019   7.001   5.372
 9976SOL    HW230828   2.105   6.871   5.323
 9977SOL     OW30829   6.577   4.344   4.254
 9977SOL    HW130830   6.544   4.415   4.316
 9977SOL    HW230831   6.627   4.386   4.178
 9978SOL     OW30832   0.252   2.938   4.733
 9978SOL    HW130833   0.218   2.883   4.656
 9978SOL    HW230834   0.243   2.885   4.818
 9979SOL     OW30835   0.939   3.994   4.951
 9979SOL    HW130836   1.006   4.056   4.912
 9979SOL    HW230837   0.982   3.938   5.021
 9980SOL     OW30838   3.151   6.887   4.961
 9980SOL    HW130839   3.080   6.953   4.984
 9980SOL    HW230840   3.240   6.920   4.995
 9981SOL     OW30841   3.636   2.007   4.168
 9981SOL    HW130842   3.566   2.045   4.229
 9981SOL    HW230843   3.709   1.966   4.222
 9982SOL     OW30844   6.289   6.157   3.027
 9982SOL    HW130845   6.359   6.152   3.098
 9982SOL    HW230846   6.245   6.247   3.029
 9983SOL     OW30847   6.937   1.267   1.217
 9983SOL    HW130848   6.995   1.257   1.136
 9983SOL    HW230849   6.991   1.304   1.293
 9984SOL     OW30850   2.810   0.896   0.013
 9984SOL    HW130851   2.825   0.892   6.941
 9984SOL    HW230852   2.868   0.966   0.053
 9985SOL     OW30853   1.282   1.505   1.916
 9985SOL    HW130854   1.216   1.456   1.860
 9985SOL    HW230855   1.358   1.443   1.939
 9986SOL     OW30856   4.984   4.284   4.805
 9986SOL    HW130857   4.896   4.257   4.844
 9986SOL    HW230858   5.058   4.236   4.854
 9987SOL     OW30859   0.077   4.464   5.814
 9987SOL    HW130860   0.034   4.479   5.903
 9987SOL    HW230861   0.154   4.527   5.803
 9988SOL     OW30862   6.437   6.993   4.828
 9988SOL    HW130863   6.414   6.896   4.842
 9988SOL    HW230864   6.363   0.011   4.778
 9989SOL     OW30865   1.097   2.950   4.490
 9989SOL    HW130866   1.145   3.025   4.445
 9989SOL    HW230867   1.034   2.907   4.427
 9990SOL     OW30868   1.387   5.147   1.995
 9990SOL    HW130869   1.424   5.101   2.076
 9990SOL    HW230870   1.288   5.134   1.991
 9991SOL     OW30871   4.253   2.033   3.216
 9991SOL    HW130872   4.213   2.081   3.295
 9991SOL    HW230873   4.233   2.084   3.133
 9992SOL     OW30874   6.675   5.603   6.369
 9992SOL    HW130875   6.697   5.692   6.408
 9992SOL    HW230876   6.702   5.600   6.273
 9993SOL     OW30877   1.170   0.632   2.009
 9993SOL    HW130878   1.131   0.698   1.945
 9993SOL    HW230879   1.266   0.653   2.027
 9994SOL     OW30880   5.943   4.917   3.081
 9994SOL    HW130881   5.926   5.010   3.049
 9994SOL    HW230882   6.034   4.911   3.121
 9995SOL     OW30883   4.625   1.435   4.398
 9995SOL    HW130884   4.621   1.387   4.486
 9995SOL    HW230885   4.613   1.369   4.324
 9996SOL     OW30886   2.438   3.117   6.951
 9996SOL    HW130887   2.480   3.088   6.865
 9996SOL    HW230888   2.358   3.174   6.931
 9997SOL     OW30889   2.701   0.331   4.741
 9997SOL    HW130890   2.783   0.281   4.771
 9997SOL    HW230891   2.680   0.307   4.646
 9998SOL     OW30892   5.766   6.401   5.447
 9998SOL    HW130893   5.833   6.457   5.496
 9998SOL    HW230894   5.716   6.344   5.513
 9999SOL     OW30895   6.601   2.575   4.762
 9999SOL    HW130896   6.527   2.641   4.776
 9999SOL    HW230897   6.677   2.597   4.822
10000SOL     OW30898   6.941   4.571   0.152
10000SOL    HW130899   6.846   4.601   0.149
10000SOL    HW230900   6.961   4.516   0.071
10001SOL     OW30901   3.914   0.228   3.399
10001SOL    HW130902   3.850   0.157   3.370
10001SOL    HW230903   3.989   0.186   3.450
10002SOL     OW30904   1.270   1.780   2.030
10002SOL    HW130905   1.267   1.690   1.987
10002SOL    HW230906   1.188   1.793   2.086
10003SOL     OW30907   5.351   2.882   3.561
10003SOL    HW130908   5.421   2.949   3.586
10003SOL    HW230909   5.349   2.872   3.461
10004SOL     OW30910   0.408   2.398   2.854
10004SOL    HW130911   0.366   2.487   2.840
10004SOL    HW230912   0.389   2.366   2.947
10005SOL     OW30913   5.028   0.196   4.574
10005SOL    HW130914   5.125   0.178   4.563
10005SOL    HW230915   4.986   0.123   4.629
10006SOL     OW30916   4.516   1.473   4.781
10006SOL    HW130917   4.547   1.430   4.696
10006SOL    HW230918   4.424   1.510   4.767
10007SOL     OW30919   6.681   3.700   3.980
10007SOL    HW130920   6.679   3.773   4.049
10007SOL    HW230921   6.695   3.741   3.890
10008SOL     OW30922   4.028   6.560   4.488
10008SOL    HW130923   4.022   6.658   4.467
10008SOL    HW230924   3.936   6.521   4.489
10009SOL     OW30925   1.716   4.284   1.800
10009SOL    HW130926   1.628   4.322   1.772
10009SOL    HW230927   1.735   4.310   1.894
10010SOL     OW30928   6.393   1.571   6.281
10010SOL    HW130929   6.483   1.564   6.238
10010SOL    HW230930   6.341   1.646   6.238
10011SOL     OW30931   0.027   6.742   4.073
10011SOL    HW130932   0.107   6.799   4.055
10011SOL    HW230933   7.015   6.767   4.161
10012SOL     OW30934   5.976   0.639   4.526
10012SOL    HW130935   5.952   0.549   4.561
10012SOL    HW230936   5.893   0.687   4.498
10013SOL     OW30937   1.414   0.689   2.056
10013SOL    HW130938   1.441   0.784   2.068
10013SOL    HW230939   1.496   0.633   2.042
10014SOL     OW30940   1.430   4.967   6.057
10014SOL    HW130941   1.424   4.929   6.150
10014SOL    HW230942   1.500   4.917   6.006
10015SOL     OW30943   2.253   4.697   6.809
10015SOL    HW130944   2.155   4.707   6.791
10015SOL    HW230945   2.284   4.609   6.772
10016SOL     OW30946   2.735   0.450   5.250
10016SOL    HW130947   2.647   0.418   5.286
10016SOL    HW230948   2.729   0.460   5.151
10017SOL     OW30949   0.769   1.956   3.935
10017SOL    HW130950   0.779   1.900   4.016
10017SOL    HW230951   0.781   1.900   3.853
10018SOL     OW30952   5.183   6.743   5.946
10018SOL    HW130953   5.125   6.712   6.020
10018SOL    HW230954   5.196   6.669   5.880
10019SOL     OW30955   1.530   1.324   2.422
10019SOL    HW130956   1.575   1.398   2.372
10019SOL    HW230957   1.595   1.281   2.484
10020SOL     OW30958   0.152   3.108   6.897
10020SOL    HW130959   0.234   3.137   6.947
10020SOL    HW230960   0.161   3.133   6.801
10021SOL     OW30961   5.342   3.157   1.805
10021SOL    HW130962   5.362   3.064   1.835
10021SOL    HW230963   5.271   3.197   1.863
10022SOL     OW30964   1.719   0.393   6.550
10022SOL    HW130965   1.704   0.460   6.623
10022SOL    HW230966   1.658   0.413   6.474
10023SOL     OW30967   0.358   3.310   1.141
10023SOL    HW130968   0.451   3.283   1.117
10023SOL    HW230969   0.313   3.235   1.189
10024SOL     OW30970   1.214   4.408   3.415
10024SOL    HW130971   1.206   4.409   3.515
10024SOL    HW230972   1.289   4.467   3.387
10025SOL     OW30973   1.107   1.056   0.594
10025SOL    HW130974   1.103   0.992   0.516
10025SOL    HW230975   1.190   1.110   0.588
10026SOL     OW30976   6.840   0.694   4.060
10026SOL    HW130977   6.837   0.595   4.074
10026SOL    HW230978   6.916   0.717   3.999
10027SOL     OW30979   5.493   2.432   6.163
10027SOL    HW130980   5.540   2.348   6.189
10027SOL    HW230981   5.414   2.446   6.224
10028SOL     OW30982   1.850   0.716   1.473
10028SOL    HW130983   1.788   0.640   1.455
10028SOL    HW230984   1.857   0.731   1.572
10029SOL     OW30985   4.541   1.260   4.221
10029SOL    HW130986   4.575   1.167   4.208
10029SOL    HW230987   4.479   1.262   4.299
10030SOL     OW30988   1.482   0.567   3.038
10030SOL    HW130989   1.500   0.607   2.949
10030SOL    HW230990   1.430   0.482   3.027
10031SOL     OW30991   6.682   4.559   4.081
10031SOL    HW130992   6.756   4.598   4.135
10031SOL    HW230993   6.596   4.605   4.103
10032SOL     OW30994   3.241   1.013   5.112
10032SOL    HW130995   3.220   1.008   5.014
10032SOL    HW230996   3.233   1.108   5.142
10033SOL     OW30997   5.199   2.896   4.426
10033SOL    HW130998   5.219   2.910   4.523
10033SOL    HW230999   5.112   2.941   4.403
10034SOL     OW31000   4.371   0.141   6.225
10034SOL    HW131001   4.382   0.112   6.130
10034SOL    HW231002   4.447   0.107   6.280
10035SOL     OW31003   0.279   6.405   3.345
10035SOL    HW131004   0.332   6.489   3.356
10035SOL    HW231005   0.329   6.328   3.384
10036SOL     OW31006   0.060   0.190   0.170
10036SOL    HW131007   0.033   0.117   0.232
10036SOL    HW231008   0.090   0.270   0.222
10037SOL     OW31009   6.864   6.908   1.170
10037SOL    HW131010   6.930   6.983   1.168
10037SOL    HW231011   6.902   6.831   1.223
10038SOL     OW31012   6.169   0.140   0.877
10038SOL    HW131013   6.234   0.181   0.941
10038SOL    HW231014   6.083   0.121   0.925
10039SOL     OW31015   3.940   0.688   3.063
10039SOL    HW131016   3.979   0.763   3.116
10039SOL    HW231017   3.936   0.606   3.121
10040SOL     OW31018   0.390   2.234   0.963
10040SOL    HW131019   0.307   2.278   0.926
10040SOL    HW231020   0.441   2.193   0.888
10041SOL     OW31021   1.243   6.128   0.509
10041SOL    HW131022   1.198   6.120   0.598
10041SOL    HW231023   1.183   6.092   0.438
10042SOL     OW31024   6.088   1.931   3.497
10042SOL    HW131025   6.072   1.852   3.438
10042SOL    HW231026   6.160   1.909   3.563
10043SOL     OW31027   1.081   3.106   4.979
10043SOL    HW131028   1.049   3.064   4.894
10043SOL    HW231029   1.072   3.205   4.973
10044SOL     OW31030   4.374   1.835   6.547
10044SOL    HW131031   4.291   1.864   6.499
10044SOL    HW231032   4.357   1.834   6.645
10045SOL     OW31033   2.414   0.731   0.841
10045SOL    HW131034   2.399   0.638   0.875
10045SOL    HW231035   2.479   0.778   0.900
10046SOL     OW31036   0.921   5.184   1.162
10046SOL    HW131037   0.879   5.262   1.115
10046SOL    HW231038   0.895   5.185   1.259
10047SOL     OW31039   1.335   3.186   0.525
10047SOL    HW131040   1.365   3.248   0.452
10047SOL    HW231041   1.309   3.098   0.485
10048SOL     OW31042   5.789   4.789   2.293
10048SOL    HW131043   5.778   4.811   2.196
10048SOL    HW231044   5.767   4.693   2.308
10049SOL     OW31045   5.619   1.561   5.039
10049SOL    HW131046   5.712   1.525   5.049
10049SOL    HW231047   5.565   1.535   5.119
10050SOL     OW31048   6.878   2.852   5.670
10050SOL    HW131049   6.834   2.812   5.589
10050SOL    HW231050   6.949   2.915   5.641
10051SOL     OW31051   2.218   1.255   4.686
10051SOL    HW131052   2.144   1.322   4.687
10051SOL    HW231053   2.240   1.227   4.779
10052SOL     OW31054   1.008   0.292   3.698
10052SOL    HW131055   0.945   0.320   3.771
10052SOL    HW231056   1.073   0.226   3.734
10053SOL     OW31057   5.815   5.177   3.028
10053SOL    HW131058   5.888   5.237   2.996
10053SOL    HW231059   5.728   5.209   2.991
10054SOL     OW31060   6.745   4.124   4.025
10054SOL    HW131061   6.726   4.112   3.927
10054SOL    HW231062   6.711   4.045   4.076
10055SOL     OW31063   1.794   1.914   6.214
10055SOL    HW131064   1.815   1.973   6.292
10055SOL    HW231065   1.823   1.820   6.235
10056SOL     OW31066   6.002   2.255   4.459
10056SOL    HW131067   6.048   2.337   4.493
10056SOL    HW231068   6.069   2.192   4.421
10057SOL     OW31069   5.476   4.848   5.425
10057SOL    HW131070   5.513   4.756   5.437
10057SOL    HW231071   5.376   4.844   5.418
10058SOL     OW31072   6.709   3.746   4.358
10058SOL    HW131073   6.805   3.768   4.374
10058SOL    HW231074   6.677   3.684   4.430
10059SOL     OW31075   5.392   6.581   6.664
10059SOL    HW131076   5.469   6.640   6.690
10059SOL    HW231077   5.425   6.488   6.650
10060SOL     OW31078   3.042   1.908   1.740
10060SOL    HW131079   3.080   1.996   1.711
10060SOL    HW231080   3.117   1.843   1.756
10061SOL     OW31081   3.210   0.351   2.344
10061SOL    HW131082   3.142   0.289   2.305
10061SOL    HW231083   3.284   0.299   2.386
10062SOL     OW31084   6.702   6.968   4.896
10062SOL    HW131085   6.618   6.992   4.848
10062SOL    HW231086   6.776   6.955   4.830
10063SOL     OW31087   2.945   2.210   4.452
10063SOL    HW131088   2.852   2.231   4.483
10063SOL    HW231089   3.012   2.250   4.515
10064SOL     OW31090   2.843   0.299   2.072
10064SOL    HW131091   2.749   0.268   2.070
10064SOL    HW231092   2.891   0.267   1.990
10065SOL     OW31093   0.201   1.994   1.618
10065SOL    HW131094   0.132   2.060   1.588
10065SOL    HW231095   0.258   2.035   1.690
10066SOL     OW31096   6.482   4.455   3.303
10066SOL    HW131097   6.581   4.443   3.315
10066SOL    HW231098   6.434   4.381   3.350
10067SOL     OW31099   6.431   4.250   4.838
10067SOL    HW131100   6.442   4.166   4.784
10067SOL    HW231101   6.497   4.250   4.913
10068SOL     OW31102   1.691   2.692   2.433
10068SOL    HW131103   1.655   2.694   2.526
10068SOL    HW231104   1.742   2.607   2.419
10069SOL     OW31105   3.267   4.890   1.571
10069SOL    HW131106   3.291   4.954   1.644
10069SOL    HW231107   3.294   4.798   1.597
10070SOL     OW31108   5.403   0.281   0.814
10070SOL    HW131109   5.439   0.331   0.893
10070SOL    HW231110   5.307   0.258   0.830
10071SOL     OW31111   5.242   0.679   5.666
10071SOL    HW131112   5.285   0.674   5.575
10071SOL    HW231113   5.168   0.747   5.663
10072SOL     OW31114   6.374   2.859   1.903
10072SOL    HW131115   6.302   2.790   1.891
10072SOL    HW231116   6.426   2.839   1.986
10073SOL     OW31117   5.348   5.968   4.890
10073SOL    HW131118   5.366   6.066   4.891
10073SOL    HW231119   5.398   5.924   4.965
10074SOL     OW31120   2.021   4.717   0.523
10074SOL    HW131121   2.032   4.618   0.524
10074SOL    HW231122   1.997   4.747   0.431
10075SOL     OW31123   1.164   2.863   1.804
10075SOL    HW131124   1.118   2.947   1.774
10075SOL    HW231125   1.250   2.853   1.756
10076SOL     OW31126   5.807   3.858   3.739
10076SOL    HW131127   5.842   3.910   3.816
10076SOL    HW231128   5.863   3.876   3.658
10077SOL     OW31129   4.463   3.634   6.793
10077SOL    HW131130   4.546   3.660   6.842
10077SOL    HW231131   4.459   3.535   6.782
10078SOL     OW31132   6.181   5.328   4.514
10078SOL    HW131133   6.088   5.327   4.478
10078SOL    HW231134   6.186   5.391   4.592
10079SOL     OW31135   4.991   4.803   3.063
10079SOL    HW131136   4.984   4.712   3.023
10079SOL    HW231137   5.017   4.869   2.992
10080SOL     OW31138   5.333   1.908   5.875
10080SOL    HW131139   5.370   1.912   5.782
10080SOL    HW231140   5.267   1.982   5.888
10081SOL     OW31141   1.037   4.611   6.935
10081SOL    HW131142   0.985   4.666   6.869
10081SOL    HW231143   0.979   4.538   6.969
10082SOL     OW31144   1.358   4.562   1.059
10082SOL    HW131145   1.263   4.568   1.030
10082SOL    HW231146   1.418   4.572   0.979
10083SOL     OW31147   2.859   6.167   2.598
10083SOL    HW131148   2.903   6.189   2.511
10083SOL    HW231149   2.761   6.189   2.591
10084SOL     OW31150   1.848   2.704   3.855
10084SOL    HW131151   1.765   2.649   3.848
10084SOL    HW231152   1.830   2.797   3.824
10085SOL     OW31153   4.803   0.094   1.911
10085SOL    HW131154   4.873   0.125   1.846
10085SOL    HW231155   4.768   0.005   1.882
10086SOL     OW31156   3.827   0.093   2.999
10086SOL    HW131157   3.771   0.069   2.920
10086SOL    HW231158   3.768   0.104   3.079
10087SOL     OW31159   1.601   6.051   5.188
10087SOL    HW131160   1.610   5.996   5.271
10087SOL    HW231161   1.517   6.026   5.140
10088SOL     OW31162   6.348   2.436   1.128
10088SOL    HW131163   6.289   2.422   1.048
10088SOL    HW231164   6.291   2.462   1.207
10089SOL     OW31165   4.093   6.693   2.126
10089SOL    HW131166   4.001   6.677   2.163
10089SOL    HW231167   4.127   6.782   2.157
10090SOL     OW31168   1.772   5.954   2.496
10090SOL    HW131169   1.682   5.921   2.468
10090SOL    HW231170   1.838   5.934   2.424
10091SOL     OW31171   5.197   5.165   4.201
10091SOL    HW131172   5.246   5.079   4.187
10091SOL    HW231173   5.204   5.220   4.118
10092SOL     OW31174   0.726   1.516   2.706
10092SOL    HW131175   0.716   1.519   2.606
10092SOL    HW231176   0.646   1.472   2.746
10093SOL     OW31177   4.212   4.082   6.322
10093SOL    HW131178   4.207   3.985   6.297
10093SOL    HW231179   4.307   4.108   6.340
10094SOL     OW31180   3.810   2.133   0.303
10094SOL    HW131181   3.741   2.129   0.375
10094SOL    HW231182   3.821   2.227   0.272
10095SOL     OW31183   4.078   3.563   5.373
10095SOL    HW131184   4.142   3.586   5.300
10095SOL    HW231185   3.989   3.604   5.354
10096SOL     OW31186   6.764   3.968   2.359
10096SOL    HW131187   6.727   3.957   2.452
10096SOL    HW231188   6.861   3.992   2.365
10097SOL     OW31189   1.092   1.541   0.672
10097SOL    HW131190   1.106   1.448   0.704
10097SOL    HW231191   1.123   1.550   0.578
10098SOL     OW31192   3.436   5.943   5.461
10098SOL    HW131193   3.391   5.914   5.376
10098SOL    HW231194   3.415   6.040   5.478
10099SOL     OW31195   0.124   5.395   3.042
10099SOL    HW131196   0.118   5.491   3.015
10099SOL    HW231197   0.187   5.386   3.119
10100SOL     OW31198   5.234   4.652   4.241
10100SOL    HW131199   5.320   4.633   4.194
10100SOL    HW231200   5.208   4.573   4.296
10101SOL     OW31201   6.991   2.397   0.241
10101SOL    HW131202   0.001   2.305   0.254
10101SOL    HW231203   6.975   2.440   0.330
10102SOL     OW31204   6.526   4.734   3.383
10102SOL    HW131205   6.460   4.726   3.458
10102SOL    HW231206   6.535   4.646   3.337
10103SOL     OW31207   0.300   6.561   6.606
10103SOL    HW131208   0.308   6.472   6.560
10103SOL    HW231209   0.204   6.581   6.625
10104SOL     OW31210   3.131   0.729   4.459
10104SOL    HW131211   3.137   0.818   4.504
10104SOL    HW231212   3.037   0.696   4.462
10105SOL     OW31213   3.040   1.614   3.760
10105SOL    HW131214   2.949   1.643   3.731
10105SOL    HW231215   3.108   1.679   3.725
10106SOL     OW31216   5.850   4.254   1.659
10106SOL    HW131217   5.867   4.348   1.628
10106SOL    HW231218   5.864   4.191   1.583
10107SOL     OW31219   5.634   5.403   6.431
10107SOL    HW131220   5.700   5.463   6.386
10107SOL    HW231221   5.545   5.449   6.435
10108SOL     OW31222   2.450   2.547   4.901
10108SOL    HW131223   2.372   2.567   4.842
10108SOL    HW231224   2.458   2.618   4.971
10109SOL     OW31225   1.350   3.435   1.164
10109SOL    HW131226   1.284   3.478   1.226
10109SOL    HW231227   1.421   3.501   1.140
10110SOL     OW31228   6.499   6.163   2.296
10110SOL    HW131229   6.405   6.188   2.316
10110SOL    HW231230   6.506   6.135   2.200
10111SOL     OW31231   6.341   2.443   1.708
10111SOL    HW131232   6.285   2.449   1.791
10111SOL    HW231233   6.426   2.495   1.722
10112SOL     OW31234   7.002   2.983   3.758
10112SOL    HW131235   6.933   3.012   3.824
10112SOL    HW231236   6.958   2.933   3.684
10113SOL     OW31237   0.019   6.354   5.879
10113SOL    HW131238   6.949   6.380   5.882
10113SOL    HW231239   0.048   6.324   5.970
10114SOL     OW31240   5.200   3.604   1.977
10114SOL    HW131241   5.116   3.657   1.966
10114SOL    HW231242   5.276   3.666   1.996
10115SOL     OW31243   3.705   2.976   6.356
10115SOL    HW131244   3.714   3.035   6.276
10115SOL    HW231245   3.625   3.002   6.409
10116SOL     OW31246   0.379   6.919   6.451
10116SOL    HW131247   0.379   6.864   6.535
10116SOL    HW231248   0.438   6.999   6.464
10117SOL     OW31249   0.167   4.573   1.310
10117SOL    HW131250   0.190   4.495   1.251
10117SOL    HW231251   0.215   4.565   1.397
10118SOL     OW31252   4.140   4.775   3.721
10118SOL    HW131253   4.080   4.786   3.800
10118SOL    HW231254   4.163   4.864   3.684
10119SOL     OW31255   6.164   6.014   6.935
10119SOL    HW131256   6.233   6.025   7.007
10119SOL    HW231257   6.152   6.101   6.888
10120SOL     OW31258   2.581   2.347   2.617
10120SOL    HW131259   2.515   2.299   2.558
10120SOL    HW231260   2.667   2.360   2.568
10121SOL     OW31261   6.395   5.546   1.752
10121SOL    HW131262   6.474   5.606   1.737
10121SOL    HW231263   6.424   5.467   1.806
10122SOL     OW31264   2.143   0.306   3.327
10122SOL    HW131265   2.117   0.257   3.410
10122SOL    HW231266   2.061   0.320   3.271
10123SOL     OW31267   6.116   6.223   6.338
10123SOL    HW131268   6.077   6.207   6.248
10123SOL    HW231269   6.214   6.204   6.336
10124SOL     OW31270   2.785   5.319   2.181
10124SOL    HW131271   2.834   5.340   2.265
10124SOL    HW231272   2.699   5.272   2.203
10125SOL     OW31273   1.475   1.174   4.879
10125SOL    HW131274   1.469   1.133   4.788
10125SOL    HW231275   1.568   1.210   4.893
10126SOL     OW31276   6.632   6.246   4.613
10126SOL    HW131277   6.598   6.297   4.534
10126SOL    HW231278   6.626   6.303   4.695
10127SOL     OW31279   2.478   7.023   5.624
10127SOL    HW131280   2.469   6.926   5.650
10127SOL    HW231281   2.535   0.043   5.691
10128SOL     OW31282   2.379   2.035   7.021
10128SOL    HW131283   2.464   2.082   0.017
10128SOL    HW231284   2.389   1.992   6.931
10129SOL     OW31285   6.867   2.386   4.963
10129SOL    HW131286   6.905   2.390   5.056
10129SOL    HW231287   6.826   2.296   4.949
10130SOL     OW31288   1.528   2.124   3.098
10130SOL    HW131289   1.621   2.088   3.106
10130SOL    HW231290   1.462   2.048   3.101
10131SOL     OW31291   1.855   0.357   5.450
10131SOL    HW131292   1.935   0.302   5.471
10131SOL    HW231293   1.772   0.302   5.462
10132SOL     OW31294   5.768   0.674   2.572
10132SOL    HW131295   5.751   0.752   2.632
10132SOL    HW231296   5.866   0.668   2.554
10133SOL     OW31297   4.348   5.705   1.184
10133SOL    HW131298   4.409   5.745   1.253
10133SOL    HW231299   4.282   5.773   1.154
10134SOL     OW31300   0.247   6.068   3.319
10134SOL    HW131301   0.331   6.122   3.323
10134SOL    HW231302   0.184   6.108   3.252
10135SOL     OW31303   6.581   6.581   3.532
10135SOL    HW131304   6.625   6.664   3.498
10135SOL    HW231305   6.643   6.504   3.522
10136SOL     OW31306   4.628   0.923   3.771
10136SOL    HW131307   4.697   0.877   3.827
10136SOL    HW231308   4.579   0.990   3.828
10137SOL     OW31309   6.865   5.516   4.291
10137SOL    HW131310   6.857   5.455   4.371
10137SOL    HW231311   6.961   5.540   4.277
10138SOL     OW31312   6.967   2.079   1.957
10138SOL    HW131313   6.954   2.094   2.055
10138SOL    HW231314   0.008   2.144   1.922
10139SOL     OW31315   4.355   3.120   0.149
10139SOL    HW131316   4.409   3.132   0.232
10139SOL    HW231317   4.354   3.024   0.122
10140SOL     OW31318   6.692   5.739   4.982
10140SOL    HW131319   6.774   5.695   5.017
10140SOL    HW231320   6.717   5.824   4.935
10141SOL     OW31321   1.578   2.100   4.985
10141SOL    HW131322   1.612   2.085   5.078
10141SOL    HW231323   1.563   2.013   4.940
10142SOL     OW31324   4.916   5.662   2.411
10142SOL    HW131325   4.879   5.572   2.391
10142SOL    HW231326   4.845   5.719   2.453
10143SOL     OW31327   5.786   3.502   6.506
10143SOL    HW131328   5.818   3.414   6.541
10143SOL    HW231329   5.726   3.486   6.428
10144SOL     OW31330   3.460   0.500   1.031
10144SOL    HW131331   3.453   0.438   0.953
10144SOL    HW231332   3.422   0.455   1.112
10145SOL     OW31333   6.502   0.112   5.085
10145SOL    HW131334   6.587   0.073   5.119
10145SOL    HW231335   6.467   0.057   5.009
10146SOL     OW31336   1.544   2.735   5.556
10146SOL    HW131337   1.538   2.652   5.499
10146SOL    HW231338   1.613   2.721   5.627
10147SOL     OW31339   3.902   5.207   0.677
10147SOL    HW131340   3.855   5.134   0.728
10147SOL    HW231341   3.879   5.296   0.716
10148SOL     OW31342   0.370   5.217   6.361
10148SOL    HW131343   0.337   5.189   6.271
10148SOL    HW231344   0.329   5.159   6.432
10149SOL     OW31345   3.447   2.954   3.040
10149SOL    HW131346   3.376   3.017   3.009
10149SOL    HW231347   3.442   2.870   2.985
10150SOL     OW31348   5.021   4.294   1.726
10150SOL    HW131349   4.945   4.311   1.788
10150SOL    HW231350   5.071   4.379   1.709
10151SOL     OW31351   0.149   0.986   6.250
10151SOL    HW131352   0.095   0.902   6.256
10151SOL    HW231353   0.219   0.976   6.179
10152SOL     OW31354   4.030   6.365   3.716
10152SOL    HW131355   3.973   6.432   3.667
10152SOL    HW231356   3.974   6.317   3.784
10153SOL     OW31357   5.049   3.671   1.472
10153SOL    HW131358   5.035   3.574   1.491
10153SOL    HW231359   5.129   3.681   1.413
10154SOL     OW31360   4.290   5.096   5.369
10154SOL    HW131361   4.278   5.099   5.270
10154SOL    HW231362   4.202   5.081   5.413
10155SOL     OW31363   4.292   2.042   4.130
10155SOL    HW131364   4.201   2.083   4.120
10155SOL    HW231365   4.291   1.950   4.091
10156SOL     OW31366   3.556   2.193   6.094
10156SOL    HW131367   3.574   2.096   6.111
10156SOL    HW231368   3.643   2.242   6.083
10157SOL     OW31369   1.099   4.551   0.803
10157SOL    HW131370   1.114   4.648   0.825
10157SOL    HW231371   1.187   4.509   0.778
10158SOL     OW31372   5.253   5.108   0.153
10158SOL    HW131373   5.263   5.151   0.063
10158SOL    HW231374   5.341   5.108   0.199
10159SOL     OW31375   3.741   2.992   1.727
10159SOL    HW131376   3.791   3.018   1.644
10159SOL    HW231377   3.706   2.899   1.718
10160SOL     OW31378   0.127   3.958   2.623
10160SOL    HW131379   0.181   4.040   2.637
10160SOL    HW231380   0.185   3.885   2.587
10161SOL     OW31381   6.095   3.286   6.629
10161SOL    HW131382   6.158   3.212   6.652
10161SOL    HW231383   6.033   3.255   6.557
10162SOL     OW31384   1.661   2.047   2.370
10162SOL    HW131385   1.616   2.127   2.329
10162SOL    HW231386   1.661   2.057   2.470
10163SOL     OW31387   3.390   4.980   4.716
10163SOL    HW131388   3.415   4.978   4.812
10163SOL    HW231389   3.471   5.000   4.661
10164SOL     OW31390   0.187   0.932   4.242
10164SOL    HW131391   0.235   0.970   4.320
10164SOL    HW231392   0.165   1.005   4.177
10165SOL     OW31393   1.483   3.456   3.786
10165SOL    HW131394   1.460   3.547   3.822
10165SOL    HW231395   1.479   3.458   3.687
10166SOL     OW31396   3.480   6.285   3.231
10166SOL    HW131397   3.415   6.225   3.184
10166SOL    HW231398   3.566   6.236   3.245
10167SOL     OW31399   3.192   1.900   6.714
10167SOL    HW131400   3.180   1.986   6.664
10167SOL    HW231401   3.276   1.905   6.769
10168SOL     OW31402   1.110   1.550   6.279
10168SOL    HW131403   1.112   1.451   6.291
10168SOL    HW231404   1.061   1.592   6.355
10169SOL     OW31405   4.292   5.518   2.987
10169SOL    HW131406   4.336   5.601   3.018
10169SOL    HW231407   4.221   5.540   2.920
10170SOL     OW31408   4.828   6.996   0.698
10170SOL    HW131409   4.887   0.043   0.730
10170SOL    HW231410   4.883   6.914   0.683
10171SOL     OW31411   1.698   4.432   3.774
10171SOL    HW131412   1.663   4.495   3.704
10171SOL    HW231413   1.622   4.386   3.818
10172SOL     OW31414   0.769   0.799   2.391
10172SOL    HW131415   0.784   0.785   2.489
10172SOL    HW231416   0.760   0.711   2.346
10173SOL     OW31417   4.095   3.452   5.037
10173SOL    HW131418   4.003   3.471   5.072
10173SOL    HW231419   4.112   3.354   5.039
10174SOL     OW31420   5.126   4.520   2.001
10174SOL    HW131421   5.195   4.576   2.048
10174SOL    HW231422   5.068   4.580   1.945
10175SOL     OW31423   6.625   0.207   3.711
10175SOL    HW131424   6.645   0.247   3.801
10175SOL    HW231425   6.693   0.137   3.690
10176SOL     OW31426   0.353   1.322   4.602
10176SOL    HW131427   0.441   1.356   4.635
10176SOL    HW231428   0.306   1.393   4.549
10177SOL     OW31429   3.207   1.495   3.960
10177SOL    HW131430   3.183   1.402   3.931
10177SOL    HW231431   3.149   1.561   3.911
10178SOL     OW31432   0.006   1.094   1.900
10178SOL    HW131433   0.047   1.005   1.878
10178SOL    HW231434   0.066   1.144   1.962
10179SOL     OW31435   0.177   6.192   1.114
10179SOL    HW131436   0.126   6.161   1.033
10179SOL    HW231437   0.201   6.114   1.171
10180SOL     OW31438   3.118   6.880   6.044
10180SOL    HW131439   3.036   6.886   6.100
10180SOL    HW231440   3.150   6.973   6.021
10181SOL     OW31441   7.014   3.642   2.604
10181SOL    HW131442   6.926   3.609   2.571
10181SOL    HW231443   7.006   3.671   2.699
10182SOL     OW31444   4.104   0.208   0.299
10182SOL    HW131445   4.039   0.277   0.267
10182SOL    HW231446   4.179   0.252   0.347
10183SOL     OW31447   3.616   6.199   5.701
10183SOL    HW131448   3.626   6.260   5.779
10183SOL    HW231449   3.559   6.243   5.631
10184SOL     OW31450   5.345   2.844   5.090
10184SOL    HW131451   5.259   2.886   5.120
10184SOL    HW231452   5.330   2.746   5.072
10185SOL     OW31453   2.654   4.856   2.505
10185SOL    HW131454   2.672   4.808   2.419
10185SOL    HW231455   2.614   4.946   2.485
10186SOL     OW31456   3.267   2.865   0.806
10186SOL    HW131457   3.264   2.842   0.708
10186SOL    HW231458   3.204   2.806   0.856
10187SOL     OW31459   2.138   3.685   5.453
10187SOL    HW131460   2.200   3.696   5.376
10187SOL    HW231461   2.054   3.642   5.422
10188SOL     OW31462   2.124   6.743   0.041
10188SOL    HW131463   2.157   6.824   7.020
10188SOL    HW231464   2.122   6.760   0.139
10189SOL     OW31465   2.485   1.897   5.232
10189SOL    HW131466   2.464   1.994   5.247
10189SOL    HW231467   2.580   1.880   5.257
10190SOL     OW31468   3.941   3.815   0.860
10190SOL    HW131469   4.028   3.856   0.888
10190SOL    HW231470   3.903   3.866   0.783
10191SOL     OW31471   5.519   0.542   0.325
10191SOL    HW131472   5.525   0.640   0.344
10191SOL    HW231473   5.449   0.525   0.256
10192SOL     OW31474   2.115   0.726   4.190
10192SOL    HW131475   2.071   0.775   4.265
10192SOL    HW231476   2.052   0.719   4.113
10193SOL     OW31477   3.530   3.523   3.572
10193SOL    HW131478   3.430   3.525   3.572
10193SOL    HW231479   3.565   3.617   3.570
10194SOL     OW31480   3.232   6.062   3.774
10194SOL    HW131481   3.258   6.051   3.871
10194SOL    HW231482   3.202   6.156   3.758
10195SOL     OW31483   5.047   0.667   2.907
10195SOL    HW131484   5.086   0.651   2.998
10195SOL    HW231485   5.118   0.659   2.838
10196SOL     OW31486   4.985   3.964   3.854
10196SOL    HW131487   4.917   3.991   3.787
10196SOL    HW231488   4.941   3.952   3.943
10197SOL     OW31489   4.804   1.823   2.655
10197SOL    HW131490   4.774   1.847   2.748
10197SOL    HW231491   4.839   1.905   2.609
10198SOL     OW31492   2.872   1.614   1.825
10198SOL    HW131493   2.968   1.597   1.847
10198SOL    HW231494   2.815   1.546   1.870
10199SOL     OW31495   0.952   1.974   6.784
10199SOL    HW131496   0.943   2.010   6.877
10199SOL    HW231497   1.045   1.990   6.751
10200SOL     OW31498   6.013   6.733   4.160
10200SOL    HW131499   5.945   6.681   4.212
10200SOL    HW231500   6.007   6.708   4.063
10201SOL     OW31501   1.513   4.455   2.975
10201SOL    HW131502   1.594   4.490   3.022
10201SOL    HW231503   1.439   4.522   2.983
10202SOL     OW31504   1.127   1.964   3.241
10202SOL    HW131505   1.099   1.868   3.242
10202SOL    HW231506   1.118   2.001   3.149
10203SOL     OW31507   0.625   1.901   0.965
10203SOL    HW131508   0.721   1.894   0.940
10203SOL    HW231509   0.575   1.824   0.925
10204SOL     OW31510   2.889   5.979   4.132
10204SOL    HW131511   2.855   5.997   4.040
10204SOL    HW231512   2.823   5.921   4.180
10205SOL     OW31513   3.566   0.164   1.139
10205SOL    HW131514   3.623   0.245   1.149
10205SOL    HW231515   3.598   0.111   1.060
10206SOL     OW31516   5.829   6.398   6.931
10206SOL    HW131517   5.834   6.330   6.858
10206SOL    HW231518   5.890   6.475   6.909
10207SOL     OW31519   4.111   1.639   2.778
10207SOL    HW131520   4.132   1.628   2.681
10207SOL    HW231521   4.109   1.736   2.802
10208SOL     OW31522   6.856   3.495   6.395
10208SOL    HW131523   6.888   3.557   6.324
10208SOL    HW231524   6.770   3.453   6.367
10209SOL     OW31525   3.815   6.449   0.192
10209SOL    HW131526   3.771   6.482   0.108
10209SOL    HW231527   3.830   6.526   0.254
10210SOL     OW31528   5.445   5.387   0.147
10210SOL    HW131529   5.521   5.374   0.210
10210SOL    HW231530   5.359   5.389   0.198
10211SOL     OW31531   3.643   5.756   5.711
10211SOL    HW131532   3.609   5.838   5.758
10211SOL    HW231533   3.731   5.777   5.669
10212SOL     OW31534   6.118   6.667   6.218
10212SOL    HW131535   6.097   6.569   6.221
10212SOL    HW231536   6.166   6.693   6.302
10213SOL     OW31537   4.172   0.103   4.887
10213SOL    HW131538   4.219   0.140   4.807
10213SOL    HW231539   4.217   0.137   4.970
10214SOL     OW31540   0.602   0.447   0.007
10214SOL    HW131541   0.601   0.358   6.989
10214SOL    HW231542   0.682   0.453   0.067
10215SOL     OW31543   4.492   2.813   0.640
10215SOL    HW131544   4.543   2.865   0.571
10215SOL    HW231545   4.468   2.873   0.716
10216SOL     OW31546   5.022   0.261   2.851
10216SOL    HW131547   4.950   0.275   2.784
10216SOL    HW231548   5.056   0.167   2.844
10217SOL     OW31549   3.529   2.243   5.636
10217SOL    HW131550   3.569   2.238   5.545
10217SOL    HW231551   3.492   2.153   5.661
10218SOL     OW31552   3.705   1.495   6.787
10218SOL    HW131553   3.667   1.406   6.761
10218SOL    HW231554   3.643   1.568   6.757
10219SOL     OW31555   1.352   5.393   0.298
10219SOL    HW131556   1.362   5.350   0.388
10219SOL    HW231557   1.308   5.330   0.235
10220SOL     OW31558   4.199   2.277   7.004
10220SOL    HW131559   4.236   2.290   0.069
10220SOL    HW231560   4.168   2.365   6.968
10221SOL     OW31561   2.592   0.998   4.108
10221SOL    HW131562   2.563   0.962   4.197
10221SOL    HW231563   2.655   0.933   4.065
10222SOL     OW31564   1.871   4.276   5.117
10222SOL    HW131565   1.859   4.177   5.113
10222SOL    HW231566   1.817   4.313   5.193
10223SOL     OW31567   0.845   4.938   6.097
10223SOL    HW131568   0.860   4.849   6.053
10223SOL    HW231569   0.747   4.956   6.102
10224SOL     OW31570   2.836   6.762   4.927
10224SOL    HW131571   2.782   6.728   4.850
10224SOL    HW231572   2.930   6.732   4.917
10225SOL     OW31573   5.032   5.940   4.583
10225SOL    HW131574   5.087   5.968   4.504
10225SOL    HW231575   5.066   5.853   4.618
10226SOL     OW31576   6.438   2.878   6.021
10226SOL    HW131577   6.376   2.956   6.024
10226SOL    HW231578   6.528   2.905   6.056
10227SOL     OW31579   4.799   4.793   5.429
10227SOL    HW131580   4.839   4.869   5.377
10227SOL    HW231581   4.717   4.825   5.476
10228SOL     OW31582   0.679   3.076   1.954
10228SOL    HW131583   0.701   3.027   1.869
10228SOL    HW231584   0.695   3.016   2.032
10229SOL     OW31585   2.465   0.584   1.653
10229SOL    HW131586   2.446   0.660   1.591
10229SOL    HW231587   2.527   0.519   1.609
10230SOL     OW31588   5.952   6.642   3.465
10230SOL    HW131589   5.853   6.645   3.477
10230SOL    HW231590   5.987   6.734   3.448
10231SOL     OW31591   4.484   6.212   4.308
10231SOL    HW131592   4.475   6.154   4.389
10231SOL    HW231593   4.476   6.156   4.226
10232SOL     OW31594   3.675   2.074   3.364
10232SOL    HW131595   3.589   2.112   3.401
10232SOL    HW231596   3.730   2.039   3.440
10233SOL     OW31597   5.035   6.867   5.327
10233SOL    HW131598   5.069   6.788   5.379
10233SOL    HW231599   5.023   6.842   5.231
10234SOL     OW31600   4.577   5.422   1.382
10234SOL    HW131601   4.519   5.461   1.311
10234SOL    HW231602   4.521   5.399   1.462
10235SOL     OW31603   5.149   1.170   0.324
10235SOL    HW131604   5.193   1.250   0.365
10235SOL    HW231605   5.099   1.198   0.242
10236SOL     OW31606   1.580   5.860   1.479
10236SOL    HW131607   1.542   5.931   1.539
10236SOL    HW231608   1.528   5.775   1.490
10237SOL     OW31609   5.978   2.206   3.103
10237SOL    HW131610   6.041   2.234   3.030
10237SOL    HW231611   5.885   2.201   3.067
10238SOL     OW31612   4.687   5.808   5.265
10238SOL    HW131613   4.589   5.827   5.258
10238SOL    HW231614   4.730   5.874   5.327
10239SOL     OW31615   5.743   3.188   4.782
10239SOL    HW131616   5.809   3.163   4.852
10239SOL    HW231617   5.654   3.207   4.825
10240SOL     OW31618   4.950   3.377   3.711
10240SOL    HW131619   4.881   3.402   3.644
10240SOL    HW231620   4.995   3.460   3.745
10241SOL     OW31621   1.375   2.485   2.877
10241SOL    HW131622   1.425   2.531   2.804
10241SOL    HW231623   1.437   2.464   2.952
10242SOL     OW31624   1.091   5.324   5.808
10242SOL    HW131625   1.044   5.390   5.868
10242SOL    HW231626   1.129   5.251   5.864
10243SOL     OW31627   0.707   6.184   3.008
10243SOL    HW131628   0.721   6.277   2.976
10243SOL    HW231629   0.780   6.125   2.974
10244SOL     OW31630   1.305   5.661   0.392
10244SOL    HW131631   1.279   5.576   0.348
10244SOL    HW231632   1.359   5.641   0.474
10245SOL     OW31633   2.272   2.720   0.747
10245SOL    HW131634   2.316   2.662   0.816
10245SOL    HW231635   2.214   2.663   0.688
10246SOL     OW31636   2.958   3.793   4.280
10246SOL    HW131637   3.000   3.884   4.288
10246SOL    HW231638   2.941   3.757   4.372
10247SOL     OW31639   0.725   6.140   6.235
10247SOL    HW131640   0.702   6.227   6.279
10247SOL    HW231641   0.824   6.126   6.238
10248SOL     OW31642   6.041   0.799   3.444
10248SOL    HW131643   5.984   0.763   3.519
10248SOL    HW231644   6.114   0.855   3.482
10249SOL     OW31645   5.321   0.548   6.353
10249SOL    HW131646   5.251   0.594   6.297
10249SOL    HW231647   5.340   0.604   6.434
10250SOL     OW31648   4.831   6.363   0.579
10250SOL    HW131649   4.824   6.357   0.480
10250SOL    HW231650   4.753   6.316   0.621
10251SOL     OW31651   3.960   4.701   1.292
10251SOL    HW131652   3.970   4.711   1.193
10251SOL    HW231653   3.976   4.606   1.318
10252SOL     OW31654   0.231   4.280   0.878
10252SOL    HW131655   0.295   4.335   0.824
10252SOL    HW231656   0.233   4.185   0.845
10253SOL     OW31657   3.842   5.036   0.232
10253SOL    HW131658   3.870   4.962   0.172
10253SOL    HW231659   3.753   5.014   0.273
10254SOL     OW31660   2.379   1.574   4.893
10254SOL    HW131661   2.287   1.541   4.873
10254SOL    HW231662   2.375   1.638   4.970
10255SOL     OW31663   3.171   5.916   3.559
10255SOL    HW131664   3.239   5.945   3.493
10255SOL    HW231665   3.183   5.966   3.644
10256SOL     OW31666   5.516   6.568   0.562
10256SOL    HW131667   5.436   6.527   0.517
10256SOL    HW231668   5.599   6.534   0.517
10257SOL     OW31669   1.384   5.597   5.422
10257SOL    HW131670   1.465   5.652   5.441
10257SOL    HW231671   1.340   5.573   5.509
10258SOL     OW31672   4.362   0.936   3.018
10258SOL    HW131673   4.292   0.974   2.958
10258SOL    HW231674   4.425   0.879   2.965
10259SOL     OW31675   0.315   3.048   3.994
10259SOL    HW131676   0.400   3.060   3.943
10259SOL    HW231677   0.259   2.979   3.949
10260SOL     OW31678   0.178   5.767   2.343
10260SOL    HW131679   0.140   5.849   2.387
10260SOL    HW231680   0.164   5.688   2.403
10261SOL     OW31681   2.152   0.150   1.931
10261SOL    HW131682   2.067   0.143   1.983
10261SOL    HW231683   2.131   0.164   1.834
10262SOL     OW31684   1.619   6.586   3.819
10262SOL    HW131685   1.676   6.539   3.886
10262SOL    HW231686   1.596   6.524   3.745
10263SOL     OW31687   6.388   3.269   5.376
10263SOL    HW131688   6.382   3.276   5.277
10263SOL    HW231689   6.296   3.258   5.415
10264SOL     OW31690   0.555   6.752   0.132
10264SOL    HW131691   0.543   6.654   0.122
10264SOL    HW231692   0.478   6.800   0.091
10265SOL     OW31693   4.265   1.831   3.055
10265SOL    HW131694   4.255   1.898   3.127
10265SOL    HW231695   4.203   1.852   2.980
10266SOL     OW31696   4.029   3.645   6.808
10266SOL    HW131697   4.112   3.691   6.780
10266SOL    HW231698   3.977   3.704   6.870
10267SOL     OW31699   6.176   1.100   6.192
10267SOL    HW131700   6.101   1.159   6.164
10267SOL    HW231701   6.260   1.154   6.199
10268SOL     OW31702   6.757   4.107   0.952
10268SOL    HW131703   6.714   4.026   0.914
10268SOL    HW231704   6.819   4.147   0.885
10269SOL     OW31705   3.958   2.032   6.029
10269SOL    HW131706   3.977   1.953   5.971
10269SOL    HW231707   3.907   2.002   6.110
10270SOL     OW31708   2.768   5.621   2.235
10270SOL    HW131709   2.794   5.619   2.139
10270SOL    HW231710   2.789   5.712   2.273
10271SOL     OW31711   2.074   5.249   1.353
10271SOL    HW131712   2.113   5.185   1.420
10271SOL    HW231713   1.983   5.277   1.383
10272SOL     OW31714   1.661   2.113   4.259
10272SOL    HW131715   1.728   2.177   4.297
10272SOL    HW231716   1.639   2.044   4.328
10273SOL     OW31717   4.528   6.802   4.025
10273SOL    HW131718   4.490   6.753   4.104
10273SOL    HW231719   4.456   6.814   3.957
10274SOL     OW31720   2.639   4.718   6.469
10274SOL    HW131721   2.636   4.790   6.400
10274SOL    HW231722   2.679   4.635   6.429
10275SOL     OW31723   0.714   6.638   1.675
10275SOL    HW131724   0.756   6.718   1.633
10275SOL    HW231725   0.780   6.593   1.735
10276SOL     OW31726   1.099   6.678   0.019
10276SOL    HW131727   1.086   6.753   0.084
10276SOL    HW231728   1.124   6.595   0.069
10277SOL     OW31729   0.528   6.040   1.846
10277SOL    HW131730   0.579   6.126   1.844
10277SOL    HW231731   0.445   6.049   1.791
10278SOL     OW31732   6.648   0.495   5.350
10278SOL    HW131733   6.644   0.517   5.448
10278SOL    HW231734   6.662   0.397   5.338
10279SOL     OW31735   3.735   5.862   5.332
10279SOL    HW131736   3.663   5.796   5.354
10279SOL    HW231737   3.702   5.954   5.352
10280SOL     OW31738   3.448   2.877   0.149
10280SOL    HW131739   3.526   2.854   0.207
10280SOL    HW231740   3.424   2.973   0.161
10281SOL     OW31741   5.147   0.305   4.312
10281SOL    HW131742   5.201   0.258   4.382
10281SOL    HW231743   5.127   0.398   4.343
10282SOL     OW31744   1.311   2.550   4.138
10282SOL    HW131745   1.395   2.519   4.093
10282SOL    HW231746   1.236   2.488   4.115
10283SOL     OW31747   1.606   4.445   5.562
10283SOL    HW131748   1.651   4.467   5.476
10283SOL    HW231749   1.541   4.370   5.547
10284SOL     OW31750   5.016   3.561   6.905
10284SOL    HW131751   5.053   3.469   6.891
10284SOL    HW231752   5.036   3.618   6.825
10285SOL     OW31753   5.248   1.388   1.023
10285SOL    HW131754   5.261   1.370   1.121
10285SOL    HW231755   5.189   1.317   0.984
10286SOL     OW31756   3.944   0.560   4.193
10286SOL    HW131757   3.917   0.515   4.278
10286SOL    HW231758   3.925   0.658   4.200
10287SOL     OW31759   1.453   4.658   2.008
10287SOL    HW131760   1.491   4.690   1.921
10287SOL    HW231761   1.527   4.638   2.072
10288SOL     OW31762   4.173   6.102   4.511
10288SOL    HW131763   4.160   6.195   4.547
10288SOL    HW231764   4.261   6.096   4.465
10289SOL     OW31765   2.853   1.737   1.594
10289SOL    HW131766   2.925   1.807   1.593
10289SOL    HW231767   2.858   1.685   1.679
10290SOL     OW31768   3.116   3.034   3.101
10290SOL    HW131769   3.043   2.966   3.092
10290SOL    HW231770   3.127   3.059   3.197
10291SOL     OW31771   4.151   0.682   5.358
10291SOL    HW131772   4.069   0.640   5.319
10291SOL    HW231773   4.126   0.766   5.406
10292SOL     OW31774   0.480   2.368   4.387
10292SOL    HW131775   0.435   2.423   4.317
10292SOL    HW231776   0.555   2.316   4.345
10293SOL     OW31777   3.131   5.223   2.633
10293SOL    HW131778   3.081   5.138   2.616
10293SOL    HW231779   3.107   5.291   2.563
10294SOL     OW31780   6.570   1.087   3.512
10294SOL    HW131781   6.669   1.077   3.519
10294SOL    HW231782   6.541   1.069   3.418
10295SOL     OW31783   1.584   4.327   4.193
10295SOL    HW131784   1.538   4.366   4.272
10295SOL    HW231785   1.623   4.400   4.138
10296SOL     OW31786   6.362   3.322   1.661
10296SOL    HW131787   6.343   3.225   1.679
10296SOL    HW231788   6.404   3.363   1.742
10297SOL     OW31789   3.248   5.107   5.301
10297SOL    HW131790   3.163   5.063   5.327
10297SOL    HW231791   3.229   5.198   5.265
10298SOL     OW31792   5.956   3.293   2.967
10298SOL    HW131793   5.877   3.239   2.940
10298SOL    HW231794   5.966   3.292   3.066
10299SOL     OW31795   4.760   4.119   2.383
10299SOL    HW131796   4.719   4.065   2.456
10299SOL    HW231797   4.857   4.096   2.374
10300SOL     OW31798   0.753   5.887   1.720
10300SOL    HW131799   0.686   5.823   1.760
10300SOL    HW231800   0.814   5.920   1.792
10301SOL     OW31801   4.428   0.671   1.907
10301SOL    HW131802   4.335   0.708   1.914
10301SOL    HW231803   4.483   0.705   1.983
10302SOL     OW31804   2.284   4.090   3.639
10302SOL    HW131805   2.325   4.180   3.653
10302SOL    HW231806   2.184   4.098   3.635
10303SOL     OW31807   4.329   2.954   1.507
10303SOL    HW131808   4.350   3.021   1.578
10303SOL    HW231809   4.276   2.879   1.547
10304SOL     OW31810   6.063   6.370   3.690
10304SOL    HW131811   6.090   6.463   3.665
10304SOL    HW231812   6.136   6.327   3.743
10305SOL     OW31813   1.695   5.337   0.984
10305SOL    HW131814   1.765   5.283   1.030
10305SOL    HW231815   1.625   5.365   1.050
10306SOL     OW31816   4.091   4.315   0.716
10306SOL    HW131817   4.189   4.302   0.733
10306SOL    HW231818   4.078   4.352   0.624
10307SOL     OW31819   2.740   1.853   5.297
10307SOL    HW131820   2.809   1.910   5.342
10307SOL    HW231821   2.778   1.813   5.214
10308SOL     OW31822   2.687   5.218   3.936
10308SOL    HW131823   2.765   5.240   3.995
10308SOL    HW231824   2.711   5.238   3.841
10309SOL     OW31825   0.135   5.972   3.582
10309SOL    HW131826   0.072   5.895   3.582
10309SOL    HW231827   0.149   6.004   3.488
10310SOL     OW31828   3.045   3.120   4.498
10310SOL    HW131829   2.976   3.055   4.529
10310SOL    HW231830   3.097   3.153   4.577
10311SOL     OW31831   0.817   0.560   0.752
10311SOL    HW131832   0.748   0.490   0.736
10311SOL    HW231833   0.784   0.648   0.718
10312SOL     OW31834   2.635   4.627   0.645
10312SOL    HW131835   2.562   4.657   0.583
10312SOL    HW231836   2.652   4.698   0.713
10313SOL     OW31837   6.717   5.661   3.909
10313SOL    HW131838   6.804   5.710   3.904
10313SOL    HW231839   6.689   5.654   4.005
10314SOL     OW31840   7.016   5.657   5.409
10314SOL    HW131841   7.025   5.728   5.479
10314SOL    HW231842   0.002   5.698   5.319
10315SOL     OW31843   4.410   6.754   5.732
10315SOL    HW131844   4.323   6.755   5.780
10315SOL    HW231845   4.475   6.695   5.780
10316SOL     OW31846   0.160   3.678   3.046
10316SOL    HW131847   0.239   3.693   2.986
10316SOL    HW231848   0.171   3.731   3.130
10317SOL     OW31849   4.808   4.575   0.023
10317SOL    HW131850   4.826   4.563   6.952
10317SOL    HW231851   4.711   4.595   0.037
10318SOL     OW31852   5.762   5.366   2.673
10318SOL    HW131853   5.780   5.273   2.641
10318SOL    HW231854   5.846   5.420   2.668
10319SOL     OW31855   5.114   6.607   4.563
10319SOL    HW131856   5.113   6.659   4.477
10319SOL    HW231857   5.134   6.511   4.543
10320SOL     OW31858   4.486   6.110   2.284
10320SOL    HW131859   4.571   6.147   2.321
10320SOL    HW231860   4.442   6.179   2.227
10321SOL     OW31861   4.466   6.937   4.325
10321SOL    HW131862   4.552   6.921   4.373
10321SOL    HW231863   4.461   0.006   4.297
10322SOL     OW31864   0.521   2.169   0.047
10322SOL    HW131865   0.489   2.082   0.085
10322SOL    HW231866   0.516   2.166   6.975
10323SOL     OW31867   0.768   2.358   5.671
10323SOL    HW131868   0.714   2.358   5.755
10323SOL    HW231869   0.840   2.288   5.678
10324SOL     OW31870   3.689   2.910   4.367
10324SOL    HW131871   3.594   2.914   4.398
10324SOL    HW231872   3.692   2.895   4.268
10325SOL     OW31873   6.644   3.593   3.416
10325SOL    HW131874   6.643   3.616   3.319
10325SOL    HW231875   6.601   3.504   3.430
10326SOL     OW31876   5.876   1.977   1.270
10326SOL    HW131877   5.848   2.070   1.294
10326SOL    HW231878   5.924   1.936   1.347
10327SOL     OW31879   5.916   1.097   3.653
10327SOL    HW131880   5.966   1.049   3.726
10327SOL    HW231881   5.823   1.062   3.647
10328SOL     OW31882   6.115   3.720   2.347
10328SOL    HW131883   6.133   3.622   2.331
10328SOL    HW231884   6.028   3.745   2.305
10329SOL     OW31885   3.374   6.049   3.130
10329SOL    HW131886   3.324   6.053   3.043
10329SOL    HW231887   3.454   5.989   3.120
10330SOL     OW31888   3.218   3.974   0.962
10330SOL    HW131889   3.146   3.941   1.023
10330SOL    HW231890   3.255   3.898   0.909
10331SOL     OW31891   5.087   1.376   4.192
10331SOL    HW131892   5.142   1.312   4.246
10331SOL    HW231893   5.042   1.441   4.253
10332SOL     OW31894   1.061   1.918   5.968
10332SOL    HW131895   1.046   1.822   5.991
10332SOL    HW231896   1.132   1.956   6.028
10333SOL     OW31897   6.739   4.824   5.296
10333SOL    HW131898   6.771   4.732   5.320
10333SOL    HW231899   6.639   4.824   5.288
10334SOL     OW31900   0.699   5.260   5.139
10334SOL    HW131901   0.720   5.182   5.079
10334SOL    HW231902   0.601   5.266   5.154
10335SOL     OW31903   3.552   5.221   2.829
10335SOL    HW131904   3.472   5.247   2.774
10335SOL    HW231905   3.563   5.286   2.904
10336SOL     OW31906   4.986   6.859   2.839
10336SOL    HW131907   4.983   6.927   2.765
10336SOL    HW231908   4.917   6.880   2.907
10337SOL     OW31909   0.632   3.913   5.886
10337SOL    HW131910   0.695   3.990   5.896
10337SOL    HW231911   0.647   3.848   5.960
10338SOL     OW31912   2.802   5.240   2.686
10338SOL    HW131913   2.716   5.215   2.730
10338SOL    HW231914   2.847   5.312   2.739
10339SOL     OW31915   2.478   5.229   0.523
10339SOL    HW131916   2.552   5.271   0.575
10339SOL    HW231917   2.515   5.159   0.462
10340SOL     OW31918   1.527   6.666   0.768
10340SOL    HW131919   1.518   6.686   0.670
10340SOL    HW231920   1.471   6.586   0.791
10341SOL     OW31921   0.497   2.344   1.850
10341SOL    HW131922   0.474   2.417   1.786
10341SOL    HW231923   0.595   2.346   1.870
10342SOL     OW31924   3.541   6.201   4.536
10342SOL    HW131925   3.477   6.124   4.546
10342SOL    HW231926   3.518   6.253   4.453
10343SOL     OW31927   2.402   2.611   4.092
10343SOL    HW131928   2.361   2.669   4.022
10343SOL    HW231929   2.438   2.528   4.050
10344SOL     OW31930   4.603   3.805   1.708
10344SOL    HW131931   4.603   3.904   1.698
10344SOL    HW231932   4.697   3.773   1.723
10345SOL     OW31933   3.267   2.519   6.424
10345SOL    HW131934   3.335   2.447   6.432
10345SOL    HW231935   3.221   2.513   6.335
10346SOL     OW31936   6.201   5.446   0.600
10346SOL    HW131937   6.121   5.494   0.563
10346SOL    HW231938   6.170   5.375   0.664
10347SOL     OW31939   4.332   7.015   1.558
10347SOL    HW131940   4.349   6.917   1.567
10347SOL    HW231941   4.419   0.037   1.560
10348SOL     OW31942   6.682   5.049   5.707
10348SOL    HW131943   6.758   5.017   5.650
10348SOL    HW231944   6.669   4.986   5.783
10349SOL     OW31945   6.627   2.528   0.039
10349SOL    HW131946   6.694   2.459   0.064
10349SOL    HW231947   6.567   2.493   6.995
10350SOL     OW31948   1.987   4.780   4.626
10350SOL    HW131949   1.983   4.685   4.595
10350SOL    HW231950   1.916   4.795   4.695
10351SOL     OW31951   3.831   4.993   4.929
10351SOL    HW131952   3.842   5.073   4.988
10351SOL    HW231953   3.771   4.927   4.973
10352SOL     OW31954   6.814   0.890   0.872
10352SOL    HW131955   6.738   0.939   0.830
10352SOL    HW231956   6.830   0.804   0.823
10353SOL     OW31957   6.157   2.346   4.079
10353SOL    HW131958   6.067   2.305   4.074
10353SOL    HW231959   6.227   2.275   4.075
10354SOL     OW31960   6.790   2.776   1.242
10354SOL    HW131961   6.827   2.759   1.334
10354SOL    HW231962   6.701   2.732   1.234
10355SOL     OW31963   0.870   1.864   0.873
10355SOL    HW131964   0.881   1.917   0.789
10355SOL    HW231965   0.936   1.790   0.875
10356SOL     OW31966   5.870   2.616   6.911
10356SOL    HW131967   5.834   2.529   6.876
10356SOL    HW231968   5.962   2.601   6.947
10357SOL     OW31969   1.208   0.287   6.188
10357SOL    HW131970   1.188   0.206   6.133
10357SOL    HW231971   1.173   0.368   6.141
10358SOL     OW31972   0.854   2.198   3.042
10358SOL    HW131973   0.830   2.218   2.946
10358SOL    HW231974   0.952   2.178   3.048
10359SOL     OW31975   0.735   2.275   2.125
10359SOL    HW131976   0.650   2.326   2.137
10359SOL    HW231977   0.721   2.203   2.057
10360SOL     OW31978   5.815   3.796   1.176
10360SOL    HW131979   5.897   3.765   1.126
10360SOL    HW231980   5.824   3.893   1.199
10361SOL     OW31981   6.377   1.440   2.497
10361SOL    HW131982   6.378   1.461   2.399
10361SOL    HW231983   6.461   1.474   2.539
10362SOL     OW31984   1.059   5.779   1.772
10362SOL    HW131985   1.091   5.701   1.826
10362SOL    HW231986   0.991   5.830   1.825
10363SOL     OW31987   5.438   4.970   6.712
10363SOL    HW131988   5.353   4.989   6.662
10363SOL    HW231989   5.513   4.959   6.648
10364SOL     OW31990   5.882   5.887   2.521
10364SOL    HW131991   5.928   5.912   2.606
10364SOL    HW231992   5.784   5.876   2.538
10365SOL     OW31993   6.072   5.339   0.290
10365SOL    HW131994   6.021   5.304   0.212
10365SOL    HW231995   6.154   5.386   0.258
10366SOL     OW31996   3.032   7.026   4.024
10366SOL    HW131997   3.093   6.973   4.082
10366SOL    HW231998   2.951   6.971   4.002
10367SOL     OW31999   5.298   6.545   1.873
10367SOL    HW132000   5.301   6.604   1.954
10367SOL    HW232001   5.391   6.528   1.841
10368SOL     OW32002   0.936   6.029   1.867
10368SOL    HW132003   0.992   6.083   1.803
10368SOL    HW232004   0.906   6.087   1.942
10369SOL     OW32005   2.399   0.365   5.736
10369SOL    HW132006   2.492   0.385   5.706
10369SOL    HW232007   2.395   0.366   5.836
10370SOL     OW32008   2.295   1.850   5.566
10370SOL    HW132009   2.203   1.812   5.573
10370SOL    HW232010   2.320   1.895   5.652
10371SOL     OW32011   4.162   5.841   3.297
10371SOL    HW132012   4.200   5.933   3.286
10371SOL    HW232013   4.209   5.794   3.372
10372SOL     OW32014   2.261   6.471   0.807
10372SOL    HW132015   2.246   6.377   0.777
10372SOL    HW232016   2.177   6.508   0.846
10373SOL     OW32017   6.280   0.583   6.982
10373SOL    HW132018   6.192   0.629   6.980
10373SOL    HW232019   6.342   0.625   6.915
10374SOL     OW32020   3.016   4.890   3.038
10374SOL    HW132021   2.916   4.894   3.040
10374SOL    HW232022   3.047   4.879   2.943
10375SOL     OW32023   2.266   5.264   0.380
10375SOL    HW132024   2.298   5.323   0.306
10375SOL    HW232025   2.334   5.265   0.454
10376SOL     OW32026   2.199   4.748   3.548
10376SOL    HW132027   2.107   4.717   3.571
10376SOL    HW232028   2.252   4.760   3.631
10377SOL     OW32029   2.213   1.095   2.848
10377SOL    HW132030   2.209   1.093   2.948
10377SOL    HW232031   2.176   1.182   2.815
10378SOL     OW32032   0.620   6.456   5.372
10378SOL    HW132033   0.591   6.467   5.277
10378SOL    HW232034   0.634   6.359   5.391
10379SOL     OW32035   2.123   6.616   3.728
10379SOL    HW132036   2.164   6.539   3.679
10379SOL    HW232037   2.051   6.656   3.672
10380SOL     OW32038   3.365   0.997   3.921
10380SOL    HW132039   3.335   1.067   3.856
10380SOL    HW232040   3.288   0.969   3.979
10381SOL     OW32041   4.095   6.432   3.017
10381SOL    HW132042   4.077   6.469   2.926
10381SOL    HW232043   4.130   6.505   3.077
10382SOL     OW32044   3.893   5.546   1.979
10382SOL    HW132045   3.872   5.477   1.910
10382SOL    HW232046   3.943   5.503   2.055
10383SOL     OW32047   0.592   5.440   6.517
10383SOL    HW132048   0.586   5.391   6.604
10383SOL    HW232049   0.500   5.463   6.485
10384SOL     OW32050   4.856   5.792   1.638
10384SOL    HW132051   4.859   5.731   1.718
10384SOL    HW232052   4.943   5.786   1.589
10385SOL     OW32053   4.327   4.887   0.126
10385SOL    HW132054   4.366   4.795   0.126
10385SOL    HW232055   4.300   4.912   0.033
10386SOL     OW32056   0.297   0.684   1.094
10386SOL    HW132057   0.230   0.716   1.161
10386SOL    HW232058   0.295   0.584   1.091
10387SOL     OW32059   5.028   3.128   2.400
10387SOL    HW132060   4.985   3.140   2.311
10387SOL    HW232061   4.997   3.042   2.441
10388SOL     OW32062   2.057   0.315   4.573
10388SOL    HW132063   2.051   0.398   4.628
10388SOL    HW232064   2.089   0.337   4.481
10389SOL     OW32065   0.610   3.882   6.793
10389SOL    HW132066   0.682   3.824   6.832
10389SOL    HW232067   0.528   3.826   6.778
10390SOL     OW32068   1.901   2.325   1.950
10390SOL    HW132069   1.915   2.236   1.906
10390SOL    HW232070   1.989   2.373   1.955
10391SOL     OW32071   6.589   7.024   3.467
10391SOL    HW132072   6.578   0.075   3.528
10391SOL    HW232073   6.526   0.005   3.390
10392SOL     OW32074   6.411   4.671   4.092
10392SOL    HW132075   6.355   4.661   4.175
10392SOL    HW232076   6.351   4.690   4.014
10393SOL     OW32077   2.161   2.424   1.960
10393SOL    HW132078   2.213   2.495   1.912
10393SOL    HW232079   2.220   2.344   1.976
10394SOL     OW32080   3.185   6.685   4.361
10394SOL    HW132081   3.114   6.629   4.318
10394SOL    HW232082   3.269   6.631   4.369
10395SOL     OW32083   0.970   0.438   0.962
10395SOL    HW132084   0.905   0.453   0.887
10395SOL    HW232085   1.051   0.495   0.949
10396SOL     OW32086   3.358   2.053   5.083
10396SOL    HW132087   3.314   2.136   5.048
10396SOL    HW232088   3.304   1.974   5.057
10397SOL     OW32089   4.973   1.850   4.130
10397SOL    HW132090   5.064   1.812   4.116
10397SOL    HW232091   4.907   1.777   4.144
10398SOL     OW32092   5.793   2.316   2.370
10398SOL    HW132093   5.851   2.299   2.290
10398SOL    HW232094   5.718   2.251   2.371
10399SOL     OW32095   0.606   3.737   2.569
10399SOL    HW132096   0.704   3.753   2.582
10399SOL    HW232097   0.555   3.808   2.618
10400SOL     OW32098   2.283   6.208   0.753
10400SOL    HW132099   2.191   6.175   0.734
10400SOL    HW232100   2.318   6.163   0.836
10401SOL     OW32101   0.426   0.733   5.672
10401SOL    HW132102   0.500   0.749   5.738
10401SOL    HW232103   0.395   0.638   5.680
10402SOL     OW32104   6.664   3.757   5.143
10402SOL    HW132105   6.644   3.824   5.072
10402SOL    HW232106   6.762   3.734   5.141
10403SOL     OW32107   3.065   0.059   1.069
10403SOL    HW132108   3.088   7.024   1.143
10403SOL    HW232109   3.140   0.124   1.055
10404SOL     OW32110   6.701   6.784   6.295
10404SOL    HW132111   6.721   6.705   6.237
10404SOL    HW232112   6.604   6.808   6.285
10405SOL     OW32113   0.670   2.755   6.404
10405SOL    HW132114   0.624   2.668   6.417
10405SOL    HW232115   0.751   2.760   6.463
10406SOL     OW32116   1.510   5.179   1.351
10406SOL    HW132117   1.556   5.240   1.287
10406SOL    HW232118   1.426   5.144   1.308
10407SOL     OW32119   1.959   5.640   5.627
10407SOL    HW132120   2.014   5.686   5.697
10407SOL    HW232121   2.016   5.626   5.546
10408SOL     OW32122   4.647   1.020   0.187
10408SOL    HW132123   4.663   1.080   0.265
10408SOL    HW232124   4.560   1.044   0.144
10409SOL     OW32125   6.360   4.227   1.119
10409SOL    HW132126   6.447   4.271   1.098
10409SOL    HW232127   6.295   4.295   1.155
10410SOL     OW32128   4.510   0.141   0.503
10410SOL    HW132129   4.601   0.175   0.482
10410SOL    HW232130   4.467   0.201   0.570
10411SOL     OW32131   1.981   4.633   4.320
10411SOL    HW132132   2.052   4.702   4.328
10411SOL    HW232133   1.974   4.582   4.405
10412SOL     OW32134   5.278   6.897   0.788
10412SOL    HW132135   5.192   6.869   0.832
10412SOL    HW232136   5.349   6.906   0.858
10413SOL     OW32137   6.353   3.009   2.194
10413SOL    HW132138   6.324   3.048   2.282
10413SOL    HW232139   6.309   2.920   2.182
10414SOL     OW32140   4.752   2.733   4.477
10414SOL    HW132141   4.846   2.704   4.494
10414SOL    HW232142   4.752   2.808   4.411
10415SOL     OW32143   0.195   1.002   6.518
10415SOL    HW132144   0.151   1.011   6.429
10415SOL    HW232145   0.193   0.906   6.547
10416SOL     OW32146   5.530   3.154   4.007
10416SOL    HW132147   5.509   3.066   4.048
10416SOL    HW232148   5.608   3.196   4.055
10417SOL     OW32149   2.293   4.282   3.034
10417SOL    HW132150   2.205   4.299   2.988
10417SOL    HW232151   2.282   4.295   3.132
10418SOL     OW32152   1.604   5.827   5.391
10418SOL    HW132153   1.696   5.865   5.385
10418SOL    HW232154   1.550   5.881   5.455
10419SOL     OW32155   1.182   1.316   0.318
10419SOL    HW132156   1.119   1.249   0.357
10419SOL    HW232157   1.154   1.336   0.224
10420SOL     OW32158   0.515   3.148   3.323
10420SOL    HW132159   0.439   3.125   3.262
10420SOL    HW232160   0.596   3.096   3.296
10421SOL     OW32161   0.195   1.278   3.381
10421SOL    HW132162   0.282   1.240   3.413
10421SOL    HW232163   0.161   1.222   3.305
10422SOL     OW32164   5.681   3.686   5.700
10422SOL    HW132165   5.628   3.764   5.731
10422SOL    HW232166   5.621   3.621   5.653
10423SOL     OW32167   5.529   4.046   2.848
10423SOL    HW132168   5.539   4.024   2.751
10423SOL    HW232169   5.510   3.962   2.899
10424SOL     OW32170   5.151   1.226   6.370
10424SOL    HW132171   5.233   1.214   6.426
10424SOL    HW232172   5.165   1.183   6.280
10425SOL     OW32173   2.100   6.330   1.593
10425SOL    HW132174   2.113   6.280   1.678
10425SOL    HW232175   2.185   6.373   1.565
10426SOL     OW32176   6.430   3.894   0.484
10426SOL    HW132177   6.343   3.939   0.465
10426SOL    HW232178   6.439   3.878   0.582
10427SOL     OW32179   4.519   0.643   1.155
10427SOL    HW132180   4.609   0.687   1.152
10427SOL    HW232181   4.514   0.583   1.234
10428SOL     OW32182   4.281   0.898   3.736
10428SOL    HW132183   4.265   0.974   3.800
10428SOL    HW232184   4.211   0.829   3.749
10429SOL     OW32185   5.844   6.227   1.834
10429SOL    HW132186   5.843   6.277   1.747
10429SOL    HW232187   5.814   6.287   1.908
10430SOL     OW32188   4.100   6.285   3.286
10430SOL    HW132189   4.084   6.375   3.245
10430SOL    HW232190   4.106   6.293   3.385
10431SOL     OW32191   2.006   0.911   5.148
10431SOL    HW132192   2.082   0.975   5.160
10431SOL    HW232193   1.937   0.928   5.218
10432SOL     OW32194   4.891   1.692   5.035
10432SOL    HW132195   4.795   1.701   5.009
10432SOL    HW232196   4.932   1.615   4.986
10433SOL     OW32197   2.766   6.766   1.190
10433SOL    HW132198   2.752   6.814   1.276
10433SOL    HW232199   2.731   6.821   1.114
10434SOL     OW32200   2.190   2.050   4.361
10434SOL    HW132201   2.221   2.002   4.443
10434SOL    HW232202   2.232   2.140   4.357
10435SOL     OW32203   5.876   5.619   6.866
10435SOL    HW132204   5.776   5.614   6.867
10435SOL    HW232205   5.906   5.696   6.922
10436SOL     OW32206   1.344   0.076   1.982
10436SOL    HW132207   1.295   0.126   2.053
10436SOL    HW232208   1.313   7.008   1.979
10437SOL     OW32209   6.676   4.869   5.893
10437SOL    HW132210   6.767   4.855   5.933
10437SOL    HW232211   6.607   4.849   5.962
10438SOL     OW32212   3.688   0.025   6.075
10438SOL    HW132213   3.664   6.958   6.099
10438SOL    HW232214   3.613   0.068   6.025
10439SOL     OW32215   4.432   0.844   5.771
10439SOL    HW132216   4.486   0.907   5.716
10439SOL    HW232217   4.492   0.798   5.837
10440SOL     OW32218   2.028   6.108   0.664
10440SOL    HW132219   1.959   6.179   0.657
10440SOL    HW232220   2.076   6.099   0.577
10441SOL     OW32221   3.977   0.600   6.786
10441SOL    HW132222   4.055   0.559   6.834
10441SOL    HW232223   3.905   0.532   6.775
10442SOL     OW32224   4.551   6.035   5.477
10442SOL    HW132225   4.601   6.121   5.470
10442SOL    HW232226   4.611   5.964   5.514
10443SOL     OW32227   6.033   2.750   4.994
10443SOL    HW132228   6.028   2.656   5.028
10443SOL    HW232229   6.036   2.813   5.071
10444SOL     OW32230   3.398   4.965   4.390
10444SOL    HW132231   3.343   4.980   4.472
10444SOL    HW232232   3.345   4.913   4.323
10445SOL     OW32233   5.980   5.709   3.393
10445SOL    HW132234   5.921   5.779   3.352
10445SOL    HW232235   6.053   5.753   3.445
10446SOL     OW32236   0.662   6.365   6.671
10446SOL    HW132237   0.692   6.457   6.643
10446SOL    HW232238   0.587   6.373   6.736
10447SOL     OW32239   6.514   1.983   0.644
10447SOL    HW132240   6.415   1.970   0.651
10447SOL    HW232241   6.535   2.040   0.565
10448SOL     OW32242   3.440   3.950   2.280
10448SOL    HW132243   3.441   3.850   2.285
10448SOL    HW232244   3.372   3.986   2.344
10449SOL     OW32245   1.746   5.306   4.381
10449SOL    HW132246   1.795   5.391   4.398
10449SOL    HW232247   1.649   5.317   4.405
10450SOL     OW32248   0.055   2.774   0.591
10450SOL    HW132249   0.012   2.685   0.611
10450SOL    HW232250   0.148   2.775   0.629
10451SOL     OW32251   2.355   4.425   2.605
10451SOL    HW132252   2.406   4.485   2.545
10451SOL    HW232253   2.416   4.389   2.676
10452SOL     OW32254   0.958   3.334   4.713
10452SOL    HW132255   1.009   3.354   4.797
10452SOL    HW232256   0.999   3.384   4.637
10453SOL     OW32257   5.357   0.457   1.489
10453SOL    HW132258   5.376   0.419   1.398
10453SOL    HW232259   5.327   0.384   1.550
10454SOL     OW32260   4.901   3.758   2.308
10454SOL    HW132261   5.000   3.751   2.323
10454SOL    HW232262   4.884   3.791   2.216
10455SOL     OW32263   0.038   4.534   2.915
10455SOL    HW132264   0.048   4.436   2.896
10455SOL    HW232265   0.054   4.585   2.830
10456SOL     OW32266   3.718   5.820   1.658
10456SOL    HW132267   3.675   5.765   1.730
10456SOL    HW232268   3.743   5.910   1.695
10457SOL     OW32269   3.709   3.429   4.033
10457SOL    HW132270   3.620   3.431   3.988
10457SOL    HW232271   3.742   3.335   4.038
10458SOL     OW32272   6.321   6.514   1.577
10458SOL    HW132273   6.232   6.526   1.620
10458SOL    HW232274   6.353   6.603   1.544
10459SOL     OW32275   6.569   4.839   2.576
10459SOL    HW132276   6.568   4.906   2.502
10459SOL    HW232277   6.583   4.886   2.663
10460SOL     OW32278   1.831   4.539   1.823
10460SOL    HW132279   1.786   4.477   1.759
10460SOL    HW232280   1.929   4.540   1.804
10461SOL     OW32281   2.371   1.458   6.348
10461SOL    HW132282   2.336   1.410   6.268
10461SOL    HW232283   2.443   1.402   6.392
10462SOL     OW32284   5.073   6.980   1.183
10462SOL    HW132285   5.019   0.025   1.138
10462SOL    HW232286   5.021   6.895   1.184
10463SOL     OW32287   3.441   3.523   1.522
10463SOL    HW132288   3.421   3.612   1.481
10463SOL    HW232289   3.459   3.457   1.450
10464SOL     OW32290   5.352   6.751   1.331
10464SOL    HW132291   5.278   6.691   1.300
10464SOL    HW232292   5.326   6.846   1.318
10465SOL     OW32293   6.719   5.175   5.042
10465SOL    HW132294   6.622   5.151   5.033
10465SOL    HW232295   6.754   5.204   4.953
10466SOL     OW32296   4.963   6.245   6.380
10466SOL    HW132297   4.939   6.201   6.467
10466SOL    HW232298   5.059   6.227   6.359
10467SOL     OW32299   4.356   1.191   3.658
10467SOL    HW132300   4.405   1.243   3.728
10467SOL    HW232301   4.327   1.103   3.695
10468SOL     OW32302   3.353   5.712   3.473
10468SOL    HW132303   3.417   5.651   3.427
10468SOL    HW232304   3.379   5.807   3.455
10469SOL     OW32305   1.356   5.673   6.937
10469SOL    HW132306   1.376   5.624   6.852
10469SOL    HW232307   1.272   5.637   6.977
10470SOL     OW32308   2.917   1.821   4.219
10470SOL    HW132309   2.896   1.917   4.238
10470SOL    HW232310   3.015   1.812   4.200
10471SOL     OW32311   4.374   4.139   0.356
10471SOL    HW132312   4.391   4.169   0.261
10471SOL    HW232313   4.395   4.215   0.418
10472SOL     OW32314   4.335   1.641   3.356
10472SOL    HW132315   4.413   1.697   3.328
10472SOL    HW232316   4.318   1.655   3.453
10473SOL     OW32317   4.746   5.325   0.262
10473SOL    HW132318   4.649   5.322   0.288
10473SOL    HW232319   4.755   5.369   0.173
10474SOL     OW32320   5.334   1.172   3.882
10474SOL    HW132321   5.430   1.148   3.899
10474SOL    HW232322   5.331   1.260   3.833
10475SOL     OW32323   4.640   6.448   1.776
10475SOL    HW132324   4.543   6.445   1.754
10475SOL    HW232325   4.666   6.368   1.830
10476SOL     OW32326   0.478   4.766   6.997
10476SOL    HW132327   0.451   4.770   0.066
10476SOL    HW232328   0.417   4.823   6.943
10477SOL     OW32329   4.593   4.765   5.046
10477SOL    HW132330   4.679   4.786   4.999
10477SOL    HW232331   4.516   4.777   4.983
10478SOL     OW32332   0.290   6.152   2.881
10478SOL    HW132333   0.285   6.247   2.851
10478SOL    HW232334   0.228   6.138   2.959
10479SOL     OW32335   1.576   4.809   2.598
10479SOL    HW132336   1.523   4.847   2.674
10479SOL    HW232337   1.673   4.804   2.626
10480SOL     OW32338   5.629   0.480   1.658
10480SOL    HW132339   5.561   0.553   1.664
10480SOL    HW232340   5.602   0.414   1.588
10481SOL     OW32341   2.866   1.211   4.586
10481SOL    HW132342   2.856   1.197   4.684
10481SOL    HW232343   2.826   1.299   4.561
10482SOL     OW32344   1.036   5.951   6.382
10482SOL    HW132345   1.136   5.937   6.382
10482SOL    HW232346   1.001   5.936   6.475
10483SOL     OW32347   6.406   5.197   0.915
10483SOL    HW132348   6.467   5.262   0.868
10483SOL    HW232349   6.432   5.192   1.011
10484SOL     OW32350   6.088   2.166   1.272
10484SOL    HW132351   6.179   2.127   1.288
10484SOL    HW232352   6.024   2.092   1.252
10485SOL     OW32353   3.179   3.963   3.829
10485SOL    HW132354   3.114   3.923   3.893
10485SOL    HW232355   3.273   3.943   3.860
10486SOL     OW32356   6.104   5.554   5.454
10486SOL    HW132357   6.041   5.594   5.520
10486SOL    HW232358   6.189   5.530   5.500
10487SOL     OW32359   5.288   2.821   3.038
10487SOL    HW132360   5.195   2.788   3.052
10487SOL    HW232361   5.340   2.754   2.985
10488SOL     OW32362   0.311   2.501   4.652
10488SOL    HW132363   0.375   2.474   4.580
10488SOL    HW232364   0.217   2.479   4.623
10489SOL     OW32365   6.031   4.383   4.253
10489SOL    HW132366   5.990   4.435   4.179
10489SOL    HW232367   6.085   4.444   4.311
10490SOL     OW32368   5.807   6.477   6.552
10490SOL    HW132369   5.897   6.475   6.508
10490SOL    HW232370   5.786   6.571   6.580
10491SOL     OW32371   1.881   2.961   5.904
10491SOL    HW132372   1.915   2.867   5.896
10491SOL    HW232373   1.958   3.024   5.911
10492SOL     OW32374   3.031   6.057   0.756
10492SOL    HW132375   3.004   6.053   0.660
10492SOL    HW232376   3.018   6.150   0.791
10493SOL     OW32377   4.178   5.510   1.575
10493SOL    HW132378   4.087   5.545   1.597
10493SOL    HW232379   4.191   5.510   1.476
10494SOL     OW32380   0.508   4.695   4.297
10494SOL    HW132381   0.431   4.639   4.264
10494SOL    HW232382   0.580   4.696   4.228
10495SOL     OW32383   0.173   6.880   0.371
10495SOL    HW132384   0.194   6.822   0.451
10495SOL    HW232385   0.101   6.944   0.396
10496SOL     OW32386   0.244   4.742   6.237
10496SOL    HW132387   0.229   4.734   6.138
10496SOL    HW232388   0.196   4.822   6.271
10497SOL     OW32389   3.194   6.937   1.548
10497SOL    HW132390   3.161   7.001   1.617
10497SOL    HW232391   3.267   6.980   1.494
10498SOL     OW32392   3.884   3.432   6.692
10498SOL    HW132393   3.917   3.508   6.748
10498SOL    HW232394   3.889   3.458   6.595
10499SOL     OW32395   5.013   3.785   2.868
10499SOL    HW132396   4.947   3.759   2.798
10499SOL    HW232397   4.969   3.843   2.936
10500SOL     OW32398   1.139   3.200   5.257
10500SOL    HW132399   1.229   3.244   5.256
10500SOL    HW232400   1.128   3.145   5.175
10501SOL     OW32401   4.034   4.812   3.055
10501SOL    HW132402   3.980   4.824   2.972
10501SOL    HW232403   4.124   4.777   3.032
10502SOL     OW32404   2.952   3.637   2.424
10502SOL    HW132405   2.931   3.560   2.364
10502SOL    HW232406   2.925   3.616   2.518
10503SOL     OW32407   6.819   1.308   6.422
10503SOL    HW132408   6.911   1.347   6.413
10503SOL    HW232409   6.784   1.325   6.514
10504SOL     OW32410   1.319   4.038   6.040
10504SOL    HW132411   1.368   4.097   5.976
10504SOL    HW232412   1.292   3.954   5.993
10505SOL     OW32413   6.497   6.680   0.689
10505SOL    HW132414   6.452   6.756   0.643
10505SOL    HW232415   6.574   6.648   0.634
10506SOL     OW32416   1.499   4.567   5.801
10506SOL    HW132417   1.547   4.533   5.720
10506SOL    HW232418   1.402   4.545   5.795
10507SOL     OW32419   0.806   6.468   6.255
10507SOL    HW132420   0.899   6.439   6.234
10507SOL    HW232421   0.796   6.566   6.237
10508SOL     OW32422   1.424   6.163   6.967
10508SOL    HW132423   1.473   6.183   6.883
10508SOL    HW232424   1.436   6.067   6.992
10509SOL     OW32425   4.664   2.698   3.111
10509SOL    HW132426   4.686   2.768   3.180
10509SOL    HW232427   4.616   2.622   3.155
10510SOL     OW32428   5.572   5.804   3.220
10510SOL    HW132429   5.559   5.770   3.127
10510SOL    HW232430   5.498   5.770   3.278
10511SOL     OW32431   4.509   1.786   1.164
10511SOL    HW132432   4.501   1.742   1.074
10511SOL    HW232433   4.495   1.719   1.236
10512SOL     OW32434   4.143   1.414   6.029
10512SOL    HW132435   4.164   1.434   5.933
10512SOL    HW232436   4.226   1.420   6.084
10513SOL     OW32437   3.461   3.467   0.873
10513SOL    HW132438   3.373   3.448   0.829
10513SOL    HW232439   3.511   3.536   0.820
10514SOL     OW32440   1.150   5.052   1.476
10514SOL    HW132441   1.125   5.147   1.497
10514SOL    HW232442   1.206   5.050   1.393
10515SOL     OW32443   2.046   3.345   4.503
10515SOL    HW132444   2.060   3.378   4.596
10515SOL    HW232445   2.024   3.247   4.505
10516SOL     OW32446   5.588   1.939   2.198
10516SOL    HW132447   5.555   1.862   2.253
10516SOL    HW232448   5.537   1.943   2.112
10517SOL     OW32449   0.539   2.727   1.985
10517SOL    HW132450   0.469   2.705   2.053
10517SOL    HW232451   0.499   2.730   1.894
10518SOL     OW32452   0.595   5.806   2.003
10518SOL    HW132453   0.692   5.786   1.988
10518SOL    HW232454   0.572   5.895   1.963
10519SOL     OW32455   3.151   6.909   1.261
10519SOL    HW132456   3.128   6.812   1.267
10519SOL    HW232457   3.169   6.945   1.353
10520SOL     OW32458   1.865   2.321   6.352
10520SOL    HW132459   1.892   2.363   6.265
10520SOL    HW232460   1.770   2.343   6.371
10521SOL     OW32461   6.581   2.658   2.961
10521SOL    HW132462   6.516   2.729   2.986
10521SOL    HW232463   6.571   2.635   2.864
10522SOL     OW32464   5.263   1.390   3.727
10522SOL    HW132465   5.317   1.443   3.662
10522SOL    HW232466   5.166   1.411   3.714
10523SOL     OW32467   0.843   4.234   1.809
10523SOL    HW132468   0.943   4.239   1.813
10523SOL    HW232469   0.815   4.141   1.786
10524SOL     OW32470   6.584   5.801   4.686
10524SOL    HW132471   6.677   5.764   4.687
10524SOL    HW232472   6.520   5.730   4.657
10525SOL     OW32473   4.885   1.108   4.055
10525SOL    HW132474   4.873   1.181   4.122
10525SOL    HW232475   4.864   1.144   3.963
10526SOL     OW32476   1.635   5.654   6.078
10526SOL    HW132477   1.689   5.587   6.027
10526SOL    HW232478   1.583   5.607   6.149
10527SOL     OW32479   0.055   6.268   5.397
10527SOL    HW132480   0.019   6.176   5.412
10527SOL    HW232481   0.032   6.326   5.475
10528SOL     OW32482   2.028   5.162   4.915
10528SOL    HW132483   2.000   5.067   4.903
10528SOL    HW232484   2.035   5.183   5.013
10529SOL     OW32485   0.293   4.922   1.101
10529SOL    HW132486   0.207   4.972   1.092
10529SOL    HW232487   0.364   4.969   1.048
10530SOL     OW32488   0.174   0.047   0.820
10530SOL    HW132489   0.162   0.110   0.897
10530SOL    HW232490   0.222   0.093   0.746
10531SOL     OW32491   3.748   2.282   5.785
10531SOL    HW132492   3.666   2.297   5.731
10531SOL    HW232493   3.793   2.198   5.755
10532SOL     OW32494   4.666   5.943   5.783
10532SOL    HW132495   4.749   5.959   5.729
10532SOL    HW232496   4.604   6.021   5.772
10533SOL     OW32497   3.933   6.724   3.250
10533SOL    HW132498   4.021   6.702   3.291
10533SOL    HW232499   3.938   6.713   3.151
10534SOL     OW32500   1.555   5.960   3.973
10534SOL    HW132501   1.592   5.881   4.022
10534SOL    HW232502   1.611   5.980   3.893
10535SOL     OW32503   3.852   2.172   2.448
10535SOL    HW132504   3.814   2.262   2.472
10535SOL    HW232505   3.797   2.131   2.376
10536SOL     OW32506   5.862   3.986   5.123
10536SOL    HW132507   5.900   4.041   5.197
10536SOL    HW232508   5.869   4.036   5.037
10537SOL     OW32509   3.995   1.555   3.526
10537SOL    HW132510   3.928   1.518   3.590
10537SOL    HW232511   4.072   1.492   3.518
10538SOL     OW32512   6.849   2.639   3.201
10538SOL    HW132513   6.788   2.605   3.273
10538SOL    HW232514   6.933   2.585   3.199
10539SOL     OW32515   6.926   6.611   3.039
10539SOL    HW132516   6.987   6.682   3.004
10539SOL    HW232517   6.840   6.651   3.069
10540SOL     OW32518   1.325   3.992   6.853
10540SOL    HW132519   1.409   3.940   6.834
10540SOL    HW232520   1.319   4.010   6.951
10541SOL     OW32521   3.285   2.935   5.470
10541SOL    HW132522   3.349   2.918   5.545
10541SOL    HW232523   3.278   2.853   5.413
10542SOL     OW32524   4.676   6.559   2.966
10542SOL    HW132525   4.685   6.657   2.949
10542SOL    HW232526   4.596   6.524   2.916
10543SOL     OW32527   2.327   2.748   3.865
10543SOL    HW132528   2.232   2.737   3.894
10543SOL    HW232529   2.336   2.830   3.809
10544SOL     OW32530   2.809   1.525   2.802
10544SOL    HW132531   2.823   1.574   2.715
10544SOL    HW232532   2.767   1.587   2.868
10545SOL     OW32533   2.151   3.085   2.063
10545SOL    HW132534   2.171   3.130   2.150
10545SOL    HW232535   2.052   3.085   2.048
10546SOL     OW32536   2.624   6.930   6.236
10546SOL    HW132537   2.703   6.990   6.240
10546SOL    HW232538   2.644   6.844   6.284
10547SOL     OW32539   3.510   6.407   5.896
10547SOL    HW132540   3.537   6.358   5.979
10547SOL    HW232541   3.460   6.490   5.921
10548SOL     OW32542   1.127   6.210   3.281
10548SOL    HW132543   1.154   6.215   3.377
10548SOL    HW232544   1.181   6.276   3.228
10549SOL     OW32545   6.979   0.961   2.702
10549SOL    HW132546   0.025   1.021   2.734
10549SOL    HW232547   6.975   0.964   2.602
10550SOL     OW32548   5.214   5.732   3.158
10550SOL    HW132549   5.223   5.722   3.257
10550SOL    HW232550   5.173   5.649   3.120
10551SOL     OW32551   4.128   0.779   4.901
10551SOL    HW132552   4.089   0.863   4.939
10551SOL    HW232553   4.152   0.717   4.976
10552SOL     OW32554   3.018   0.412   3.327
10552SOL    HW132555   2.989   0.459   3.243
10552SOL    HW232556   3.006   0.313   3.316
10553SOL     OW32557   5.885   5.828   1.330
10553SOL    HW132558   5.942   5.746   1.328
10553SOL    HW232559   5.790   5.803   1.315
10554SOL     OW32560   6.058   6.427   2.254
10554SOL    HW132561   6.061   6.485   2.173
10554SOL    HW232562   6.082   6.481   2.335
10555SOL     OW32563   3.363   3.108   1.644
10555SOL    HW132564   3.384   3.133   1.550
10555SOL    HW232565   3.266   3.123   1.662
10556SOL     OW32566   2.596   1.741   1.892
10556SOL    HW132567   2.613   1.669   1.959
10556SOL    HW232568   2.590   1.701   1.801
10557SOL     OW32569   1.673   4.195   2.830
10557SOL    HW132570   1.607   4.242   2.888
10557SOL    HW232571   1.739   4.147   2.888
10558SOL     OW32572   4.041   4.887   4.570
10558SOL    HW132573   3.975   4.859   4.500
10558SOL    HW232574   4.133   4.890   4.531
10559SOL     OW32575   3.572   6.261   1.870
10559SOL    HW132576   3.584   6.166   1.896
10559SOL    HW232577   3.604   6.274   1.776
10560SOL     OW32578   5.821   0.030   3.623
10560SOL    HW132579   5.853   0.004   3.714
10560SOL    HW232580   5.725   0.004   3.612
10561SOL     OW32581   0.665   5.178   6.341
10561SOL    HW132582   0.578   5.210   6.379
10561SOL    HW232583   0.693   5.238   6.266
10562SOL     OW32584   4.088   5.853   2.514
10562SOL    HW132585   4.116   5.911   2.438
10562SOL    HW232586   4.016   5.790   2.484
10563SOL     OW32587   1.351   6.381   2.502
10563SOL    HW132588   1.296   6.431   2.568
10563SOL    HW232589   1.301   6.301   2.470
10564SOL     OW32590   5.585   4.271   2.978
10564SOL    HW132591   5.539   4.349   2.936
10564SOL    HW232592   5.571   4.189   2.921
10565SOL     OW32593   0.168   1.449   5.143
10565SOL    HW132594   0.182   1.430   5.240
10565SOL    HW232595   0.077   1.420   5.115
10566SOL     OW32596   3.243   1.737   1.159
10566SOL    HW132597   3.203   1.650   1.133
10566SOL    HW232598   3.202   1.811   1.105
10567SOL     OW32599   2.482   2.119   6.274
10567SOL    HW132600   2.501   2.195   6.336
10567SOL    HW232601   2.513   2.144   6.182
10568SOL     OW32602   4.940   2.269   6.124
10568SOL    HW132603   4.943   2.195   6.191
10568SOL    HW232604   4.936   2.230   6.032
10569SOL     OW32605   5.539   0.535   0.626
10569SOL    HW132606   5.512   0.531   0.530
10569SOL    HW232607   5.638   0.550   0.632
10570SOL     OW32608   1.728   3.729   3.361
10570SOL    HW132609   1.667   3.701   3.286
10570SOL    HW232610   1.819   3.690   3.346
10571SOL     OW32611   6.928   4.578   5.563
10571SOL    HW132612   6.968   4.589   5.472
10571SOL    HW232613   6.990   4.524   5.620
10572SOL     OW32614   6.566   4.396   0.672
10572SOL    HW132615   6.487   4.340   0.694
10572SOL    HW232616   6.601   4.370   0.581
10573SOL     OW32617   6.973   1.958   3.616
10573SOL    HW132618   6.885   1.987   3.577
10573SOL    HW232619   0.021   1.997   3.563
10574SOL     OW32620   6.180   2.271   2.859
10574SOL    HW132621   6.179   2.305   2.765
10574SOL    HW232622   6.274   2.267   2.892
10575SOL     OW32623   5.683   6.850   2.572
10575SOL    HW132624   5.702   6.948   2.577
10575SOL    HW232625   5.769   6.800   2.566
10576SOL     OW32626   1.122   3.525   4.575
10576SOL    HW132627   1.182   3.551   4.650
10576SOL    HW232628   1.174   3.523   4.489
10577SOL     OW32629   4.061   4.467   0.495
10577SOL    HW132630   3.968   4.444   0.524
10577SOL    HW232631   4.081   4.562   0.519
10578SOL     OW32632   0.852   3.413   2.445
10578SOL    HW132633   0.775   3.439   2.388
10578SOL    HW232634   0.906   3.343   2.398
10579SOL     OW32635   0.401   3.220   0.028
10579SOL    HW132636   0.380   3.314   0.002
10579SOL    HW232637   0.485   3.191   7.010
10580SOL     OW32638   5.719   6.722   6.654
10580SOL    HW132639   5.805   6.764   6.682
10580SOL    HW232640   5.686   6.662   6.727
10581SOL     OW32641   4.406   0.578   3.569
10581SOL    HW132642   4.412   0.670   3.530
10581SOL    HW232643   4.420   0.583   3.668
10582SOL     OW32644   6.435   3.392   6.548
10582SOL    HW132645   6.484   3.389   6.635
10582SOL    HW232646   6.342   3.428   6.563
10583SOL     OW32647   3.762   1.978   5.682
10583SOL    HW132648   3.843   1.923   5.661
10583SOL    HW232649   3.739   2.035   5.602
10584SOL     OW32650   0.591   0.067   3.234
10584SOL    HW132651   0.534   0.142   3.269
10584SOL    HW232652   0.680   0.069   3.280
10585SOL     OW32653   1.445   1.145   5.348
10585SOL    HW132654   1.483   1.100   5.429
10585SOL    HW232655   1.466   1.091   5.266
10586SOL     OW32656   4.594   4.062   5.663
10586SOL    HW132657   4.537   3.991   5.704
10586SOL    HW232658   4.614   4.132   5.730
10587SOL     OW32659   2.096   5.019   5.266
10587SOL    HW132660   2.184   5.058   5.291
10587SOL    HW232661   2.030   5.093   5.249
10588SOL     OW32662   1.802   4.039   3.731
10588SOL    HW132663   1.756   3.950   3.727
10588SOL    HW232664   1.756   4.103   3.670
10589SOL     OW32665   6.375   0.084   3.898
10589SOL    HW132666   6.452   0.076   3.962
10589SOL    HW232667   6.307   0.146   3.936
10590SOL     OW32668   0.845   5.105   2.640
10590SOL    HW132669   0.819   5.036   2.708
10590SOL    HW232670   0.795   5.090   2.555
10591SOL     OW32671   0.064   3.680   2.307
10591SOL    HW132672   0.028   3.688   2.401
10591SOL    HW232673   0.156   3.717   2.304
10592SOL     OW32674   0.565   2.724   4.291
10592SOL    HW132675   0.491   2.661   4.265
10592SOL    HW232676   0.577   2.722   4.390
10593SOL     OW32677   2.861   6.024   3.579
10593SOL    HW132678   2.952   5.981   3.575
10593SOL    HW232679   2.872   6.123   3.577
10594SOL     OW32680   3.716   5.840   3.759
10594SOL    HW132681   3.667   5.753   3.758
10594SOL    HW232682   3.658   5.912   3.720
10595SOL     OW32683   4.791   6.664   0.928
10595SOL    HW132684   4.804   6.656   0.829
10595SOL    HW232685   4.709   6.614   0.954
10596SOL     OW32686   5.107   3.920   0.537
10596SOL    HW132687   5.158   3.964   0.611
10596SOL    HW232688   5.044   3.853   0.576
10597SOL     OW32689   2.118   6.916   4.991
10597SOL    HW132690   2.143   7.007   5.023
10597SOL    HW232691   2.144   6.848   5.059
10598SOL     OW32692   3.140   0.747   0.358
10598SOL    HW132693   3.047   0.758   0.392
10598SOL    HW232694   3.178   0.838   0.338
10599SOL     OW32695   0.870   2.658   0.749
10599SOL    HW132696   0.965   2.631   0.733
10599SOL    HW232697   0.822   2.584   0.797
10600SOL     OW32698   4.110   1.059   1.712
10600SOL    HW132699   4.070   0.995   1.647
10600SOL    HW232700   4.209   1.048   1.713
10601SOL     OW32701   1.961   1.365   4.713
10601SOL    HW132702   1.888   1.393   4.650
10601SOL    HW232703   1.932   1.283   4.762
10602SOL     OW32704   6.340   6.779   1.446
10602SOL    HW132705   6.432   6.816   1.441
10602SOL    HW232706   6.307   6.759   1.353
10603SOL     OW32707   6.110   0.580   2.924
10603SOL    HW132708   6.106   0.503   2.861
10603SOL    HW232709   6.107   0.547   3.018
10604SOL     OW32710   4.639   1.793   4.988
10604SOL    HW132711   4.620   1.796   5.086
10604SOL    HW232712   4.573   1.850   4.939
10605SOL     OW32713   3.522   1.765   1.219
10605SOL    HW132714   3.528   1.817   1.305
10605SOL    HW232715   3.430   1.725   1.211
10606SOL     OW32716   6.511   1.459   0.459
10606SOL    HW132717   6.495   1.401   0.379
10606SOL    HW232718   6.602   1.440   0.496
10607SOL     OW32719   3.263   4.245   0.914
10607SOL    HW132720   3.290   4.339   0.934
10607SOL    HW232721   3.181   4.222   0.967
10608SOL     OW32722   5.528   3.871   3.717
10608SOL    HW132723   5.525   3.955   3.663
10608SOL    HW232724   5.619   3.831   3.712
10609SOL     OW32725   5.708   0.133   6.544
10609SOL    HW132726   5.785   0.125   6.480
10609SOL    HW232727   5.655   0.048   6.542
10610SOL     OW32728   0.563   1.391   3.260
10610SOL    HW132729   0.518   1.303   3.273
10610SOL    HW232730   0.539   1.429   3.171
10611SOL     OW32731   4.196   5.035   5.098
10611SOL    HW132732   4.256   5.074   5.029
10611SOL    HW232733   4.175   4.940   5.075
10612SOL     OW32734   6.465   2.456   3.456
10612SOL    HW132735   6.411   2.505   3.524
10612SOL    HW232736   6.481   2.362   3.487
10613SOL     OW32737   4.823   5.715   4.467
10613SOL    HW132738   4.849   5.646   4.400
10613SOL    HW232739   4.803   5.671   4.555
10614SOL     OW32740   3.814   2.219   6.416
10614SOL    HW132741   3.867   2.236   6.333
10614SOL    HW232742   3.801   2.120   6.427
10615SOL     OW32743   2.570   2.555   5.291
10615SOL    HW132744   2.638   2.614   5.335
10615SOL    HW232745   2.519   2.607   5.222
10616SOL     OW32746   1.637   6.089   0.323
10616SOL    HW132747   1.585   6.016   0.279
10616SOL    HW232748   1.720   6.050   0.364
10617SOL     OW32749   1.536   2.956   1.014
10617SOL    HW132750   1.500   3.049   1.019
10617SOL    HW232751   1.500   2.910   0.932
10618SOL     OW32752   1.181   5.107   4.318
10618SOL    HW132753   1.255   5.157   4.364
10618SOL    HW232754   1.162   5.022   4.369
10619SOL     OW32755   0.699   3.001   1.676
10619SOL    HW132756   0.673   2.906   1.661
10619SOL    HW232757   0.701   3.049   1.588
10620SOL     OW32758   3.454   1.210   5.851
10620SOL    HW132759   3.470   1.113   5.869
10620SOL    HW232760   3.492   1.264   5.926
10621SOL     OW32761   0.984   4.077   3.082
10621SOL    HW132762   1.038   4.150   3.126
10621SOL    HW232763   1.040   3.994   3.075
10622SOL     OW32764   4.444   2.195   6.857
10622SOL    HW132765   4.357   2.209   6.904
10622SOL    HW232766   4.518   2.186   6.923
10623SOL     OW32767   5.316   5.569   5.549
10623SOL    HW132768   5.237   5.611   5.593
10623SOL    HW232769   5.285   5.498   5.486
10624SOL     OW32770   0.479   1.878   6.570
10624SOL    HW132771   0.576   1.894   6.584
10624SOL    HW232772   0.453   1.905   6.477
10625SOL     OW32773   6.836   5.613   0.794
10625SOL    HW132774   6.849   5.517   0.768
10625SOL    HW232775   6.915   5.643   0.848
10626SOL     OW32776   5.947   2.775   2.002
10626SOL    HW132777   6.035   2.730   1.987
10626SOL    HW232778   5.890   2.765   1.920
10627SOL     OW32779   5.845   4.438   5.136
10627SOL    HW132780   5.751   4.433   5.169
10627SOL    HW232781   5.845   4.443   5.036
10628SOL     OW32782   3.056   6.355   0.503
10628SOL    HW132783   3.049   6.355   0.602
10628SOL    HW232784   3.034   6.446   0.468
10629SOL     OW32785   4.588   4.927   4.045
10629SOL    HW132786   4.570   4.926   4.143
10629SOL    HW232787   4.548   4.846   4.002
10630SOL     OW32788   4.170   1.086   1.293
10630SOL    HW132789   4.083   1.097   1.339
10630SOL    HW232790   4.229   1.164   1.315
10631SOL     OW32791   3.243   5.610   2.032
10631SOL    HW132792   3.330   5.656   2.011
10631SOL    HW232793   3.167   5.667   2.001
10632SOL     OW32794   5.545   6.679   4.499
10632SOL    HW132795   5.642   6.705   4.496
10632SOL    HW232796   5.538   6.579   4.503
10633SOL     OW32797   2.513   3.285   0.200
10633SOL    HW132798   2.567   3.313   0.280
10633SOL    HW232799   2.572   3.237   0.135
10634SOL     OW32800   0.257   4.425   6.869
10634SOL    HW132801   0.225   4.332   6.883
10634SOL    HW232802   0.327   4.448   6.937
10635SOL     OW32803   3.137   5.636   6.589
10635SOL    HW132804   3.061   5.690   6.627
10635SOL    HW232805   3.111   5.540   6.586
10636SOL     OW32806   6.348   3.014   0.478
10636SOL    HW132807   6.289   3.091   0.502
10636SOL    HW232808   6.436   3.023   0.525
10637SOL     OW32809   2.519   0.591   6.346
10637SOL    HW132810   2.596   0.532   6.319
10637SOL    HW232811   2.555   0.675   6.387
10638SOL     OW32812   4.687   5.367   0.810
10638SOL    HW132813   4.729   5.348   0.899
10638SOL    HW232814   4.626   5.446   0.819
10639SOL     OW32815   6.637   5.097   1.150
10639SOL    HW132816   6.718   5.154   1.163
10639SOL    HW232817   6.663   5.001   1.156
10640SOL     OW32818   4.025   6.457   4.228
10640SOL    HW132819   4.066   6.519   4.161
10640SOL    HW232820   4.047   6.487   4.320
10641SOL     OW32821   1.205   1.379   3.066
10641SOL    HW132822   1.189   1.405   3.161
10641SOL    HW232823   1.225   1.460   3.011
10642SOL     OW32824   6.860   2.389   6.453
10642SOL    HW132825   6.857   2.424   6.546
10642SOL    HW232826   6.769   2.395   6.412
10643SOL     OW32827   2.271   5.038   5.800
10643SOL    HW132828   2.191   5.022   5.742
10643SOL    HW232829   2.354   5.032   5.744
10644SOL     OW32830   0.289   3.152   3.158
10644SOL    HW132831   0.219   3.224   3.159
10644SOL    HW232832   0.333   3.150   3.069
10645SOL     OW32833   2.457   2.635   2.877
10645SOL    HW132834   2.415   2.649   2.966
10645SOL    HW232835   2.535   2.573   2.887
10646SOL     OW32836   5.216   0.595   3.895
10646SOL    HW132837   5.207   0.516   3.835
10646SOL    HW232838   5.307   0.636   3.883
10647SOL     OW32839   3.947   5.172   5.167
10647SOL    HW132840   4.042   5.159   5.196
10647SOL    HW232841   3.932   5.268   5.143
10648SOL     OW32842   4.836   4.305   5.357
10648SOL    HW132843   4.927   4.338   5.333
10648SOL    HW232844   4.772   4.382   5.359
10649SOL     OW32845   6.200   3.137   2.861
10649SOL    HW132846   6.235   3.214   2.913
10649SOL    HW232847   6.138   3.170   2.790
10650SOL     OW32848   0.433   0.033   2.360
10650SOL    HW132849   0.421   6.962   2.343
10650SOL    HW232850   0.380   0.059   2.441
10651SOL     OW32851   2.824   5.363   5.849
10651SOL    HW132852   2.812   5.423   5.928
10651SOL    HW232853   2.851   5.417   5.769
10652SOL     OW32854   1.946   0.355   6.878
10652SOL    HW132855   1.853   0.366   6.843
10652SOL    HW232856   2.008   0.416   6.830
10653SOL     OW32857   5.363   5.689   4.283
10653SOL    HW132858   5.387   5.619   4.350
10653SOL    HW232859   5.414   5.773   4.302
10654SOL     OW32860   6.453   2.020   3.876
10654SOL    HW132861   6.459   2.095   3.809
10654SOL    HW232862   6.516   1.947   3.850
10655SOL     OW32863   0.014   5.018   0.821
10655SOL    HW132864   0.111   5.005   0.798
10655SOL    HW232865   7.027   4.989   0.916
10656SOL     OW32866   5.399   1.794   5.189
10656SOL    HW132867   5.420   1.796   5.092
10656SOL    HW232868   5.483   1.810   5.242
10657SOL     OW32869   5.101   0.512   5.242
10657SOL    HW132870   5.188   0.468   5.261
10657SOL    HW232871   5.030   0.442   5.231
10658SOL     OW32872   0.893   2.237   5.228
10658SOL    HW132873   0.978   2.191   5.256
10658SOL    HW232874   0.858   2.293   5.303
10659SOL     OW32875   0.217   5.604   0.847
10659SOL    HW132876   0.243   5.647   0.760
10659SOL    HW232877   0.275   5.524   0.863
10660SOL     OW32878   5.912   3.226   6.444
10660SOL    HW132879   5.830   3.173   6.465
10660SOL    HW232880   5.919   3.239   6.345
10661SOL     OW32881   3.313   4.888   5.160
10661SOL    HW132882   3.228   4.871   5.111
10661SOL    HW232883   3.300   4.962   5.226
10662SOL     OW32884   3.012   1.311   0.723
10662SOL    HW132885   2.925   1.295   0.676
10662SOL    HW232886   2.999   1.305   0.822
10663SOL     OW32887   0.613   2.344   3.475
10663SOL    HW132888   0.692   2.285   3.494
10663SOL    HW232889   0.535   2.288   3.447
10664SOL     OW32890   1.448   5.948   4.506
10664SOL    HW132891   1.540   5.958   4.543
10664SOL    HW232892   1.434   6.012   4.431
10665SOL     OW32893   3.197   3.305   0.582
10665SOL    HW132894   3.290   3.291   0.550
10665SOL    HW232895   3.173   3.402   0.578
10666SOL     OW32896   4.105   3.656   1.230
10666SOL    HW132897   4.053   3.603   1.296
10666SOL    HW232898   4.156   3.594   1.169
10667SOL     OW32899   5.553   2.939   4.602
10667SOL    HW132900   5.510   2.866   4.548
10667SOL    HW232901   5.520   2.935   4.696
10668SOL     OW32902   3.581   2.750   6.133
10668SOL    HW132903   3.536   2.744   6.222
10668SOL    HW232904   3.650   2.678   6.126
10669SOL     OW32905   6.353   1.941   1.262
10669SOL    HW132906   6.362   1.995   1.178
10669SOL    HW232907   6.435   1.886   1.275
10670SOL     OW32908   4.877   3.968   4.116
10670SOL    HW132909   4.802   4.030   4.098
10670SOL    HW232910   4.883   3.950   4.215
10671SOL     OW32911   1.570   3.275   4.951
10671SOL    HW132912   1.544   3.181   4.928
10671SOL    HW232913   1.608   3.277   5.044
10672SOL     OW32914   6.130   3.984   1.948
10672SOL    HW132915   6.087   3.911   1.895
10672SOL    HW232916   6.150   3.951   2.040
10673SOL     OW32917   2.567   1.368   0.949
10673SOL    HW132918   2.487   1.311   0.966
10673SOL    HW232919   2.646   1.332   0.999
10674SOL     OW32920   3.791   3.539   4.269
10674SOL    HW132921   3.706   3.559   4.317
10674SOL    HW232922   3.771   3.486   4.186
10675SOL     OW32923   3.505   6.910   5.375
10675SOL    HW132924   3.441   6.948   5.442
10675SOL    HW232925   3.581   6.868   5.423
10676SOL     OW32926   1.250   0.234   5.802
10676SOL    HW132927   1.224   0.303   5.870
10676SOL    HW232928   1.275   0.279   5.717
10677SOL     OW32929   0.578   2.156   6.809
10677SOL    HW132930   0.571   2.078   6.747
10677SOL    HW232931   0.668   2.155   6.853
10678SOL     OW32932   4.060   5.306   2.558
10678SOL    HW132933   4.118   5.248   2.614
10678SOL    HW232934   3.966   5.271   2.559
10679SOL     OW32935   4.856   4.119   0.396
10679SOL    HW132936   4.906   4.055   0.338
10679SOL    HW232937   4.763   4.084   0.412
10680SOL     OW32938   4.206   1.541   5.783
10680SOL    HW132939   4.305   1.530   5.771
10680SOL    HW232940   4.159   1.517   5.698
10681SOL     OW32941   2.371   3.244   5.385
10681SOL    HW132942   2.284   3.196   5.382
10681SOL    HW232943   2.439   3.193   5.332
10682SOL     OW32944   5.137   4.160   6.705
10682SOL    HW132945   5.208   4.111   6.754
10682SOL    HW232946   5.049   4.113   6.718
10683SOL     OW32947   2.731   0.570   3.681
10683SOL    HW132948   2.678   0.581   3.597
10683SOL    HW232949   2.786   0.486   3.674
10684SOL     OW32950   4.644   4.787   1.926
10684SOL    HW132951   4.656   4.851   1.850
10684SOL    HW232952   4.555   4.742   1.918
10685SOL     OW32953   0.990   6.635   2.504
10685SOL    HW132954   0.974   6.717   2.559
10685SOL    HW232955   1.087   6.630   2.480
10686SOL     OW32956   2.594   0.754   6.859
10686SOL    HW132957   2.554   0.808   6.933
10686SOL    HW232958   2.684   0.791   6.836
10687SOL     OW32959   0.905   3.224   3.679
10687SOL    HW132960   0.962   3.188   3.753
10687SOL    HW232961   0.964   3.254   3.603
10688SOL     OW32962   4.970   1.010   3.077
10688SOL    HW132963   4.890   0.973   3.125
10688SOL    HW232964   4.973   1.109   3.089
10689SOL     OW32965   0.856   6.964   2.175
10689SOL    HW132966   0.896   6.873   2.165
10689SOL    HW232967   0.868   6.995   2.269
10690SOL     OW32968   0.883   6.392   4.036
10690SOL    HW132969   0.887   6.292   4.041
10690SOL    HW232970   0.868   6.419   3.941
10691SOL     OW32971   3.694   6.853   2.379
10691SOL    HW132972   3.729   6.945   2.396
10691SOL    HW232973   3.595   6.858   2.361
10692SOL     OW32974   2.574   1.541   4.712
10692SOL    HW132975   2.568   1.613   4.644
10692SOL    HW232976   2.502   1.552   4.780
10693SOL     OW32977   1.441   5.900   0.042
10693SOL    HW132978   1.476   5.872   0.131
10693SOL    HW232979   1.432   5.820   7.009
10694SOL     OW32980   5.052   0.765   5.334
10694SOL    HW132981   5.086   0.676   5.304
10694SOL    HW232982   4.998   0.754   5.418
10695SOL     OW32983   5.568   4.517   1.956
10695SOL    HW132984   5.653   4.559   1.926
10695SOL    HW232985   5.579   4.418   1.962
10696SOL     OW32986   6.215   4.767   3.914
10696SOL    HW132987   6.118   4.771   3.938
10696SOL    HW232988   6.253   4.859   3.916
10697SOL     OW32989   2.351   5.077   5.236
10697SOL    HW132990   2.318   5.099   5.144
10697SOL    HW232991   2.443   5.038   5.231
10698SOL     OW32992   3.305   3.496   0.191
10698SOL    HW132993   3.312   3.503   0.092
10698SOL    HW232994   3.396   3.480   0.230
10699SOL     OW32995   3.884   2.860   0.744
10699SOL    HW132996   3.969   2.829   0.786
10699SOL    HW232997   3.807   2.837   0.803
10700SOL     OW32998   4.538   0.649   1.648
10700SOL    HW132999   4.478   0.645   1.728
10700SOL    HW233000   4.585   0.737   1.646
10701SOL     OW33001   3.222   6.864   6.344
10701SOL    HW133002   3.260   6.810   6.419
10701SOL    HW233003   3.296   6.904   6.291
10702SOL     OW33004   5.872   2.281   1.625
10702SOL    HW133005   5.965   2.247   1.633
10702SOL    HW233006   5.861   2.364   1.679
10703SOL     OW33007   0.459   2.516   5.634
10703SOL    HW133008   0.380   2.573   5.610
10703SOL    HW233009   0.470   2.444   5.566
10704SOL     OW33010   4.682   6.665   2.252
10704SOL    HW133011   4.634   6.694   2.335
10704SOL    HW233012   4.776   6.698   2.255
10705SOL     OW33013   5.437   3.592   0.925
10705SOL    HW133014   5.410   3.500   0.953
10705SOL    HW233015   5.502   3.630   0.991
10706SOL     OW33016   3.611   0.557   1.343
10706SOL    HW133017   3.530   0.503   1.322
10706SOL    HW233018   3.585   0.653   1.353
10707SOL     OW33019   5.236   7.006   3.800
10707SOL    HW133020   5.159   0.042   3.805
10707SOL    HW233021   5.252   6.980   3.704
10708SOL     OW33022   4.084   1.419   1.855
10708SOL    HW133023   4.098   1.491   1.923
10708SOL    HW233024   4.035   1.343   1.896
10709SOL     OW33025   5.750   4.750   3.195
10709SOL    HW133026   5.809   4.822   3.160
10709SOL    HW233027   5.655   4.770   3.171
10710SOL     OW33028   4.575   1.956   3.896
10710SOL    HW133029   4.667   1.948   3.858
10710SOL    HW233030   4.578   1.940   3.995
10711SOL     OW33031   3.214   6.994   2.403
10711SOL    HW133032   3.170   7.024   2.488
10711SOL    HW233033   3.179   0.022   2.327
10712SOL     OW33034   5.765   0.155   3.075
10712SOL    HW133035   5.719   0.208   3.146
10712SOL    HW233036   5.741   0.058   3.085
10713SOL     OW33037   1.909   4.085   1.822
10713SOL    HW133038   1.852   4.165   1.804
10713SOL    HW233039   1.899   4.020   1.747
10714SOL     OW33040   2.957   3.958   5.038
10714SOL    HW133041   2.944   4.009   5.123
10714SOL    HW233042   2.870   3.953   4.989
10715SOL     OW33043   5.854   0.713   2.098
10715SOL    HW133044   5.833   0.746   2.006
10715SOL    HW233045   5.856   0.613   2.098
10716SOL     OW33046   4.973   1.269   3.317
10716SOL    HW133047   5.066   1.275   3.352
10716SOL    HW233048   4.948   1.354   3.272
10717SOL     OW33049   2.241   2.409   6.238
10717SOL    HW133050   2.243   2.464   6.322
10717SOL    HW233051   2.298   2.451   6.169
10718SOL     OW33052   1.928   5.531   5.308
10718SOL    HW133053   1.830   5.549   5.311
10718SOL    HW233054   1.971   5.588   5.238
10719SOL     OW33055   6.648   5.670   4.194
10719SOL    HW133056   6.665   5.608   4.271
10719SOL    HW233057   6.702   5.753   4.206
10720SOL     OW33058   7.014   4.970   3.566
10720SOL    HW133059   7.007   4.914   3.483
10720SOL    HW233060   6.964   5.055   3.552
10721SOL     OW33061   5.380   3.230   5.636
10721SOL    HW133062   5.313   3.301   5.659
10721SOL    HW233063   5.458   3.237   5.698
10722SOL     OW33064   6.939   4.022   5.770
10722SOL    HW133065   6.991   4.089   5.717
10722SOL    HW233066   6.857   3.995   5.719
10723SOL     OW33067   5.915   6.837   0.833
10723SOL    HW133068   5.898   6.899   0.910
10723SOL    HW233069   5.970   6.759   0.864
10724SOL     OW33070   6.716   6.394   0.221
10724SOL    HW133071   6.642   6.451   0.255
10724SOL    HW233072   6.803   6.442   0.234
10725SOL     OW33073   2.245   5.921   5.453
10725SOL    HW133074   2.293   5.994   5.403
10725SOL    HW233075   2.165   5.960   5.499
10726SOL     OW33076   4.880   1.564   4.311
10726SOL    HW133077   4.845   1.593   4.222
10726SOL    HW233078   4.812   1.507   4.357
10727SOL     OW33079   1.924   6.548   5.518
10727SOL    HW133080   1.923   6.488   5.598
10727SOL    HW233081   2.013   6.539   5.472
10728SOL     OW33082   5.201   6.452   0.446
10728SOL    HW133083   5.158   6.539   0.470
10728SOL    HW233084   5.172   6.381   0.511
10729SOL     OW33085   6.411   2.892   1.334
10729SOL    HW133086   6.472   2.960   1.375
10729SOL    HW233087   6.379   2.926   1.245
10730SOL     OW33088   4.517   0.213   2.708
10730SOL    HW133089   4.526   0.309   2.733
10730SOL    HW233090   4.541   0.201   2.611
10731SOL     OW33091   4.610   0.346   1.094
10731SOL    HW133092   4.623   0.293   1.178
10731SOL    HW233093   4.675   0.421   1.091
10732SOL     OW33094   0.629   4.566   5.469
10732SOL    HW133095   0.537   4.600   5.488
10732SOL    HW233096   0.670   4.622   5.398
10733SOL     OW33097   6.600   2.568   6.467
10733SOL    HW133098   6.548   2.576   6.553
10733SOL    HW233099   6.580   2.480   6.424
10734SOL     OW33100   0.153   2.530   1.749
10734SOL    HW133101   0.219   2.605   1.755
10734SOL    HW233102   0.060   2.567   1.747
10735SOL     OW33103   0.091   4.252   2.975
10735SOL    HW133104   0.017   4.213   2.919
10735SOL    HW233105   0.137   4.178   3.025
10736SOL     OW33106   2.580   0.871   3.506
10736SOL    HW133107   2.678   0.880   3.486
10736SOL    HW233108   2.561   0.912   3.595
10737SOL     OW33109   6.912   2.372   1.723
10737SOL    HW133110   6.902   2.376   1.624
10737SOL    HW233111   6.990   2.314   1.747
10738SOL     OW33112   4.241   0.052   3.654
10738SOL    HW133113   4.208   0.023   3.564
10738SOL    HW233114   4.268   0.148   3.650
10739SOL     OW33115   2.063   1.534   1.792
10739SOL    HW133116   2.075   1.616   1.736
10739SOL    HW233117   2.148   1.514   1.841
10740SOL     OW33118   5.046   4.982   3.286
10740SOL    HW133119   5.000   5.037   3.356
10740SOL    HW233120   4.982   4.915   3.249
10741SOL     OW33121   4.007   0.919   3.185
10741SOL    HW133122   3.954   0.980   3.243
10741SOL    HW233123   4.052   0.971   3.113
10742SOL     OW33124   6.863   5.364   0.674
10742SOL    HW133125   6.956   5.367   0.710
10742SOL    HW233126   6.845   5.274   0.635
10743SOL     OW33127   2.313   1.818   5.037
10743SOL    HW133128   2.387   1.847   5.098
10743SOL    HW233129   2.278   1.898   4.987
10744SOL     OW33130   4.340   1.606   0.965
10744SOL    HW133131   4.419   1.553   0.996
10744SOL    HW233132   4.319   1.583   0.870
10745SOL     OW33133   6.796   5.733   6.096
10745SOL    HW133134   6.857   5.796   6.145
10745SOL    HW233135   6.802   5.750   5.998
10746SOL     OW33136   0.512   4.226   5.898
10746SOL    HW133137   0.507   4.237   5.997
10746SOL    HW233138   0.429   4.178   5.866
10747SOL     OW33139   3.235   1.637   4.439
10747SOL    HW133140   3.180   1.596   4.367
10747SOL    HW233141   3.233   1.579   4.520
10748SOL     OW33142   5.176   1.286   2.728
10748SOL    HW133143   5.195   1.293   2.630
10748SOL    HW233144   5.078   1.300   2.744
10749SOL     OW33145   2.182   6.687   6.333
10749SOL    HW133146   2.132   6.669   6.418
10749SOL    HW233147   2.142   6.765   6.287
10750SOL     OW33148   4.096   0.637   6.546
10750SOL    HW133149   4.026   0.626   6.617
10750SOL    HW233150   4.173   0.687   6.584
10751SOL     OW33151   2.440   4.887   4.067
10751SOL    HW133152   2.410   4.969   4.017
10751SOL    HW233153   2.533   4.900   4.100
10752SOL     OW33154   4.762   4.929   3.814
10752SOL    HW133155   4.825   4.851   3.816
10752SOL    HW233156   4.713   4.934   3.901
10753SOL     OW33157   6.498   3.226   4.708
10753SOL    HW133158   6.536   3.235   4.616
10753SOL    HW233159   6.493   3.316   4.751
10754SOL     OW33160   1.806   0.282   2.433
10754SOL    HW133161   1.902   0.310   2.434
10754SOL    HW233162   1.800   0.184   2.411
10755SOL     OW33163   6.559   5.894   2.169
10755SOL    HW133164   6.577   5.878   2.266
10755SOL    HW233165   6.636   5.860   2.115
10756SOL     OW33166   0.190   0.115   5.199
10756SOL    HW133167   0.243   0.183   5.147
10756SOL    HW233168   0.203   0.025   5.158
10757SOL     OW33169   2.797   3.397   1.249
10757SOL    HW133170   2.864   3.446   1.304
10757SOL    HW233171   2.841   3.363   1.166
10758SOL     OW33172   0.521   5.611   4.291
10758SOL    HW133173   0.505   5.513   4.301
10758SOL    HW233174   0.596   5.627   4.228
10759SOL     OW33175   0.191   2.666   6.673
10759SOL    HW133176   0.100   2.637   6.702
10759SOL    HW233177   0.183   2.755   6.626
10760SOL     OW33178   6.136   1.103   3.830
10760SOL    HW133179   6.148   1.031   3.898
10760SOL    HW233180   6.225   1.133   3.796
10761SOL     OW33181   2.690   4.915   5.496
10761SOL    HW133182   2.750   4.837   5.479
10761SOL    HW233183   2.595   4.888   5.482
10762SOL     OW33184   3.567   0.572   4.721
10762SOL    HW133185   3.474   0.603   4.703
10762SOL    HW233186   3.590   0.587   4.817
10763SOL     OW33187   4.236   6.403   3.545
10763SOL    HW133188   4.270   6.314   3.516
10763SOL    HW233189   4.154   6.391   3.601
10764SOL     OW33190   5.718   0.419   4.640
10764SOL    HW133191   5.801   0.375   4.606
10764SOL    HW233192   5.726   0.434   4.739
10765SOL     OW33193   5.188   3.711   1.134
10765SOL    HW133194   5.250   3.778   1.175
10765SOL    HW233195   5.188   3.627   1.189
10766SOL     OW33196   4.130   2.965   1.291
10766SOL    HW133197   4.153   3.012   1.376
10766SOL    HW233198   4.031   2.965   1.279
10767SOL     OW33199   3.639   1.311   2.055
10767SOL    HW133200   3.630   1.216   2.027
10767SOL    HW233201   3.561   1.364   2.021
10768SOL     OW33202   6.647   4.838   0.545
10768SOL    HW133203   6.572   4.887   0.590
10768SOL    HW233204   6.698   4.902   0.488
10769SOL     OW33205   1.574   4.054   5.892
10769SOL    HW133206   1.611   3.968   5.927
10769SOL    HW233207   1.583   4.056   5.792
10770SOL     OW33208   4.320   6.159   3.471
10770SOL    HW133209   4.383   6.094   3.513
10770SOL    HW233210   4.302   6.132   3.377
10771SOL     OW33211   2.636   1.392   3.212
10771SOL    HW133212   2.571   1.344   3.154
10771SOL    HW233213   2.673   1.330   3.281
10772SOL     OW33214   5.575   5.275   3.873
10772SOL    HW133215   5.517   5.288   3.792
10772SOL    HW233216   5.548   5.340   3.944
10773SOL     OW33217   5.187   4.541   3.601
10773SOL    HW133218   5.266   4.568   3.547
10773SOL    HW233219   5.210   4.546   3.698
10774SOL     OW33220   0.926   0.546   3.630
10774SOL    HW133221   0.940   0.448   3.620
10774SOL    HW233222   0.865   0.579   3.558
10775SOL     OW33223   0.529   3.755   2.337
10775SOL    HW133224   0.565   3.741   2.429
10775SOL    HW233225   0.566   3.840   2.300
10776SOL     OW33226   1.761   0.143   6.666
10776SOL    HW133227   1.856   0.114   6.659
10776SOL    HW233228   1.748   0.228   6.616
10777SOL     OW33229   2.909   5.977   1.650
10777SOL    HW133230   2.814   6.003   1.631
10777SOL    HW233231   2.967   6.058   1.651
10778SOL     OW33232   6.302   5.426   3.079
10778SOL    HW133233   6.305   5.479   3.165
10778SOL    HW233234   6.361   5.469   3.011
10779SOL     OW33235   5.305   2.596   3.400
10779SOL    HW133236   5.213   2.612   3.363
10779SOL    HW233237   5.369   2.661   3.359
10780SOL     OW33238   0.418   0.877   2.593
10780SOL    HW133239   0.431   0.855   2.497
10780SOL    HW233240   0.357   0.809   2.635
10781SOL     OW33241   3.880   0.107   4.547
10781SOL    HW133242   3.783   0.123   4.531
10781SOL    HW233243   3.919   0.052   4.473
10782SOL     OW33244   6.423   5.368   4.008
10782SOL    HW133245   6.369   5.284   3.995
10782SOL    HW233246   6.516   5.344   4.034
10783SOL     OW33247   6.802   1.866   3.066
10783SOL    HW133248   6.746   1.794   3.025
10783SOL    HW233249   6.826   1.840   3.160
10784SOL     OW33250   3.062   1.243   4.361
10784SOL    HW133251   3.051   1.332   4.316
10784SOL    HW233252   2.991   1.232   4.430
10785SOL     OW33253   0.933   3.893   6.307
10785SOL    HW133254   0.848   3.841   6.299
10785SOL    HW233255   0.933   3.944   6.393
10786SOL     OW33256   0.548   5.024   3.321
10786SOL    HW133257   0.525   5.084   3.397
10786SOL    HW233258   0.509   4.933   3.336
10787SOL     OW33259   1.743   2.128   5.872
10787SOL    HW133260   1.782   2.036   5.876
10787SOL    HW233261   1.815   2.193   5.847
10788SOL     OW33262   5.630   4.120   6.410
10788SOL    HW133263   5.726   4.140   6.429
10788SOL    HW233264   5.618   4.022   6.398
10789SOL     OW33265   6.227   1.457   0.307
10789SOL    HW133266   6.174   1.528   0.262
10789SOL    HW233267   6.242   1.381   0.244
10790SOL     OW33268   0.098   6.128   3.076
10790SOL    HW133269   0.057   6.038   3.095
10790SOL    HW233270   0.026   6.194   3.059
10791SOL     OW33271   0.369   6.441   3.068
10791SOL    HW133272   0.323   6.443   2.978
10791SOL    HW233273   0.310   6.395   3.134
10792SOL     OW33274   3.990   4.141   5.186
10792SOL    HW133275   4.083   4.150   5.222
10792SOL    HW233276   3.941   4.228   5.198
10793SOL     OW33277   5.859   3.516   4.566
10793SOL    HW133278   5.817   3.496   4.655
10793SOL    HW233279   5.872   3.431   4.516
10794SOL     OW33280   2.944   3.773   3.646
10794SOL    HW133281   2.957   3.736   3.738
10794SOL    HW233282   2.897   3.861   3.651
10795SOL     OW33283   0.304   4.492   3.411
10795SOL    HW133284   0.332   4.397   3.426
10795SOL    HW233285   0.374   4.538   3.355
10796SOL     OW33286   2.129   6.490   5.013
10796SOL    HW133287   2.115   6.496   4.914
10796SOL    HW233288   2.044   6.460   5.057
10797SOL     OW33289   3.816   2.812   0.489
10797SOL    HW133290   3.835   2.825   0.586
10797SOL    HW233291   3.863   2.882   0.436
10798SOL     OW33292   6.968   1.843   0.690
10798SOL    HW133293   6.931   1.812   0.778
10798SOL    HW233294   7.013   1.767   0.645
10799SOL     OW33295   3.985   1.661   1.775
10799SOL    HW133296   4.038   1.649   1.691
10799SOL    HW233297   3.976   1.573   1.821
10800SOL     OW33298   1.249   0.132   1.457
10800SOL    HW133299   1.297   0.219   1.470
10800SOL    HW233300   1.273   0.094   1.367
10801SOL     OW33301   1.442   0.755   1.332
10801SOL    HW133302   1.516   0.706   1.286
10801SOL    HW233303   1.381   0.795   1.263
10802SOL     OW33304   6.777   0.290   3.216
10802SOL    HW133305   6.807   0.236   3.295
10802SOL    HW233306   6.781   0.387   3.238
10803SOL     OW33307   2.577   5.169   6.434
10803SOL    HW133308   2.540   5.098   6.373
10803SOL    HW233309   2.502   5.221   6.474
10804SOL     OW33310   0.059   3.608   4.145
10804SOL    HW133311   0.003   3.545   4.092
10804SOL    HW233312   0.017   3.699   4.146
10805SOL     OW33313   6.818   1.557   5.672
10805SOL    HW133314   6.770   1.477   5.637
10805SOL    HW233315   6.841   1.543   5.768
10806SOL     OW33316   1.825   4.499   6.877
10806SOL    HW133317   1.842   4.402   6.862
10806SOL    HW233318   1.731   4.512   6.908
10807SOL     OW33319   3.087   6.644   4.842
10807SOL    HW133320   3.129   6.585   4.773
10807SOL    HW233321   3.128   6.735   4.838
10808SOL     OW33322   0.465   3.324   5.989
10808SOL    HW133323   0.416   3.316   5.902
10808SOL    HW233324   0.464   3.420   6.019
10809SOL     OW33325   2.028   6.913   4.434
10809SOL    HW133326   2.096   6.845   4.406
10809SOL    HW233327   2.065   6.968   4.509
10810SOL     OW33328   6.824   0.075   4.485
10810SOL    HW133329   6.878   0.121   4.555
10810SOL    HW233330   6.727   0.093   4.501
10811SOL     OW33331   4.889   4.936   4.683
10811SOL    HW133332   4.982   4.966   4.702
10811SOL    HW233333   4.886   4.888   4.596
10812SOL     OW33334   6.250   2.713   0.173
10812SOL    HW133335   6.170   2.703   0.114
10812SOL    HW233336   6.219   2.733   0.267
10813SOL     OW33337   0.141   3.977   5.956
10813SOL    HW133338   0.126   3.997   6.053
10813SOL    HW233339   0.055   3.985   5.906
10814SOL     OW33340   2.779   0.958   1.240
10814SOL    HW133341   2.830   0.941   1.324
10814SOL    HW233342   2.817   0.902   1.166
10815SOL     OW33343   5.335   0.990   4.745
10815SOL    HW133344   5.370   1.029   4.830
10815SOL    HW233345   5.406   0.995   4.674
10816SOL     OW33346   4.120   3.380   3.978
10816SOL    HW133347   4.103   3.352   4.072
10816SOL    HW233348   4.045   3.439   3.946
10817SOL     OW33349   2.291   6.180   3.623
10817SOL    HW133350   2.387   6.167   3.597
10817SOL    HW233351   2.285   6.194   3.721
10818SOL     OW33352   3.718   4.614   6.612
10818SOL    HW133353   3.747   4.519   6.602
10818SOL    HW233354   3.682   4.647   6.525
10819SOL     OW33355   6.454   6.444   5.446
10819SOL    HW133356   6.502   6.414   5.364
10819SOL    HW233357   6.475   6.539   5.464
10820SOL     OW33358   2.066   4.278   5.972
10820SOL    HW133359   2.092   4.183   5.990
10820SOL    HW233360   2.091   4.335   6.050
10821SOL     OW33361   4.810   5.648   2.996
10821SOL    HW133362   4.886   5.584   3.001
10821SOL    HW233363   4.728   5.605   3.034
10822SOL     OW33364   5.163   1.331   2.455
10822SOL    HW133365   5.064   1.326   2.446
10822SOL    HW233366   5.205   1.249   2.417
10823SOL     OW33367   5.320   6.763   1.630
10823SOL    HW133368   5.318   6.776   1.531
10823SOL    HW233369   5.290   6.669   1.652
10824SOL     OW33370   1.065   2.557   3.549
10824SOL    HW133371   1.143   2.592   3.600
10824SOL    HW233372   0.981   2.597   3.586
10825SOL     OW33373   0.776   2.032   0.396
10825SOL    HW133374   0.770   1.977   0.313
10825SOL    HW233375   0.730   2.120   0.382
10826SOL     OW33376   0.649   3.124   2.892
10826SOL    HW133377   0.651   3.042   2.949
10826SOL    HW233378   0.590   3.108   2.813
10827SOL     OW33379   6.421   4.017   4.712
10827SOL    HW133380   6.372   3.933   4.732
10827SOL    HW233381   6.405   4.043   4.616
10828SOL     OW33382   6.154   4.502   5.442
10828SOL    HW133383   6.057   4.512   5.421
10828SOL    HW233384   6.178   4.558   5.521
10829SOL     OW33385   4.067   3.200   5.129
10829SOL    HW133386   4.003   3.142   5.078
10829SOL    HW233387   4.090   3.156   5.216
10830SOL     OW33388   4.080   2.197   3.400
10830SOL    HW133389   3.991   2.241   3.410
10830SOL    HW233390   4.144   2.237   3.466
10831SOL     OW33391   4.083   0.713   3.752
10831SOL    HW133392   4.064   0.683   3.658
10831SOL    HW233393   4.041   0.649   3.817
10832SOL     OW33394   6.579   3.774   0.298
10832SOL    HW133395   6.532   3.828   0.367
10832SOL    HW233396   6.512   3.723   0.245
10833SOL     OW33397   0.377   1.353   6.173
10833SOL    HW133398   0.343   1.297   6.249
10833SOL    HW233399   0.387   1.447   6.203
10834SOL     OW33400   6.945   6.679   1.328
10834SOL    HW133401   6.877   6.651   1.396
10834SOL    HW233402   0.008   6.644   1.353
10835SOL     OW33403   0.136   2.211   5.630
10835SOL    HW133404   0.085   2.291   5.600
10835SOL    HW233405   0.225   2.208   5.583
10836SOL     OW33406   6.966   1.240   3.906
10836SOL    HW133407   6.988   1.283   3.818
10836SOL    HW233408   6.889   1.287   3.948
10837SOL     OW33409   0.811   3.002   2.636
10837SOL    HW133410   0.752   2.925   2.617
10837SOL    HW233411   0.812   3.020   2.734
10838SOL     OW33412   0.434   5.528   2.012
10838SOL    HW133413   0.481   5.451   2.054
10838SOL    HW233414   0.500   5.587   1.967
10839SOL     OW33415   5.094   2.425   1.060
10839SOL    HW133416   5.035   2.467   0.992
10839SOL    HW233417   5.190   2.450   1.042
10840SOL     OW33418   2.617   0.393   1.503
10840SOL    HW133419   2.698   0.400   1.446
10840SOL    HW233420   2.541   0.358   1.448
10841SOL     OW33421   2.150   5.147   4.535
10841SOL    HW133422   2.241   5.118   4.504
10841SOL    HW233423   2.159   5.215   4.607
10842SOL     OW33424   5.274   4.364   1.361
10842SOL    HW133425   5.250   4.287   1.303
10842SOL    HW233426   5.192   4.416   1.384
10843SOL     OW33427   2.280   2.098   1.274
10843SOL    HW133428   2.357   2.101   1.210
10843SOL    HW233429   2.304   2.150   1.356
10844SOL     OW33430   1.588   5.156   4.724
10844SOL    HW133431   1.656   5.213   4.677
10844SOL    HW233432   1.634   5.094   4.788
10845SOL     OW33433   4.065   0.458   5.002
10845SOL    HW133434   3.987   0.429   4.947
10845SOL    HW233435   4.035   0.522   5.072
10846SOL     OW33436   5.237   6.982   6.774
10846SOL    HW133437   5.298   6.932   6.835
10846SOL    HW233438   5.255   6.954   6.679
10847SOL     OW33439   2.895   0.902   6.340
10847SOL    HW133440   2.951   0.857   6.409
10847SOL    HW233441   2.950   0.921   6.258
10848SOL     OW33442   1.686   4.927   1.953
10848SOL    HW133443   1.624   4.927   1.875
10848SOL    HW233444   1.649   4.869   2.025
10849SOL     OW33445   2.461   6.494   3.695
10849SOL    HW133446   2.413   6.582   3.700
10849SOL    HW233447   2.543   6.497   3.751
10850SOL     OW33448   3.675   5.118   0.852
10850SOL    HW133449   3.590   5.118   0.905
10850SOL    HW233450   3.684   5.030   0.805
10851SOL     OW33451   1.671   4.628   0.421
10851SOL    HW133452   1.679   4.584   0.331
10851SOL    HW233453   1.750   4.604   0.477
10852SOL     OW33454   2.292   1.425   2.352
10852SOL    HW133455   2.244   1.353   2.402
10852SOL    HW233456   2.391   1.414   2.364
10853SOL     OW33457   3.198   1.403   6.184
10853SOL    HW133458   3.279   1.344   6.191
10853SOL    HW233459   3.131   1.373   6.252
10854SOL     OW33460   3.041   6.688   5.213
10854SOL    HW133461   2.944   6.678   5.192
10854SOL    HW233462   3.095   6.676   5.129
10855SOL     OW33463   3.552   1.538   0.092
10855SOL    HW133464   3.474   1.589   0.057
10855SOL    HW233465   3.557   1.449   0.046
10856SOL     OW33466   0.330   0.893   0.482
10856SOL    HW133467   0.314   0.959   0.555
10856SOL    HW233468   0.428   0.870   0.478
10857SOL     OW33469   6.548   2.310   2.483
10857SOL    HW133470   6.613   2.385   2.491
10857SOL    HW233471   6.523   2.278   2.574
10858SOL     OW33472   2.498   6.137   1.959
10858SOL    HW133473   2.589   6.143   1.919
10858SOL    HW233474   2.495   6.060   2.022
10859SOL     OW33475   1.761   5.428   3.550
10859SOL    HW133476   1.693   5.498   3.528
10859SOL    HW233477   1.837   5.468   3.599
10860SOL     OW33478   6.822   3.371   3.174
10860SOL    HW133479   6.772   3.351   3.258
10860SOL    HW233480   6.918   3.386   3.195
10861SOL     OW33481   3.621   2.903   4.799
10861SOL    HW133482   3.637   2.977   4.865
10861SOL    HW233483   3.637   2.815   4.844
10862SOL     OW33484   0.622   0.830   4.583
10862SOL    HW133485   0.663   0.740   4.591
10862SOL    HW233486   0.594   0.862   4.674
10863SOL     OW33487   3.116   6.193   4.471
10863SOL    HW133488   3.127   6.229   4.564
10863SOL    HW233489   3.190   6.130   4.450
10864SOL     OW33490   3.400   5.970   3.408
10864SOL    HW133491   3.388   5.990   3.310
10864SOL    HW233492   3.496   5.948   3.425
10865SOL     OW33493   6.244   1.901   5.915
10865SOL    HW133494   6.277   1.914   5.821
10865SOL    HW233495   6.152   1.941   5.923
10866SOL     OW33496   4.813   5.246   1.061
10866SOL    HW133497   4.907   5.224   1.035
10866SOL    HW233498   4.767   5.162   1.092
10867SOL     OW33499   3.296   2.234   0.124
10867SOL    HW133500   3.227   2.167   0.095
10867SOL    HW233501   3.333   2.281   0.044
10868SOL     OW33502   2.499   1.978   2.744
10868SOL    HW133503   2.439   2.058   2.750
10868SOL    HW233504   2.589   2.001   2.781
10869NA      NA33505   6.396   2.662   5.931
10870NA      NA33506   4.558   4.558   5.166
10871NA      NA33507   2.396   3.421   1.611
10872NA      NA33508   4.908   3.701   5.224
10873NA      NA33509   4.304   2.381   5.276
10874NA      NA33510   3.700   4.790   1.726
10875NA      NA33511   6.510   6.020   4.620
10876NA      NA33512   3.804   4.018   5.086
10877NA      NA33513   4.434   0.081   6.952
10878NA      NA33514   3.350   0.233   4.904
10879NA      NA33515   0.156   4.905   2.922
10880NA      NA33516   2.729   0.713   2.724
10881NA      NA33517   3.809   4.061   1.259
10882NA      NA33518   3.700   3.338   2.946
   7.02698   7.02698   7.02698
