Generated by trjconv : CNT in water t= 578.00000
33518
    1C        C    1   2.849   2.771   4.748
    1C        C    2   2.898   2.716   4.868
    1C        C    3   2.844   2.767   4.987
    1C        C    4   2.846   2.772   4.262
    1C        C    5   2.901   2.724   4.383
    1C        C    6   2.847   2.772   4.505
    1C        C    7   3.015   2.641   4.626
    1C        C    8   2.899   2.722   4.626
    1C        C    9   3.079   2.604   4.747
    1C        C   10   3.012   2.633   4.868
    1C        C   11   3.181   2.489   4.980
    1C        C   12   3.063   2.565   4.979
    1C        C   13   2.853   2.771   3.772
    1C        C   14   2.902   2.724   3.896
    1C        C   15   2.851   2.774   4.017
    1C        C   16   3.015   2.644   4.140
    1C        C   17   2.897   2.722   4.140
    1C        C   18   3.079   2.609   4.261
    1C        C   19   3.017   2.644   4.383
    1C        C   20   3.209   2.554   4.506
    1C        C   21   3.078   2.606   4.505
    1C        C   22   3.280   2.534   4.627
    1C        C   23   3.210   2.550   4.749
    1C        C   24   3.412   2.491   4.868
    1C        C   25   3.270   2.501   4.868
    1C        C   26   3.493   2.488   4.983
    1C        C   27   2.851   2.769   3.283
    1C        C   28   2.906   2.725   3.406
    1C        C   29   2.856   2.771   3.529
    1C        C   30   3.019   2.636   3.653
    1C        C   31   2.906   2.721   3.651
    1C        C   32   3.078   2.601   3.777
    1C        C   33   3.014   2.638   3.897
    1C        C   34   3.205   2.547   4.018
    1C        C   35   3.077   2.605   4.019
    1C        C   36   3.276   2.530   4.140
    1C        C   37   3.210   2.556   4.262
    1C        C   38   3.418   2.514   4.384
    1C        C   39   3.278   2.537   4.384
    1C        C   40   3.489   2.503   4.505
    1C        C   41   3.419   2.508   4.628
    1C        C   42   3.631   2.488   4.747
    1C        C   43   3.489   2.490   4.749
    1C        C   44   3.708   2.492   4.865
    1C        C   45   3.631   2.478   4.981
    1C        C   46   2.836   2.753   2.796
    1C        C   47   2.894   2.709   2.917
    1C        C   48   2.844   2.759   3.040
    1C        C   49   3.014   2.633   3.164
    1C        C   50   2.898   2.715   3.162
    1C        C   51   3.078   2.602   3.286
    1C        C   52   3.021   2.643   3.409
    1C        C   53   3.213   2.550   3.528
    1C        C   54   3.084   2.607   3.530
    1C        C   55   3.275   2.525   3.652
    1C        C   56   3.209   2.548   3.774
    1C        C   57   3.415   2.509   3.896
    1C        C   58   3.276   2.528   3.897
    1C        C   59   3.487   2.504   4.017
    1C        C   60   3.416   2.510   4.139
    1C        C   61   3.628   2.504   4.260
    1C        C   62   3.487   2.503   4.261
    1C        C   63   3.700   2.512   4.381
    1C        C   64   3.630   2.505   4.503
    1C        C   65   3.835   2.551   4.623
    1C        C   66   3.701   2.508   4.626
    1C        C   67   3.904   2.572   4.744
    1C        C   68   3.843   2.534   4.866
    1C        C   69   4.056   2.588   4.979
    1C        C   70   3.927   2.535   4.978
    1C        C   71   2.825   2.733   2.310
    1C        C   72   2.885   2.698   2.433
    1C        C   73   2.830   2.746   2.554
    1C        C   74   3.005   2.623   2.675
    1C        C   75   2.889   2.703   2.675
    1C        C   76   3.071   2.592   2.796
    1C        C   77   3.010   2.629   2.918
    1C        C   78   3.206   2.549   3.038
    1C        C   79   3.075   2.602   3.040
    1C        C   80   3.276   2.533   3.159
    1C        C   81   3.209   2.550   3.283
    1C        C   82   3.416   2.503   3.404
    1C        C   83   3.277   2.528   3.404
    1C        C   84   3.484   2.499   3.528
    1C        C   85   3.415   2.504   3.651
    1C        C   86   3.627   2.504   3.771
    1C        C   87   3.486   2.502   3.773
    1C        C   88   3.697   2.514   3.893
    1C        C   89   3.628   2.508   4.017
    1C        C   90   3.836   2.551   4.136
    1C        C   91   3.699   2.516   4.138
    1C        C   92   3.906   2.569   4.258
    1C        C   93   3.837   2.547   4.379
    1C        C   94   4.030   2.637   4.500
    1C        C   95   3.903   2.577   4.501
    1C        C   96   4.095   2.671   4.621
    1C        C   97   4.034   2.628   4.741
    1C        C   98   4.198   2.761   4.862
    1C        C   99   4.107   2.651   4.861
    1C        C  100   4.211   2.844   4.974
    1C        C  101   2.825   2.730   2.070
    1C        C  102   2.989   2.590   2.192
    1C        C  103   2.874   2.676   2.190
    1C        C  104   3.065   2.576   2.312
    1C        C  105   3.004   2.622   2.430
    1C        C  106   3.197   2.536   2.552
    1C        C  107   3.067   2.590   2.553
    1C        C  108   3.269   2.523   2.674
    1C        C  109   3.203   2.540   2.797
    1C        C  110   3.414   2.497   2.918
    1C        C  111   3.274   2.520   2.917
    1C        C  112   3.485   2.497   3.040
    1C        C  113   3.414   2.506   3.162
    1C        C  114   3.629   2.500   3.279
    1C        C  115   3.488   2.495   3.282
    1C        C  116   3.695   2.509   3.403
    1C        C  117   3.625   2.502   3.526
    1C        C  118   3.831   2.553   3.649
    1C        C  119   3.696   2.512   3.648
    1C        C  120   3.898   2.579   3.771
    1C        C  121   3.833   2.551   3.893
    1C        C  122   4.028   2.641   4.014
    1C        C  123   3.902   2.578   4.014
    1C        C  124   4.088   2.678   4.136
    1C        C  125   4.029   2.637   4.258
    1C        C  126   4.199   2.769   4.377
    1C        C  127   4.092   2.677   4.379
    1C        C  128   4.245   2.822   4.499
    1C        C  129   4.199   2.767   4.621
    1C        C  130   4.329   2.936   4.740
    1C        C  131   4.247   2.820   4.742
    1C        C  132   4.349   3.008   4.860
    1C        C  133   4.281   2.965   4.974
    1C        C  134   3.173   2.470   2.085
    1C        C  135   3.037   2.503   2.089
    1C        C  136   3.261   2.483   2.193
    1C        C  137   3.196   2.519   2.312
    1C        C  138   3.406   2.481   2.430
    1C        C  139   3.267   2.504   2.433
    1C        C  140   3.479   2.486   2.551
    1C        C  141   3.408   2.501   2.672
    1C        C  142   3.621   2.504   2.792
    1C        C  143   3.480   2.492   2.793
    1C        C  144   3.694   2.504   2.913
    1C        C  145   3.626   2.496   3.036
    1C        C  146   3.836   2.544   3.156
    1C        C  147   3.699   2.507   3.157
    1C        C  148   3.899   2.568   3.280
    1C        C  149   3.832   2.544   3.402
    1C        C  150   4.022   2.636   3.523
    1C        C  151   3.896   2.572   3.525
    1C        C  152   4.084   2.676   3.644
    1C        C  153   4.024   2.643   3.767
    1C        C  154   4.195   2.767   3.888
    1C        C  155   4.083   2.681   3.890
    1C        C  156   4.244   2.818   4.011
    1C        C  157   4.199   2.764   4.134
    1C        C  158   4.343   2.923   4.254
    1C        C  159   4.254   2.814   4.255
    1C        C  160   4.376   2.986   4.376
    1C        C  161   4.332   2.933   4.499
    1C        C  162   4.445   3.117   4.617
    1C        C  163   4.374   2.995   4.619
    1C        C  164   4.474   3.183   4.739
    1C        C  165   4.433   3.121   4.859
    1C        C  166   4.516   3.320   4.973
    1C        C  167   4.480   3.185   4.974
    1C        C  168   3.477   2.434   2.075
    1C        C  169   3.401   2.462   2.189
    1C        C  170   3.619   2.467   2.309
    1C        C  171   3.476   2.465   2.308
    1C        C  172   3.692   2.491   2.428
    1C        C  173   3.620   2.495   2.549
    1C        C  174   3.829   2.547   2.667
    1C        C  175   3.692   2.510   2.670
    1C        C  176   3.894   2.565   2.790
    1C        C  177   3.830   2.542   2.914
    1C        C  178   4.029   2.627   3.033
    1C        C  179   3.901   2.567   3.033
    1C        C  180   4.088   2.665   3.156
    1C        C  181   4.025   2.632   3.278
    1C        C  182   4.200   2.751   3.400
    1C        C  183   4.085   2.668   3.401
    1C        C  184   4.250   2.805   3.520
    1C        C  185   4.198   2.760   3.643
    1C        C  186   4.341   2.917   3.766
    1C        C  187   4.251   2.807   3.765
    1C        C  188   4.381   2.978   3.887
    1C        C  189   4.339   2.922   4.010
    1C        C  190   4.446   3.106   4.129
    1C        C  191   4.383   2.980   4.131
    1C        C  192   4.465   3.177   4.249
    1C        C  193   4.436   3.114   4.372
    1C        C  194   4.506   3.316   4.494
    1C        C  195   4.468   3.180   4.493
    1C        C  196   4.524   3.388   4.614
    1C        C  197   4.516   3.319   4.736
    1C        C  198   4.555   3.535   4.852
    1C        C  199   4.534   3.394   4.856
    1C        C  200   4.579   3.622   4.963
    1C        C  201   3.617   2.418   2.076
    1C        C  202   3.830   2.506   2.185
    1C        C  203   3.694   2.462   2.189
    1C        C  204   3.900   2.540   2.304
    1C        C  205   3.829   2.524   2.425
    1C        C  206   4.025   2.619   2.543
    1C        C  207   3.899   2.556   2.544
    1C        C  208   4.084   2.659   2.666
    1C        C  209   4.024   2.622   2.788
    1C        C  210   4.204   2.740   2.908
    1C        C  211   4.088   2.661   2.908
    1C        C  212   4.253   2.794   3.029
    1C        C  213   4.200   2.751   3.152
    1C        C  214   4.340   2.906   3.273
    1C        C  215   4.250   2.797   3.276
    1C        C  216   4.379   2.965   3.395
    1C        C  217   4.342   2.913   3.520
    1C        C  218   4.439   3.101   3.640
    1C        C  219   4.378   2.974   3.642
    1C        C  220   4.464   3.170   3.761
    1C        C  221   4.440   3.106   3.885
    1C        C  222   4.506   3.308   4.007
    1C        C  223   4.472   3.171   4.006
    1C        C  224   4.523   3.381   4.127
    1C        C  225   4.509   3.312   4.249
    1C        C  226   4.520   3.525   4.371
    1C        C  227   4.517   3.384   4.370
    1C        C  228   4.517   3.600   4.490
    1C        C  229   4.534   3.529   4.611
    1C        C  230   4.505   3.744   4.729
    1C        C  231   4.537   3.606   4.730
    1C        C  232   4.494   3.821   4.847
    1C        C  233   4.543   3.758   4.962
    1C        C  234   4.024   2.602   2.065
    1C        C  235   3.898   2.544   2.069
    1C        C  236   4.087   2.648   2.181
    1C        C  237   4.027   2.604   2.300
    1C        C  238   4.207   2.726   2.422
    1C        C  239   4.088   2.647   2.420
    1C        C  240   4.258   2.779   2.542
    1C        C  241   4.197   2.743   2.665
    1C        C  242   4.342   2.901   2.783
    1C        C  243   4.252   2.792   2.785
    1C        C  244   4.383   2.958   2.906
    1C        C  245   4.339   2.906   3.030
    1C        C  246   4.445   3.091   3.151
    1C        C  247   4.382   2.964   3.151
    1C        C  248   4.465   3.160   3.273
    1C        C  249   4.438   3.094   3.395
    1C        C  250   4.498   3.300   3.516
    1C        C  251   4.465   3.162   3.515
    1C        C  252   4.506   3.373   3.636
    1C        C  253   4.503   3.306   3.761
    1C        C  254   4.518   3.517   3.881
    1C        C  255   4.518   3.375   3.883
    1C        C  256   4.521   3.589   4.003
    1C        C  257   4.528   3.522   4.127
    1C        C  258   4.492   3.733   4.242
    1C        C  259   4.520   3.595   4.248
    1C        C  260   4.474   3.805   4.363
    1C        C  261   4.489   3.739   4.486
    1C        C  262   4.421   3.940   4.606
    1C        C  263   4.480   3.811   4.607
    1C        C  264   4.388   4.007   4.726
    1C        C  265   4.430   3.946   4.847
    1C        C  266   4.315   4.131   4.962
    1C        C  267   4.385   4.011   4.963
    1C        C  268   4.267   2.775   2.064
    1C        C  269   4.203   2.730   2.180
    1C        C  270   4.347   2.888   2.299
    1C        C  271   4.259   2.776   2.301
    1C        C  272   4.389   2.948   2.420
    1C        C  273   4.348   2.888   2.541
    1C        C  274   4.452   3.079   2.659
    1C        C  275   4.386   2.954   2.660
    1C        C  276   4.472   3.146   2.781
    1C        C  277   4.451   3.082   2.905
    1C        C  278   4.503   3.289   3.023
    1C        C  279   4.475   3.150   3.027
    1C        C  280   4.517   3.360   3.145
    1C        C  281   4.504   3.296   3.270
    1C        C  282   4.516   3.507   3.389
    1C        C  283   4.512   3.366   3.392
    1C        C  284   4.511   3.580   3.511
    1C        C  285   4.515   3.514   3.635
    1C        C  286   4.485   3.723   3.753
    1C        C  287   4.515   3.585   3.758
    1C        C  288   4.465   3.791   3.875
    1C        C  289   4.492   3.727   3.999
    1C        C  290   4.425   3.932   4.117
    1C        C  291   4.476   3.800   4.119
    1C        C  292   4.395   3.999   4.237
    1C        C  293   4.425   3.937   4.361
    1C        C  294   4.324   4.125   4.478
    1C        C  295   4.394   4.002   4.483
    1C        C  296   4.281   4.185   4.598
    1C        C  297   4.320   4.131   4.723
    1C        C  298   4.208   4.319   4.836
    1C        C  299   4.288   4.201   4.843
    1C        C  300   4.171   4.404   4.946
    1C        C  301   4.354   2.883   2.062
    1C        C  302   4.474   3.067   2.175
    1C        C  303   4.399   2.945   2.179
    1C        C  304   4.487   3.139   2.297
    1C        C  305   4.457   3.072   2.417
    1C        C  306   4.509   3.282   2.536
    1C        C  307   4.482   3.143   2.536
    1C        C  308   4.513   3.353   2.657
    1C        C  309   4.498   3.285   2.780
    1C        C  310   4.516   3.500   2.900
    1C        C  311   4.509   3.358   2.901
    1C        C  312   4.516   3.571   3.022
    1C        C  313   4.517   3.501   3.145
    1C        C  314   4.482   3.714   3.264
    1C        C  315   4.508   3.575   3.266
    1C        C  316   4.468   3.786   3.384
    1C        C  317   4.487   3.719   3.508
    1C        C  318   4.422   3.922   3.629
    1C        C  319   4.469   3.789   3.629
    1C        C  320   4.390   3.986   3.750
    1C        C  321   4.415   3.923   3.874
    1C        C  322   4.310   4.110   3.992
    1C        C  323   4.388   3.992   3.995
    1C        C  324   4.272   4.172   4.113
    1C        C  325   4.319   4.119   4.235
    1C        C  326   4.182   4.283   4.354
    1C        C  327   4.279   4.180   4.356
    1C        C  328   4.134   4.337   4.476
    1C        C  329   4.190   4.293   4.597
    1C        C  330   4.027   4.437   4.716
    1C        C  331   4.142   4.354   4.715
    1C        C  332   3.974   4.492   4.835
    1C        C  333   4.055   4.482   4.949
    1C        C  334   4.556   3.268   2.064
    1C        C  335   4.536   3.130   2.063
    1C        C  336   4.540   3.351   2.176
    1C        C  337   4.518   3.278   2.295
    1C        C  338   4.526   3.494   2.413
    1C        C  339   4.527   3.353   2.415
    1C        C  340   4.519   3.566   2.534
    1C        C  341   4.518   3.494   2.656
    1C        C  342   4.486   3.706   2.774
    1C        C  343   4.513   3.568   2.776
    1C        C  344   4.470   3.776   2.896
    1C        C  345   4.494   3.710   3.019
    1C        C  346   4.413   3.910   3.138
    1C        C  347   4.466   3.778   3.139
    1C        C  348   4.381   3.976   3.259
    1C        C  349   4.413   3.916   3.383
    1C        C  350   4.313   4.102   3.502
    1C        C  351   4.388   3.982   3.505
    1C        C  352   4.272   4.161   3.623
    1C        C  353   4.318   4.108   3.746
    1C        C  354   4.175   4.266   3.867
    1C        C  355   4.272   4.164   3.867
    1C        C  356   4.124   4.321   3.987
    1C        C  357   4.180   4.279   4.109
    1C        C  358   4.016   4.411   4.230
    1C        C  359   4.132   4.331   4.231
    1C        C  360   3.955   4.449   4.352
    1C        C  361   4.020   4.422   4.474
    1C        C  362   3.833   4.522   4.592
    1C        C  363   3.963   4.468   4.594
    1C        C  364   3.766   4.553   4.713
    1C        C  365   3.844   4.547   4.830
    1C        C  366   3.632   4.589   4.949
    1C        C  367   3.771   4.576   4.946
    1C        C  368   4.509   3.563   2.052
    1C        C  369   4.525   3.491   2.172
    1C        C  370   4.500   3.706   2.289
    1C        C  371   4.522   3.566   2.291
    1C        C  372   4.484   3.776   2.410
    1C        C  373   4.500   3.706   2.532
    1C        C  374   4.419   3.906   2.650
    1C        C  375   4.477   3.777   2.652
    1C        C  376   4.382   3.968   2.771
    1C        C  377   4.416   3.906   2.894
    1C        C  378   4.309   4.091   3.012
    1C        C  379   4.383   3.971   3.015
    1C        C  380   4.268   4.153   3.132
    1C        C  381   4.304   4.094   3.255
    1C        C  382   4.174   4.259   3.377
    1C        C  383   4.270   4.155   3.378
    1C        C  384   4.121   4.308   3.499
    1C        C  385   4.175   4.264   3.622
    1C        C  386   4.008   4.393   3.741
    1C        C  387   4.125   4.314   3.744
    1C        C  388   3.947   4.431   3.863
    1C        C  389   4.008   4.402   3.987
    1C        C  390   3.822   4.503   4.110
    1C        C  391   3.951   4.446   4.109
    1C        C  392   3.754   4.527   4.232
    1C        C  393   3.826   4.508   4.352
    1C        C  394   3.620   4.563   4.474
    1C        C  395   3.759   4.538   4.473
    1C        C  396   3.549   4.567   4.596
    1C        C  397   3.625   4.567   4.715
    1C        C  398   3.412   4.553   4.839
    1C        C  399   3.552   4.575   4.835
    1C        C  400   3.346   4.510   4.955
    1C        C  401   4.500   3.701   2.052
    1C        C  402   4.456   3.916   2.169
    1C        C  403   4.490   3.779   2.169
    1C        C  404   4.413   3.979   2.287
    1C        C  405   4.432   3.908   2.408
    1C        C  406   4.326   4.095   2.528
    1C        C  407   4.401   3.975   2.528
    1C        C  408   4.277   4.151   2.648
    1C        C  409   4.309   4.088   2.770
    1C        C  410   4.178   4.260   2.888
    1C        C  411   4.264   4.148   2.890
    1C        C  412   4.127   4.310   3.010
    1C        C  413   4.176   4.260   3.134
    1C        C  414   4.006   4.387   3.254
    1C        C  415   4.125   4.311   3.256
    1C        C  416   3.945   4.422   3.376
    1C        C  417   4.008   4.393   3.499
    1C        C  418   3.816   4.487   3.621
    1C        C  419   3.946   4.431   3.620
    1C        C  420   3.751   4.515   3.744
    1C        C  421   3.820   4.493   3.865
    1C        C  422   3.613   4.532   3.988
    1C        C  423   3.753   4.515   3.987
    1C        C  424   3.542   4.541   4.110
    1C        C  425   3.614   4.546   4.231
    1C        C  426   3.407   4.547   4.358
    1C        C  427   3.547   4.565   4.354
    1C        C  428   3.336   4.541   4.480
    1C        C  429   3.408   4.553   4.600
    1C        C  430   3.196   4.513   4.724
    1C        C  431   3.335   4.543   4.721
    1C        C  432   3.125   4.497   4.846
    1C        C  433   3.208   4.502   4.959
    1C        C  434   4.380   4.123   2.049
    1C        C  435   4.442   3.998   2.056
    1C        C  436   4.301   4.160   2.163
    1C        C  437   4.333   4.097   2.286
    1C        C  438   4.184   4.252   2.402
    1C        C  439   4.286   4.155   2.406
    1C        C  440   4.126   4.297   2.522
    1C        C  441   4.176   4.250   2.645
    1C        C  442   4.006   4.381   2.764
    1C        C  443   4.125   4.304   2.765
    1C        C  444   3.947   4.419   2.886
    1C        C  445   4.006   4.383   3.009
    1C        C  446   3.819   4.484   3.131
    1C        C  447   3.944   4.419   3.131
    1C        C  448   3.752   4.506   3.253
    1C        C  449   3.816   4.480   3.376
    1C        C  450   3.612   4.538   3.497
    1C        C  451   3.750   4.508   3.498
    1C        C  452   3.544   4.544   3.621
    1C        C  453   3.612   4.541   3.744
    1C        C  454   3.400   4.545   3.864
    1C        C  455   3.542   4.548   3.867
    1C        C  456   3.333   4.533   3.987
    1C        C  457   3.401   4.539   4.111
    1C        C  458   3.198   4.500   4.234
    1C        C  459   3.336   4.533   4.236
    1C        C  460   3.133   4.479   4.358
    1C        C  461   3.198   4.510   4.479
    1C        C  462   3.000   4.435   4.602
    1C        C  463   3.131   4.488   4.602
    1C        C  464   2.931   4.406   4.722
    1C        C  465   2.993   4.443   4.844
    1C        C  466   2.809   4.332   4.961
    1C        C  467   2.909   4.430   4.960
    1C        C  468   4.125   4.283   2.040
    1C        C  469   4.188   4.248   2.160
    1C        C  470   4.006   4.369   2.279
    1C        C  471   4.127   4.294   2.280
    1C        C  472   3.944   4.407   2.400
    1C        C  473   4.009   4.377   2.521
    1C        C  474   3.816   4.473   2.646
    1C        C  475   3.944   4.413   2.641
    1C        C  476   3.748   4.499   2.767
    1C        C  477   3.816   4.474   2.888
    1C        C  478   3.611   4.532   3.009
    1C        C  479   3.750   4.503   3.009
    1C        C  480   3.540   4.540   3.131
    1C        C  481   3.612   4.524   3.252
    1C        C  482   3.401   4.536   3.377
    1C        C  483   3.542   4.540   3.374
    1C        C  484   3.330   4.534   3.499
    1C        C  485   3.402   4.548   3.620
    1C        C  486   3.194   4.502   3.746
    1C        C  487   3.330   4.539   3.741
    1C        C  488   3.128   4.477   3.868
    1C        C  489   3.195   4.503   3.990
    1C        C  490   3.006   4.410   4.115
    1C        C  491   3.128   4.480   4.113
    1C        C  492   2.947   4.376   4.239
    1C        C  493   3.007   4.416   4.361
    1C        C  494   2.829   4.301   4.484
    1C        C  495   2.942   4.386   4.483
    1C        C  496   2.773   4.259   4.606
    1C        C  497   2.819   4.318   4.725
    1C        C  498   2.670   4.165   4.846
    1C        C  499   2.754   4.278   4.844
    1C        C  500   2.595   4.120   4.956
    1C        C  501   4.006   4.354   2.042
    1C        C  502   3.817   4.466   2.157
    1C        C  503   3.944   4.404   2.157
    1C        C  504   3.747   4.484   2.278
    1C        C  505   3.815   4.465   2.400
    1C        C  506   3.609   4.508   2.522
    1C        C  507   3.749   4.490   2.523
    1C        C  508   3.535   4.521   2.642
    1C        C  509   3.608   4.520   2.763
    1C        C  510   3.399   4.531   2.890
    1C        C  511   3.541   4.531   2.887
    1C        C  512   3.327   4.524   3.011
    1C        C  513   3.399   4.538   3.132
    1C        C  514   3.193   4.494   3.256
    1C        C  515   3.331   4.526   3.254
    1C        C  516   3.128   4.473   3.379
    1C        C  517   3.194   4.499   3.501
    1C        C  518   3.002   4.411   3.626
    1C        C  519   3.127   4.477   3.624
    1C        C  520   2.944   4.370   3.748
    1C        C  521   3.004   4.409   3.869
    1C        C  522   2.841   4.277   3.995
    1C        C  523   2.949   4.368   3.993
    1C        C  524   2.794   4.231   4.120
    1C        C  525   2.838   4.287   4.242
    1C        C  526   2.690   4.134   4.365
    1C        C  527   2.784   4.240   4.364
    1C        C  528   2.649   4.080   4.488
    1C        C  529   2.696   4.140   4.607
    1C        C  530   2.581   3.963   4.731
    1C        C  531   2.644   4.091   4.729
    1C        C  532   2.536   3.906   4.854
    1C        C  533   2.530   3.996   4.965
    1C        C  534   3.618   4.559   2.045
    1C        C  535   3.749   4.511   2.042
    1C        C  536   3.535   4.537   2.160
    1C        C  537   3.608   4.513   2.280
    1C        C  538   3.395   4.521   2.404
    1C        C  539   3.536   4.519   2.402
    1C        C  540   3.322   4.508   2.524
    1C        C  541   3.394   4.515   2.646
    1C        C  542   3.190   4.485   2.767
    1C        C  543   3.326   4.523   2.769
    1C        C  544   3.126   4.462   2.890
    1C        C  545   3.190   4.489   3.013
    1C        C  546   2.999   4.401   3.138
    1C        C  547   3.123   4.469   3.136
    1C        C  548   2.941   4.362   3.261
    1C        C  549   3.003   4.405   3.380
    1C        C  550   2.839   4.276   3.508
    1C        C  551   2.945   4.368   3.504
    1C        C  552   2.785   4.229   3.630
    1C        C  553   2.834   4.281   3.752
    1C        C  554   2.694   4.123   3.879
    1C        C  555   2.782   4.233   3.875
    1C        C  556   2.660   4.062   4.002
    1C        C  557   2.702   4.123   4.122
    1C        C  558   2.589   3.945   4.245
    1C        C  559   2.658   4.068   4.244
    1C        C  560   2.567   3.883   4.370
    1C        C  561   2.591   3.951   4.491
    1C        C  562   2.526   3.751   4.616
    1C        C  563   2.560   3.888   4.614
    1C        C  564   2.516   3.681   4.739
    1C        C  565   2.525   3.763   4.854
    1C        C  566   2.531   3.552   4.975
    1C        C  567   2.525   3.691   4.974
    1C        C  568   3.328   4.478   2.046
    1C        C  569   3.395   4.517   2.162
    1C        C  570   3.184   4.478   2.282
    1C        C  571   3.320   4.517   2.284
    1C        C  572   3.116   4.455   2.404
    1C        C  573   3.184   4.479   2.526
    1C        C  574   2.989   4.401   2.650
    1C        C  575   3.116   4.462   2.648
    1C        C  576   2.933   4.360   2.773
    1C        C  577   3.000   4.397   2.892
    1C        C  578   2.830   4.274   3.020
    1C        C  579   2.941   4.361   3.015
    1C        C  580   2.777   4.224   3.141
    1C        C  581   2.831   4.273   3.262
    1C        C  582   2.698   4.114   3.387
    1C        C  583   2.787   4.224   3.387
    1C        C  584   2.659   4.059   3.511
    1C        C  585   2.696   4.120   3.634
    1C        C  586   2.589   3.939   3.757
    1C        C  587   2.654   4.064   3.757
    1C        C  588   2.561   3.874   3.879
    1C        C  589   2.594   3.937   4.001
    1C        C  590   2.530   3.738   4.127
    1C        C  591   2.566   3.874   4.124
    1C        C  592   2.526   3.674   4.253
    1C        C  593   2.535   3.746   4.375
    1C        C  594   2.518   3.536   4.497
    1C        C  595   2.517   3.677   4.497
    1C        C  596   2.516   3.466   4.620
    1C        C  597   2.512   3.539   4.740
    1C        C  598   2.533   3.328   4.864
    1C        C  599   2.523   3.469   4.863
    1C        C  600   2.534   3.248   4.979
    1C        C  601   3.194   4.443   2.045
    1C        C  602   2.981   4.401   2.162
    1C        C  603   3.115   4.450   2.160
    1C        C  604   2.923   4.364   2.286
    1C        C  605   2.985   4.402   2.407
    1C        C  606   2.819   4.271   2.530
    1C        C  607   2.927   4.362   2.529
    1C        C  608   2.773   4.220   2.654
    1C        C  609   2.823   4.272   2.776
    1C        C  610   2.689   4.112   2.897
    1C        C  611   2.775   4.224   2.900
    1C        C  612   2.651   4.053   3.020
    1C        C  613   2.693   4.110   3.142
    1C        C  614   2.591   3.929   3.267
    1C        C  615   2.653   4.055   3.266
    1C        C  616   2.565   3.867   3.392
    1C        C  617   2.595   3.933   3.514
    1C        C  618   2.526   3.734   3.637
    1C        C  619   2.563   3.871   3.636
    1C        C  620   2.514   3.667   3.761
    1C        C  621   2.525   3.737   3.883
    1C        C  622   2.510   3.526   4.009
    1C        C  623   2.515   3.668   4.006
    1C        C  624   2.517   3.459   4.133
    1C        C  625   2.518   3.533   4.254
    1C        C  626   2.546   3.323   4.379
    1C        C  627   2.522   3.463   4.376
    1C        C  628   2.560   3.254   4.502
    1C        C  629   2.538   3.326   4.621
    1C        C  630   2.602   3.123   4.746
    1C        C  631   2.557   3.258   4.744
    1C        C  632   2.620   3.050   4.866
    1C        C  633   2.565   3.111   4.983
    1C        C  634   2.785   4.308   2.056
    1C        C  635   2.894   4.396   2.048
    1C        C  636   2.751   4.233   2.170
    1C        C  637   2.813   4.274   2.290
    1C        C  638   2.673   4.111   2.413
    1C        C  639   2.765   4.219   2.411
    1C        C  640   2.635   4.052   2.535
    1C        C  641   2.683   4.112   2.654
    1C        C  642   2.585   3.925   2.780
    1C        C  643   2.645   4.053   2.777
    1C        C  644   2.552   3.862   2.902
    1C        C  645   2.580   3.931   3.022
    1C        C  646   2.530   3.727   3.150
    1C        C  647   2.566   3.863   3.145
    1C        C  648   2.513   3.659   3.273
    1C        C  649   2.522   3.733   3.393
    1C        C  650   2.516   3.522   3.520
    1C        C  651   2.514   3.663   3.516
    1C        C  652   2.521   3.455   3.644
    1C        C  653   2.515   3.526   3.766
    1C        C  654   2.542   3.316   3.887
    1C        C  655   2.515   3.455   3.888
    1C        C  656   2.554   3.251   4.012
    1C        C  657   2.540   3.319   4.135
    1C        C  658   2.612   3.121   4.258
    1C        C  659   2.559   3.252   4.258
    1C        C  660   2.638   3.058   4.382
    1C        C  661   2.602   3.120   4.504
    1C        C  662   2.720   2.943   4.627
    1C        C  663   2.637   3.057   4.626
    1C        C  664   2.761   2.883   4.748
    1C        C  665   2.700   2.932   4.867
    1C        C  666   2.745   2.865   4.982
    1C        C  667   2.683   4.027   2.058
    1C        C  668   2.686   4.108   2.173
    1C        C  669   2.591   3.913   2.294
    1C        C  670   2.642   4.046   2.292
    1C        C  671   2.559   3.851   2.417
    1C        C  672   2.579   3.923   2.537
    1C        C  673   2.518   3.720   2.659
    1C        C  674   2.555   3.857   2.660
    1C        C  675   2.512   3.653   2.783
    1C        C  676   2.521   3.724   2.905
    1C        C  677   2.506   3.516   3.029
    1C        C  678   2.514   3.657   3.029
    1C        C  679   2.508   3.446   3.152
    1C        C  680   2.506   3.518   3.273
    1C        C  681   2.535   3.311   3.398
    1C        C  682   2.514   3.451   3.397
    1C        C  683   2.552   3.246   3.522
    1C        C  684   2.538   3.315   3.645
    1C        C  685   2.610   3.113   3.769
    1C        C  686   2.561   3.246   3.766
    1C        C  687   2.645   3.057   3.893
    1C        C  688   2.609   3.121   4.014
    1C        C  689   2.716   2.937   4.139
    1C        C  690   2.642   3.058   4.136
    1C        C  691   2.758   2.882   4.262
    1C        C  692   2.715   2.940   4.384
    1C        C  693   2.755   2.880   4.505
    1C        C  694   2.627   3.899   2.056
    1C        C  695   2.528   3.708   2.178
    1C        C  696   2.581   3.839   2.174
    1C        C  697   2.503   3.641   2.300
    1C        C  698   2.522   3.715   2.419
    1C        C  699   2.488   3.505   2.542
    1C        C  700   2.503   3.645   2.540
    1C        C  701   2.502   3.438   2.665
    1C        C  702   2.504   3.512   2.786
    1C        C  703   2.534   3.303   2.910
    1C        C  704   2.511   3.442   2.908
    1C        C  705   2.545   3.235   3.033
    1C        C  706   2.534   3.307   3.154
    1C        C  707   2.604   3.109   3.280
    1C        C  708   2.554   3.241   3.277
    1C        C  709   2.638   3.048   3.403
    1C        C  710   2.608   3.116   3.523
    1C        C  711   2.714   2.932   3.648
    1C        C  712   2.638   3.051   3.645
    1C        C  713   2.761   2.879   3.770
    1C        C  714   2.721   2.937   3.892
    1C        C  715   2.761   2.883   4.017
    1C        C  716   2.456   3.503   2.063
    1C        C  717   2.495   3.637   2.062
    1C        C  718   2.466   3.424   2.182
    1C        C  719   2.483   3.500   2.301
    1C        C  720   2.517   3.291   2.424
    1C        C  721   2.486   3.429   2.423
    1C        C  722   2.537   3.225   2.547
    1C        C  723   2.530   3.299   2.668
    1C        C  724   2.599   3.098   2.792
    1C        C  725   2.549   3.230   2.789
    1C        C  726   2.624   3.035   2.915
    1C        C  727   2.590   3.101   3.036
    1C        C  728   2.709   2.925   3.160
    1C        C  729   2.629   3.042   3.158
    1C        C  730   2.758   2.875   3.282
    1C        C  731   2.715   2.930   3.405
    1C        C  732   2.758   2.873   3.527
    1C        C  733   2.488   3.198   2.072
    1C        C  734   2.494   3.283   2.182
    1C        C  735   2.591   3.090   2.305
    1C        C  736   2.531   3.219   2.304
    1C        C  737   2.617   3.024   2.427
    1C        C  738   2.591   3.095   2.546
    1C        C  739   2.704   2.916   2.672
    1C        C  740   2.629   3.036   2.668
    1C        C  741   2.742   2.858   2.795
    1C        C  742   2.701   2.917   2.917
    1C        C  743   2.748   2.863   3.039
    1C        C  744   2.546   3.072   2.077
    1C        C  745   2.692   2.900   2.185
    1C        C  746   2.618   3.020   2.185
    1C        C  747   2.735   2.843   2.307
    1C        C  748   2.692   2.904   2.427
    1C        C  749   2.737   2.852   2.550
    1C        C  750   2.740   2.840   2.068
    1C        C  751   3.648   2.294   2.002
    1C        O  752   3.641   2.179   2.054
    1C        O  753   3.666   2.301   1.863
    1C        C  754   4.635   3.061   1.976
    1C        O  755   4.602   3.029   1.859
    1C        O  756   4.774   3.073   1.984
    1C        C  757   4.435   4.215   1.947
    1C        O  758   4.517   4.305   1.980
    1C        O  759   4.456   4.184   1.812
    1C        C  760   3.598   4.696   1.991
    1C        O  761   3.625   4.806   2.044
    1C        O  762   3.580   4.715   1.853
    1C        C  763   2.877   4.509   1.954
    1C        O  764   2.923   4.517   1.837
    1C        O  765   2.872   4.635   2.012
    1C        C  766   2.386   3.469   1.937
    1C        O  767   2.441   3.439   1.827
    1C        O  768   2.247   3.454   1.925
    1C        C  769   4.695   3.597   5.052
    1C        O  770   4.680   3.595   5.177
    1C        O  771   4.820   3.659   5.039
    1C        C  772   4.255   4.409   5.067
    1C        O  773   4.206   4.381   5.180
    1C        O  774   4.367   4.490   5.084
    1C        C  775   4.140   2.537   5.090
    1C        O  776   4.201   2.427   5.079
    1C        O  777   4.177   2.603   5.208
    1C        C  778   2.863   4.548   5.037
    1C        O  779   2.769   4.628   5.010
    1C        O  780   2.907   4.552   5.170
    1C        C  781   2.508   3.039   5.099
    1C        O  782   2.382   3.037   5.110
    1C        O  783   2.575   3.041   5.221
    1C        C  784   2.418   3.994   5.062
    1C        O  785   2.305   4.029   5.019
    1C        O  786   2.437   3.986   5.200
    1C        C  787   2.935   2.421   2.020
    1C        O  788   2.891   2.430   1.903
    1C        O  789   2.887   2.308   2.086
    1C        C  790   3.171   2.373   5.072
    1C        O  791   3.129   2.259   5.039
    1C        O  792   3.123   2.387   5.202
    1C        H  793   4.312   3.006   5.068
    1C        H  794   4.206   2.799   5.071
    1C        H  795   4.503   3.122   5.057
    1C        H  796   4.551   3.369   5.062
    1C        H  797   4.580   3.819   5.042
    1C        H  798   4.386   3.958   5.056
    1C        H  799   4.245   4.140   5.042
    1C        H  800   4.035   4.541   5.036
    1C        H  801   3.819   4.587   5.041
    1C        H  802   3.601   4.657   5.026
    1C        H  803   3.405   4.491   5.042
    1C        H  804   3.160   4.535   5.050
    1C        H  805   3.892   2.479   5.063
    1C        H  806   3.669   2.404   5.048
    1C        H  807   2.991   2.536   5.053
    1C        H  808   3.448   2.512   5.077
    1C        H  809   2.913   2.776   5.069
    1C        H  810   2.722   2.908   5.077
    1C        H  811   2.564   3.297   5.069
    1C        H  812   2.520   3.510   5.073
    1C        H  813   2.564   3.740   5.061
    1C        H  814   2.552   4.198   5.014
    1C        H  815   2.794   4.283   5.054
    1C        H  816   2.685   2.854   1.977
    1C        H  817   2.889   2.720   1.985
    1C        H  818   3.216   2.457   1.987
    1C        H  819   3.439   2.472   1.982
    1C        H  820   3.845   2.534   1.976
    1C        H  821   4.086   2.574   1.982
    1C        H  822   4.261   2.714   1.976
    1C        H  823   4.395   2.917   1.968
    1C        H  824   4.605   3.308   1.977
    1C        H  825   4.467   3.509   1.970
    1C        H  826   4.457   3.742   1.963
    1C        H  827   3.811   4.553   1.966
    1C        H  828   3.963   4.377   1.946
    1C        H  829   4.192   4.319   1.965
    1C        H  830   4.448   3.950   1.960
    1C        H  831   2.565   3.882   1.970
    1C        H  832   2.736   4.055   1.969
    1C        H  833   2.726   4.287   1.970
    1C        H  834   3.369   4.487   1.948
    1C        H  835   3.163   4.375   1.968
    1C        H  836   2.562   3.026   1.981
    1C        H  837   2.404   3.207   2.005
    1C        H  838   2.539   3.666   1.969
    2V3OU   H29  839   2.794   3.551   6.403
    2V3OU   C27  840   2.778   3.505   6.505
    2V3OU   H27  841   2.724   3.575   6.573
    2V3OU   H28  842   2.724   3.408   6.493
    2V3OU   O11  843   2.910   3.479   6.555
    2V3OU   C15  844   2.916   3.400   6.668
    2V3OU   C13  845   3.052   3.375   6.697
    2V3OU   C14  846   3.078   3.267   6.782
    2V3OU   C16  847   2.975   3.185   6.827
    2V3OU    H6  848   3.000   3.104   6.897
    2V3OU   C12  849   3.217   3.233   6.821
    2V3OU    O2  850   3.237   3.132   6.892
    2V3OU   C10  851   3.324   3.311   6.758
    2V3OU    C8  852   3.459   3.278   6.772
    2V3OU   O10  853   3.492   3.159   6.829
    2V3OU   H26  854   3.410   3.123   6.866
    2V3OU    C6  855   3.571   3.349   6.718
    2V3OU    C5  856   3.541   3.464   6.646
    2V3OU    C4  857   3.709   3.293   6.722
    2V3OU    H4  858   3.727   3.228   6.812
    2V3OU    H5  859   3.716   3.227   6.630
    2V3OU    C2  860   3.817   3.401   6.714
    2V3OU    O6  861   3.820   3.486   6.829
    2V3OU   H21  862   3.762   3.559   6.803
    2V3OU    C3  863   3.785   3.497   6.600
    2V3OU    H2  864   3.866   3.575   6.597
    2V3OU    H3  865   3.787   3.441   6.503
    2V3OU   C25  866   3.950   3.328   6.697
    2V3OU    O7  867   3.998   3.298   6.588
    2V3OU   C26  868   4.035   3.290   6.818
    2V3OU   H22  869   4.065   3.389   6.862
    2V3OU   H23  870   4.126   3.234   6.786
    2V3OU    O8  871   3.972   3.207   6.913
    2V3OU   H24  872   3.928   3.269   6.974
    2V3OU    C1  873   3.649   3.563   6.615
    2V3OU    H1  874   3.626   3.618   6.519
    2V3OU    O3  875   3.660   3.657   6.723
    2V3OU   C19  876   3.616   3.793   6.708
    2V3OU    H9  877   3.520   3.801   6.650
    2V3OU    O4  878   3.714   3.851   6.625
    2V3OU   C20  879   3.842   3.874   6.684
    2V3OU   H10  880   3.896   3.776   6.703
    2V3OU   C24  881   3.611   3.861   6.845
    2V3OU   H16  882   3.540   3.802   6.908
    2V3OU   H17  883   3.561   3.960   6.825
    2V3OU   C23  884   3.748   3.877   6.912
    2V3OU   H15  885   3.790   3.772   6.928
    2V3OU    N1  886   3.741   3.950   0.011
    2V3OU   H19  887   3.817   3.920   0.070
    2V3OU   H20  888   3.649   3.933   0.045
    2V3OU   C21  889   3.850   3.948   6.817
    2V3OU   H11  890   3.954   3.933   6.857
    2V3OU    O5  891   3.822   4.088   6.822
    2V3OU   H18  892   3.783   4.098   6.910
    2V3OU   C22  893   3.913   3.950   6.573
    2V3OU   H12  894   3.861   4.048   6.555
    2V3OU   H13  895   3.906   3.895   6.476
    2V3OU   H14  896   4.021   3.960   6.600
    2V3OU   C11  897   3.159   3.471   6.668
    2V3OU    O1  898   3.135   3.583   6.617
    2V3OU    C9  899   3.300   3.428   6.681
    2V3OU    C7  900   3.404   3.500   6.624
    2V3OU    O9  901   3.389   3.614   6.548
    2V3OU   H25  902   3.292   3.623   6.546
    2V3OU   C17  903   2.815   3.317   6.721
    2V3OU    H7  904   2.710   3.341   6.702
    2V3OU   C18  905   2.840   3.208   6.804
    2V3OU    H8  906   2.760   3.139   6.835
    3SOL     OW  907   2.828   3.814   5.160
    3SOL    HW1  908   2.866   3.724   5.139
    3SOL    HW2  909   2.750   3.803   5.223
    4SOL     OW  910   1.417   0.124   0.707
    4SOL    HW1  911   1.429   0.220   0.683
    4SOL    HW2  912   1.463   0.066   0.640
    5SOL     OW  913   4.130   1.948   0.783
    5SOL    HW1  914   4.155   1.918   0.690
    5SOL    HW2  915   4.209   1.992   0.825
    6SOL     OW  916   3.361   1.868   1.814
    6SOL    HW1  917   3.296   1.928   1.860
    6SOL    HW2  918   3.454   1.903   1.826
    7SOL     OW  919   1.964   2.846   4.554
    7SOL    HW1  920   1.966   2.872   4.651
    7SOL    HW2  921   2.051   2.802   4.530
    8SOL     OW  922   1.564   2.004   6.363
    8SOL    HW1  923   1.615   2.002   6.277
    8SOL    HW2  924   1.496   2.078   6.360
    9SOL     OW  925   2.416   2.419   5.642
    9SOL    HW1  926   2.369   2.369   5.715
    9SOL    HW2  927   2.351   2.439   5.569
   10SOL     OW  928   5.455   4.894   0.817
   10SOL    HW1  929   5.533   4.889   0.879
   10SOL    HW2  930   5.372   4.866   0.865
   11SOL     OW  931   2.916   1.288   0.532
   11SOL    HW1  932   2.968   1.349   0.592
   11SOL    HW2  933   2.971   1.207   0.511
   12SOL     OW  934   5.622   5.172   1.063
   12SOL    HW1  935   5.643   5.167   1.161
   12SOL    HW2  936   5.523   5.166   1.049
   13SOL     OW  937   4.253   5.431   1.675
   13SOL    HW1  938   4.287   5.341   1.647
   13SOL    HW2  939   4.264   5.440   1.774
   14SOL     OW  940   4.219   6.027   0.818
   14SOL    HW1  941   4.192   5.936   0.785
   14SOL    HW2  942   4.244   6.021   0.915
   15SOL     OW  943   0.543   0.332   6.546
   15SOL    HW1  944   0.450   0.354   6.577
   15SOL    HW2  945   0.601   0.314   6.624
   16SOL     OW  946   1.882   4.891   5.686
   16SOL    HW1  947   1.795   4.926   5.650
   16SOL    HW2  948   1.937   4.967   5.720
   17SOL     OW  949   0.122   2.005   4.034
   17SOL    HW1  950   0.071   2.024   3.951
   17SOL    HW2  951   0.063   2.020   4.114
   18SOL     OW  952   2.643   0.281   5.534
   18SOL    HW1  953   2.618   0.186   5.554
   18SOL    HW2  954   2.574   0.323   5.476
   19SOL     OW  955   4.504   6.016   3.000
   19SOL    HW1  956   4.447   6.034   3.079
   19SOL    HW2  957   4.524   5.918   2.995
   20SOL     OW  958   0.150   1.600   4.674
   20SOL    HW1  959   0.214   1.677   4.675
   20SOL    HW2  960   0.057   1.635   4.657
   21SOL     OW  961   2.111   3.170   1.731
   21SOL    HW1  962   2.057   3.139   1.652
   21SOL    HW2  963   2.059   3.156   1.815
   22SOL     OW  964   0.590   0.542   0.819
   22SOL    HW1  965   0.605   0.450   0.783
   22SOL    HW2  966   0.627   0.609   0.755
   23SOL     OW  967   0.712   5.605   0.409
   23SOL    HW1  968   0.627   5.609   0.357
   23SOL    HW2  969   0.696   5.557   0.496
   24SOL     OW  970   4.605   0.640   6.999
   24SOL    HW1  971   4.539   0.704   6.958
   24SOL    HW2  972   4.691   0.645   6.948
   25SOL     OW  973   1.488   0.765   5.486
   25SOL    HW1  974   1.506   0.666   5.489
   25SOL    HW2  975   1.425   0.785   5.412
   26SOL     OW  976   2.357   6.893   5.411
   26SOL    HW1  977   2.317   6.812   5.455
   26SOL    HW2  978   2.286   6.946   5.367
   27SOL     OW  979   6.801   0.194   2.415
   27SOL    HW1  980   6.896   0.221   2.400
   27SOL    HW2  981   6.741   0.272   2.400
   28SOL     OW  982   2.359   0.798   5.147
   28SOL    HW1  983   2.424   0.824   5.218
   28SOL    HW2  984   2.317   0.880   5.108
   29SOL     OW  985   5.707   0.692   1.360
   29SOL    HW1  986   5.612   0.665   1.352
   29SOL    HW2  987   5.761   0.646   1.290
   30SOL     OW  988   5.074   6.583   4.535
   30SOL    HW1  989   5.093   6.562   4.631
   30SOL    HW2  990   5.033   6.675   4.529
   31SOL     OW  991   6.283   4.133   4.139
   31SOL    HW1  992   6.288   4.177   4.228
   31SOL    HW2  993   6.330   4.045   4.142
   32SOL     OW  994   3.155   1.308   1.659
   32SOL    HW1  995   3.155   1.403   1.627
   32SOL    HW2  996   3.111   1.250   1.590
   33SOL     OW  997   1.918   4.294   5.167
   33SOL    HW1  998   1.970   4.209   5.157
   33SOL    HW2  999   1.831   4.275   5.212
   34SOL     OW 1000   2.847   6.988   5.298
   34SOL    HW1 1001   2.761   6.952   5.333
   34SOL    HW2 1002   2.846   0.062   5.304
   35SOL     OW 1003   1.418   3.288   5.035
   35SOL    HW1 1004   1.507   3.295   5.081
   35SOL    HW2 1005   1.355   3.234   5.092
   36SOL     OW 1006   5.245   1.186   3.996
   36SOL    HW1 1007   5.292   1.263   3.954
   36SOL    HW2 1008   5.211   1.124   3.924
   37SOL     OW 1009   1.302   5.693   4.050
   37SOL    HW1 1010   1.284   5.641   4.133
   37SOL    HW2 1011   1.263   5.645   3.971
   38SOL     OW 1012   0.653   3.530   1.679
   38SOL    HW1 1013   0.724   3.484   1.626
   38SOL    HW2 1014   0.586   3.463   1.710
   39SOL     OW 1015   6.378   5.151   1.096
   39SOL    HW1 1016   6.359   5.124   1.191
   39SOL    HW2 1017   6.309   5.110   1.036
   40SOL     OW 1018   4.250   0.958   6.468
   40SOL    HW1 1019   4.213   0.981   6.378
   40SOL    HW2 1020   4.350   0.957   6.463
   41SOL     OW 1021   0.192   3.741   1.171
   41SOL    HW1 1022   0.198   3.644   1.148
   41SOL    HW2 1023   0.241   3.795   1.104
   42SOL     OW 1024   2.823   3.596   0.874
   42SOL    HW1 1025   2.756   3.551   0.933
   42SOL    HW2 1026   2.783   3.680   0.837
   43SOL     OW 1027   4.996   0.739   3.736
   43SOL    HW1 1028   4.920   0.694   3.689
   43SOL    HW2 1029   5.050   0.790   3.668
   44SOL     OW 1030   0.135   1.080   6.793
   44SOL    HW1 1031   0.117   0.994   6.841
   44SOL    HW2 1032   0.167   1.149   6.858
   45SOL     OW 1033   1.972   3.569   5.958
   45SOL    HW1 1034   2.069   3.565   5.981
   45SOL    HW2 1035   1.946   3.664   5.941
   46SOL     OW 1036   0.814   4.741   4.215
   46SOL    HW1 1037   0.796   4.643   4.204
   46SOL    HW2 1038   0.913   4.756   4.223
   47SOL     OW 1039   0.079   4.127   5.933
   47SOL    HW1 1040   0.082   4.032   5.903
   47SOL    HW2 1041   0.111   4.133   6.028
   48SOL     OW 1042   0.977   4.033   0.238
   48SOL    HW1 1043   0.889   4.026   0.286
   48SOL    HW2 1044   0.972   4.105   0.169
   49SOL     OW 1045   3.276   0.691   0.187
   49SOL    HW1 1046   3.375   0.690   0.202
   49SOL    HW2 1047   3.256   0.663   0.093
   50SOL     OW 1048   5.056   1.737   5.460
   50SOL    HW1 1049   5.020   1.656   5.505
   50SOL    HW2 1050   4.981   1.797   5.432
   51SOL     OW 1051   1.164   6.095   2.177
   51SOL    HW1 1052   1.117   6.041   2.247
   51SOL    HW2 1053   1.260   6.108   2.203
   52SOL     OW 1054   5.425   3.204   2.947
   52SOL    HW1 1055   5.392   3.210   2.853
   52SOL    HW2 1056   5.469   3.115   2.961
   53SOL     OW 1057   3.725   6.818   1.086
   53SOL    HW1 1058   3.764   6.749   1.025
   53SOL    HW2 1059   3.753   6.909   1.056
   54SOL     OW 1060   0.990   1.510   5.841
   54SOL    HW1 1061   1.067   1.537   5.898
   54SOL    HW2 1062   1.001   1.415   5.813
   55SOL     OW 1063   2.388   3.911   6.197
   55SOL    HW1 1064   2.325   3.886   6.271
   55SOL    HW2 1065   2.480   3.881   6.221
   56SOL     OW 1066   1.634   2.101   0.139
   56SOL    HW1 1067   1.658   2.074   0.045
   56SOL    HW2 1068   1.587   2.189   0.137
   57SOL     OW 1069   4.161   5.649   1.544
   57SOL    HW1 1070   4.193   5.575   1.604
   57SOL    HW2 1071   4.168   5.619   1.449
   58SOL     OW 1072   0.383   0.584   0.143
   58SOL    HW1 1073   0.349   0.574   0.236
   58SOL    HW2 1074   0.437   0.668   0.136
   59SOL     OW 1075   4.426   3.378   0.084
   59SOL    HW1 1076   4.431   3.281   0.060
   59SOL    HW2 1077   4.334   3.400   0.114
   60SOL     OW 1078   6.392   2.594   2.377
   60SOL    HW1 1079   6.363   2.637   2.462
   60SOL    HW2 1080   6.429   2.503   2.396
   61SOL     OW 1081   1.633   5.492   2.561
   61SOL    HW1 1082   1.703   5.476   2.631
   61SOL    HW2 1083   1.654   5.436   2.481
   62SOL     OW 1084   5.109   3.445   3.194
   62SOL    HW1 1085   5.162   3.377   3.143
   62SOL    HW2 1086   5.099   3.416   3.289
   63SOL     OW 1087   4.336   0.005   6.178
   63SOL    HW1 1088   4.301   6.940   6.156
   63SOL    HW2 1089   4.276   0.074   6.138
   64SOL     OW 1090   2.166   1.919   6.803
   64SOL    HW1 1091   2.218   1.862   6.866
   64SOL    HW2 1092   2.080   1.947   6.846
   65SOL     OW 1093   0.959   5.250   4.974
   65SOL    HW1 1094   0.930   5.163   4.934
   65SOL    HW2 1095   1.049   5.275   4.939
   66SOL     OW 1096   4.357   1.199   1.350
   66SOL    HW1 1097   4.382   1.258   1.273
   66SOL    HW2 1098   4.329   1.255   1.427
   67SOL     OW 1099   6.849   3.139   2.393
   67SOL    HW1 1100   6.780   3.162   2.461
   67SOL    HW2 1101   6.908   3.066   2.430
   68SOL     OW 1102   0.550   0.894   6.419
   68SOL    HW1 1103   0.591   0.934   6.337
   68SOL    HW2 1104   0.550   0.794   6.412
   69SOL     OW 1105   1.247   0.706   6.372
   69SOL    HW1 1106   1.164   0.732   6.323
   69SOL    HW2 1107   1.317   0.677   6.306
   70SOL     OW 1108   4.623   5.141   3.108
   70SOL    HW1 1109   4.688   5.072   3.074
   70SOL    HW2 1110   4.668   5.230   3.112
   71SOL     OW 1111   5.329   1.219   5.432
   71SOL    HW1 1112   5.327   1.317   5.451
   71SOL    HW2 1113   5.249   1.194   5.377
   72SOL     OW 1114   6.682   1.964   2.808
   72SOL    HW1 1115   6.684   1.963   2.708
   72SOL    HW2 1116   6.769   1.930   2.843
   73SOL     OW 1117   2.932   1.155   0.972
   73SOL    HW1 1118   2.878   1.204   1.041
   73SOL    HW2 1119   2.888   1.162   0.883
   74SOL     OW 1120   2.559   0.712   0.478
   74SOL    HW1 1121   2.510   0.786   0.431
   74SOL    HW2 1122   2.512   0.692   0.564
   75SOL     OW 1123   2.376   2.410   1.467
   75SOL    HW1 1124   2.326   2.373   1.389
   75SOL    HW2 1125   2.398   2.336   1.531
   76SOL     OW 1126   2.853   5.207   6.635
   76SOL    HW1 1127   2.835   5.276   6.565
   76SOL    HW2 1128   2.874   5.119   6.592
   77SOL     OW 1129   0.217   4.714   4.551
   77SOL    HW1 1130   0.121   4.744   4.554
   77SOL    HW2 1131   0.226   4.628   4.602
   78SOL     OW 1132   4.839   1.261   0.664
   78SOL    HW1 1133   4.828   1.214   0.752
   78SOL    HW2 1134   4.871   1.195   0.596
   79SOL     OW 1135   1.856   4.110   4.172
   79SOL    HW1 1136   1.835   4.064   4.259
   79SOL    HW2 1137   1.888   4.043   4.106
   80SOL     OW 1138   4.002   2.248   5.306
   80SOL    HW1 1139   3.920   2.305   5.306
   80SOL    HW2 1140   3.986   2.165   5.359
   81SOL     OW 1141   2.669   4.561   2.940
   81SOL    HW1 1142   2.581   4.515   2.926
   81SOL    HW2 1143   2.696   4.606   2.854
   82SOL     OW 1144   2.718   0.796   1.352
   82SOL    HW1 1145   2.741   0.842   1.267
   82SOL    HW2 1146   2.639   0.737   1.338
   83SOL     OW 1147   6.095   2.269   3.402
   83SOL    HW1 1148   6.079   2.354   3.452
   83SOL    HW2 1149   6.193   2.249   3.402
   84SOL     OW 1150   4.888   2.408   2.772
   84SOL    HW1 1151   4.822   2.337   2.748
   84SOL    HW2 1152   4.876   2.487   2.711
   85SOL     OW 1153   2.267   5.247   2.989
   85SOL    HW1 1154   2.173   5.243   2.957
   85SOL    HW2 1155   2.324   5.294   2.921
   86SOL     OW 1156   4.557   1.153   6.395
   86SOL    HW1 1157   4.556   1.130   6.298
   86SOL    HW2 1158   4.651   1.173   6.424
   87SOL     OW 1159   2.963   2.777   6.667
   87SOL    HW1 1160   2.998   2.727   6.588
   87SOL    HW2 1161   3.040   2.820   6.715
   88SOL     OW 1162   1.113   2.080   0.800
   88SOL    HW1 1163   1.141   2.156   0.859
   88SOL    HW2 1164   1.184   2.009   0.801
   89SOL     OW 1165   4.251   3.914   5.752
   89SOL    HW1 1166   4.192   3.962   5.817
   89SOL    HW2 1167   4.291   3.834   5.796
   90SOL     OW 1168   6.744   4.396   1.730
   90SOL    HW1 1169   6.732   4.409   1.829
   90SOL    HW2 1170   6.689   4.319   1.699
   91SOL     OW 1171   5.036   5.044   0.450
   91SOL    HW1 1172   5.108   4.983   0.417
   91SOL    HW2 1173   5.070   5.096   0.529
   92SOL     OW 1174   6.330   6.229   6.873
   92SOL    HW1 1175   6.316   6.327   6.888
   92SOL    HW2 1176   6.258   6.178   6.918
   93SOL     OW 1177   2.902   3.385   2.390
   93SOL    HW1 1178   2.809   3.416   2.367
   93SOL    HW2 1179   2.941   3.338   2.310
   94SOL     OW 1180   3.729   1.017   4.320
   94SOL    HW1 1181   3.828   1.011   4.325
   94SOL    HW2 1182   3.688   0.958   4.390
   95SOL     OW 1183   1.113   6.290   4.458
   95SOL    HW1 1184   1.165   6.343   4.391
   95SOL    HW2 1185   1.172   6.219   4.497
   96SOL     OW 1186   0.119   6.558   0.260
   96SOL    HW1 1187   0.212   6.588   0.279
   96SOL    HW2 1188   0.110   6.460   0.280
   97SOL     OW 1189   3.489   4.933   4.410
   97SOL    HW1 1190   3.439   4.940   4.497
   97SOL    HW2 1191   3.424   4.910   4.337
   98SOL     OW 1192   6.424   2.010   4.992
   98SOL    HW1 1193   6.479   2.093   5.003
   98SOL    HW2 1194   6.342   2.033   4.939
   99SOL     OW 1195   4.764   4.326   4.965
   99SOL    HW1 1196   4.690   4.328   5.033
   99SOL    HW2 1197   4.782   4.419   4.933
  100SOL     OW 1198   2.425   1.975   5.578
  100SOL    HW1 1199   2.334   2.009   5.558
  100SOL    HW2 1200   2.494   2.039   5.543
  101SOL     OW 1201   5.085   2.960   2.565
  101SOL    HW1 1202   5.111   3.015   2.486
  101SOL    HW2 1203   5.022   3.012   2.623
  102SOL     OW 1204   4.501   6.301   0.904
  102SOL    HW1 1205   4.465   6.332   0.992
  102SOL    HW2 1206   4.485   6.371   0.835
  103SOL     OW 1207   2.280   1.996   0.974
  103SOL    HW1 1208   2.334   2.056   1.032
  103SOL    HW2 1209   2.185   2.027   0.974
  104SOL     OW 1210   0.955   3.695   1.483
  104SOL    HW1 1211   0.915   3.604   1.468
  104SOL    HW2 1212   0.882   3.761   1.501
  105SOL     OW 1213   0.218   1.934   4.431
  105SOL    HW1 1214   0.260   2.025   4.434
  105SOL    HW2 1215   0.163   1.920   4.514
  106SOL     OW 1216   5.155   3.587   1.469
  106SOL    HW1 1217   5.205   3.671   1.447
  106SOL    HW2 1218   5.215   3.508   1.457
  107SOL     OW 1219   4.377   0.372   2.563
  107SOL    HW1 1220   4.342   0.369   2.657
  107SOL    HW2 1221   4.456   0.311   2.555
  108SOL     OW 1222   3.700   1.254   5.353
  108SOL    HW1 1223   3.705   1.184   5.424
  108SOL    HW2 1224   3.761   1.230   5.278
  109SOL     OW 1225   2.485   1.688   4.588
  109SOL    HW1 1226   2.416   1.710   4.519
  109SOL    HW2 1227   2.473   1.748   4.667
  110SOL     OW 1228   4.304   5.007   5.581
  110SOL    HW1 1229   4.295   5.097   5.622
  110SOL    HW2 1230   4.400   4.979   5.581
  111SOL     OW 1231   6.968   3.158   0.731
  111SOL    HW1 1232   6.933   3.127   0.643
  111SOL    HW2 1233   6.900   3.217   0.775
  112SOL     OW 1234   3.644   6.420   4.527
  112SOL    HW1 1235   3.707   6.498   4.521
  112SOL    HW2 1236   3.642   6.386   4.621
  113SOL     OW 1237   1.517   5.104   2.532
  113SOL    HW1 1238   1.513   5.081   2.630
  113SOL    HW2 1239   1.425   5.128   2.500
  114SOL     OW 1240   6.695   2.560   2.144
  114SOL    HW1 1241   6.698   2.561   2.243
  114SOL    HW2 1242   6.614   2.608   2.112
  115SOL     OW 1243   4.654   1.474   3.300
  115SOL    HW1 1244   4.622   1.449   3.209
  115SOL    HW2 1245   4.639   1.572   3.315
  116SOL     OW 1246   5.955   5.819   6.652
  116SOL    HW1 1247   5.969   5.854   6.559
  116SOL    HW2 1248   5.906   5.731   6.647
  117SOL     OW 1249   2.057   1.331   0.609
  117SOL    HW1 1250   1.971   1.375   0.632
  117SOL    HW2 1251   2.111   1.316   0.692
  118SOL     OW 1252   1.222   2.228   1.590
  118SOL    HW1 1253   1.297   2.162   1.590
  118SOL    HW2 1254   1.143   2.189   1.543
  119SOL     OW 1255   5.696   5.411   4.878
  119SOL    HW1 1256   5.670   5.495   4.831
  119SOL    HW2 1257   5.691   5.425   4.977
  120SOL     OW 1258   4.512   1.633   4.214
  120SOL    HW1 1259   4.437   1.600   4.271
  120SOL    HW2 1260   4.480   1.645   4.120
  121SOL     OW 1261   7.005   5.150   5.430
  121SOL    HW1 1262   0.001   5.228   5.487
  121SOL    HW2 1263   6.950   5.084   5.482
  122SOL     OW 1264   0.746   4.809   5.868
  122SOL    HW1 1265   0.816   4.750   5.910
  122SOL    HW2 1266   0.700   4.759   5.795
  123SOL     OW 1267   0.530   2.084   0.973
  123SOL    HW1 1268   0.622   2.075   1.012
  123SOL    HW2 1269   0.497   2.178   0.986
  124SOL     OW 1270   1.773   3.832   6.754
  124SOL    HW1 1271   1.685   3.879   6.759
  124SOL    HW2 1272   1.811   3.841   6.661
  125SOL     OW 1273   4.418   3.070   1.247
  125SOL    HW1 1274   4.463   2.996   1.197
  125SOL    HW2 1275   4.323   3.077   1.218
  126SOL     OW 1276   3.662   3.417   5.267
  126SOL    HW1 1277   3.747   3.377   5.232
  126SOL    HW2 1278   3.607   3.346   5.309
  127SOL     OW 1279   0.197   4.499   5.948
  127SOL    HW1 1280   0.248   4.431   6.001
  127SOL    HW2 1281   0.144   4.557   6.010
  128SOL     OW 1282   5.076   4.345   5.839
  128SOL    HW1 1283   4.994   4.370   5.787
  128SOL    HW2 1284   5.123   4.428   5.868
  129SOL     OW 1285   0.944   5.404   2.496
  129SOL    HW1 1286   0.876   5.470   2.527
  129SOL    HW2 1287   1.031   5.423   2.542
  130SOL     OW 1288   6.783   3.875   5.045
  130SOL    HW1 1289   6.868   3.881   5.098
  130SOL    HW2 1290   6.792   3.932   4.963
  131SOL     OW 1291   0.962   3.034   2.313
  131SOL    HW1 1292   0.945   3.132   2.321
  131SOL    HW2 1293   1.010   3.016   2.227
  132SOL     OW 1294   4.057   3.868   2.433
  132SOL    HW1 1295   4.080   3.799   2.501
  132SOL    HW2 1296   4.075   3.832   2.341
  133SOL     OW 1297   4.214   4.256   5.701
  133SOL    HW1 1298   4.139   4.260   5.635
  133SOL    HW2 1299   4.180   4.219   5.788
  134SOL     OW 1300   6.824   2.034   6.984
  134SOL    HW1 1301   6.821   1.938   6.959
  134SOL    HW2 1302   6.901   2.078   6.937
  135SOL     OW 1303   4.556   5.159   3.913
  135SOL    HW1 1304   4.495   5.150   3.992
  135SOL    HW2 1305   4.518   5.108   3.836
  136SOL     OW 1306   3.700   6.114   6.291
  136SOL    HW1 1307   3.770   6.177   6.324
  136SOL    HW2 1308   3.618   6.166   6.265
  137SOL     OW 1309   2.249   4.104   0.102
  137SOL    HW1 1310   2.171   4.126   0.043
  137SOL    HW2 1311   2.266   4.181   0.164
  138SOL     OW 1312   0.899   5.911   1.299
  138SOL    HW1 1313   0.815   5.959   1.325
  138SOL    HW2 1314   0.931   5.944   1.210
  139SOL     OW 1315   0.870   7.003   1.347
  139SOL    HW1 1316   0.912   6.980   1.260
  139SOL    HW2 1317   0.864   6.921   1.404
  140SOL     OW 1318   2.677   6.988   2.512
  140SOL    HW1 1319   2.704   6.947   2.599
  140SOL    HW2 1320   2.684   6.919   2.440
  141SOL     OW 1321   2.309   1.773   6.992
  141SOL    HW1 1322   2.330   1.680   6.964
  141SOL    HW2 1323   2.370   1.800   0.042
  142SOL     OW 1324   1.616   4.732   6.197
  142SOL    HW1 1325   1.637   4.733   6.100
  142SOL    HW2 1326   1.616   4.826   6.232
  143SOL     OW 1327   5.191   6.106   2.075
  143SOL    HW1 1328   5.252   6.133   2.001
  143SOL    HW2 1329   5.106   6.070   2.036
  144SOL     OW 1330   2.325   4.935   3.393
  144SOL    HW1 1331   2.334   4.892   3.482
  144SOL    HW2 1332   2.329   4.866   3.321
  145SOL     OW 1333   6.537   6.305   3.041
  145SOL    HW1 1334   6.616   6.274   2.989
  145SOL    HW2 1335   6.459   6.244   3.022
  146SOL     OW 1336   6.693   1.105   4.452
  146SOL    HW1 1337   6.741   1.018   4.470
  146SOL    HW2 1338   6.719   1.171   4.522
  147SOL     OW 1339   6.338   6.998   5.332
  147SOL    HW1 1340   6.435   6.989   5.312
  147SOL    HW2 1341   6.295   6.907   5.329
  148SOL     OW 1342   1.866   6.767   3.724
  148SOL    HW1 1343   1.908   6.678   3.707
  148SOL    HW2 1344   1.935   6.831   3.757
  149SOL     OW 1345   1.968   2.053   4.701
  149SOL    HW1 1346   2.061   2.044   4.738
  149SOL    HW2 1347   1.919   2.123   4.753
  150SOL     OW 1348   5.358   2.787   4.763
  150SOL    HW1 1349   5.300   2.743   4.694
  150SOL    HW2 1350   5.302   2.811   4.842
  151SOL     OW 1351   5.699   2.841   1.608
  151SOL    HW1 1352   5.694   2.763   1.671
  151SOL    HW2 1353   5.684   2.810   1.515
  152SOL     OW 1354   6.000   2.317   0.213
  152SOL    HW1 1355   5.999   2.386   0.141
  152SOL    HW2 1356   6.029   2.229   0.174
  153SOL     OW 1357   2.255   1.745   4.101
  153SOL    HW1 1358   2.321   1.733   4.027
  153SOL    HW2 1359   2.164   1.759   4.061
  154SOL     OW 1360   0.340   1.476   3.526
  154SOL    HW1 1361   0.284   1.398   3.556
  154SOL    HW2 1362   0.290   1.529   3.457
  155SOL     OW 1363   5.817   5.008   3.253
  155SOL    HW1 1364   5.851   4.941   3.318
  155SOL    HW2 1365   5.865   4.997   3.166
  156SOL     OW 1366   4.131   0.161   1.173
  156SOL    HW1 1367   4.198   0.086   1.173
  156SOL    HW2 1368   4.153   0.225   1.247
  157SOL     OW 1369   4.827   0.946   0.706
  157SOL    HW1 1370   4.866   0.859   0.737
  157SOL    HW2 1371   4.728   0.944   0.715
  158SOL     OW 1372   0.993   2.685   5.542
  158SOL    HW1 1373   0.935   2.746   5.596
  158SOL    HW2 1374   0.940   2.605   5.514
  159SOL     OW 1375   0.122   4.850   6.848
  159SOL    HW1 1376   0.047   4.912   6.825
  159SOL    HW2 1377   0.188   4.849   6.772
  160SOL     OW 1378   3.859   0.212   1.677
  160SOL    HW1 1379   3.767   0.231   1.641
  160SOL    HW2 1380   3.852   0.158   1.760
  161SOL     OW 1381   5.940   6.654   0.965
  161SOL    HW1 1382   6.007   6.723   0.937
  161SOL    HW2 1383   5.876   6.695   1.030
  162SOL     OW 1384   4.355   0.118   5.093
  162SOL    HW1 1385   4.376   0.022   5.114
  162SOL    HW2 1386   4.432   0.175   5.119
  163SOL     OW 1387   1.119   3.945   3.024
  163SOL    HW1 1388   1.042   3.883   3.007
  163SOL    HW2 1389   1.159   3.924   3.114
  164SOL     OW 1390   1.868   2.451   2.416
  164SOL    HW1 1391   1.951   2.504   2.430
  164SOL    HW2 1392   1.789   2.506   2.443
  165SOL     OW 1393   0.391   5.927   4.949
  165SOL    HW1 1394   0.369   5.938   5.046
  165SOL    HW2 1395   0.307   5.927   4.895
  166SOL     OW 1396   0.810   5.315   3.712
  166SOL    HW1 1397   0.882   5.254   3.679
  166SOL    HW2 1398   0.727   5.300   3.658
  167SOL     OW 1399   0.120   1.401   3.229
  167SOL    HW1 1400   0.122   1.489   3.182
  167SOL    HW2 1401   0.051   1.402   3.301
  168SOL     OW 1402   3.351   4.071   4.295
  168SOL    HW1 1403   3.314   4.018   4.372
  168SOL    HW2 1404   3.440   4.108   4.320
  169SOL     OW 1405   4.971   2.956   5.983
  169SOL    HW1 1406   4.966   2.856   5.987
  169SOL    HW2 1407   4.881   2.995   6.000
  170SOL     OW 1408   6.527   5.553   2.921
  170SOL    HW1 1409   6.546   5.529   3.016
  170SOL    HW2 1410   6.483   5.476   2.875
  171SOL     OW 1411   3.751   2.939   0.875
  171SOL    HW1 1412   3.767   2.909   0.969
  171SOL    HW2 1413   3.652   2.938   0.856
  172SOL     OW 1414   1.465   0.650   0.138
  172SOL    HW1 1415   1.515   0.575   0.095
  172SOL    HW2 1416   1.393   0.612   0.198
  173SOL     OW 1417   5.434   0.880   5.029
  173SOL    HW1 1418   5.411   0.934   4.947
  173SOL    HW2 1419   5.532   0.863   5.031
  174SOL     OW 1420   6.495   4.589   4.613
  174SOL    HW1 1421   6.468   4.548   4.526
  174SOL    HW2 1422   6.436   4.668   4.632
  175SOL     OW 1423   0.732   5.572   2.610
  175SOL    HW1 1424   0.740   5.635   2.687
  175SOL    HW2 1425   0.695   5.621   2.530
  176SOL     OW 1426   6.172   4.082   0.584
  176SOL    HW1 1427   6.240   4.066   0.656
  176SOL    HW2 1428   6.093   4.024   0.599
  177SOL     OW 1429   5.378   2.725   3.256
  177SOL    HW1 1430   5.316   2.799   3.231
  177SOL    HW2 1431   5.358   2.645   3.199
  178SOL     OW 1432   1.709   4.968   4.980
  178SOL    HW1 1433   1.801   4.972   5.017
  178SOL    HW2 1434   1.711   4.927   4.889
  179SOL     OW 1435   3.080   4.047   2.116
  179SOL    HW1 1436   3.179   4.038   2.125
  179SOL    HW2 1437   3.049   4.126   2.168
  180SOL     OW 1438   4.450   0.380   5.877
  180SOL    HW1 1439   4.361   0.347   5.847
  180SOL    HW2 1440   4.496   0.425   5.800
  181SOL     OW 1441   3.340   6.524   4.986
  181SOL    HW1 1442   3.262   6.582   4.963
  181SOL    HW2 1443   3.343   6.509   5.085
  182SOL     OW 1444   3.243   2.858   5.662
  182SOL    HW1 1445   3.306   2.823   5.731
  182SOL    HW2 1446   3.172   2.790   5.643
  183SOL     OW 1447   1.984   1.382   2.924
  183SOL    HW1 1448   1.989   1.352   3.019
  183SOL    HW2 1449   1.890   1.377   2.893
  184SOL     OW 1450   5.877   6.934   3.939
  184SOL    HW1 1451   5.958   6.982   3.906
  184SOL    HW2 1452   5.876   6.841   3.903
  185SOL     OW 1453   0.546   5.645   5.836
  185SOL    HW1 1454   0.458   5.680   5.868
  185SOL    HW2 1455   0.532   5.594   5.751
  186SOL     OW 1456   3.570   5.629   0.232
  186SOL    HW1 1457   3.475   5.605   0.254
  186SOL    HW2 1458   3.618   5.548   0.197
  187SOL     OW 1459   3.565   5.411   0.516
  187SOL    HW1 1460   3.616   5.487   0.475
  187SOL    HW2 1461   3.582   5.409   0.614
  188SOL     OW 1462   1.296   4.080   4.051
  188SOL    HW1 1463   1.368   4.011   4.062
  188SOL    HW2 1464   1.336   4.171   4.049
  189SOL     OW 1465   6.304   3.976   5.734
  189SOL    HW1 1466   6.293   3.951   5.830
  189SOL    HW2 1467   6.289   3.895   5.677
  190SOL     OW 1468   5.829   6.253   6.909
  190SOL    HW1 1469   5.735   6.285   6.896
  190SOL    HW2 1470   5.832   6.154   6.893
  191SOL     OW 1471   2.263   3.595   6.027
  191SOL    HW1 1472   2.246   3.650   6.108
  191SOL    HW2 1473   2.311   3.650   5.958
  192SOL     OW 1474   1.063   0.062   0.757
  192SOL    HW1 1475   1.094   0.130   0.824
  192SOL    HW2 1476   1.142   0.022   0.711
  193SOL     OW 1477   2.893   6.532   1.740
  193SOL    HW1 1478   2.954   6.565   1.668
  193SOL    HW2 1479   2.920   6.572   1.828
  194SOL     OW 1480   4.283   6.365   3.587
  194SOL    HW1 1481   4.345   6.404   3.519
  194SOL    HW2 1482   4.280   6.423   3.667
  195SOL     OW 1483   3.138   1.190   1.179
  195SOL    HW1 1484   3.072   1.171   1.252
  195SOL    HW2 1485   3.205   1.116   1.175
  196SOL     OW 1486   4.092   2.953   1.419
  196SOL    HW1 1487   4.090   3.016   1.341
  196SOL    HW2 1488   4.075   3.004   1.503
  197SOL     OW 1489   0.697   6.485   1.201
  197SOL    HW1 1490   0.780   6.430   1.210
  197SOL    HW2 1491   0.641   6.451   1.126
  198SOL     OW 1492   6.213   0.250   5.776
  198SOL    HW1 1493   6.271   0.226   5.698
  198SOL    HW2 1494   6.193   0.167   5.829
  199SOL     OW 1495   1.422   1.278   3.296
  199SOL    HW1 1496   1.471   1.216   3.357
  199SOL    HW2 1497   1.488   1.337   3.249
  200SOL     OW 1498   1.709   3.445   3.341
  200SOL    HW1 1499   1.625   3.420   3.293
  200SOL    HW2 1500   1.727   3.380   3.415
  201SOL     OW 1501   4.934   1.124   6.776
  201SOL    HW1 1502   5.006   1.072   6.822
  201SOL    HW2 1503   4.929   1.216   6.815
  202SOL     OW 1504   4.329   0.676   3.122
  202SOL    HW1 1505   4.243   0.638   3.089
  202SOL    HW2 1506   4.397   0.603   3.131
  203SOL     OW 1507   5.532   3.210   0.651
  203SOL    HW1 1508   5.580   3.124   0.632
  203SOL    HW2 1509   5.467   3.229   0.578
  204SOL     OW 1510   2.377   5.877   0.690
  204SOL    HW1 1511   2.299   5.890   0.752
  204SOL    HW2 1512   2.456   5.843   0.741
  205SOL     OW 1513   5.384   0.396   1.175
  205SOL    HW1 1514   5.386   0.361   1.081
  205SOL    HW2 1515   5.441   0.338   1.234
  206SOL     OW 1516   0.259   5.663   1.576
  206SOL    HW1 1517   0.304   5.668   1.487
  206SOL    HW2 1518   0.215   5.574   1.586
  207SOL     OW 1519   6.841   2.253   5.914
  207SOL    HW1 1520   6.791   2.174   5.947
  207SOL    HW2 1521   6.849   2.249   5.815
  208SOL     OW 1522   4.823   3.472   0.947
  208SOL    HW1 1523   4.747   3.482   1.011
  208SOL    HW2 1524   4.909   3.472   0.997
  209SOL     OW 1525   6.079   0.490   4.257
  209SOL    HW1 1526   5.998   0.459   4.208
  209SOL    HW2 1527   6.124   0.411   4.299
  210SOL     OW 1528   4.690   2.062   6.786
  210SOL    HW1 1529   4.599   2.099   6.804
  210SOL    HW2 1530   4.745   2.066   6.869
  211SOL     OW 1531   0.396   4.130   2.225
  211SOL    HW1 1532   0.332   4.100   2.295
  211SOL    HW2 1533   0.488   4.097   2.246
  212SOL     OW 1534   1.399   5.464   4.799
  212SOL    HW1 1535   1.495   5.493   4.806
  212SOL    HW2 1536   1.396   5.366   4.779
  213SOL     OW 1537   4.587   2.437   1.411
  213SOL    HW1 1538   4.676   2.478   1.432
  213SOL    HW2 1539   4.560   2.377   1.487
  214SOL     OW 1540   0.435   5.502   4.003
  214SOL    HW1 1541   0.364   5.441   4.039
  214SOL    HW2 1542   0.445   5.487   3.905
  215SOL     OW 1543   4.063   3.779   3.879
  215SOL    HW1 1544   4.050   3.692   3.832
  215SOL    HW2 1545   4.108   3.764   3.967
  216SOL     OW 1546   3.634   6.559   5.079
  216SOL    HW1 1547   3.654   6.638   5.021
  216SOL    HW2 1548   3.588   6.488   5.026
  217SOL     OW 1549   6.143   1.937   4.827
  217SOL    HW1 1550   6.171   1.925   4.732
  217SOL    HW2 1551   6.066   2.001   4.830
  218SOL     OW 1552   2.950   4.141   5.841
  218SOL    HW1 1553   2.979   4.228   5.882
  218SOL    HW2 1554   2.993   4.130   5.752
  219SOL     OW 1555   3.299   6.141   6.356
  219SOL    HW1 1556   3.211   6.114   6.393
  219SOL    HW2 1557   3.368   6.142   6.429
  220SOL     OW 1558   1.173   5.217   0.437
  220SOL    HW1 1559   1.208   5.124   0.447
  220SOL    HW2 1560   1.196   5.252   0.347
  221SOL     OW 1561   6.303   3.967   4.789
  221SOL    HW1 1562   6.233   4.035   4.765
  221SOL    HW2 1563   6.282   3.881   4.743
  222SOL     OW 1564   1.863   0.261   4.328
  222SOL    HW1 1565   1.776   0.220   4.303
  222SOL    HW2 1566   1.864   0.280   4.427
  223SOL     OW 1567   5.641   5.495   2.131
  223SOL    HW1 1568   5.673   5.420   2.074
  223SOL    HW2 1569   5.541   5.497   2.130
  224SOL     OW 1570   5.065   4.457   2.901
  224SOL    HW1 1571   5.112   4.374   2.932
  224SOL    HW2 1572   4.995   4.482   2.968
  225SOL     OW 1573   4.433   5.981   2.113
  225SOL    HW1 1574   4.416   5.938   2.202
  225SOL    HW2 1575   4.377   6.064   2.105
  226SOL     OW 1576   1.531   5.859   2.294
  226SOL    HW1 1577   1.603   5.926   2.276
  226SOL    HW2 1578   1.549   5.775   2.243
  227SOL     OW 1579   0.711   3.945   2.962
  227SOL    HW1 1580   0.622   3.955   3.007
  227SOL    HW2 1581   0.731   4.027   2.908
  228SOL     OW 1582   3.982   6.005   3.408
  228SOL    HW1 1583   4.012   6.086   3.459
  228SOL    HW2 1584   3.903   5.964   3.455
  229SOL     OW 1585   5.731   6.165   2.630
  229SOL    HW1 1586   5.791   6.100   2.584
  229SOL    HW2 1587   5.641   6.123   2.642
  230SOL     OW 1588   1.359   4.704   5.583
  230SOL    HW1 1589   1.298   4.778   5.557
  230SOL    HW2 1590   1.308   4.636   5.636
  231SOL     OW 1591   0.076   1.719   6.568
  231SOL    HW1 1592   0.004   1.717   6.498
  231SOL    HW2 1593   0.161   1.686   6.528
  232SOL     OW 1594   1.817   3.009   6.658
  232SOL    HW1 1595   1.916   3.020   6.655
  232SOL    HW2 1596   1.786   3.013   6.753
  233SOL     OW 1597   3.643   6.825   0.372
  233SOL    HW1 1598   3.548   6.846   0.349
  233SOL    HW2 1599   3.659   6.727   0.361
  234SOL     OW 1600   1.585   5.032   0.321
  234SOL    HW1 1601   1.684   5.035   0.335
  234SOL    HW2 1602   1.554   4.937   0.325
  235SOL     OW 1603   3.906   3.195   5.685
  235SOL    HW1 1604   3.914   3.101   5.651
  235SOL    HW2 1605   3.949   3.202   5.775
  236SOL     OW 1606   0.007   0.407   6.727
  236SOL    HW1 1607   6.973   0.453   6.794
  236SOL    HW2 1608   0.010   0.309   6.748
  237SOL     OW 1609   6.096   6.957   2.107
  237SOL    HW1 1610   6.152   7.003   2.177
  237SOL    HW2 1611   6.001   6.984   2.118
  238SOL     OW 1612   0.806   1.975   3.338
  238SOL    HW1 1613   0.772   1.906   3.401
  238SOL    HW2 1614   0.738   1.991   3.267
  239SOL     OW 1615   6.782   4.792   6.709
  239SOL    HW1 1616   6.726   4.716   6.743
  239SOL    HW2 1617   6.812   4.771   6.616
  240SOL     OW 1618   0.307   2.708   4.015
  240SOL    HW1 1619   0.338   2.662   3.931
  240SOL    HW2 1620   0.291   2.640   4.086
  241SOL     OW 1621   6.273   2.639   4.404
  241SOL    HW1 1622   6.314   2.723   4.370
  241SOL    HW2 1623   6.301   2.624   4.499
  242SOL     OW 1624   2.883   2.270   3.382
  242SOL    HW1 1625   2.969   2.220   3.367
  242SOL    HW2 1626   2.871   2.288   3.479
  243SOL     OW 1627   4.796   1.307   6.565
  243SOL    HW1 1628   4.791   1.239   6.639
  243SOL    HW2 1629   4.712   1.361   6.564
  244SOL     OW 1630   1.216   0.769   5.678
  244SOL    HW1 1631   1.264   0.795   5.761
  244SOL    HW2 1632   1.282   0.746   5.606
  245SOL     OW 1633   4.707   1.920   4.501
  245SOL    HW1 1634   4.743   1.866   4.425
  245SOL    HW2 1635   4.752   1.891   4.586
  246SOL     OW 1636   6.029   3.674   4.743
  246SOL    HW1 1637   6.003   3.761   4.785
  246SOL    HW2 1638   5.952   3.610   4.747
  247SOL     OW 1639   2.154   0.430   3.127
  247SOL    HW1 1640   2.093   0.394   3.198
  247SOL    HW2 1641   2.172   0.359   3.059
  248SOL     OW 1642   6.819   2.725   3.400
  248SOL    HW1 1643   6.763   2.704   3.320
  248SOL    HW2 1644   6.781   2.804   3.448
  249SOL     OW 1645   2.176   6.017   5.011
  249SOL    HW1 1646   2.199   6.108   5.046
  249SOL    HW2 1647   2.099   6.025   4.948
  250SOL     OW 1648   5.432   3.109   6.731
  250SOL    HW1 1649   5.397   3.025   6.773
  250SOL    HW2 1650   5.358   3.174   6.720
  251SOL     OW 1651   2.678   0.273   1.878
  251SOL    HW1 1652   2.614   0.199   1.860
  251SOL    HW2 1653   2.737   0.249   1.956
  252SOL     OW 1654   6.982   2.692   6.839
  252SOL    HW1 1655   6.951   2.674   6.932
  252SOL    HW2 1656   7.010   2.607   6.795
  253SOL     OW 1657   1.784   4.867   6.009
  253SOL    HW1 1658   1.854   4.879   5.938
  253SOL    HW2 1659   1.817   4.906   6.095
  254SOL     OW 1660   4.676   3.503   6.790
  254SOL    HW1 1661   4.766   3.531   6.822
  254SOL    HW2 1662   4.673   3.403   6.780
  255SOL     OW 1663   4.183   2.081   2.287
  255SOL    HW1 1664   4.191   2.120   2.195
  255SOL    HW2 1665   4.115   2.132   2.339
  256SOL     OW 1666   0.664   6.098   1.285
  256SOL    HW1 1667   0.575   6.078   1.243
  256SOL    HW2 1668   0.670   6.054   1.374
  257SOL     OW 1669   3.063   5.880   6.510
  257SOL    HW1 1670   3.155   5.855   6.540
  257SOL    HW2 1671   3.053   5.861   6.412
  258SOL     OW 1672   4.959   5.402   4.673
  258SOL    HW1 1673   4.984   5.490   4.632
  258SOL    HW2 1674   4.885   5.360   4.620
  259SOL     OW 1675   7.006   1.320   2.232
  259SOL    HW1 1676   0.076   1.310   2.257
  259SOL    HW2 1677   6.969   1.231   2.203
  260SOL     OW 1678   6.261   6.676   5.764
  260SOL    HW1 1679   6.199   6.729   5.821
  260SOL    HW2 1680   6.328   6.629   5.821
  261SOL     OW 1681   0.471   1.314   3.215
  261SOL    HW1 1682   0.402   1.250   3.181
  261SOL    HW2 1683   0.433   1.406   3.218
  262SOL     OW 1684   1.793   5.508   0.841
  262SOL    HW1 1685   1.838   5.433   0.793
  262SOL    HW2 1686   1.747   5.568   0.775
  263SOL     OW 1687   0.945   5.010   4.858
  263SOL    HW1 1688   0.868   4.975   4.805
  263SOL    HW2 1689   1.009   4.935   4.878
  264SOL     OW 1690   3.625   4.069   0.880
  264SOL    HW1 1691   3.624   3.993   0.815
  264SOL    HW2 1692   3.699   4.054   0.946
  265SOL     OW 1693   4.761   5.518   4.072
  265SOL    HW1 1694   4.757   5.533   4.170
  265SOL    HW2 1695   4.849   5.550   4.037
  266SOL     OW 1696   4.687   3.642   0.120
  266SOL    HW1 1697   4.602   3.611   0.078
  266SOL    HW2 1698   4.733   3.705   0.058
  267SOL     OW 1699   2.473   1.813   6.513
  267SOL    HW1 1700   2.485   1.780   6.419
  267SOL    HW2 1701   2.520   1.900   6.524
  268SOL     OW 1702   1.450   3.954   2.763
  268SOL    HW1 1703   1.354   3.924   2.764
  268SOL    HW2 1704   1.460   4.030   2.699
  269SOL     OW 1705   3.136   1.189   6.163
  269SOL    HW1 1706   3.167   1.126   6.092
  269SOL    HW2 1707   3.062   1.246   6.128
  270SOL     OW 1708   5.834   5.170   4.916
  270SOL    HW1 1709   5.792   5.261   4.915
  270SOL    HW2 1710   5.762   5.101   4.923
  271SOL     OW 1711   2.442   0.837   0.258
  271SOL    HW1 1712   2.390   0.798   0.182
  271SOL    HW2 1713   2.498   0.913   0.225
  272SOL     OW 1714   5.545   4.437   6.997
  272SOL    HW1 1715   5.580   4.353   6.954
  272SOL    HW2 1716   5.465   4.469   6.946
  273SOL     OW 1717   0.260   6.280   4.238
  273SOL    HW1 1718   0.197   6.260   4.163
  273SOL    HW2 1719   0.335   6.214   4.238
  274SOL     OW 1720   5.205   3.176   2.424
  274SOL    HW1 1721   5.271   3.251   2.434
  274SOL    HW2 1722   5.199   3.149   2.328
  275SOL     OW 1723   5.754   5.076   5.350
  275SOL    HW1 1724   5.815   4.997   5.358
  275SOL    HW2 1725   5.776   5.142   5.422
  276SOL     OW 1726   0.876   0.553   4.773
  276SOL    HW1 1727   0.955   0.578   4.717
  276SOL    HW2 1728   0.799   0.612   4.751
  277SOL     OW 1729   4.215   3.515   5.929
  277SOL    HW1 1730   4.198   3.516   5.831
  277SOL    HW2 1731   4.166   3.439   5.971
  278SOL     OW 1732   5.965   4.940   1.828
  278SOL    HW1 1733   6.034   4.967   1.761
  278SOL    HW2 1734   5.972   4.842   1.846
  279SOL     OW 1735   6.854   3.173   4.199
  279SOL    HW1 1736   6.808   3.088   4.226
  279SOL    HW2 1737   6.940   3.152   4.153
  280SOL     OW 1738   4.521   1.110   2.856
  280SOL    HW1 1739   4.498   1.122   2.952
  280SOL    HW2 1740   4.465   1.172   2.800
  281SOL     OW 1741   5.325   5.987   5.791
  281SOL    HW1 1742   5.325   5.890   5.813
  281SOL    HW2 1743   5.244   6.030   5.830
  282SOL     OW 1744   0.117   1.808   6.841
  282SOL    HW1 1745   0.103   1.783   6.745
  282SOL    HW2 1746   0.199   1.865   6.849
  283SOL     OW 1747   6.162   4.078   1.978
  283SOL    HW1 1748   6.141   4.093   2.074
  283SOL    HW2 1749   6.254   4.040   1.969
  284SOL     OW 1750   5.632   6.749   2.759
  284SOL    HW1 1751   5.666   6.827   2.811
  284SOL    HW2 1752   5.621   6.775   2.663
  285SOL     OW 1753   4.703   6.046   6.353
  285SOL    HW1 1754   4.788   6.096   6.367
  285SOL    HW2 1755   4.633   6.082   6.415
  286SOL     OW 1756   3.582   5.489   5.580
  286SOL    HW1 1757   3.586   5.524   5.487
  286SOL    HW2 1758   3.613   5.394   5.582
  287SOL     OW 1759   3.481   6.495   0.753
  287SOL    HW1 1760   3.476   6.423   0.822
  287SOL    HW2 1761   3.557   6.476   0.690
  288SOL     OW 1762   3.552   0.957   0.593
  288SOL    HW1 1763   3.612   0.952   0.673
  288SOL    HW2 1764   3.544   1.051   0.562
  289SOL     OW 1765   5.317   4.770   5.061
  289SOL    HW1 1766   5.289   4.824   5.140
  289SOL    HW2 1767   5.349   4.680   5.092
  290SOL     OW 1768   2.891   0.951   4.764
  290SOL    HW1 1769   2.796   0.934   4.789
  290SOL    HW2 1770   2.902   1.047   4.737
  291SOL     OW 1771   5.765   1.325   4.996
  291SOL    HW1 1772   5.794   1.236   4.962
  291SOL    HW2 1773   5.788   1.396   4.930
  292SOL     OW 1774   2.161   0.432   4.236
  292SOL    HW1 1775   2.109   0.355   4.199
  292SOL    HW2 1776   2.247   0.442   4.185
  293SOL     OW 1777   5.756   1.075   3.322
  293SOL    HW1 1778   5.823   1.052   3.252
  293SOL    HW2 1779   5.720   1.167   3.306
  294SOL     OW 1780   6.523   0.907   6.723
  294SOL    HW1 1781   6.621   0.903   6.703
  294SOL    HW2 1782   6.508   0.972   6.798
  295SOL     OW 1783   0.497   0.817   5.120
  295SOL    HW1 1784   0.484   0.916   5.110
  295SOL    HW2 1785   0.510   0.795   5.217
  296SOL     OW 1786   6.948   1.270   6.644
  296SOL    HW1 1787   0.008   1.287   6.693
  296SOL    HW2 1788   6.919   1.176   6.660
  297SOL     OW 1789   4.959   4.201   3.138
  297SOL    HW1 1790   4.868   4.242   3.129
  297SOL    HW2 1791   4.964   4.120   3.079
  298SOL     OW 1792   3.738   6.716   4.887
  298SOL    HW1 1793   3.670   6.750   4.823
  298SOL    HW2 1794   3.824   6.765   4.873
  299SOL     OW 1795   0.526   1.295   6.256
  299SOL    HW1 1796   0.551   1.258   6.167
  299SOL    HW2 1797   0.465   1.232   6.303
  300SOL     OW 1798   4.170   6.142   4.564
  300SOL    HW1 1799   4.173   6.208   4.638
  300SOL    HW2 1800   4.075   6.120   4.542
  301SOL     OW 1801   6.550   6.568   5.161
  301SOL    HW1 1802   6.593   6.502   5.223
  301SOL    HW2 1803   6.474   6.524   5.114
  302SOL     OW 1804   0.583   0.011   2.002
  302SOL    HW1 1805   0.653   0.012   1.930
  302SOL    HW2 1806   0.618   6.987   2.082
  303SOL     OW 1807   5.004   5.556   2.739
  303SOL    HW1 1808   4.921   5.526   2.787
  303SOL    HW2 1809   5.011   5.509   2.651
  304SOL     OW 1810   1.345   1.434   4.829
  304SOL    HW1 1811   1.322   1.340   4.855
  304SOL    HW2 1812   1.399   1.477   4.901
  305SOL     OW 1813   3.037   1.736   1.370
  305SOL    HW1 1814   3.066   1.698   1.458
  305SOL    HW2 1815   2.953   1.689   1.341
  306SOL     OW 1816   0.413   6.725   3.025
  306SOL    HW1 1817   0.353   6.732   2.945
  306SOL    HW2 1818   0.497   6.778   3.009
  307SOL     OW 1819   3.846   4.062   4.392
  307SOL    HW1 1820   3.846   3.981   4.333
  307SOL    HW2 1821   3.917   4.126   4.361
  308SOL     OW 1822   6.148   2.986   1.455
  308SOL    HW1 1823   6.189   3.077   1.459
  308SOL    HW2 1824   6.220   2.917   1.445
  309SOL     OW 1825   1.988   5.084   0.584
  309SOL    HW1 1826   1.989   5.078   0.684
  309SOL    HW2 1827   2.067   5.035   0.547
  310SOL     OW 1828   4.962   6.505   5.076
  310SOL    HW1 1829   4.997   6.450   5.152
  310SOL    HW2 1830   4.908   6.448   5.015
  311SOL     OW 1831   1.674   6.269   1.936
  311SOL    HW1 1832   1.734   6.319   1.997
  311SOL    HW2 1833   1.689   6.300   1.842
  312SOL     OW 1834   3.226   0.749   4.175
  312SOL    HW1 1835   3.214   0.726   4.078
  312SOL    HW2 1836   3.319   0.727   4.203
  313SOL     OW 1837   3.567   3.154   3.313
  313SOL    HW1 1838   3.601   3.179   3.223
  313SOL    HW2 1839   3.486   3.209   3.334
  314SOL     OW 1840   2.052   4.458   6.286
  314SOL    HW1 1841   1.965   4.491   6.321
  314SOL    HW2 1842   2.059   4.476   6.188
  315SOL     OW 1843   5.683   0.069   4.783
  315SOL    HW1 1844   5.669   0.000   4.712
  315SOL    HW2 1845   5.748   0.035   4.851
  316SOL     OW 1846   4.222   1.011   4.553
  316SOL    HW1 1847   4.218   0.978   4.648
  316SOL    HW2 1848   4.307   0.979   4.511
  317SOL     OW 1849   0.664   1.629   1.949
  317SOL    HW1 1850   0.729   1.692   1.907
  317SOL    HW2 1851   0.680   1.624   2.047
  318SOL     OW 1852   1.080   1.536   3.595
  318SOL    HW1 1853   0.990   1.492   3.594
  318SOL    HW2 1854   1.078   1.613   3.659
  319SOL     OW 1855   0.575   1.961   2.352
  319SOL    HW1 1856   0.575   1.923   2.260
  319SOL    HW2 1857   0.497   2.022   2.363
  320SOL     OW 1858   5.260   1.176   6.552
  320SOL    HW1 1859   5.296   1.111   6.485
  320SOL    HW2 1860   5.168   1.148   6.580
  321SOL     OW 1861   4.454   3.370   1.334
  321SOL    HW1 1862   4.446   3.397   1.430
  321SOL    HW2 1863   4.395   3.290   1.317
  322SOL     OW 1864   2.868   1.960   0.471
  322SOL    HW1 1865   2.830   2.001   0.554
  322SOL    HW2 1866   2.817   1.877   0.449
  323SOL     OW 1867   0.423   4.486   2.071
  323SOL    HW1 1868   0.347   4.549   2.092
  323SOL    HW2 1869   0.462   4.452   2.157
  324SOL     OW 1870   6.118   0.486   3.514
  324SOL    HW1 1871   6.208   0.519   3.541
  324SOL    HW2 1872   6.125   0.392   3.480
  325SOL     OW 1873   6.349   2.778   0.757
  325SOL    HW1 1874   6.271   2.829   0.793
  325SOL    HW2 1875   6.411   2.840   0.710
  326SOL     OW 1876   6.165   5.771   6.211
  326SOL    HW1 1877   6.230   5.846   6.218
  326SOL    HW2 1878   6.131   5.765   6.117
  327SOL     OW 1879   4.188   6.576   6.352
  327SOL    HW1 1880   4.223   6.482   6.353
  327SOL    HW2 1881   4.194   6.614   6.444
  328SOL     OW 1882   2.223   4.098   3.604
  328SOL    HW1 1883   2.281   4.158   3.659
  328SOL    HW2 1884   2.198   4.144   3.519
  329SOL     OW 1885   2.980   3.260   2.849
  329SOL    HW1 1886   2.958   3.195   2.777
  329SOL    HW2 1887   2.977   3.353   2.813
  330SOL     OW 1888   2.043   4.129   6.521
  330SOL    HW1 1889   2.127   4.119   6.574
  330SOL    HW2 1890   2.024   4.226   6.506
  331SOL     OW 1891   5.119   5.701   4.021
  331SOL    HW1 1892   5.051   5.687   3.949
  331SOL    HW2 1893   5.114   5.796   4.053
  332SOL     OW 1894   6.425   2.374   2.778
  332SOL    HW1 1895   6.470   2.458   2.806
  332SOL    HW2 1896   6.339   2.363   2.829
  333SOL     OW 1897   3.061   6.285   3.856
  333SOL    HW1 1898   3.156   6.261   3.877
  333SOL    HW2 1899   3.004   6.203   3.861
  334SOL     OW 1900   3.819   3.432   4.505
  334SOL    HW1 1901   3.777   3.373   4.574
  334SOL    HW2 1902   3.898   3.478   4.545
  335SOL     OW 1903   4.209   1.275   0.375
  335SOL    HW1 1904   4.253   1.353   0.418
  335SOL    HW2 1905   4.241   1.265   0.281
  336SOL     OW 1906   3.802   1.992   4.751
  336SOL    HW1 1907   3.856   2.062   4.797
  336SOL    HW2 1908   3.712   2.029   4.727
  337SOL     OW 1909   1.257   1.864   5.097
  337SOL    HW1 1910   1.239   1.945   5.153
  337SOL    HW2 1911   1.226   1.880   5.004
  338SOL     OW 1912   5.342   1.517   1.799
  338SOL    HW1 1913   5.247   1.548   1.793
  338SOL    HW2 1914   5.362   1.486   1.892
  339SOL     OW 1915   3.370   5.055   5.846
  339SOL    HW1 1916   3.375   5.155   5.851
  339SOL    HW2 1917   3.384   5.025   5.752
  340SOL     OW 1918   5.788   3.832   4.767
  340SOL    HW1 1919   5.759   3.744   4.805
  340SOL    HW2 1920   5.719   3.865   4.703
  341SOL     OW 1921   6.244   0.471   1.701
  341SOL    HW1 1922   6.246   0.571   1.712
  341SOL    HW2 1923   6.199   0.430   1.780
  342SOL     OW 1924   4.976   0.839   1.728
  342SOL    HW1 1925   4.897   0.786   1.697
  342SOL    HW2 1926   4.991   0.916   1.666
  343SOL     OW 1927   5.557   0.687   1.837
  343SOL    HW1 1928   5.509   0.772   1.860
  343SOL    HW2 1929   5.501   0.635   1.772
  344SOL     OW 1930   6.368   2.831   1.422
  344SOL    HW1 1931   6.374   2.786   1.333
  344SOL    HW2 1932   6.406   2.923   1.416
  345SOL     OW 1933   0.285   2.859   3.595
  345SOL    HW1 1934   0.223   2.806   3.537
  345SOL    HW2 1935   0.326   2.932   3.540
  346SOL     OW 1936   0.897   6.963   2.936
  346SOL    HW1 1937   0.871   7.025   3.010
  346SOL    HW2 1938   0.950   7.013   2.867
  347SOL     OW 1939   1.624   4.362   1.671
  347SOL    HW1 1940   1.593   4.334   1.581
  347SOL    HW2 1941   1.549   4.406   1.720
  348SOL     OW 1942   5.676   4.848   0.969
  348SOL    HW1 1943   5.626   4.782   1.026
  348SOL    HW2 1944   5.712   4.921   1.027
  349SOL     OW 1945   5.968   5.432   7.025
  349SOL    HW1 1946   5.882   5.440   0.050
  349SOL    HW2 1947   5.968   5.347   6.973
  350SOL     OW 1948   2.117   0.131   0.896
  350SOL    HW1 1949   2.070   0.059   0.844
  350SOL    HW2 1950   2.172   0.186   0.833
  351SOL     OW 1951   3.624   4.212   1.294
  351SOL    HW1 1952   3.690   4.167   1.234
  351SOL    HW2 1953   3.653   4.200   1.389
  352SOL     OW 1954   4.084   0.833   2.139
  352SOL    HW1 1955   4.130   0.746   2.157
  352SOL    HW2 1956   4.022   0.855   2.215
  353SOL     OW 1957   2.758   5.893   0.698
  353SOL    HW1 1958   2.686   5.848   0.751
  353SOL    HW2 1959   2.793   5.971   0.750
  354SOL     OW 1960   2.311   2.184   0.439
  354SOL    HW1 1961   2.304   2.263   0.499
  354SOL    HW2 1962   2.263   2.203   0.353
  355SOL     OW 1963   0.405   2.512   2.212
  355SOL    HW1 1964   0.436   2.529   2.305
  355SOL    HW2 1965   0.450   2.576   2.149
  356SOL     OW 1966   3.083   0.324   6.077
  356SOL    HW1 1967   3.167   0.364   6.042
  356SOL    HW2 1968   3.006   0.353   6.020
  357SOL     OW 1969   6.235   5.832   4.435
  357SOL    HW1 1970   6.251   5.850   4.338
  357SOL    HW2 1971   6.139   5.807   4.448
  358SOL     OW 1972   3.321   6.124   0.113
  358SOL    HW1 1973   3.368   6.035   0.115
  358SOL    HW2 1974   3.387   6.196   0.133
  359SOL     OW 1975   1.620   2.352   0.898
  359SOL    HW1 1976   1.651   2.257   0.900
  359SOL    HW2 1977   1.694   2.411   0.868
  360SOL     OW 1978   1.924   4.299   2.936
  360SOL    HW1 1979   2.012   4.262   2.907
  360SOL    HW2 1980   1.935   4.394   2.963
  361SOL     OW 1981   6.290   3.351   2.162
  361SOL    HW1 1982   6.320   3.288   2.091
  361SOL    HW2 1983   6.336   3.330   2.248
  362SOL     OW 1984   3.952   3.561   3.073
  362SOL    HW1 1985   4.001   3.647   3.054
  362SOL    HW2 1986   3.926   3.558   3.170
  363SOL     OW 1987   4.865   4.832   0.616
  363SOL    HW1 1988   4.932   4.906   0.614
  363SOL    HW2 1989   4.793   4.850   0.549
  364SOL     OW 1990   1.026   0.465   0.011
  364SOL    HW1 1991   1.003   0.529   0.084
  364SOL    HW2 1992   1.024   0.372   0.048
  365SOL     OW 1993   4.769   0.418   4.167
  365SOL    HW1 1994   4.731   0.469   4.090
  365SOL    HW2 1995   4.697   0.400   4.234
  366SOL     OW 1996   5.152   1.780   0.286
  366SOL    HW1 1997   5.195   1.869   0.273
  366SOL    HW2 1998   5.223   1.711   0.302
  367SOL     OW 1999   5.901   0.195   6.839
  367SOL    HW1 2000   5.977   0.131   6.828
  367SOL    HW2 2001   5.906   0.265   6.768
  368SOL     OW 2002   3.007   1.672   5.859
  368SOL    HW1 2003   3.069   1.714   5.793
  368SOL    HW2 2004   2.913   1.692   5.834
  369SOL     OW 2005   5.096   3.840   0.404
  369SOL    HW1 2006   4.999   3.823   0.425
  369SOL    HW2 2007   5.103   3.890   0.318
  370SOL     OW 2008   2.048   2.202   3.508
  370SOL    HW1 2009   2.071   2.128   3.444
  370SOL    HW2 2010   2.016   2.281   3.456
  371SOL     OW 2011   2.858   4.688   0.592
  371SOL    HW1 2012   2.807   4.623   0.648
  371SOL    HW2 2013   2.808   4.704   0.506
  372SOL     OW 2014   3.039   6.303   5.808
  372SOL    HW1 2015   2.945   6.271   5.821
  372SOL    HW2 2016   3.046   6.353   5.722
  373SOL     OW 2017   5.434   4.627   2.717
  373SOL    HW1 2018   5.398   4.643   2.809
  373SOL    HW2 2019   5.392   4.545   2.678
  374SOL     OW 2020   2.632   2.428   2.136
  374SOL    HW1 2021   2.693   2.500   2.170
  374SOL    HW2 2022   2.685   2.346   2.116
  375SOL     OW 2023   0.013   5.437   3.744
  375SOL    HW1 2024   0.046   5.490   3.822
  375SOL    HW2 2025   0.090   5.408   3.687
  376SOL     OW 2026   4.531   0.729   3.555
  376SOL    HW1 2027   4.605   0.786   3.591
  376SOL    HW2 2028   4.523   0.646   3.611
  377SOL     OW 2029   2.804   3.260   6.233
  377SOL    HW1 2030   2.846   3.291   6.147
  377SOL    HW2 2031   2.809   3.160   6.238
  378SOL     OW 2032   4.596   0.866   1.599
  378SOL    HW1 2033   4.646   0.948   1.569
  378SOL    HW2 2034   4.656   0.787   1.593
  379SOL     OW 2035   3.316   3.412   0.172
  379SOL    HW1 2036   3.233   3.367   0.138
  379SOL    HW2 2037   3.307   3.427   0.270
  380SOL     OW 2038   4.888   1.898   0.213
  380SOL    HW1 2039   4.813   1.910   0.278
  380SOL    HW2 2040   4.971   1.871   0.262
  381SOL     OW 2041   0.882   3.296   2.059
  381SOL    HW1 2042   0.863   3.208   2.016
  381SOL    HW2 2043   0.853   3.293   2.155
  382SOL     OW 2044   6.216   0.243   0.739
  382SOL    HW1 2045   6.182   0.225   0.647
  382SOL    HW2 2046   6.291   0.180   0.760
  383SOL     OW 2047   5.126   3.372   0.874
  383SOL    HW1 2048   5.210   3.318   0.873
  383SOL    HW2 2049   5.143   3.460   0.828
  384SOL     OW 2050   1.147   2.486   4.798
  384SOL    HW1 2051   1.196   2.525   4.876
  384SOL    HW2 2052   1.143   2.553   4.724
  385SOL     OW 2053   4.845   3.149   6.494
  385SOL    HW1 2054   4.810   3.114   6.407
  385SOL    HW2 2055   4.827   3.082   6.566
  386SOL     OW 2056   3.258   5.779   5.131
  386SOL    HW1 2057   3.232   5.859   5.077
  386SOL    HW2 2058   3.177   5.722   5.146
  387SOL     OW 2059   2.594   6.491   3.637
  387SOL    HW1 2060   2.634   6.577   3.605
  387SOL    HW2 2061   2.587   6.427   3.560
  388SOL     OW 2062   1.406   5.741   5.643
  388SOL    HW1 2063   1.310   5.769   5.635
  388SOL    HW2 2064   1.459   5.782   5.568
  389SOL     OW 2065   3.252   2.358   0.114
  389SOL    HW1 2066   3.344   2.332   0.084
  389SOL    HW2 2067   3.184   2.310   0.059
  390SOL     OW 2068   3.196   1.474   4.020
  390SOL    HW1 2069   3.097   1.460   4.029
  390SOL    HW2 2070   3.231   1.520   4.102
  391SOL     OW 2071   0.579   1.624   0.440
  391SOL    HW1 2072   0.564   1.526   0.433
  391SOL    HW2 2073   0.491   1.672   0.437
  392SOL     OW 2074   4.241   5.533   4.368
  392SOL    HW1 2075   4.250   5.478   4.284
  392SOL    HW2 2076   4.271   5.626   4.350
  393SOL     OW 2077   6.284   3.219   5.896
  393SOL    HW1 2078   6.258   3.273   5.817
  393SOL    HW2 2079   6.378   3.185   5.885
  394SOL     OW 2080   1.764   1.289   6.486
  394SOL    HW1 2081   1.694   1.359   6.471
  394SOL    HW2 2082   1.852   1.322   6.453
  395SOL     OW 2083   0.000   3.002   0.990
  395SOL    HW1 2084   0.077   2.980   0.930
  395SOL    HW2 2085   6.942   3.012   0.936
  396SOL     OW 2086   3.936   2.728   5.651
  396SOL    HW1 2087   3.944   2.805   5.589
  396SOL    HW2 2088   3.840   2.701   5.660
  397SOL     OW 2089   4.679   0.143   6.590
  397SOL    HW1 2090   4.707   0.237   6.574
  397SOL    HW2 2091   4.598   0.141   6.649
  398SOL     OW 2092   6.377   4.075   2.677
  398SOL    HW1 2093   6.290   4.035   2.646
  398SOL    HW2 2094   6.358   4.145   2.745
  399SOL     OW 2095   3.136   5.550   1.350
  399SOL    HW1 2096   3.104   5.546   1.445
  399SOL    HW2 2097   3.068   5.598   1.295
  400SOL     OW 2098   2.670   4.343   5.769
  400SOL    HW1 2099   2.767   4.366   5.766
  400SOL    HW2 2100   2.643   4.322   5.863
  401SOL     OW 2101   6.273   1.351   1.382
  401SOL    HW1 2102   6.323   1.274   1.422
  401SOL    HW2 2103   6.246   1.328   1.289
  402SOL     OW 2104   0.658   5.531   0.647
  402SOL    HW1 2105   0.578   5.514   0.705
  402SOL    HW2 2106   0.725   5.458   0.662
  403SOL     OW 2107   5.130   4.710   0.516
  403SOL    HW1 2108   5.043   4.733   0.558
  403SOL    HW2 2109   5.159   4.783   0.454
  404SOL     OW 2110   0.120   5.858   4.839
  404SOL    HW1 2111   0.075   5.829   4.755
  404SOL    HW2 2112   0.129   5.780   4.901
  405SOL     OW 2113   0.951   1.452   1.346
  405SOL    HW1 2114   0.857   1.484   1.350
  405SOL    HW2 2115   0.953   1.359   1.310
  406SOL     OW 2116   0.936   2.723   3.849
  406SOL    HW1 2117   0.865   2.789   3.826
  406SOL    HW2 2118   1.016   2.771   3.885
  407SOL     OW 2119   3.507   2.102   3.732
  407SOL    HW1 2120   3.411   2.111   3.761
  407SOL    HW2 2121   3.510   2.058   3.643
  408SOL     OW 2122   2.327   0.477   3.866
  408SOL    HW1 2123   2.253   0.411   3.852
  408SOL    HW2 2124   2.291   0.556   3.917
  409SOL     OW 2125   6.970   4.415   4.399
  409SOL    HW1 2126   0.034   4.459   4.401
  409SOL    HW2 2127   6.937   4.401   4.492
  410SOL     OW 2128   2.685   6.568   5.964
  410SOL    HW1 2129   2.643   6.491   6.014
  410SOL    HW2 2130   2.643   6.575   5.873
  411SOL     OW 2131   0.165   4.329   5.759
  411SOL    HW1 2132   0.119   4.247   5.793
  411SOL    HW2 2133   0.166   4.399   5.830
  412SOL     OW 2134   3.446   6.362   2.586
  412SOL    HW1 2135   3.401   6.288   2.636
  412SOL    HW2 2136   3.377   6.414   2.535
  413SOL     OW 2137   1.904   0.359   1.998
  413SOL    HW1 2138   1.846   0.438   1.975
  413SOL    HW2 2139   1.849   0.288   2.041
  414SOL     OW 2140   5.103   4.553   0.871
  414SOL    HW1 2141   5.029   4.505   0.824
  414SOL    HW2 2142   5.190   4.505   0.855
  415SOL     OW 2143   3.853   0.173   3.077
  415SOL    HW1 2144   3.950   0.196   3.068
  415SOL    HW2 2145   3.829   0.103   3.009
  416SOL     OW 2146   3.760   5.808   6.906
  416SOL    HW1 2147   3.849   5.843   6.876
  416SOL    HW2 2148   3.688   5.869   6.874
  417SOL     OW 2149   4.979   5.241   1.051
  417SOL    HW1 2150   4.895   5.294   1.038
  417SOL    HW2 2151   5.058   5.300   1.035
  418SOL     OW 2152   6.811   5.391   6.582
  418SOL    HW1 2153   6.732   5.415   6.638
  418SOL    HW2 2154   6.831   5.294   6.593
  419SOL     OW 2155   4.947   5.349   6.628
  419SOL    HW1 2156   4.966   5.257   6.664
  419SOL    HW2 2157   4.982   5.417   6.693
  420SOL     OW 2158   5.509   3.946   6.668
  420SOL    HW1 2159   5.411   3.932   6.652
  420SOL    HW2 2160   5.551   3.983   6.586
  421SOL     OW 2161   1.733   6.237   6.407
  421SOL    HW1 2162   1.644   6.232   6.361
  421SOL    HW2 2163   1.805   6.247   6.339
  422SOL     OW 2164   6.434   3.698   6.609
  422SOL    HW1 2165   6.408   3.609   6.646
  422SOL    HW2 2166   6.371   3.768   6.642
  423SOL     OW 2167   0.764   3.457   6.291
  423SOL    HW1 2168   0.858   3.437   6.321
  423SOL    HW2 2169   0.732   3.540   6.337
  424SOL     OW 2170   1.814   4.551   6.329
  424SOL    HW1 2171   1.784   4.630   6.275
  424SOL    HW2 2172   1.736   4.512   6.377
  425SOL     OW 2173   2.689   0.466   0.532
  425SOL    HW1 2174   2.787   0.458   0.513
  425SOL    HW2 2175   2.662   0.562   0.526
  426SOL     OW 2176   1.004   3.501   0.232
  426SOL    HW1 2177   0.932   3.431   0.235
  426SOL    HW2 2178   0.974   3.582   0.283
  427SOL     OW 2179   3.589   3.354   0.066
  427SOL    HW1 2180   3.576   3.286   7.019
  427SOL    HW2 2181   3.513   3.420   0.063
  428SOL     OW 2182   3.977   1.323   4.752
  428SOL    HW1 2183   3.951   1.411   4.792
  428SOL    HW2 2184   3.923   1.306   4.670
  429SOL     OW 2185   3.486   6.332   0.167
  429SOL    HW1 2186   3.461   6.340   0.264
  429SOL    HW2 2187   3.514   6.422   0.133
  430SOL     OW 2188   2.793   0.757   4.551
  430SOL    HW1 2189   2.830   0.665   4.566
  430SOL    HW2 2190   2.868   0.823   4.553
  431SOL     OW 2191   3.731   0.656   6.968
  431SOL    HW1 2192   3.825   0.624   6.959
  431SOL    HW2 2193   3.729   0.742   7.020
  432SOL     OW 2194   6.340   1.464   0.929
  432SOL    HW1 2195   6.361   1.436   0.835
  432SOL    HW2 2196   6.424   1.462   0.984
  433SOL     OW 2197   3.075   6.045   5.025
  433SOL    HW1 2198   3.021   5.963   5.007
  433SOL    HW2 2199   3.016   6.115   5.064
  434SOL     OW 2200   6.381   3.351   0.904
  434SOL    HW1 2201   6.446   3.427   0.913
  434SOL    HW2 2202   6.432   3.266   0.890
  435SOL     OW 2203   3.774   3.313   0.768
  435SOL    HW1 2204   3.782   3.413   0.771
  435SOL    HW2 2205   3.779   3.276   0.861
  436SOL     OW 2206   2.464   1.423   0.935
  436SOL    HW1 2207   2.447   1.462   0.845
  436SOL    HW2 2208   2.507   1.333   0.926
  437SOL     OW 2209   6.367   6.479   6.097
  437SOL    HW1 2210   6.381   6.465   6.195
  437SOL    HW2 2211   6.270   6.466   6.075
  438SOL     OW 2212   1.311   3.270   0.745
  438SOL    HW1 2213   1.261   3.355   0.732
  438SOL    HW2 2214   1.251   3.201   0.786
  439SOL     OW 2215   6.151   4.952   1.624
  439SOL    HW1 2216   6.120   5.041   1.591
  439SOL    HW2 2217   6.249   4.943   1.607
  440SOL     OW 2218   1.099   2.788   2.707
  440SOL    HW1 2219   1.184   2.834   2.682
  440SOL    HW2 2220   1.025   2.855   2.715
  441SOL     OW 2221   6.919   1.388   3.378
  441SOL    HW1 2222   6.979   1.370   3.455
  441SOL    HW2 2223   6.923   1.485   3.353
  442SOL     OW 2224   1.280   5.229   6.320
  442SOL    HW1 2225   1.312   5.135   6.311
  442SOL    HW2 2226   1.255   5.248   6.415
  443SOL     OW 2227   0.371   4.646   5.784
  443SOL    HW1 2228   0.322   4.586   5.848
  443SOL    HW2 2229   0.310   4.719   5.754
  444SOL     OW 2230   5.212   3.259   6.711
  444SOL    HW1 2231   5.190   3.289   6.618
  444SOL    HW2 2232   5.233   3.338   6.767
  445SOL     OW 2233   1.124   3.641   3.468
  445SOL    HW1 2234   1.206   3.597   3.506
  445SOL    HW2 2235   1.045   3.620   3.526
  446SOL     OW 2236   1.988   4.793   4.120
  446SOL    HW1 2237   1.949   4.711   4.078
  446SOL    HW2 2238   2.010   4.773   4.216
  447SOL     OW 2239   0.621   6.064   0.622
  447SOL    HW1 2240   0.549   6.042   0.688
  447SOL    HW2 2241   0.681   5.985   0.612
  448SOL     OW 2242   4.320   0.460   5.537
  448SOL    HW1 2243   4.229   0.422   5.518
  448SOL    HW2 2244   4.310   0.550   5.579
  449SOL     OW 2245   5.347   0.458   5.102
  449SOL    HW1 2246   5.395   0.429   5.184
  449SOL    HW2 2247   5.337   0.557   5.102
  450SOL     OW 2248   6.696   6.194   2.821
  450SOL    HW1 2249   6.611   6.214   2.773
  450SOL    HW2 2250   6.757   6.143   2.761
  451SOL     OW 2251   6.072   3.570   3.652
  451SOL    HW1 2252   6.158   3.540   3.611
  451SOL    HW2 2253   6.090   3.611   3.741
  452SOL     OW 2254   6.645   5.005   5.575
  452SOL    HW1 2255   6.725   4.979   5.629
  452SOL    HW2 2256   6.659   5.097   5.537
  453SOL     OW 2257   3.519   1.396   6.504
  453SOL    HW1 2258   3.452   1.426   6.572
  453SOL    HW2 2259   3.570   1.475   6.471
  454SOL     OW 2260   0.806   6.172   0.465
  454SOL    HW1 2261   0.844   6.081   0.449
  454SOL    HW2 2262   0.732   6.166   0.532
  455SOL     OW 2263   5.232   1.216   5.034
  455SOL    HW1 2264   5.214   1.292   5.096
  455SOL    HW2 2265   5.320   1.230   4.989
  456SOL     OW 2266   4.042   5.275   0.177
  456SOL    HW1 2267   4.061   5.365   0.139
  456SOL    HW2 2268   3.944   5.264   0.191
  457SOL     OW 2269   0.420   4.466   1.582
  457SOL    HW1 2270   0.393   4.472   1.678
  457SOL    HW2 2271   0.443   4.558   1.548
  458SOL     OW 2272   0.794   6.185   5.437
  458SOL    HW1 2273   0.802   6.155   5.342
  458SOL    HW2 2274   0.699   6.207   5.458
  459SOL     OW 2275   1.238   0.638   3.587
  459SOL    HW1 2276   1.219   0.736   3.581
  459SOL    HW2 2277   1.193   0.591   3.511
  460SOL     OW 2278   6.706   2.369   3.064
  460SOL    HW1 2279   6.719   2.340   2.970
  460SOL    HW2 2280   6.609   2.390   3.079
  461SOL     OW 2281   5.612   4.752   5.612
  461SOL    HW1 2282   5.521   4.711   5.617
  461SOL    HW2 2283   5.665   4.705   5.541
  462SOL     OW 2284   2.979   2.364   6.897
  462SOL    HW1 2285   2.933   2.439   6.945
  462SOL    HW2 2286   2.968   2.279   6.948
  463SOL     OW 2287   6.108   6.008   2.255
  463SOL    HW1 2288   6.075   6.089   2.304
  463SOL    HW2 2289   6.167   5.955   2.315
  464SOL     OW 2290   1.678   1.739   5.855
  464SOL    HW1 2291   1.715   1.773   5.769
  464SOL    HW2 2292   1.581   1.719   5.844
  465SOL     OW 2293   0.331   3.325   6.419
  465SOL    HW1 2294   0.262   3.392   6.446
  465SOL    HW2 2295   0.286   3.242   6.388
  466SOL     OW 2296   1.933   0.538   3.552
  466SOL    HW1 2297   2.005   0.567   3.614
  466SOL    HW2 2298   1.913   0.612   3.487
  467SOL     OW 2299   1.787   1.872   5.125
  467SOL    HW1 2300   1.688   1.875   5.140
  467SOL    HW2 2301   1.821   1.781   5.149
  468SOL     OW 2302   2.949   3.616   3.333
  468SOL    HW1 2303   2.973   3.651   3.423
  468SOL    HW2 2304   2.903   3.528   3.342
  469SOL     OW 2305   3.672   0.090   6.763
  469SOL    HW1 2306   3.736   0.142   6.819
  469SOL    HW2 2307   3.621   0.026   6.821
  470SOL     OW 2308   4.713   6.989   3.196
  470SOL    HW1 2309   4.723   0.056   3.159
  470SOL    HW2 2310   4.785   6.973   3.265
  471SOL     OW 2311   2.696   2.442   4.136
  471SOL    HW1 2312   2.748   2.476   4.058
  471SOL    HW2 2313   2.662   2.351   4.117
  472SOL     OW 2314   3.961   4.347   5.253
  472SOL    HW1 2315   4.053   4.372   5.220
  472SOL    HW2 2316   3.931   4.263   5.208
  473SOL     OW 2317   0.196   4.458   3.941
  473SOL    HW1 2318   0.265   4.510   3.891
  473SOL    HW2 2319   0.163   4.512   4.018
  474SOL     OW 2320   4.878   4.488   5.599
  474SOL    HW1 2321   4.789   4.532   5.594
  474SOL    HW2 2322   4.884   4.417   5.529
  475SOL     OW 2323   2.569   6.017   0.280
  475SOL    HW1 2324   2.602   6.068   0.200
  475SOL    HW2 2325   2.554   5.922   0.255
  476SOL     OW 2326   6.310   5.913   3.072
  476SOL    HW1 2327   6.367   5.908   2.990
  476SOL    HW2 2328   6.283   5.820   3.100
  477SOL     OW 2329   2.120   4.477   4.042
  477SOL    HW1 2330   2.042   4.536   4.020
  477SOL    HW2 2331   2.107   4.388   3.998
  478SOL     OW 2332   1.484   4.930   3.439
  478SOL    HW1 2333   1.446   4.870   3.509
  478SOL    HW2 2334   1.562   4.885   3.395
  479SOL     OW 2335   4.412   1.980   2.165
  479SOL    HW1 2336   4.387   1.883   2.169
  479SOL    HW2 2337   4.357   2.031   2.231
  480SOL     OW 2338   1.874   6.295   3.957
  480SOL    HW1 2339   1.887   6.393   3.973
  480SOL    HW2 2340   1.818   6.257   4.031
  481SOL     OW 2341   2.103   6.952   1.165
  481SOL    HW1 2342   2.038   6.901   1.107
  481SOL    HW2 2343   2.079   0.023   1.164
  482SOL     OW 2344   5.226   5.454   0.718
  482SOL    HW1 2345   5.323   5.448   0.740
  482SOL    HW2 2346   5.207   5.541   0.673
  483SOL     OW 2347   5.333   2.069   2.874
  483SOL    HW1 2348   5.335   2.167   2.857
  483SOL    HW2 2349   5.265   2.027   2.814
  484SOL     OW 2350   6.389   1.843   4.023
  484SOL    HW1 2351   6.387   1.909   4.099
  484SOL    HW2 2352   6.313   1.861   3.962
  485SOL     OW 2353   2.944   6.038   1.134
  485SOL    HW1 2354   2.943   6.133   1.166
  485SOL    HW2 2355   2.916   5.977   1.209
  486SOL     OW 2356   0.382   0.857   5.834
  486SOL    HW1 2357   0.393   0.758   5.847
  486SOL    HW2 2358   0.334   0.895   5.913
  487SOL     OW 2359   6.988   2.518   6.543
  487SOL    HW1 2360   6.906   2.489   6.493
  487SOL    HW2 2361   7.008   2.613   6.521
  488SOL     OW 2362   0.929   4.724   2.550
  488SOL    HW1 2363   0.875   4.640   2.546
  488SOL    HW2 2364   0.891   4.785   2.620
  489SOL     OW 2365   3.392   5.723   6.320
  489SOL    HW1 2366   3.404   5.753   6.415
  489SOL    HW2 2367   3.471   5.668   6.292
  490SOL     OW 2368   5.326   0.001   4.188
  490SOL    HW1 2369   5.369   6.941   4.159
  490SOL    HW2 2370   5.365   0.029   4.276
  491SOL     OW 2371   0.885   2.413   3.368
  491SOL    HW1 2372   0.903   2.441   3.274
  491SOL    HW2 2373   0.931   2.475   3.431
  492SOL     OW 2374   1.926   1.310   4.670
  492SOL    HW1 2375   2.011   1.344   4.709
  492SOL    HW2 2376   1.923   1.329   4.572
  493SOL     OW 2377   6.312   4.261   4.404
  493SOL    HW1 2378   6.239   4.193   4.412
  493SOL    HW2 2379   6.282   4.346   4.447
  494SOL     OW 2380   5.811   1.208   6.616
  494SOL    HW1 2381   5.794   1.307   6.614
  494SOL    HW2 2382   5.737   1.161   6.568
  495SOL     OW 2383   4.923   4.526   0.315
  495SOL    HW1 2384   4.878   4.609   0.347
  495SOL    HW2 2385   5.022   4.535   0.327
  496SOL     OW 2386   5.846   3.552   2.581
  496SOL    HW1 2387   5.878   3.462   2.552
  496SOL    HW2 2388   5.747   3.548   2.596
  497SOL     OW 2389   4.156   6.573   4.073
  497SOL    HW1 2390   4.170   6.475   4.067
  497SOL    HW2 2391   4.207   6.610   4.150
  498SOL     OW 2392   1.171   2.932   1.117
  498SOL    HW1 2393   1.255   2.886   1.147
  498SOL    HW2 2394   1.101   2.923   1.189
  499SOL     OW 2395   3.769   1.318   5.042
  499SOL    HW1 2396   3.848   1.291   5.097
  499SOL    HW2 2397   3.751   1.415   5.054
  500SOL     OW 2398   1.382   4.669   2.772
  500SOL    HW1 2399   1.328   4.603   2.718
  500SOL    HW2 2400   1.447   4.619   2.829
  501SOL     OW 2401   0.410   5.086   6.446
  501SOL    HW1 2402   0.472   5.039   6.383
  501SOL    HW2 2403   0.394   5.179   6.412
  502SOL     OW 2404   2.377   5.295   6.486
  502SOL    HW1 2405   2.300   5.323   6.544
  502SOL    HW2 2406   2.461   5.337   6.520
  503SOL     OW 2407   6.519   4.974   4.465
  503SOL    HW1 2408   6.491   4.914   4.540
  503SOL    HW2 2409   6.565   4.920   4.394
  504SOL     OW 2410   1.252   5.173   4.613
  504SOL    HW1 2411   1.287   5.102   4.674
  504SOL    HW2 2412   1.153   5.169   4.610
  505SOL     OW 2413   3.177   6.792   5.024
  505SOL    HW1 2414   3.206   6.810   5.118
  505SOL    HW2 2415   3.078   6.775   5.023
  506SOL     OW 2416   1.865   3.365   0.928
  506SOL    HW1 2417   1.778   3.316   0.920
  506SOL    HW2 2418   1.931   3.307   0.975
  507SOL     OW 2419   3.959   1.951   4.537
  507SOL    HW1 2420   3.919   1.873   4.488
  507SOL    HW2 2421   3.905   1.969   4.620
  508SOL     OW 2422   6.506   5.201   4.193
  508SOL    HW1 2423   6.458   5.240   4.114
  508SOL    HW2 2424   6.461   5.115   4.219
  509SOL     OW 2425   4.702   3.253   1.735
  509SOL    HW1 2426   4.698   3.176   1.799
  509SOL    HW2 2427   4.669   3.225   1.646
  510SOL     OW 2428   1.047   4.307   4.323
  510SOL    HW1 2429   1.013   4.259   4.404
  510SOL    HW2 2430   1.117   4.373   4.350
  511SOL     OW 2431   0.377   5.955   0.957
  511SOL    HW1 2432   0.368   5.861   0.923
  511SOL    HW2 2433   0.326   6.016   0.897
  512SOL     OW 2434   1.903   3.454   6.227
  512SOL    HW1 2435   1.917   3.490   6.135
  512SOL    HW2 2436   1.831   3.507   6.273
  513SOL     OW 2437   0.982   5.154   4.015
  513SOL    HW1 2438   0.919   5.085   4.051
  513SOL    HW2 2439   0.933   5.240   3.999
  514SOL     OW 2440   5.104   2.008   3.687
  514SOL    HW1 2441   5.155   2.079   3.639
  514SOL    HW2 2442   5.148   1.990   3.775
  515SOL     OW 2443   3.127   5.722   0.049
  515SOL    HW1 2444   3.134   5.745   0.146
  515SOL    HW2 2445   3.057   5.778   0.006
  516SOL     OW 2446   1.506   4.235   3.748
  516SOL    HW1 2447   1.438   4.162   3.751
  516SOL    HW2 2448   1.586   4.204   3.697
  517SOL     OW 2449   4.586   0.231   6.120
  517SOL    HW1 2450   4.536   0.283   6.051
  517SOL    HW2 2451   4.580   0.133   6.098
  518SOL     OW 2452   1.633   1.260   0.005
  518SOL    HW1 2453   1.545   1.229   6.995
  518SOL    HW2 2454   1.695   1.181   0.014
  519SOL     OW 2455   0.931   6.537   0.212
  519SOL    HW1 2456   0.912   6.598   0.135
  519SOL    HW2 2457   1.014   6.485   0.194
  520SOL     OW 2458   6.134   4.541   4.356
  520SOL    HW1 2459   6.217   4.582   4.318
  520SOL    HW2 2460   6.082   4.611   4.405
  521SOL     OW 2461   6.574   0.715   0.334
  521SOL    HW1 2462   6.585   0.716   0.235
  521SOL    HW2 2463   6.477   0.728   0.357
  522SOL     OW 2464   3.282   3.895   5.728
  522SOL    HW1 2465   3.270   3.808   5.680
  522SOL    HW2 2466   3.309   3.966   5.663
  523SOL     OW 2467   6.372   0.146   3.726
  523SOL    HW1 2468   6.423   0.066   3.757
  523SOL    HW2 2469   6.372   0.148   3.626
  524SOL     OW 2470   4.237   0.726   4.657
  524SOL    HW1 2471   4.155   0.745   4.604
  524SOL    HW2 2472   4.316   0.768   4.612
  525SOL     OW 2473   3.167   2.887   6.798
  525SOL    HW1 2474   3.244   2.875   6.736
  525SOL    HW2 2475   3.182   2.967   6.856
  526SOL     OW 2476   4.554   5.752   4.808
  526SOL    HW1 2477   4.545   5.679   4.741
  526SOL    HW2 2478   4.648   5.786   4.808
  527SOL     OW 2479   0.555   1.875   0.115
  527SOL    HW1 2480   0.473   1.828   0.082
  527SOL    HW2 2481   0.550   1.888   0.214
  528SOL     OW 2482   1.762   2.074   6.171
  528SOL    HW1 2483   1.762   2.044   6.075
  528SOL    HW2 2484   1.854   2.104   6.196
  529SOL     OW 2485   6.986   5.253   4.111
  529SOL    HW1 2486   6.993   5.260   4.210
  529SOL    HW2 2487   6.909   5.307   4.078
  530SOL     OW 2488   0.115   2.517   5.148
  530SOL    HW1 2489   0.113   2.515   5.048
  530SOL    HW2 2490   0.143   2.609   5.178
  531SOL     OW 2491   6.978   0.531   7.025
  531SOL    HW1 2492   7.017   0.439   7.022
  531SOL    HW2 2493   6.879   0.526   7.016
  532SOL     OW 2494   2.178   1.057   5.940
  532SOL    HW1 2495   2.130   1.021   6.020
  532SOL    HW2 2496   2.114   1.105   5.881
  533SOL     OW 2497   4.630   0.699   5.165
  533SOL    HW1 2498   4.618   0.649   5.251
  533SOL    HW2 2499   4.640   0.797   5.185
  534SOL     OW 2500   3.105   5.446   3.267
  534SOL    HW1 2501   3.027   5.395   3.232
  534SOL    HW2 2502   3.188   5.391   3.258
  535SOL     OW 2503   6.175   4.179   1.727
  535SOL    HW1 2504   6.172   4.128   1.813
  535SOL    HW2 2505   6.164   4.115   1.650
  536SOL     OW 2506   1.898   5.999   1.153
  536SOL    HW1 2507   1.967   6.058   1.196
  536SOL    HW2 2508   1.943   5.938   1.087
  537SOL     OW 2509   2.349   6.896   3.115
  537SOL    HW1 2510   2.420   6.852   3.169
  537SOL    HW2 2511   2.292   6.953   3.174
  538SOL     OW 2512   1.545   5.161   4.309
  538SOL    HW1 2513   1.472   5.226   4.328
  538SOL    HW2 2514   1.563   5.158   4.210
  539SOL     OW 2515   1.441   5.358   1.646
  539SOL    HW1 2516   1.479   5.446   1.616
  539SOL    HW2 2517   1.510   5.287   1.634
  540SOL     OW 2518   2.020   2.951   0.935
  540SOL    HW1 2519   1.933   2.921   0.975
  540SOL    HW2 2520   2.055   3.029   0.986
  541SOL     OW 2521   4.530   5.387   4.838
  541SOL    HW1 2522   4.625   5.387   4.870
  541SOL    HW2 2523   4.484   5.305   4.872
  542SOL     OW 2524   5.555   6.818   6.012
  542SOL    HW1 2525   5.647   6.824   6.051
  542SOL    HW2 2526   5.538   6.899   5.956
  543SOL     OW 2527   6.040   0.126   1.573
  543SOL    HW1 2528   6.065   0.143   1.669
  543SOL    HW2 2529   6.116   0.081   1.526
  544SOL     OW 2530   0.812   5.871   0.466
  544SOL    HW1 2531   0.776   5.781   0.441
  544SOL    HW2 2532   0.843   5.869   0.561
  545SOL     OW 2533   2.955   1.692   3.561
  545SOL    HW1 2534   2.976   1.605   3.517
  545SOL    HW2 2535   2.975   1.686   3.658
  546SOL     OW 2536   1.713   2.290   6.871
  546SOL    HW1 2537   1.709   2.190   6.868
  546SOL    HW2 2538   1.777   2.319   6.943
  547SOL     OW 2539   2.998   2.190   0.299
  547SOL    HW1 2540   2.928   2.127   0.333
  547SOL    HW2 2541   3.002   2.271   0.357
  548SOL     OW 2542   3.248   3.679   5.562
  548SOL    HW1 2543   3.176   3.660   5.495
  548SOL    HW2 2544   3.286   3.593   5.595
  549SOL     OW 2545   0.883   4.350   0.879
  549SOL    HW1 2546   0.909   4.271   0.824
  549SOL    HW2 2547   0.852   4.424   0.819
  550SOL     OW 2548   6.911   4.393   0.606
  550SOL    HW1 2549   6.893   4.344   0.691
  550SOL    HW2 2550   6.960   4.478   0.625
  551SOL     OW 2551   0.263   0.617   0.401
  551SOL    HW1 2552   0.331   0.619   0.474
  551SOL    HW2 2553   0.193   0.686   0.418
  552SOL     OW 2554   4.716   4.987   0.214
  552SOL    HW1 2555   4.768   5.063   0.175
  552SOL    HW2 2556   4.711   4.912   0.148
  553SOL     OW 2557   1.075   2.050   1.451
  553SOL    HW1 2558   1.148   2.019   1.390
  553SOL    HW2 2559   0.989   2.057   1.400
  554SOL     OW 2560   4.710   5.281   4.574
  554SOL    HW1 2561   4.618   5.294   4.611
  554SOL    HW2 2562   4.705   5.267   4.475
  555SOL     OW 2563   1.589   4.712   5.448
  555SOL    HW1 2564   1.650   4.633   5.451
  555SOL    HW2 2565   1.504   4.692   5.498
  556SOL     OW 2566   6.432   4.364   3.113
  556SOL    HW1 2567   6.399   4.284   3.164
  556SOL    HW2 2568   6.494   4.417   3.170
  557SOL     OW 2569   6.408   5.911   5.330
  557SOL    HW1 2570   6.375   5.820   5.357
  557SOL    HW2 2571   6.506   5.917   5.348
  558SOL     OW 2572   4.054   4.081   5.862
  558SOL    HW1 2573   4.072   4.130   5.948
  558SOL    HW2 2574   3.977   4.019   5.875
  559SOL     OW 2575   5.951   4.991   6.361
  559SOL    HW1 2576   6.025   4.972   6.296
  559SOL    HW2 2577   5.970   4.947   6.448
  560SOL     OW 2578   4.424   6.449   0.697
  560SOL    HW1 2579   4.524   6.438   0.693
  560SOL    HW2 2580   4.390   6.470   0.605
  561SOL     OW 2581   5.140   0.032   1.975
  561SOL    HW1 2582   5.107   0.021   1.881
  561SOL    HW2 2583   5.202   0.110   1.979
  562SOL     OW 2584   6.335   0.019   0.902
  562SOL    HW1 2585   6.291   6.967   0.857
  562SOL    HW2 2586   6.299   0.030   0.995
  563SOL     OW 2587   2.888   0.822   5.066
  563SOL    HW1 2588   2.824   0.897   5.078
  563SOL    HW2 2589   2.909   0.781   5.155
  564SOL     OW 2590   0.765   1.404   5.460
  564SOL    HW1 2591   0.801   1.375   5.371
  564SOL    HW2 2592   0.781   1.333   5.528
  565SOL     OW 2593   4.455   3.622   5.816
  565SOL    HW1 2594   4.378   3.575   5.860
  565SOL    HW2 2595   4.508   3.671   5.885
  566SOL     OW 2596   6.804   4.659   2.073
  566SOL    HW1 2597   6.747   4.582   2.043
  566SOL    HW2 2598   6.762   4.744   2.045
  567SOL     OW 2599   3.861   3.724   5.612
  567SOL    HW1 2600   3.875   3.697   5.707
  567SOL    HW2 2601   3.932   3.790   5.585
  568SOL     OW 2602   2.340   0.999   6.718
  568SOL    HW1 2603   2.415   1.062   6.698
  568SOL    HW2 2604   2.264   1.048   6.759
  569SOL     OW 2605   1.621   4.112   6.766
  569SOL    HW1 2606   1.576   4.137   6.680
  569SOL    HW2 2607   1.562   4.138   6.843
  570SOL     OW 2608   0.054   5.606   0.253
  570SOL    HW1 2609   7.013   5.534   0.272
  570SOL    HW2 2610   0.086   5.645   0.339
  571SOL     OW 2611   4.180   6.239   2.551
  571SOL    HW1 2612   4.081   6.253   2.542
  571SOL    HW2 2613   4.210   6.266   2.642
  572SOL     OW 2614   1.129   3.982   3.814
  572SOL    HW1 2615   1.094   3.998   3.721
  572SOL    HW2 2616   1.111   4.062   3.871
  573SOL     OW 2617   3.728   2.451   6.888
  573SOL    HW1 2618   3.760   2.405   6.971
  573SOL    HW2 2619   3.632   2.478   6.900
  574SOL     OW 2620   2.622   2.145   3.778
  574SOL    HW1 2621   2.547   2.162   3.714
  574SOL    HW2 2622   2.708   2.177   3.737
  575SOL     OW 2623   4.599   2.354   6.054
  575SOL    HW1 2624   4.523   2.336   6.116
  575SOL    HW2 2625   4.648   2.268   6.036
  576SOL     OW 2626   0.775   3.584   3.136
  576SOL    HW1 2627   0.830   3.524   3.194
  576SOL    HW2 2628   0.699   3.532   3.097
  577SOL     OW 2629   4.215   2.030   3.623
  577SOL    HW1 2630   4.173   1.974   3.694
  577SOL    HW2 2631   4.308   1.998   3.606
  578SOL     OW 2632   0.147   3.867   4.299
  578SOL    HW1 2633   0.215   3.918   4.351
  578SOL    HW2 2634   0.128   3.914   4.213
  579SOL     OW 2635   4.217   3.492   0.890
  579SOL    HW1 2636   4.307   3.448   0.892
  579SOL    HW2 2637   4.173   3.474   0.802
  580SOL     OW 2638   0.305   0.160   0.198
  580SOL    HW1 2639   0.391   0.199   0.163
  580SOL    HW2 2640   0.252   0.231   0.243
  581SOL     OW 2641   3.889   3.437   3.680
  581SOL    HW1 2642   3.847   3.367   3.622
  581SOL    HW2 2643   3.971   3.399   3.724
  582SOL     OW 2644   6.873   4.029   0.372
  582SOL    HW1 2645   6.939   3.978   0.427
  582SOL    HW2 2646   6.922   4.079   0.300
  583SOL     OW 2647   2.398   6.943   6.428
  583SOL    HW1 2648   2.435   6.888   6.503
  583SOL    HW2 2649   2.379   6.884   6.349
  584SOL     OW 2650   1.597   4.908   4.299
  584SOL    HW1 2651   1.602   4.841   4.373
  584SOL    HW2 2652   1.582   4.999   4.337
  585SOL     OW 2653   5.166   1.512   5.234
  585SOL    HW1 2654   5.182   1.587   5.298
  585SOL    HW2 2655   5.222   1.525   5.153
  586SOL     OW 2656   3.159   5.466   0.948
  586SOL    HW1 2657   3.127   5.403   0.878
  586SOL    HW2 2658   3.205   5.544   0.905
  587SOL     OW 2659   2.317   2.529   6.317
  587SOL    HW1 2660   2.401   2.474   6.321
  587SOL    HW2 2661   2.317   2.584   6.233
  588SOL     OW 2662   2.026   0.066   2.193
  588SOL    HW1 2663   2.078   7.018   2.236
  588SOL    HW2 2664   2.033   0.058   2.094
  589SOL     OW 2665   4.798   4.943   1.500
  589SOL    HW1 2666   4.776   5.038   1.521
  589SOL    HW2 2667   4.797   4.889   1.584
  590SOL     OW 2668   7.014   3.926   1.902
  590SOL    HW1 2669   0.068   3.890   1.853
  590SOL    HW2 2670   6.963   3.849   1.941
  591SOL     OW 2671   2.410   0.142   2.992
  591SOL    HW1 2672   2.370   0.155   3.083
  591SOL    HW2 2673   2.492   0.199   2.984
  592SOL     OW 2674   5.199   6.888   5.950
  592SOL    HW1 2675   5.244   6.967   5.909
  592SOL    HW2 2676   5.222   6.806   5.897
  593SOL     OW 2677   0.014   0.744   4.843
  593SOL    HW1 2678   0.004   0.788   4.753
  593SOL    HW2 2679   6.950   0.718   4.878
  594SOL     OW 2680   5.384   2.299   1.430
  594SOL    HW1 2681   5.421   2.378   1.480
  594SOL    HW2 2682   5.299   2.269   1.474
  595SOL     OW 2683   3.139   0.199   4.212
  595SOL    HW1 2684   3.184   0.228   4.296
  595SOL    HW2 2685   3.167   0.259   4.137
  596SOL     OW 2686   0.752   4.600   2.276
  596SOL    HW1 2687   0.700   4.521   2.310
  596SOL    HW2 2688   0.792   4.577   2.187
  597SOL     OW 2689   4.788   1.960   5.567
  597SOL    HW1 2690   4.717   2.028   5.544
  597SOL    HW2 2691   4.843   1.940   5.486
  598SOL     OW 2692   3.527   3.349   1.781
  598SOL    HW1 2693   3.592   3.345   1.856
  598SOL    HW2 2694   3.540   3.434   1.730
  599SOL     OW 2695   5.647   5.856   3.442
  599SOL    HW1 2696   5.686   5.936   3.488
  599SOL    HW2 2697   5.573   5.886   3.382
  600SOL     OW 2698   2.721   2.195   0.124
  600SOL    HW1 2699   2.818   2.169   0.120
  600SOL    HW2 2700   2.694   2.237   0.037
  601SOL     OW 2701   1.985   4.691   2.475
  601SOL    HW1 2702   2.063   4.673   2.415
  601SOL    HW2 2703   1.998   4.781   2.519
  602SOL     OW 2704   0.188   0.692   2.539
  602SOL    HW1 2705   0.243   0.732   2.466
  602SOL    HW2 2706   0.204   0.743   2.624
  603SOL     OW 2707   4.287   1.534   2.967
  603SOL    HW1 2708   4.314   1.502   2.876
  603SOL    HW2 2709   4.187   1.530   2.976
  604SOL     OW 2710   1.340   3.439   5.958
  604SOL    HW1 2711   1.286   3.509   6.006
  604SOL    HW2 2712   1.297   3.350   5.971
  605SOL     OW 2713   5.350   0.389   4.536
  605SOL    HW1 2714   5.391   0.422   4.450
  605SOL    HW2 2715   5.252   0.407   4.535
  606SOL     OW 2716   2.428   0.005   2.124
  606SOL    HW1 2717   2.528   0.000   2.127
  606SOL    HW2 2718   2.395   6.983   2.043
  607SOL     OW 2719   4.012   0.691   4.437
  607SOL    HW1 2720   3.946   0.642   4.493
  607SOL    HW2 2721   4.051   0.629   4.369
  608SOL     OW 2722   5.734   2.785   0.809
  608SOL    HW1 2723   5.764   2.840   0.730
  608SOL    HW2 2724   5.780   2.696   0.807
  609SOL     OW 2725   3.736   4.266   5.145
  609SOL    HW1 2726   3.753   4.355   5.187
  609SOL    HW2 2727   3.649   4.230   5.177
  610SOL     OW 2728   6.214   1.922   4.565
  610SOL    HW1 2729   6.189   1.865   4.487
  610SOL    HW2 2730   6.212   2.018   4.538
  611SOL     OW 2731   6.310   6.732   0.640
  611SOL    HW1 2732   6.375   6.766   0.572
  611SOL    HW2 2733   6.337   6.765   0.731
  612SOL     OW 2734   1.620   4.508   6.537
  612SOL    HW1 2735   1.545   4.538   6.477
  612SOL    HW2 2736   1.600   4.533   6.631
  613SOL     OW 2737   3.696   1.495   6.870
  613SOL    HW1 2738   3.598   1.507   6.855
  613SOL    HW2 2739   3.715   1.400   6.895
  614SOL     OW 2740   5.116   2.534   0.836
  614SOL    HW1 2741   5.145   2.620   0.795
  614SOL    HW2 2742   5.072   2.477   0.766
  615SOL     OW 2743   6.034   6.096   0.209
  615SOL    HW1 2744   5.996   6.188   0.203
  615SOL    HW2 2745   6.094   6.079   0.132
  616SOL     OW 2746   4.619   1.590   4.509
  616SOL    HW1 2747   4.545   1.635   4.458
  616SOL    HW2 2748   4.645   1.505   4.463
  617SOL     OW 2749   6.223   6.748   5.251
  617SOL    HW1 2750   6.234   6.664   5.197
  617SOL    HW2 2751   6.197   6.724   5.345
  618SOL     OW 2752   5.370   4.653   0.595
  618SOL    HW1 2753   5.406   4.738   0.634
  618SOL    HW2 2754   5.272   4.663   0.579
  619SOL     OW 2755   1.810   0.056   6.588
  619SOL    HW1 2756   1.785   0.111   6.668
  619SOL    HW2 2757   1.906   0.030   6.595
  620SOL     OW 2758   4.836   2.000   1.765
  620SOL    HW1 2759   4.776   1.971   1.840
  620SOL    HW2 2760   4.911   2.056   1.801
  621SOL     OW 2761   2.100   6.882   6.305
  621SOL    HW1 2762   2.006   6.914   6.317
  621SOL    HW2 2763   2.107   6.786   6.332
  622SOL     OW 2764   0.601   3.313   6.434
  622SOL    HW1 2765   0.503   3.332   6.428
  622SOL    HW2 2766   0.650   3.368   6.367
  623SOL     OW 2767   6.735   1.621   2.974
  623SOL    HW1 2768   6.647   1.579   2.954
  623SOL    HW2 2769   6.806   1.579   2.917
  624SOL     OW 2770   6.495   0.890   6.058
  624SOL    HW1 2771   6.452   0.800   6.054
  624SOL    HW2 2772   6.507   0.917   6.154
  625SOL     OW 2773   3.022   1.185   1.463
  625SOL    HW1 2774   2.925   1.202   1.479
  625SOL    HW2 2775   3.051   1.102   1.511
  626SOL     OW 2776   0.168   6.259   3.613
  626SOL    HW1 2777   0.158   6.358   3.614
  626SOL    HW2 2778   0.263   6.235   3.593
  627SOL     OW 2779   6.703   4.874   6.291
  627SOL    HW1 2780   6.627   4.815   6.318
  627SOL    HW2 2781   6.720   4.863   6.193
  628SOL     OW 2782   3.814   4.335   6.690
  628SOL    HW1 2783   3.786   4.409   6.751
  628SOL    HW2 2784   3.819   4.250   6.741
  629SOL     OW 2785   2.000   6.784   6.794
  629SOL    HW1 2786   1.933   6.714   6.770
  629SOL    HW2 2787   1.953   6.863   6.834
  630SOL     OW 2788   5.819   2.303   0.662
  630SOL    HW1 2789   5.844   2.365   0.588
  630SOL    HW2 2790   5.870   2.218   0.653
  631SOL     OW 2791   1.761   3.282   2.293
  631SOL    HW1 2792   1.763   3.201   2.235
  631SOL    HW2 2793   1.781   3.363   2.237
  632SOL     OW 2794   3.419   4.624   1.407
  632SOL    HW1 2795   3.379   4.641   1.497
  632SOL    HW2 2796   3.467   4.706   1.375
  633SOL     OW 2797   1.045   6.139   6.670
  633SOL    HW1 2798   1.041   6.076   6.748
  633SOL    HW2 2799   1.006   6.227   6.696
  634SOL     OW 2800   2.922   3.185   5.565
  634SOL    HW1 2801   2.934   3.122   5.642
  634SOL    HW2 2802   2.893   3.134   5.484
  635SOL     OW 2803   6.630   6.615   6.906
  635SOL    HW1 2804   6.584   6.683   6.963
  635SOL    HW2 2805   6.606   6.523   6.937
  636SOL     OW 2806   1.930   2.198   4.465
  636SOL    HW1 2807   1.904   2.126   4.529
  636SOL    HW2 2808   2.016   2.173   4.420
  637SOL     OW 2809   6.607   1.780   2.140
  637SOL    HW1 2810   6.529   1.840   2.158
  637SOL    HW2 2811   6.586   1.720   2.063
  638SOL     OW 2812   0.126   3.493   5.153
  638SOL    HW1 2813   0.142   3.488   5.054
  638SOL    HW2 2814   0.032   3.464   5.173
  639SOL     OW 2815   6.044   3.476   1.678
  639SOL    HW1 2816   5.998   3.390   1.658
  639SOL    HW2 2817   5.989   3.553   1.644
  640SOL     OW 2818   6.293   3.450   2.807
  640SOL    HW1 2819   6.247   3.539   2.813
  640SOL    HW2 2820   6.351   3.437   2.887
  641SOL     OW 2821   2.479   5.546   4.171
  641SOL    HW1 2822   2.526   5.491   4.102
  641SOL    HW2 2823   2.532   5.547   4.255
  642SOL     OW 2824   0.749   4.771   4.496
  642SOL    HW1 2825   0.740   4.729   4.406
  642SOL    HW2 2826   0.677   4.736   4.557
  643SOL     OW 2827   4.527   4.622   0.720
  643SOL    HW1 2828   4.503   4.587   0.630
  643SOL    HW2 2829   4.616   4.585   0.747
  644SOL     OW 2830   5.911   0.738   4.514
  644SOL    HW1 2831   5.845   0.665   4.494
  644SOL    HW2 2832   5.999   0.715   4.473
  645SOL     OW 2833   4.170   6.555   2.264
  645SOL    HW1 2834   4.072   6.540   2.269
  645SOL    HW2 2835   4.210   6.547   2.355
  646SOL     OW 2836   3.741   1.891   5.237
  646SOL    HW1 2837   3.709   1.984   5.256
  646SOL    HW2 2838   3.676   1.826   5.276
  647SOL     OW 2839   2.364   2.282   6.886
  647SOL    HW1 2840   2.383   2.371   6.845
  647SOL    HW2 2841   2.330   2.220   6.816
  648SOL     OW 2842   5.245   2.322   4.184
  648SOL    HW1 2843   5.175   2.371   4.236
  648SOL    HW2 2844   5.227   2.332   4.086
  649SOL     OW 2845   3.837   5.459   0.343
  649SOL    HW1 2846   3.794   5.378   0.382
  649SOL    HW2 2847   3.798   5.478   0.253
  650SOL     OW 2848   2.617   3.864   1.180
  650SOL    HW1 2849   2.708   3.850   1.218
  650SOL    HW2 2850   2.551   3.808   1.230
  651SOL     OW 2851   0.101   1.869   2.881
  651SOL    HW1 2852   0.045   1.908   2.808
  651SOL    HW2 2853   0.187   1.836   2.843
  652SOL     OW 2854   4.023   6.479   0.755
  652SOL    HW1 2855   4.043   6.382   0.741
  652SOL    HW2 2856   4.094   6.520   0.813
  653SOL     OW 2857   1.556   7.009   3.339
  653SOL    HW1 2858   1.604   6.945   3.398
  653SOL    HW2 2859   1.559   0.075   3.379
  654SOL     OW 2860   1.216   0.088   5.851
  654SOL    HW1 2861   1.202   0.076   5.753
  654SOL    HW2 2862   1.305   0.131   5.867
  655SOL     OW 2863   1.520   4.005   1.395
  655SOL    HW1 2864   1.513   4.105   1.393
  655SOL    HW2 2865   1.610   3.979   1.429
  656SOL     OW 2866   2.167   6.991   0.104
  656SOL    HW1 2867   2.184   6.960   0.011
  656SOL    HW2 2868   2.159   0.065   0.106
  657SOL     OW 2869   4.174   3.409   4.377
  657SOL    HW1 2870   4.177   3.313   4.405
  657SOL    HW2 2871   4.136   3.415   4.284
  658SOL     OW 2872   2.314   0.250   5.048
  658SOL    HW1 2873   2.277   0.245   4.956
  658SOL    HW2 2874   2.242   0.279   5.111
  659SOL     OW 2875   1.909   5.330   6.902
  659SOL    HW1 2876   1.983   5.397   6.899
  659SOL    HW2 2877   1.886   5.301   6.809
  660SOL     OW 2878   5.605   4.289   2.243
  660SOL    HW1 2879   5.684   4.330   2.288
  660SOL    HW2 2880   5.576   4.348   2.167
  661SOL     OW 2881   4.009   6.035   4.066
  661SOL    HW1 2882   4.042   6.003   3.977
  661SOL    HW2 2883   3.965   5.959   4.114
  662SOL     OW 2884   6.443   3.248   6.680
  662SOL    HW1 2885   6.405   3.325   6.730
  662SOL    HW2 2886   6.460   3.172   6.743
  663SOL     OW 2887   1.414   4.329   5.953
  663SOL    HW1 2888   1.468   4.334   5.869
  663SOL    HW2 2889   1.357   4.411   5.961
  664SOL     OW 2890   1.874   0.067   5.802
  664SOL    HW1 2891   1.973   0.073   5.811
  664SOL    HW2 2892   1.831   0.123   5.873
  665SOL     OW 2893   2.404   4.382   2.960
  665SOL    HW1 2894   2.336   4.447   2.927
  665SOL    HW2 2895   2.376   4.289   2.935
  666SOL     OW 2896   2.904   0.323   0.368
  666SOL    HW1 2897   2.934   0.238   0.409
  666SOL    HW2 2898   2.806   0.320   0.352
  667SOL     OW 2899   1.377   2.861   2.582
  667SOL    HW1 2900   1.414   2.832   2.670
  667SOL    HW2 2901   1.426   2.815   2.508
  668SOL     OW 2902   5.479   7.012   0.466
  668SOL    HW1 2903   5.537   6.932   0.483
  668SOL    HW2 2904   5.471   0.000   0.367
  669SOL     OW 2905   6.690   5.987   3.014
  669SOL    HW1 2906   6.666   6.016   3.107
  669SOL    HW2 2907   6.717   6.067   2.960
  670SOL     OW 2908   3.363   4.092   3.363
  670SOL    HW1 2909   3.403   4.123   3.276
  670SOL    HW2 2910   3.281   4.037   3.344
  671SOL     OW 2911   1.598   0.135   6.245
  671SOL    HW1 2912   1.503   0.162   6.259
  671SOL    HW2 2913   1.642   0.120   6.334
  672SOL     OW 2914   0.959   2.160   2.925
  672SOL    HW1 2915   0.861   2.171   2.907
  672SOL    HW2 2916   0.972   2.088   2.993
  673SOL     OW 2917   4.848   0.710   6.839
  673SOL    HW1 2918   4.944   0.685   6.822
  673SOL    HW2 2919   4.821   0.783   6.776
  674SOL     OW 2920   6.696   2.273   4.032
  674SOL    HW1 2921   6.669   2.346   4.096
  674SOL    HW2 2922   6.622   2.206   4.024
  675SOL     OW 2923   5.878   6.834   3.552
  675SOL    HW1 2924   5.858   6.927   3.582
  675SOL    HW2 2925   5.828   6.815   3.468
  676SOL     OW 2926   3.229   4.913   4.885
  676SOL    HW1 2927   3.301   4.977   4.915
  676SOL    HW2 2928   3.167   4.896   4.961
  677SOL     OW 2929   4.938   6.744   0.591
  677SOL    HW1 2930   4.926   6.841   0.609
  677SOL    HW2 2931   4.971   6.731   0.497
  678SOL     OW 2932   2.623   0.680   6.345
  678SOL    HW1 2933   2.545   0.692   6.283
  678SOL    HW2 2934   2.590   0.670   6.439
  679SOL     OW 2935   6.823   0.415   2.828
  679SOL    HW1 2936   6.811   0.463   2.741
  679SOL    HW2 2937   6.846   0.319   2.810
  680SOL     OW 2938   5.979   3.391   4.473
  680SOL    HW1 2939   5.939   3.396   4.565
  680SOL    HW2 2940   5.966   3.479   4.427
  681SOL     OW 2941   1.178   5.464   2.610
  681SOL    HW1 2942   1.141   5.504   2.694
  681SOL    HW2 2943   1.254   5.520   2.576
  682SOL     OW 2944   0.213   7.020   6.001
  682SOL    HW1 2945   0.214   6.933   6.049
  682SOL    HW2 2946   0.143   0.054   6.040
  683SOL     OW 2947   5.418   1.331   1.556
  683SOL    HW1 2948   5.426   1.231   1.559
  683SOL    HW2 2949   5.411   1.367   1.649
  684SOL     OW 2950   6.638   5.846   6.873
  684SOL    HW1 2951   6.570   5.891   6.814
  684SOL    HW2 2952   6.729   5.860   6.834
  685SOL     OW 2953   6.123   0.547   5.230
  685SOL    HW1 2954   6.087   0.505   5.314
  685SOL    HW2 2955   6.062   0.621   5.202
  686SOL     OW 2956   5.620   4.586   1.380
  686SOL    HW1 2957   5.538   4.533   1.400
  686SOL    HW2 2958   5.628   4.662   1.444
  687SOL     OW 2959   5.388   2.399   6.876
  687SOL    HW1 2960   5.412   2.310   6.914
  687SOL    HW2 2961   5.297   2.395   6.834
  688SOL     OW 2962   6.439   2.872   5.373
  688SOL    HW1 2963   6.408   2.928   5.450
  688SOL    HW2 2964   6.409   2.778   5.386
  689SOL     OW 2965   5.513   4.329   4.633
  689SOL    HW1 2966   5.559   4.292   4.714
  689SOL    HW2 2967   5.581   4.372   4.573
  690SOL     OW 2968   6.729   2.212   4.685
  690SOL    HW1 2969   6.760   2.149   4.614
  690SOL    HW2 2970   6.667   2.280   4.645
  691SOL     OW 2971   0.633   3.157   0.073
  691SOL    HW1 2972   0.640   3.216   7.018
  691SOL    HW2 2973   0.686   3.074   0.058
  692SOL     OW 2974   2.354   0.008   3.866
  692SOL    HW1 2975   2.289   0.080   3.887
  692SOL    HW2 2976   2.318   6.946   3.898
  693SOL     OW 2977   5.835   1.584   3.663
  693SOL    HW1 2978   5.821   1.683   3.665
  693SOL    HW2 2979   5.902   1.559   3.732
  694SOL     OW 2980   1.372   0.624   3.072
  694SOL    HW1 2981   1.410   0.532   3.058
  694SOL    HW2 2982   1.282   0.630   3.029
  695SOL     OW 2983   4.930   5.425   6.140
  695SOL    HW1 2984   4.907   5.394   6.233
  695SOL    HW2 2985   4.907   5.522   6.130
  696SOL     OW 2986   5.080   5.679   2.402
  696SOL    HW1 2987   5.034   5.702   2.315
  696SOL    HW2 2988   5.125   5.761   2.438
  697SOL     OW 2989   1.038   3.863   3.342
  697SOL    HW1 2990   1.126   3.908   3.325
  697SOL    HW2 2991   1.052   3.787   3.405
  698SOL     OW 2992   5.008   6.384   4.066
  698SOL    HW1 2993   5.107   6.393   4.054
  698SOL    HW2 2994   4.986   6.388   4.163
  699SOL     OW 2995   2.118   5.428   6.163
  699SOL    HW1 2996   2.086   5.483   6.240
  699SOL    HW2 2997   2.181   5.357   6.196
  700SOL     OW 2998   1.934   2.159   4.979
  700SOL    HW1 2999   1.947   2.163   5.078
  700SOL    HW2 3000   1.917   2.251   4.944
  701SOL     OW 3001   0.933   4.879   5.424
  701SOL    HW1 3002   0.869   4.819   5.375
  701SOL    HW2 3003   0.959   4.836   5.510
  702SOL     OW 3004   5.991   6.273   5.268
  702SOL    HW1 3005   6.060   6.204   5.291
  702SOL    HW2 3006   5.983   6.280   5.168
  703SOL     OW 3007   5.977   3.865   6.229
  703SOL    HW1 3008   6.036   3.828   6.300
  703SOL    HW2 3009   5.908   3.797   6.203
  704SOL     OW 3010   2.270   6.904   1.909
  704SOL    HW1 3011   2.232   6.967   1.841
  704SOL    HW2 3012   2.305   6.822   1.863
  705SOL     OW 3013   0.916   1.468   3.904
  705SOL    HW1 3014   0.827   1.426   3.888
  705SOL    HW2 3015   0.985   1.396   3.914
  706SOL     OW 3016   5.899   3.300   3.700
  706SOL    HW1 3017   5.945   3.368   3.758
  706SOL    HW2 3018   5.906   3.327   3.604
  707SOL     OW 3019   5.091   3.125   2.881
  707SOL    HW1 3020   5.003   3.148   2.840
  707SOL    HW2 3021   5.164   3.137   2.813
  708SOL     OW 3022   4.928   1.339   1.850
  708SOL    HW1 3023   4.969   1.247   1.852
  708SOL    HW2 3024   4.999   1.407   1.832
  709SOL     OW 3025   1.189   4.671   6.716
  709SOL    HW1 3026   1.222   4.584   6.680
  709SOL    HW2 3027   1.238   4.694   6.800
  710SOL     OW 3028   3.219   3.402   3.154
  710SOL    HW1 3029   3.128   3.363   3.141
  710SOL    HW2 3030   3.212   3.488   3.203
  711SOL     OW 3031   0.966   1.051   4.273
  711SOL    HW1 3032   0.870   1.043   4.301
  711SOL    HW2 3033   1.007   0.960   4.270
  712SOL     OW 3034   6.965   4.464   3.330
  712SOL    HW1 3035   6.908   4.543   3.309
  712SOL    HW2 3036   0.024   4.495   3.374
  713SOL     OW 3037   2.602   3.854   5.340
  713SOL    HW1 3038   2.539   3.897   5.275
  713SOL    HW2 3039   2.629   3.922   5.408
  714SOL     OW 3040   4.735   5.081   4.770
  714SOL    HW1 3041   4.747   5.134   4.686
  714SOL    HW2 3042   4.649   5.031   4.765
  715SOL     OW 3043   6.929   0.422   6.467
  715SOL    HW1 3044   7.011   0.396   6.417
  715SOL    HW2 3045   6.951   0.434   6.564
  716SOL     OW 3046   6.448   5.415   6.829
  716SOL    HW1 3047   6.353   5.388   6.815
  716SOL    HW2 3048   6.498   5.341   6.875
  717SOL     OW 3049   5.996   2.595   5.678
  717SOL    HW1 3050   5.999   2.496   5.696
  717SOL    HW2 3051   5.921   2.636   5.731
  718SOL     OW 3052   3.503   2.775   0.596
  718SOL    HW1 3053   3.601   2.761   0.582
  718SOL    HW2 3054   3.488   2.822   0.683
  719SOL     OW 3055   6.339   4.268   6.423
  719SOL    HW1 3056   6.321   4.320   6.339
  719SOL    HW2 3057   6.434   4.238   6.424
  720SOL     OW 3058   4.092   1.171   5.842
  720SOL    HW1 3059   4.030   1.093   5.833
  720SOL    HW2 3060   4.111   1.188   5.938
  721SOL     OW 3061   1.464   6.944   5.528
  721SOL    HW1 3062   1.560   6.953   5.500
  721SOL    HW2 3063   1.419   6.876   5.470
  722SOL     OW 3064   4.744   0.935   5.053
  722SOL    HW1 3065   4.757   0.953   4.955
  722SOL    HW2 3066   4.695   1.011   5.094
  723SOL     OW 3067   0.254   3.165   1.552
  723SOL    HW1 3068   0.205   3.077   1.554
  723SOL    HW2 3069   0.336   3.158   1.608
  724SOL     OW 3070   0.350   2.282   4.481
  724SOL    HW1 3071   0.421   2.216   4.455
  724SOL    HW2 3072   0.273   2.275   4.418
  725SOL     OW 3073   2.406   4.882   2.445
  725SOL    HW1 3074   2.409   4.950   2.518
  725SOL    HW2 3075   2.446   4.921   2.362
  726SOL     OW 3076   5.581   6.100   6.243
  726SOL    HW1 3077   5.586   6.033   6.318
  726SOL    HW2 3078   5.659   6.162   6.249
  727SOL     OW 3079   1.929   4.543   4.704
  727SOL    HW1 3080   1.942   4.642   4.709
  727SOL    HW2 3081   2.016   4.498   4.687
  728SOL     OW 3082   6.212   2.098   5.820
  728SOL    HW1 3083   6.139   2.062   5.878
  728SOL    HW2 3084   6.280   2.144   5.877
  729SOL     OW 3085   3.876   1.754   0.724
  729SOL    HW1 3086   3.816   1.693   0.776
  729SOL    HW2 3087   3.890   1.839   0.775
  730SOL     OW 3088   6.160   1.168   4.167
  730SOL    HW1 3089   6.084   1.231   4.149
  730SOL    HW2 3090   6.125   1.087   4.214
  731SOL     OW 3091   0.122   1.772   3.682
  731SOL    HW1 3092   0.221   1.766   3.679
  731SOL    HW2 3093   0.090   1.836   3.612
  732SOL     OW 3094   0.674   3.750   3.429
  732SOL    HW1 3095   0.733   3.816   3.383
  732SOL    HW2 3096   0.698   3.657   3.399
  733SOL     OW 3097   4.544   4.471   4.731
  733SOL    HW1 3098   4.454   4.506   4.705
  733SOL    HW2 3099   4.573   4.514   4.817
  734SOL     OW 3100   0.907   6.035   6.436
  734SOL    HW1 3101   0.970   6.055   6.511
  734SOL    HW2 3102   0.831   6.100   6.439
  735SOL     OW 3103   3.522   4.358   6.789
  735SOL    HW1 3104   3.454   4.425   6.759
  735SOL    HW2 3105   3.482   4.266   6.786
  736SOL     OW 3106   6.115   1.036   2.233
  736SOL    HW1 3107   6.043   1.032   2.302
  736SOL    HW2 3108   6.204   1.020   2.276
  737SOL     OW 3109   5.703   3.652   0.277
  737SOL    HW1 3110   5.707   3.621   0.371
  737SOL    HW2 3111   5.619   3.621   0.234
  738SOL     OW 3112   6.912   4.059   3.959
  738SOL    HW1 3113   7.001   4.064   4.004
  738SOL    HW2 3114   6.896   4.144   3.908
  739SOL     OW 3115   4.501   6.391   6.294
  739SOL    HW1 3116   4.466   6.424   6.382
  739SOL    HW2 3117   4.460   6.302   6.273
  740SOL     OW 3118   5.701   6.850   0.207
  740SOL    HW1 3119   5.619   6.903   0.227
  740SOL    HW2 3120   5.773   6.912   0.175
  741SOL     OW 3121   1.931   0.568   4.006
  741SOL    HW1 3122   1.941   0.480   3.959
  741SOL    HW2 3123   2.018   0.595   4.047
  742SOL     OW 3124   1.456   6.283   2.926
  742SOL    HW1 3125   1.524   6.295   2.999
  742SOL    HW2 3126   1.435   6.372   2.886
  743SOL     OW 3127   1.721   3.690   2.437
  743SOL    HW1 3128   1.743   3.593   2.428
  743SOL    HW2 3129   1.801   3.744   2.410
  744SOL     OW 3130   6.605   5.069   0.964
  744SOL    HW1 3131   6.545   5.104   1.035
  744SOL    HW2 3132   6.551   5.036   0.886
  745SOL     OW 3133   0.985   6.241   2.060
  745SOL    HW1 3134   0.899   6.191   2.049
  745SOL    HW2 3135   1.054   6.180   2.099
  746SOL     OW 3136   3.070   6.963   3.362
  746SOL    HW1 3137   3.015   0.021   3.374
  746SOL    HW2 3138   3.146   6.981   3.299
  747SOL     OW 3139   0.107   4.238   0.676
  747SOL    HW1 3140   0.192   4.275   0.639
  747SOL    HW2 3141   0.030   4.274   0.625
  748SOL     OW 3142   3.281   3.011   3.541
  748SOL    HW1 3143   3.304   3.103   3.507
  748SOL    HW2 3144   3.221   2.965   3.476
  749SOL     OW 3145   5.187   2.862   5.646
  749SOL    HW1 3146   5.131   2.799   5.699
  749SOL    HW2 3147   5.259   2.900   5.704
  750SOL     OW 3148   3.215   3.705   2.210
  750SOL    HW1 3149   3.220   3.633   2.141
  750SOL    HW2 3150   3.290   3.770   2.196
  751SOL     OW 3151   5.596   1.903   0.182
  751SOL    HW1 3152   5.604   1.948   0.270
  751SOL    HW2 3153   5.575   1.806   0.196
  752SOL     OW 3154   4.780   0.386   1.981
  752SOL    HW1 3155   4.698   0.375   2.039
  752SOL    HW2 3156   4.796   0.483   1.964
  753SOL     OW 3157   3.827   1.689   1.773
  753SOL    HW1 3158   3.789   1.609   1.726
  753SOL    HW2 3159   3.878   1.659   1.853
  754SOL     OW 3160   5.521   5.012   6.641
  754SOL    HW1 3161   5.507   5.035   6.545
  754SOL    HW2 3162   5.458   5.066   6.698
  755SOL     OW 3163   5.912   5.169   2.204
  755SOL    HW1 3164   5.950   5.259   2.223
  755SOL    HW2 3165   5.831   5.178   2.146
  756SOL     OW 3166   2.355   6.534   3.770
  756SOL    HW1 3167   2.353   6.492   3.861
  756SOL    HW2 3168   2.443   6.515   3.727
  757SOL     OW 3169   0.037   0.609   4.518
  757SOL    HW1 3170   7.019   0.527   4.480
  757SOL    HW2 3171   7.025   0.690   4.473
  758SOL     OW 3172   4.185   1.639   0.762
  758SOL    HW1 3173   4.100   1.692   0.750
  758SOL    HW2 3174   4.246   1.688   0.824
  759SOL     OW 3175   2.046   0.342   1.772
  759SOL    HW1 3176   2.034   0.436   1.742
  759SOL    HW2 3177   2.009   0.331   1.864
  760SOL     OW 3178   4.640   1.687   6.139
  760SOL    HW1 3179   4.674   1.775   6.171
  760SOL    HW2 3180   4.715   1.620   6.139
  761SOL     OW 3181   5.160   0.646   6.806
  761SOL    HW1 3182   5.183   0.566   6.752
  761SOL    HW2 3183   5.191   0.728   6.759
  762SOL     OW 3184   2.510   4.595   4.969
  762SOL    HW1 3185   2.484   4.664   4.901
  762SOL    HW2 3186   2.609   4.586   4.972
  763SOL     OW 3187   0.085   4.981   0.595
  763SOL    HW1 3188   0.139   4.962   0.513
  763SOL    HW2 3189   0.003   4.925   0.596
  764SOL     OW 3190   5.927   1.199   2.658
  764SOL    HW1 3191   5.838   1.154   2.655
  764SOL    HW2 3192   5.921   1.287   2.612
  765SOL     OW 3193   1.110   6.617   2.975
  765SOL    HW1 3194   1.187   6.681   2.980
  765SOL    HW2 3195   1.027   6.662   3.009
  766SOL     OW 3196   0.218   6.288   0.300
  766SOL    HW1 3197   0.311   6.322   0.287
  766SOL    HW2 3198   0.207   6.201   0.252
  767SOL     OW 3199   5.776   5.895   1.288
  767SOL    HW1 3200   5.712   5.832   1.333
  767SOL    HW2 3201   5.858   5.905   1.344
  768SOL     OW 3202   2.906   6.625   4.033
  768SOL    HW1 3203   2.918   6.589   3.940
  768SOL    HW2 3204   2.910   6.550   4.099
  769SOL     OW 3205   3.799   0.516   0.171
  769SOL    HW1 3206   3.827   0.570   0.250
  769SOL    HW2 3207   3.859   0.536   0.094
  770SOL     OW 3208   3.280   5.079   5.166
  770SOL    HW1 3209   3.322   5.102   5.254
  770SOL    HW2 3210   3.188   5.118   5.161
  771SOL     OW 3211   0.452   6.902   4.665
  771SOL    HW1 3212   0.398   6.962   4.724
  771SOL    HW2 3213   0.424   6.807   4.680
  772SOL     OW 3214   0.570   3.052   6.644
  772SOL    HW1 3215   0.617   3.036   6.731
  772SOL    HW2 3216   0.488   3.107   6.660
  773SOL     OW 3217   6.658   3.495   2.150
  773SOL    HW1 3218   6.643   3.512   2.052
  773SOL    HW2 3219   6.693   3.402   2.163
  774SOL     OW 3220   1.081   1.226   1.623
  774SOL    HW1 3221   1.022   1.149   1.648
  774SOL    HW2 3222   1.141   1.199   1.547
  775SOL     OW 3223   1.709   3.012   4.019
  775SOL    HW1 3224   1.639   2.974   4.079
  775SOL    HW2 3225   1.707   2.964   3.931
  776SOL     OW 3226   2.257   0.513   5.443
  776SOL    HW1 3227   2.310   0.544   5.522
  776SOL    HW2 3228   2.298   0.550   5.359
  777SOL     OW 3229   3.949   6.869   0.012
  777SOL    HW1 3230   3.980   6.904   6.949
  777SOL    HW2 3231   4.007   6.905   0.084
  778SOL     OW 3232   4.782   5.918   4.859
  778SOL    HW1 3233   4.732   5.964   4.933
  778SOL    HW2 3234   4.880   5.923   4.877
  779SOL     OW 3235   0.425   0.238   2.047
  779SOL    HW1 3236   0.489   0.162   2.045
  779SOL    HW2 3237   0.472   0.320   2.081
  780SOL     OW 3238   5.553   2.064   5.044
  780SOL    HW1 3239   5.581   2.119   5.122
  780SOL    HW2 3240   5.634   2.034   4.994
  781SOL     OW 3241   1.455   3.959   0.137
  781SOL    HW1 3242   1.450   3.892   0.211
  781SOL    HW2 3243   1.532   3.938   0.077
  782SOL     OW 3244   6.958   5.523   0.689
  782SOL    HW1 3245   6.979   5.426   0.694
  782SOL    HW2 3246   6.865   5.535   0.653
  783SOL     OW 3247   1.976   5.729   0.286
  783SOL    HW1 3248   2.029   5.765   0.364
  783SOL    HW2 3249   1.887   5.774   0.283
  784SOL     OW 3250   5.309   5.416   3.150
  784SOL    HW1 3251   5.321   5.473   3.069
  784SOL    HW2 3252   5.219   5.371   3.146
  785SOL     OW 3253   6.245   2.684   3.513
  785SOL    HW1 3254   6.277   2.656   3.604
  785SOL    HW2 3255   6.193   2.769   3.521
  786SOL     OW 3256   5.792   6.733   1.174
  786SOL    HW1 3257   5.740   6.653   1.203
  786SOL    HW2 3258   5.753   6.815   1.217
  787SOL     OW 3259   4.210   1.044   0.018
  787SOL    HW1 3260   4.294   1.089   0.049
  787SOL    HW2 3261   4.205   1.049   6.944
  788SOL     OW 3262   0.418   4.477   3.604
  788SOL    HW1 3263   0.430   4.385   3.641
  788SOL    HW2 3264   0.459   4.544   3.666
  789SOL     OW 3265   5.742   3.199   0.989
  789SOL    HW1 3266   5.840   3.187   0.972
  789SOL    HW2 3267   5.704   3.263   0.923
  790SOL     OW 3268   2.974   0.555   3.907
  790SOL    HW1 3269   3.046   0.622   3.924
  790SOL    HW2 3270   2.945   0.513   3.993
  791SOL     OW 3271   3.780   1.307   4.567
  791SOL    HW1 3272   3.721   1.265   4.636
  791SOL    HW2 3273   3.729   1.375   4.515
  792SOL     OW 3274   5.529   0.925   3.746
  792SOL    HW1 3275   5.594   0.889   3.812
  792SOL    HW2 3276   5.565   0.912   3.653
  793SOL     OW 3277   0.211   0.040   6.764
  793SOL    HW1 3278   0.119   0.075   6.749
  793SOL    HW2 3279   0.206   6.975   6.807
  794SOL     OW 3280   3.552   4.909   5.199
  794SOL    HW1 3281   3.476   4.973   5.206
  794SOL    HW2 3282   3.602   4.924   5.114
  795SOL     OW 3283   4.959   5.107   0.041
  795SOL    HW1 3284   4.975   5.200   0.073
  795SOL    HW2 3285   4.892   5.108   6.991
  796SOL     OW 3286   1.175   1.738   5.733
  796SOL    HW1 3287   1.170   1.804   5.658
  796SOL    HW2 3288   1.083   1.701   5.750
  797SOL     OW 3289   6.163   3.135   5.586
  797SOL    HW1 3290   6.187   3.193   5.508
  797SOL    HW2 3291   6.118   3.052   5.553
  798SOL     OW 3292   6.322   1.044   4.471
  798SOL    HW1 3293   6.366   1.009   4.388
  798SOL    HW2 3294   6.338   0.981   4.547
  799SOL     OW 3295   0.235   4.159   3.609
  799SOL    HW1 3296   0.253   4.179   3.513
  799SOL    HW2 3297   0.198   4.066   3.617
  800SOL     OW 3298   0.171   2.438   2.439
  800SOL    HW1 3299   0.194   2.533   2.418
  800SOL    HW2 3300   0.080   2.417   2.403
  801SOL     OW 3301   0.438   3.027   3.406
  801SOL    HW1 3302   0.423   2.964   3.329
  801SOL    HW2 3303   0.537   3.043   3.417
  802SOL     OW 3304   6.701   1.500   0.731
  802SOL    HW1 3305   6.764   1.487   0.808
  802SOL    HW2 3306   6.726   1.584   0.682
  803SOL     OW 3307   2.245   0.114   4.359
  803SOL    HW1 3308   2.226   0.038   4.296
  803SOL    HW2 3309   2.196   0.099   4.445
  804SOL     OW 3310   5.692   5.893   0.473
  804SOL    HW1 3311   5.784   5.878   0.437
  804SOL    HW2 3312   5.663   5.812   0.524
  805SOL     OW 3313   2.153   2.593   6.562
  805SOL    HW1 3314   2.069   2.646   6.553
  805SOL    HW2 3315   2.195   2.581   6.472
  806SOL     OW 3316   4.290   6.271   0.484
  806SOL    HW1 3317   4.374   6.233   0.523
  806SOL    HW2 3318   4.211   6.228   0.527
  807SOL     OW 3319   0.757   0.362   3.256
  807SOL    HW1 3320   0.806   0.324   3.334
  807SOL    HW2 3321   0.659   0.356   3.272
  808SOL     OW 3322   5.697   3.641   4.467
  808SOL    HW1 3323   5.646   3.725   4.486
  808SOL    HW2 3324   5.699   3.584   4.550
  809SOL     OW 3325   0.330   5.798   5.953
  809SOL    HW1 3326   0.383   5.863   6.007
  809SOL    HW2 3327   0.283   5.734   6.013
  810SOL     OW 3328   5.957   5.474   5.921
  810SOL    HW1 3329   5.933   5.398   5.981
  810SOL    HW2 3330   5.990   5.551   5.976
  811SOL     OW 3331   3.108   4.854   2.893
  811SOL    HW1 3332   3.025   4.841   2.839
  811SOL    HW2 3333   3.095   4.819   2.985
  812SOL     OW 3334   0.145   0.421   2.588
  812SOL    HW1 3335   0.149   0.519   2.566
  812SOL    HW2 3336   0.135   0.409   2.687
  813SOL     OW 3337   4.962   5.270   1.840
  813SOL    HW1 3338   4.867   5.242   1.855
  813SOL    HW2 3339   4.998   5.311   1.924
  814SOL     OW 3340   5.121   5.727   1.381
  814SOL    HW1 3341   5.097   5.722   1.478
  814SOL    HW2 3342   5.206   5.678   1.365
  815SOL     OW 3343   1.119   0.926   1.049
  815SOL    HW1 3344   1.049   0.921   1.120
  815SOL    HW2 3345   1.152   1.021   1.041
  816SOL     OW 3346   6.096   0.385   1.461
  816SOL    HW1 3347   6.038   0.315   1.502
  816SOL    HW2 3348   6.128   0.448   1.532
  817SOL     OW 3349   0.743   2.495   2.024
  817SOL    HW1 3350   0.720   2.397   2.020
  817SOL    HW2 3351   0.790   2.514   2.110
  818SOL     OW 3352   6.088   1.142   2.883
  818SOL    HW1 3353   6.148   1.067   2.853
  818SOL    HW2 3354   6.030   1.170   2.806
  819SOL     OW 3355   0.280   5.041   2.346
  819SOL    HW1 3356   0.263   5.008   2.253
  819SOL    HW2 3357   0.349   5.114   2.344
  820SOL     OW 3358   2.767   2.968   5.923
  820SOL    HW1 3359   2.729   3.052   5.882
  820SOL    HW2 3360   2.707   2.937   5.997
  821SOL     OW 3361   1.193   4.154   0.656
  821SOL    HW1 3362   1.268   4.107   0.702
  821SOL    HW2 3363   1.218   4.172   0.561
  822SOL     OW 3364   0.749   2.971   4.933
  822SOL    HW1 3365   0.726   2.997   4.839
  822SOL    HW2 3366   0.797   2.884   4.933
  823SOL     OW 3367   3.972   3.784   1.552
  823SOL    HW1 3368   3.978   3.863   1.614
  823SOL    HW2 3369   4.050   3.786   1.489
  824SOL     OW 3370   5.907   3.305   6.520
  824SOL    HW1 3371   5.947   3.228   6.570
  824SOL    HW2 3372   5.896   3.281   6.424
  825SOL     OW 3373   1.929   3.095   1.532
  825SOL    HW1 3374   1.852   3.077   1.593
  825SOL    HW2 3375   1.896   3.098   1.437
  826SOL     OW 3376   0.689   2.107   6.802
  826SOL    HW1 3377   0.702   2.012   6.831
  826SOL    HW2 3378   0.777   2.151   6.790
  827SOL     OW 3379   3.528   4.508   1.114
  827SOL    HW1 3380   3.486   4.452   1.042
  827SOL    HW2 3381   3.623   4.525   1.092
  828SOL     OW 3382   6.006   1.026   5.226
  828SOL    HW1 3383   6.033   1.119   5.203
  828SOL    HW2 3384   5.934   1.029   5.296
  829SOL     OW 3385   3.995   4.321   5.534
  829SOL    HW1 3386   3.977   4.309   5.436
  829SOL    HW2 3387   3.910   4.306   5.585
  830SOL     OW 3388   4.639   3.324   6.302
  830SOL    HW1 3389   4.639   3.224   6.297
  830SOL    HW2 3390   4.705   3.360   6.236
  831SOL     OW 3391   5.776   1.028   5.366
  831SOL    HW1 3392   5.701   1.091   5.384
  831SOL    HW2 3393   5.741   0.944   5.325
  832SOL     OW 3394   2.333   1.184   6.130
  832SOL    HW1 3395   2.296   1.119   6.063
  832SOL    HW2 3396   2.398   1.137   6.189
  833SOL     OW 3397   1.329   0.438   5.073
  833SOL    HW1 3398   1.272   0.493   5.013
  833SOL    HW2 3399   1.285   0.349   5.089
  834SOL     OW 3400   2.955   4.419   5.922
  834SOL    HW1 3401   2.918   4.428   6.015
  834SOL    HW2 3402   2.920   4.493   5.865
  835SOL     OW 3403   3.789   1.837   2.378
  835SOL    HW1 3404   3.794   1.879   2.469
  835SOL    HW2 3405   3.732   1.893   2.319
  836SOL     OW 3406   2.292   0.863   5.778
  836SOL    HW1 3407   2.275   0.944   5.834
  836SOL    HW2 3408   2.280   0.781   5.833
  837SOL     OW 3409   4.084   2.146   4.217
  837SOL    HW1 3410   4.058   2.059   4.175
  837SOL    HW2 3411   4.135   2.201   4.150
  838SOL     OW 3412   0.905   6.831   2.414
  838SOL    HW1 3413   0.990   6.816   2.465
  838SOL    HW2 3414   0.842   6.885   2.469
  839SOL     OW 3415   2.164   1.735   2.095
  839SOL    HW1 3416   2.080   1.684   2.079
  839SOL    HW2 3417   2.165   1.817   2.038
  840SOL     OW 3418   1.494   0.970   5.684
  840SOL    HW1 3419   1.482   1.060   5.643
  840SOL    HW2 3420   1.521   0.905   5.613
  841SOL     OW 3421   7.014   3.556   0.586
  841SOL    HW1 3422   0.067   3.522   0.535
  841SOL    HW2 3423   6.930   3.524   0.541
  842SOL     OW 3424   4.015   4.862   4.193
  842SOL    HW1 3425   3.940   4.876   4.258
  842SOL    HW2 3426   3.980   4.875   4.100
  843SOL     OW 3427   6.903   3.412   1.575
  843SOL    HW1 3428   6.922   3.477   1.502
  843SOL    HW2 3429   6.883   3.322   1.537
  844SOL     OW 3430   5.838   4.671   6.302
  844SOL    HW1 3431   5.826   4.573   6.287
  844SOL    HW2 3432   5.769   4.703   6.367
  845SOL     OW 3433   2.001   4.901   5.415
  845SOL    HW1 3434   1.935   4.853   5.359
  845SOL    HW2 3435   1.958   4.930   5.500
  846SOL     OW 3436   4.328   2.020   0.277
  846SOL    HW1 3437   4.252   2.085   0.286
  846SOL    HW2 3438   4.297   1.940   0.226
  847SOL     OW 3439   4.960   4.635   1.994
  847SOL    HW1 3440   4.980   4.540   2.018
  847SOL    HW2 3441   5.046   4.684   1.982
  848SOL     OW 3442   5.501   0.164   5.645
  848SOL    HW1 3443   5.568   0.233   5.673
  848SOL    HW2 3444   5.474   0.181   5.550
  849SOL     OW 3445   0.734   6.167   3.942
  849SOL    HW1 3446   0.634   6.172   3.947
  849SOL    HW2 3447   0.768   6.229   3.872
  850SOL     OW 3448   2.719   0.835   3.384
  850SOL    HW1 3449   2.755   0.833   3.478
  850SOL    HW2 3450   2.639   0.895   3.381
  851SOL     OW 3451   6.801   1.011   5.566
  851SOL    HW1 3452   6.757   0.989   5.479
  851SOL    HW2 3453   6.881   1.069   5.549
  852SOL     OW 3454   2.992   5.135   5.116
  852SOL    HW1 3455   3.033   5.173   5.033
  852SOL    HW2 3456   2.978   5.037   5.103
  853SOL     OW 3457   0.664   4.331   0.563
  853SOL    HW1 3458   0.760   4.302   0.569
  853SOL    HW2 3459   0.625   4.300   0.477
  854SOL     OW 3460   6.102   5.320   0.818
  854SOL    HW1 3461   6.080   5.414   0.793
  854SOL    HW2 3462   6.106   5.311   0.917
  855SOL     OW 3463   4.818   0.289   0.568
  855SOL    HW1 3464   4.774   0.277   0.479
  855SOL    HW2 3465   4.776   0.366   0.615
  856SOL     OW 3466   1.573   0.613   5.070
  856SOL    HW1 3467   1.535   0.525   5.043
  856SOL    HW2 3468   1.671   0.614   5.053
  857SOL     OW 3469   5.675   4.372   1.902
  857SOL    HW1 3470   5.655   4.455   1.955
  857SOL    HW2 3471   5.773   4.365   1.886
  858SOL     OW 3472   3.349   4.024   2.169
  858SOL    HW1 3473   3.395   4.005   2.256
  858SOL    HW2 3474   3.411   4.075   2.109
  859SOL     OW 3475   0.431   4.566   1.093
  859SOL    HW1 3476   0.398   4.645   1.144
  859SOL    HW2 3477   0.525   4.582   1.063
  860SOL     OW 3478   1.612   4.300   5.739
  860SOL    HW1 3479   1.692   4.240   5.743
  860SOL    HW2 3480   1.642   4.395   5.732
  861SOL     OW 3481   4.158   4.519   6.322
  861SOL    HW1 3482   4.097   4.444   6.346
  861SOL    HW2 3483   4.252   4.485   6.318
  862SOL     OW 3484   4.534   4.420   3.609
  862SOL    HW1 3485   4.480   4.349   3.563
  862SOL    HW2 3486   4.590   4.378   3.681
  863SOL     OW 3487   6.101   2.706   1.746
  863SOL    HW1 3488   6.054   2.675   1.828
  863SOL    HW2 3489   6.069   2.798   1.722
  864SOL     OW 3490   0.469   6.137   2.344
  864SOL    HW1 3491   0.495   6.233   2.354
  864SOL    HW2 3492   0.522   6.081   2.407
  865SOL     OW 3493   1.894   1.251   4.093
  865SOL    HW1 3494   1.883   1.210   4.184
  865SOL    HW2 3495   1.936   1.184   4.031
  866SOL     OW 3496   4.209   0.938   1.303
  866SOL    HW1 3497   4.272   1.014   1.319
  866SOL    HW2 3498   4.187   0.895   1.391
  867SOL     OW 3499   2.657   1.837   6.097
  867SOL    HW1 3500   2.740   1.812   6.146
  867SOL    HW2 3501   2.578   1.825   6.157
  868SOL     OW 3502   5.039   2.420   3.656
  868SOL    HW1 3503   4.969   2.422   3.727
  868SOL    HW2 3504   5.124   2.459   3.691
  869SOL     OW 3505   6.787   3.823   0.707
  869SOL    HW1 3506   6.834   3.908   0.684
  869SOL    HW2 3507   6.855   3.754   0.733
  870SOL     OW 3508   6.364   1.378   0.373
  870SOL    HW1 3509   6.388   1.441   0.299
  870SOL    HW2 3510   6.444   1.323   0.397
  871SOL     OW 3511   7.005   4.704   0.243
  871SOL    HW1 3512   6.958   4.641   0.181
  871SOL    HW2 3513   0.010   4.784   0.192
  872SOL     OW 3514   6.939   1.834   1.442
  872SOL    HW1 3515   0.004   1.867   1.414
  872SOL    HW2 3516   6.927   1.848   1.540
  873SOL     OW 3517   3.802   6.765   4.257
  873SOL    HW1 3518   3.720   6.732   4.209
  873SOL    HW2 3519   3.847   6.688   4.301
  874SOL     OW 3520   1.164   3.889   6.487
  874SOL    HW1 3521   1.093   3.861   6.423
  874SOL    HW2 3522   1.124   3.947   6.558
  875SOL     OW 3523   6.344   6.213   6.263
  875SOL    HW1 3524   6.257   6.244   6.223
  875SOL    HW2 3525   6.330   6.189   6.359
  876SOL     OW 3526   2.928   2.148   1.445
  876SOL    HW1 3527   3.027   2.133   1.453
  876SOL    HW2 3528   2.910   2.246   1.442
  877SOL     OW 3529   5.960   5.735   6.018
  877SOL    HW1 3530   5.869   5.732   6.061
  877SOL    HW2 3531   5.960   5.807   5.948
  878SOL     OW 3532   4.266   3.728   1.146
  878SOL    HW1 3533   4.357   3.757   1.118
  878SOL    HW2 3534   4.227   3.667   1.077
  879SOL     OW 3535   5.288   3.378   3.521
  879SOL    HW1 3536   5.188   3.374   3.522
  879SOL    HW2 3537   5.325   3.309   3.584
  880SOL     OW 3538   4.169   6.572   1.422
  880SOL    HW1 3539   4.155   6.543   1.516
  880SOL    HW2 3540   4.266   6.589   1.406
  881SOL     OW 3541   5.049   5.231   3.101
  881SOL    HW1 3542   5.041   5.194   3.194
  881SOL    HW2 3543   4.983   5.305   3.089
  882SOL     OW 3544   0.878   1.993   5.286
  882SOL    HW1 3545   0.861   1.906   5.333
  882SOL    HW2 3546   0.946   2.046   5.337
  883SOL     OW 3547   3.211   4.908   0.397
  883SOL    HW1 3548   3.242   4.975   0.465
  883SOL    HW2 3549   3.251   4.931   0.308
  884SOL     OW 3550   3.816   4.864   1.233
  884SOL    HW1 3551   3.895   4.919   1.262
  884SOL    HW2 3552   3.841   4.767   1.234
  885SOL     OW 3553   4.171   6.282   6.325
  885SOL    HW1 3554   4.072   6.266   6.321
  885SOL    HW2 3555   4.216   6.232   6.251
  886SOL     OW 3556   4.332   2.212   6.578
  886SOL    HW1 3557   4.234   2.214   6.595
  886SOL    HW2 3558   4.358   2.293   6.525
  887SOL     OW 3559   6.230   6.544   4.432
  887SOL    HW1 3560   6.160   6.580   4.370
  887SOL    HW2 3561   6.230   6.444   4.428
  888SOL     OW 3562   6.446   0.976   3.311
  888SOL    HW1 3563   6.431   1.072   3.288
  888SOL    HW2 3564   6.407   0.918   3.239
  889SOL     OW 3565   0.826   0.813   4.493
  889SOL    HW1 3566   0.785   0.773   4.575
  889SOL    HW2 3567   0.782   0.900   4.472
  890SOL     OW 3568   2.274   3.151   0.811
  890SOL    HW1 3569   2.330   3.217   0.762
  890SOL    HW2 3570   2.333   3.078   0.847
  891SOL     OW 3571   6.034   3.095   5.831
  891SOL    HW1 3572   6.073   3.097   5.739
  891SOL    HW2 3573   6.081   3.163   5.888
  892SOL     OW 3574   1.573   4.732   1.792
  892SOL    HW1 3575   1.614   4.647   1.823
  892SOL    HW2 3576   1.559   4.728   1.693
  893SOL     OW 3577   1.941   6.712   2.285
  893SOL    HW1 3578   1.844   6.687   2.279
  893SOL    HW2 3579   1.960   6.751   2.375
  894SOL     OW 3580   1.250   4.875   4.446
  894SOL    HW1 3581   1.334   4.930   4.456
  894SOL    HW2 3582   1.173   4.936   4.428
  895SOL     OW 3583   2.480   1.251   4.177
  895SOL    HW1 3584   2.480   1.314   4.255
  895SOL    HW2 3585   2.544   1.176   4.195
  896SOL     OW 3586   4.732   6.997   3.555
  896SOL    HW1 3587   4.816   0.008   3.595
  896SOL    HW2 3588   4.709   6.910   3.599
  897SOL     OW 3589   6.122   1.236   6.301
  897SOL    HW1 3590   6.075   1.148   6.302
  897SOL    HW2 3591   6.170   1.247   6.214
  898SOL     OW 3592   4.855   6.191   3.472
  898SOL    HW1 3593   4.943   6.206   3.427
  898SOL    HW2 3594   4.870   6.180   3.570
  899SOL     OW 3595   1.222   5.288   0.187
  899SOL    HW1 3596   1.192   5.352   0.117
  899SOL    HW2 3597   1.308   5.245   0.160
  900SOL     OW 3598   0.394   5.678   3.345
  900SOL    HW1 3599   0.427   5.629   3.426
  900SOL    HW2 3600   0.294   5.681   3.347
  901SOL     OW 3601   6.214   1.932   3.261
  901SOL    HW1 3602   6.237   1.946   3.357
  901SOL    HW2 3603   6.277   1.985   3.204
  902SOL     OW 3604   1.412   6.089   0.160
  902SOL    HW1 3605   1.389   6.093   0.063
  902SOL    HW2 3606   1.472   6.011   0.177
  903SOL     OW 3607   1.040   4.776   6.439
  903SOL    HW1 3608   1.132   4.738   6.436
  903SOL    HW2 3609   1.042   4.865   6.484
  904SOL     OW 3610   1.587   1.981   4.226
  904SOL    HW1 3611   1.509   2.041   4.245
  904SOL    HW2 3612   1.669   2.036   4.210
  905SOL     OW 3613   5.997   3.273   3.311
  905SOL    HW1 3614   6.001   3.285   3.212
  905SOL    HW2 3615   5.961   3.356   3.353
  906SOL     OW 3616   6.922   3.067   5.368
  906SOL    HW1 3617   6.967   2.982   5.396
  906SOL    HW2 3618   6.965   3.144   5.415
  907SOL     OW 3619   0.090   4.090   2.609
  907SOL    HW1 3620   0.082   4.073   2.707
  907SOL    HW2 3621   0.006   4.131   2.574
  908SOL     OW 3622   2.608   1.504   3.607
  908SOL    HW1 3623   2.667   1.464   3.677
  908SOL    HW2 3624   2.567   1.430   3.553
  909SOL     OW 3625   3.239   6.715   2.518
  909SOL    HW1 3626   3.294   6.771   2.580
  909SOL    HW2 3627   3.146   6.750   2.515
  910SOL     OW 3628   1.084   1.030   2.139
  910SOL    HW1 3629   1.053   1.073   2.054
  910SOL    HW2 3630   1.175   0.991   2.126
  911SOL     OW 3631   0.995   2.757   0.953
  911SOL    HW1 3632   0.928   2.811   0.902
  911SOL    HW2 3633   1.031   2.811   1.029
  912SOL     OW 3634   1.914   0.741   0.380
  912SOL    HW1 3635   1.970   0.702   0.453
  912SOL    HW2 3636   1.866   0.822   0.414
  913SOL     OW 3637   2.037   0.861   1.919
  913SOL    HW1 3638   2.094   0.900   1.847
  913SOL    HW2 3639   2.094   0.813   1.985
  914SOL     OW 3640   3.193   4.914   2.410
  914SOL    HW1 3641   3.248   4.985   2.366
  914SOL    HW2 3642   3.102   4.911   2.368
  915SOL     OW 3643   2.964   2.156   1.037
  915SOL    HW1 3644   2.958   2.204   1.125
  915SOL    HW2 3645   3.030   2.202   0.978
  916SOL     OW 3646   0.338   3.532   2.236
  916SOL    HW1 3647   0.320   3.465   2.307
  916SOL    HW2 3648   0.405   3.495   2.171
  917SOL     OW 3649   4.067   0.735   6.146
  917SOL    HW1 3650   4.135   0.749   6.074
  917SOL    HW2 3651   4.007   0.816   6.150
  918SOL     OW 3652   6.958   2.317   4.806
  918SOL    HW1 3653   6.953   2.254   4.884
  918SOL    HW2 3654   6.909   2.277   4.728
  919SOL     OW 3655   0.648   0.269   1.063
  919SOL    HW1 3656   0.586   0.330   1.112
  919SOL    HW2 3657   0.740   0.308   1.064
  920SOL     OW 3658   1.134   1.784   2.018
  920SOL    HW1 3659   1.099   1.851   1.953
  920SOL    HW2 3660   1.103   1.807   2.110
  921SOL     OW 3661   4.073   4.419   0.318
  921SOL    HW1 3662   4.085   4.360   0.398
  921SOL    HW2 3663   3.995   4.386   0.265
  922SOL     OW 3664   2.169   5.781   6.701
  922SOL    HW1 3665   2.130   5.831   6.623
  922SOL    HW2 3666   2.246   5.726   6.670
  923SOL     OW 3667   3.732   0.911   0.078
  923SOL    HW1 3668   3.708   0.984   0.015
  923SOL    HW2 3669   3.718   0.942   0.172
  924SOL     OW 3670   5.715   5.015   1.878
  924SOL    HW1 3671   5.802   4.973   1.851
  924SOL    HW2 3672   5.641   4.978   1.822
  925SOL     OW 3673   5.678   2.600   1.721
  925SOL    HW1 3674   5.609   2.563   1.784
  925SOL    HW2 3675   5.742   2.527   1.696
  926SOL     OW 3676   3.576   5.882   1.591
  926SOL    HW1 3677   3.632   5.812   1.547
  926SOL    HW2 3678   3.626   5.969   1.592
  927SOL     OW 3679   5.164   5.599   5.262
  927SOL    HW1 3680   5.103   5.647   5.325
  927SOL    HW2 3681   5.118   5.587   5.174
  928SOL     OW 3682   6.947   1.614   1.259
  928SOL    HW1 3683   6.899   1.647   1.178
  928SOL    HW2 3684   6.935   1.680   1.333
  929SOL     OW 3685   0.114   2.732   2.063
  929SOL    HW1 3686   0.032   2.678   2.048
  929SOL    HW2 3687   0.095   2.828   2.046
  930SOL     OW 3688   6.372   5.068   2.868
  930SOL    HW1 3689   6.468   5.044   2.851
  930SOL    HW2 3690   6.313   5.010   2.813
  931SOL     OW 3691   0.610   2.871   1.260
  931SOL    HW1 3692   0.696   2.827   1.233
  931SOL    HW2 3693   0.533   2.812   1.237
  932SOL     OW 3694   4.345   6.439   1.107
  932SOL    HW1 3695   4.292   6.366   1.150
  932SOL    HW2 3696   4.384   6.498   1.177
  933SOL     OW 3697   0.853   6.585   3.446
  933SOL    HW1 3698   0.951   6.595   3.460
  933SOL    HW2 3699   0.815   6.525   3.517
  934SOL     OW 3700   4.285   1.697   5.419
  934SOL    HW1 3701   4.371   1.648   5.432
  934SOL    HW2 3702   4.268   1.710   5.321
  935SOL     OW 3703   1.338   3.565   4.058
  935SOL    HW1 3704   1.276   3.532   3.988
  935SOL    HW2 3705   1.311   3.528   4.147
  936SOL     OW 3706   0.810   1.094   1.858
  936SOL    HW1 3707   0.831   1.157   1.933
  936SOL    HW2 3708   0.721   1.118   1.818
  937SOL     OW 3709   4.651   2.404   3.187
  937SOL    HW1 3710   4.715   2.432   3.258
  937SOL    HW2 3711   4.671   2.309   3.160
  938SOL     OW 3712   0.770   1.027   6.664
  938SOL    HW1 3713   0.786   1.006   6.568
  938SOL    HW2 3714   0.695   0.971   6.699
  939SOL     OW 3715   6.475   0.563   4.692
  939SOL    HW1 3716   6.551   0.628   4.693
  939SOL    HW2 3717   6.446   0.544   4.786
  940SOL     OW 3718   6.061   0.202   3.169
  940SOL    HW1 3719   6.152   0.234   3.141
  940SOL    HW2 3720   6.053   0.208   3.269
  941SOL     OW 3721   5.517   3.021   4.986
  941SOL    HW1 3722   5.506   2.936   5.039
  941SOL    HW2 3723   5.605   3.018   4.939
  942SOL     OW 3724   4.795   6.331   5.557
  942SOL    HW1 3725   4.848   6.414   5.540
  942SOL    HW2 3726   4.699   6.348   5.537
  943SOL     OW 3727   5.043   2.232   0.431
  943SOL    HW1 3728   5.132   2.192   0.411
  943SOL    HW2 3729   5.048   2.286   0.515
  944SOL     OW 3730   5.002   4.882   4.579
  944SOL    HW1 3731   5.010   4.964   4.637
  944SOL    HW2 3732   4.906   4.860   4.565
  945SOL     OW 3733   5.776   2.896   6.658
  945SOL    HW1 3734   5.873   2.891   6.635
  945SOL    HW2 3735   5.733   2.969   6.604
  946SOL     OW 3736   6.717   2.759   5.818
  946SOL    HW1 3737   6.814   2.742   5.837
  946SOL    HW2 3738   6.667   2.768   5.904
  947SOL     OW 3739   0.820   2.619   6.488
  947SOL    HW1 3740   0.916   2.623   6.459
  947SOL    HW2 3741   0.786   2.712   6.502
  948SOL     OW 3742   3.538   2.040   0.880
  948SOL    HW1 3743   3.578   1.990   0.802
  948SOL    HW2 3744   3.570   2.135   0.877
  949SOL     OW 3745   5.617   5.658   5.736
  949SOL    HW1 3746   5.560   5.686   5.813
  949SOL    HW2 3747   5.665   5.739   5.699
  950SOL     OW 3748   3.663   5.430   1.188
  950SOL    HW1 3749   3.588   5.382   1.142
  950SOL    HW2 3750   3.730   5.364   1.220
  951SOL     OW 3751   0.723   2.674   3.571
  951SOL    HW1 3752   0.675   2.653   3.486
  951SOL    HW2 3753   0.699   2.607   3.641
  952SOL     OW 3754   4.963   1.413   1.040
  952SOL    HW1 3755   5.019   1.331   1.033
  952SOL    HW2 3756   4.938   1.446   0.949
  953SOL     OW 3757   3.976   6.295   5.620
  953SOL    HW1 3758   4.006   6.285   5.715
  953SOL    HW2 3759   4.016   6.378   5.581
  954SOL     OW 3760   6.212   6.699   1.084
  954SOL    HW1 3761   6.203   6.781   1.028
  954SOL    HW2 3762   6.231   6.724   1.179
  955SOL     OW 3763   1.784   6.344   3.443
  955SOL    HW1 3764   1.841   6.307   3.516
  955SOL    HW2 3765   1.730   6.270   3.402
  956SOL     OW 3766   1.657   2.738   0.684
  956SOL    HW1 3767   1.587   2.783   0.739
  956SOL    HW2 3768   1.696   2.804   0.620
  957SOL     OW 3769   1.807   5.702   4.676
  957SOL    HW1 3770   1.718   5.747   4.684
  957SOL    HW2 3771   1.861   5.747   4.606
  958SOL     OW 3772   4.364   2.664   6.626
  958SOL    HW1 3773   4.345   2.695   6.719
  958SOL    HW2 3774   4.314   2.721   6.561
  959SOL     OW 3775   1.794   4.407   0.320
  959SOL    HW1 3776   1.868   4.472   0.301
  959SOL    HW2 3777   1.787   4.393   0.419
  960SOL     OW 3778   1.554   3.972   5.895
  960SOL    HW1 3779   1.635   4.029   5.913
  960SOL    HW2 3780   1.580   3.895   5.837
  961SOL     OW 3781   3.400   6.659   6.840
  961SOL    HW1 3782   3.461   6.584   6.814
  961SOL    HW2 3783   3.339   6.627   6.913
  962SOL     OW 3784   0.853   0.254   3.481
  962SOL    HW1 3785   0.793   0.306   3.543
  962SOL    HW2 3786   0.890   0.175   3.530
  963SOL     OW 3787   5.613   0.040   2.619
  963SOL    HW1 3788   5.670   7.010   2.559
  963SOL    HW2 3789   5.635   0.018   2.714
  964SOL     OW 3790   6.121   4.625   1.513
  964SOL    HW1 3791   6.177   4.670   1.443
  964SOL    HW2 3792   6.029   4.663   1.512
  965SOL     OW 3793   2.190   1.739   0.541
  965SOL    HW1 3794   2.239   1.679   0.478
  965SOL    HW2 3795   2.099   1.759   0.504
  966SOL     OW 3796   5.880   2.696   2.128
  966SOL    HW1 3797   5.868   2.612   2.075
  966SOL    HW2 3798   5.978   2.716   2.136
  967SOL     OW 3799   0.782   5.721   2.830
  967SOL    HW1 3800   0.723   5.798   2.854
  967SOL    HW2 3801   0.859   5.716   2.894
  968SOL     OW 3802   0.311   4.339   0.494
  968SOL    HW1 3803   0.322   4.366   0.399
  968SOL    HW2 3804   0.352   4.409   0.553
  969SOL     OW 3805   3.326   6.767   6.581
  969SOL    HW1 3806   3.304   6.864   6.581
  969SOL    HW2 3807   3.378   6.744   6.663
  970SOL     OW 3808   5.457   3.805   6.389
  970SOL    HW1 3809   5.547   3.848   6.394
  970SOL    HW2 3810   5.462   3.714   6.432
  971SOL     OW 3811   0.107   2.125   0.108
  971SOL    HW1 3812   0.080   2.170   0.023
  971SOL    HW2 3813   0.096   2.189   0.185
  972SOL     OW 3814   4.644   6.837   6.544
  972SOL    HW1 3815   4.599   6.926   6.544
  972SOL    HW2 3816   4.631   6.792   6.456
  973SOL     OW 3817   6.671   3.145   6.090
  973SOL    HW1 3818   6.594   3.208   6.096
  973SOL    HW2 3819   6.674   3.088   6.172
  974SOL     OW 3820   2.448   0.168   4.179
  974SOL    HW1 3821   2.359   0.173   4.224
  974SOL    HW2 3822   2.518   0.144   4.246
  975SOL     OW 3823   3.029   6.920   4.520
  975SOL    HW1 3824   3.075   6.933   4.432
  975SOL    HW2 3825   3.003   6.824   4.530
  976SOL     OW 3826   0.304   4.709   3.787
  976SOL    HW1 3827   0.365   4.753   3.721
  976SOL    HW2 3828   0.298   4.766   3.869
  977SOL     OW 3829   1.107   2.049   1.838
  977SOL    HW1 3830   1.204   2.072   1.831
  977SOL    HW2 3831   1.076   2.008   1.752
  978SOL     OW 3832   5.998   2.895   3.663
  978SOL    HW1 3833   5.994   2.953   3.745
  978SOL    HW2 3834   6.003   2.954   3.582
  979SOL     OW 3835   6.444   1.395   2.633
  979SOL    HW1 3836   6.427   1.385   2.535
  979SOL    HW2 3837   6.441   1.306   2.677
  980SOL     OW 3838   6.284   6.389   5.376
  980SOL    HW1 3839   6.222   6.335   5.433
  980SOL    HW2 3840   6.361   6.421   5.431
  981SOL     OW 3841   6.144   3.397   0.067
  981SOL    HW1 3842   6.180   3.377   0.159
  981SOL    HW2 3843   6.048   3.423   0.074
  982SOL     OW 3844   1.675   4.595   0.129
  982SOL    HW1 3845   1.698   4.504   0.163
  982SOL    HW2 3846   1.746   4.660   0.154
  983SOL     OW 3847   5.606   1.705   2.842
  983SOL    HW1 3848   5.607   1.741   2.935
  983SOL    HW2 3849   5.684   1.644   2.829
  984SOL     OW 3850   5.242   3.168   5.639
  984SOL    HW1 3851   5.217   3.097   5.573
  984SOL    HW2 3852   5.164   3.229   5.653
  985SOL     OW 3853   1.987   4.588   0.215
  985SOL    HW1 3854   2.070   4.636   0.189
  985SOL    HW2 3855   1.932   4.647   0.275
  986SOL     OW 3856   5.081   3.985   5.074
  986SOL    HW1 3857   5.077   4.049   5.151
  986SOL    HW2 3858   4.990   3.976   5.034
  987SOL     OW 3859   3.068   0.925   3.010
  987SOL    HW1 3860   3.114   0.965   3.089
  987SOL    HW2 3861   3.006   0.852   3.041
  988SOL     OW 3862   4.129   3.157   1.178
  988SOL    HW1 3863   4.080   3.097   1.114
  988SOL    HW2 3864   4.063   3.216   1.225
  989SOL     OW 3865   0.652   1.418   4.563
  989SOL    HW1 3866   0.724   1.463   4.614
  989SOL    HW2 3867   0.671   1.424   4.465
  990SOL     OW 3868   4.450   6.139   2.456
  990SOL    HW1 3869   4.515   6.110   2.526
  990SOL    HW2 3870   4.365   6.169   2.498
  991SOL     OW 3871   5.764   1.632   6.061
  991SOL    HW1 3872   5.861   1.636   6.038
  991SOL    HW2 3873   5.747   1.686   6.143
  992SOL     OW 3874   0.167   2.550   0.693
  992SOL    HW1 3875   0.089   2.519   0.747
  992SOL    HW2 3876   0.252   2.512   0.730
  993SOL     OW 3877   4.175   6.994   3.981
  993SOL    HW1 3878   4.268   6.964   4.000
  993SOL    HW2 3879   4.126   6.921   3.931
  994SOL     OW 3880   2.927   3.304   4.009
  994SOL    HW1 3881   2.955   3.252   4.090
  994SOL    HW2 3882   2.924   3.401   4.031
  995SOL     OW 3883   1.507   1.905   5.158
  995SOL    HW1 3884   1.508   1.979   5.225
  995SOL    HW2 3885   1.417   1.862   5.158
  996SOL     OW 3886   1.401   3.382   6.622
  996SOL    HW1 3887   1.476   3.329   6.663
  996SOL    HW2 3888   1.316   3.361   6.670
  997SOL     OW 3889   6.935   1.119   0.307
  997SOL    HW1 3890   6.912   1.147   0.400
  997SOL    HW2 3891   6.902   1.026   0.291
  998SOL     OW 3892   4.814   0.225   3.242
  998SOL    HW1 3893   4.901   0.176   3.239
  998SOL    HW2 3894   4.831   0.324   3.240
  999SOL     OW 3895   6.729   4.990   0.077
  999SOL    HW1 3896   6.780   5.015   0.159
  999SOL    HW2 3897   6.696   5.073   0.032
 1000SOL     OW 3898   3.905   1.801   4.926
 1000SOL    HW1 3899   3.911   1.825   5.023
 1000SOL    HW2 3900   3.872   1.880   4.874
 1001SOL     OW 3901   4.973   1.042   4.556
 1001SOL    HW1 3902   4.925   1.130   4.555
 1001SOL    HW2 3903   4.967   1.001   4.647
 1002SOL     OW 3904   0.214   1.167   0.377
 1002SOL    HW1 3905   0.137   1.108   0.350
 1002SOL    HW2 3906   0.231   1.155   0.475
 1003SOL     OW 3907   4.323   5.251   2.633
 1003SOL    HW1 3908   4.360   5.330   2.583
 1003SOL    HW2 3909   4.256   5.204   2.575
 1004SOL     OW 3910   6.172   5.992   6.998
 1004SOL    HW1 3911   6.246   5.943   0.018
 1004SOL    HW2 3912   6.173   5.972   6.900
 1005SOL     OW 3913   5.724   6.261   3.208
 1005SOL    HW1 3914   5.718   6.260   3.108
 1005SOL    HW2 3915   5.804   6.208   3.238
 1006SOL     OW 3916   1.616   5.415   0.167
 1006SOL    HW1 3917   1.601   5.316   0.168
 1006SOL    HW2 3918   1.714   5.434   0.175
 1007SOL     OW 3919   6.181   1.687   2.800
 1007SOL    HW1 3920   6.148   1.766   2.850
 1007SOL    HW2 3921   6.210   1.715   2.708
 1008SOL     OW 3922   3.320   2.094   5.525
 1008SOL    HW1 3923   3.267   2.138   5.598
 1008SOL    HW2 3924   3.258   2.050   5.461
 1009SOL     OW 3925   3.111   6.371   5.424
 1009SOL    HW1 3926   3.034   6.330   5.472
 1009SOL    HW2 3927   3.186   6.306   5.420
 1010SOL     OW 3928   5.266   6.723   5.742
 1010SOL    HW1 3929   5.201   6.649   5.726
 1010SOL    HW2 3930   5.353   6.686   5.776
 1011SOL     OW 3931   2.936   5.148   4.301
 1011SOL    HW1 3932   2.936   5.228   4.240
 1011SOL    HW2 3933   2.868   5.082   4.269
 1012SOL     OW 3934   3.372   6.321   1.355
 1012SOL    HW1 3935   3.318   6.370   1.423
 1012SOL    HW2 3936   3.399   6.384   1.282
 1013SOL     OW 3937   0.765   0.103   0.024
 1013SOL    HW1 3938   0.692   0.059   0.076
 1013SOL    HW2 3939   0.752   0.087   6.952
 1014SOL     OW 3940   5.780   0.016   6.525
 1014SOL    HW1 3941   5.772   0.094   6.462
 1014SOL    HW2 3942   5.737   6.961   6.483
 1015SOL     OW 3943   2.659   0.762   4.784
 1015SOL    HW1 3944   2.700   0.708   4.710
 1015SOL    HW2 3945   2.582   0.814   4.748
 1016SOL     OW 3946   4.264   3.235   0.750
 1016SOL    HW1 3947   4.178   3.268   0.710
 1016SOL    HW2 3948   4.245   3.156   0.809
 1017SOL     OW 3949   4.728   6.911   6.209
 1017SOL    HW1 3950   4.803   6.920   6.144
 1017SOL    HW2 3951   4.651   6.866   6.164
 1018SOL     OW 3952   1.149   1.675   1.599
 1018SOL    HW1 3953   1.214   1.662   1.674
 1018SOL    HW2 3954   1.176   1.620   1.520
 1019SOL     OW 3955   5.255   1.434   0.674
 1019SOL    HW1 3956   5.312   1.360   0.711
 1019SOL    HW2 3957   5.211   1.483   0.750
 1020SOL     OW 3958   4.090   1.942   1.660
 1020SOL    HW1 3959   4.042   1.990   1.733
 1020SOL    HW2 3960   4.188   1.956   1.669
 1021SOL     OW 3961   6.557   1.763   1.054
 1021SOL    HW1 3962   6.549   1.824   1.133
 1021SOL    HW2 3963   6.515   1.806   0.974
 1022SOL     OW 3964   3.321   3.222   0.482
 1022SOL    HW1 3965   3.343   3.124   0.485
 1022SOL    HW2 3966   3.393   3.274   0.527
 1023SOL     OW 3967   6.433   0.737   4.453
 1023SOL    HW1 3968   6.447   0.754   4.550
 1023SOL    HW2 3969   6.501   0.672   4.420
 1024SOL     OW 3970   6.450   2.424   3.486
 1024SOL    HW1 3971   6.454   2.501   3.422
 1024SOL    HW2 3972   6.398   2.450   3.567
 1025SOL     OW 3973   2.239   4.624   1.585
 1025SOL    HW1 3974   2.298   4.620   1.666
 1025SOL    HW2 3975   2.287   4.583   1.507
 1026SOL     OW 3976   0.758   2.875   6.503
 1026SOL    HW1 3977   0.710   2.928   6.433
 1026SOL    HW2 3978   0.713   2.890   6.592
 1027SOL     OW 3979   1.888   4.825   1.076
 1027SOL    HW1 3980   1.849   4.762   1.143
 1027SOL    HW2 3981   1.987   4.827   1.086
 1028SOL     OW 3982   0.230   5.396   6.853
 1028SOL    HW1 3983   0.310   5.439   6.894
 1028SOL    HW2 3984   0.177   5.349   6.924
 1029SOL     OW 3985   4.419   0.862   4.427
 1029SOL    HW1 3986   4.483   0.788   4.406
 1029SOL    HW2 3987   4.466   0.950   4.418
 1030SOL     OW 3988   4.428   5.108   4.876
 1030SOL    HW1 3989   4.444   5.012   4.856
 1030SOL    HW2 3990   4.392   5.154   4.795
 1031SOL     OW 3991   2.515   6.136   1.213
 1031SOL    HW1 3992   2.580   6.129   1.138
 1031SOL    HW2 3993   2.547   6.202   1.280
 1032SOL     OW 3994   1.273   2.082   5.262
 1032SOL    HW1 3995   1.198   2.146   5.278
 1032SOL    HW2 3996   1.359   2.133   5.260
 1033SOL     OW 3997   3.074   0.157   1.654
 1033SOL    HW1 3998   3.032   0.236   1.699
 1033SOL    HW2 3999   3.150   0.124   1.710
 1034SOL     OW 4000   0.139   5.764   2.388
 1034SOL    HW1 4001   0.157   5.847   2.335
 1034SOL    HW2 4002   0.062   5.781   2.449
 1035SOL     OW 4003   3.340   2.027   3.106
 1035SOL    HW1 4004   3.261   2.049   3.162
 1035SOL    HW2 4005   3.321   2.050   3.010
 1036SOL     OW 4006   4.939   0.058   6.572
 1036SOL    HW1 4007   4.844   0.077   6.547
 1036SOL    HW2 4008   4.975   7.011   6.513
 1037SOL     OW 4009   4.189   1.184   6.118
 1037SOL    HW1 4010   4.285   1.162   6.138
 1037SOL    HW2 4011   4.137   1.185   6.203
 1038SOL     OW 4012   2.835   2.031   5.235
 1038SOL    HW1 4013   2.904   2.078   5.179
 1038SOL    HW2 4014   2.758   2.092   5.251
 1039SOL     OW 4015   5.204   1.674   2.534
 1039SOL    HW1 4016   5.118   1.623   2.543
 1039SOL    HW2 4017   5.185   1.765   2.497
 1040SOL     OW 4018   5.974   4.596   4.755
 1040SOL    HW1 4019   6.068   4.588   4.724
 1040SOL    HW2 4020   5.917   4.528   4.708
 1041SOL     OW 4021   1.863   6.609   4.666
 1041SOL    HW1 4022   1.932   6.652   4.608
 1041SOL    HW2 4023   1.883   6.630   4.762
 1042SOL     OW 4024   4.668   4.146   0.853
 1042SOL    HW1 4025   4.593   4.191   0.805
 1042SOL    HW2 4026   4.651   4.047   0.858
 1043SOL     OW 4027   4.130   0.359   6.382
 1043SOL    HW1 4028   4.192   0.422   6.334
 1043SOL    HW2 4029   4.037   0.373   6.351
 1044SOL     OW 4030   3.494   4.097   3.991
 1044SOL    HW1 4031   3.473   4.118   4.087
 1044SOL    HW2 4032   3.592   4.104   3.976
 1045SOL     OW 4033   2.141   1.317   2.226
 1045SOL    HW1 4034   2.202   1.246   2.261
 1045SOL    HW2 4035   2.086   1.354   2.300
 1046SOL     OW 4036   2.827   0.915   1.983
 1046SOL    HW1 4037   2.742   0.864   1.971
 1046SOL    HW2 4038   2.810   0.994   2.043
 1047SOL     OW 4039   0.139   6.661   1.888
 1047SOL    HW1 4040   0.224   6.611   1.901
 1047SOL    HW2 4041   0.070   6.626   1.951
 1048SOL     OW 4042   6.702   3.608   4.963
 1048SOL    HW1 4043   6.733   3.697   4.995
 1048SOL    HW2 4044   6.715   3.601   4.864
 1049SOL     OW 4045   0.179   3.569   5.400
 1049SOL    HW1 4046   0.151   3.522   5.317
 1049SOL    HW2 4047   0.116   3.546   5.474
 1050SOL     OW 4048   3.079   0.651   1.353
 1050SOL    HW1 4049   3.174   0.628   1.332
 1050SOL    HW2 4050   3.059   0.744   1.323
 1051SOL     OW 4051   4.758   4.337   1.875
 1051SOL    HW1 4052   4.663   4.364   1.892
 1051SOL    HW2 4053   4.762   4.238   1.859
 1052SOL     OW 4054   2.831   0.177   4.016
 1052SOL    HW1 4055   2.871   0.194   4.107
 1052SOL    HW2 4056   2.764   0.104   4.023
 1053SOL     OW 4057   3.592   5.181   3.202
 1053SOL    HW1 4058   3.545   5.265   3.230
 1053SOL    HW2 4059   3.686   5.183   3.235
 1054SOL     OW 4060   3.804   6.466   5.299
 1054SOL    HW1 4061   3.757   6.383   5.328
 1054SOL    HW2 4062   3.756   6.506   5.221
 1055SOL     OW 4063   3.907   4.951   4.608
 1055SOL    HW1 4064   3.876   4.978   4.699
 1055SOL    HW2 4065   3.988   4.893   4.617
 1056SOL     OW 4066   2.932   5.438   0.357
 1056SOL    HW1 4067   2.899   5.436   0.451
 1056SOL    HW2 4068   2.991   5.360   0.340
 1057SOL     OW 4069   3.539   3.846   1.510
 1057SOL    HW1 4070   3.478   3.924   1.520
 1057SOL    HW2 4071   3.626   3.876   1.469
 1058SOL     OW 4072   2.825   0.530   2.075
 1058SOL    HW1 4073   2.881   0.560   1.998
 1058SOL    HW2 4074   2.824   0.430   2.077
 1059SOL     OW 4075   4.320   6.973   0.849
 1059SOL    HW1 4076   4.236   6.929   0.818
 1059SOL    HW2 4077   4.399   6.915   0.827
 1060SOL     OW 4078   3.744   1.822   4.089
 1060SOL    HW1 4079   3.668   1.757   4.082
 1060SOL    HW2 4080   3.721   1.906   4.041
 1061SOL     OW 4081   2.452   5.477   1.310
 1061SOL    HW1 4082   2.398   5.423   1.375
 1061SOL    HW2 4083   2.398   5.556   1.279
 1062SOL     OW 4084   5.235   3.976   4.853
 1062SOL    HW1 4085   5.191   3.957   4.765
 1062SOL    HW2 4086   5.165   3.991   4.923
 1063SOL     OW 4087   4.134   2.458   6.023
 1063SOL    HW1 4088   4.101   2.535   6.078
 1063SOL    HW2 4089   4.057   2.401   5.995
 1064SOL     OW 4090   0.540   3.465   3.021
 1064SOL    HW1 4091   0.448   3.502   3.033
 1064SOL    HW2 4092   0.560   3.456   2.924
 1065SOL     OW 4093   4.118   5.420   6.894
 1065SOL    HW1 4094   4.078   5.333   6.869
 1065SOL    HW2 4095   4.218   5.412   6.897
 1066SOL     OW 4096   5.385   0.180   3.439
 1066SOL    HW1 4097   5.470   0.164   3.389
 1066SOL    HW2 4098   5.405   0.215   3.530
 1067SOL     OW 4099   3.409   3.887   0.479
 1067SOL    HW1 4100   3.311   3.884   0.459
 1067SOL    HW2 4101   3.433   3.980   0.509
 1068SOL     OW 4102   1.125   5.474   2.105
 1068SOL    HW1 4103   1.153   5.541   2.174
 1068SOL    HW2 4104   1.188   5.476   2.028
 1069SOL     OW 4105   3.829   3.342   2.737
 1069SOL    HW1 4106   3.833   3.273   2.664
 1069SOL    HW2 4107   3.733   3.357   2.763
 1070SOL     OW 4108   1.836   6.399   0.394
 1070SOL    HW1 4109   1.874   6.450   0.316
 1070SOL    HW2 4110   1.768   6.334   0.361
 1071SOL     OW 4111   4.811   5.861   3.571
 1071SOL    HW1 4112   4.905   5.829   3.558
 1071SOL    HW2 4113   4.791   5.932   3.504
 1072SOL     OW 4114   4.195   5.531   3.635
 1072SOL    HW1 4115   4.169   5.627   3.635
 1072SOL    HW2 4116   4.190   5.495   3.542
 1073SOL     OW 4117   3.078   5.987   3.427
 1073SOL    HW1 4118   3.129   6.069   3.453
 1073SOL    HW2 4119   2.982   6.010   3.413
 1074SOL     OW 4120   2.192   4.912   3.722
 1074SOL    HW1 4121   2.287   4.882   3.717
 1074SOL    HW2 4122   2.173   4.948   3.813
 1075SOL     OW 4123   0.743   4.522   2.585
 1075SOL    HW1 4124   0.671   4.525   2.515
 1075SOL    HW2 4125   0.721   4.587   2.657
 1076SOL     OW 4126   5.678   3.825   3.254
 1076SOL    HW1 4127   5.592   3.811   3.205
 1076SOL    HW2 4128   5.686   3.756   3.326
 1077SOL     OW 4129   3.890   1.082   2.132
 1077SOL    HW1 4130   3.800   1.044   2.155
 1077SOL    HW2 4131   3.956   1.007   2.122
 1078SOL     OW 4132   6.461   2.642   2.056
 1078SOL    HW1 4133   6.418   2.634   1.967
 1078SOL    HW2 4134   6.434   2.565   2.114
 1079SOL     OW 4135   2.182   4.595   3.188
 1079SOL    HW1 4136   2.266   4.623   3.233
 1079SOL    HW2 4137   2.128   4.537   3.249
 1080SOL     OW 4138   2.311   5.244   3.958
 1080SOL    HW1 4139   2.233   5.250   3.895
 1080SOL    HW2 4140   2.392   5.283   3.915
 1081SOL     OW 4141   1.509   0.369   0.652
 1081SOL    HW1 4142   1.485   0.440   0.585
 1081SOL    HW2 4143   1.500   0.406   0.745
 1082SOL     OW 4144   1.872   0.219   1.268
 1082SOL    HW1 4145   1.807   0.175   1.207
 1082SOL    HW2 4146   1.957   0.238   1.218
 1083SOL     OW 4147   3.731   3.100   1.779
 1083SOL    HW1 4148   3.698   3.162   1.851
 1083SOL    HW2 4149   3.821   3.130   1.747
 1084SOL     OW 4150   6.156   4.102   1.472
 1084SOL    HW1 4151   6.180   4.171   1.404
 1084SOL    HW2 4152   6.063   4.070   1.456
 1085SOL     OW 4153   1.559   5.488   4.169
 1085SOL    HW1 4154   1.490   5.517   4.103
 1085SOL    HW2 4155   1.532   5.515   4.261
 1086SOL     OW 4156   2.688   5.549   2.627
 1086SOL    HW1 4157   2.736   5.598   2.554
 1086SOL    HW2 4158   2.755   5.505   2.687
 1087SOL     OW 4159   3.905   3.127   5.134
 1087SOL    HW1 4160   3.849   3.141   5.216
 1087SOL    HW2 4161   3.848   3.140   5.053
 1088SOL     OW 4162   7.022   5.034   2.425
 1088SOL    HW1 4163   0.094   5.037   2.402
 1088SOL    HW2 4164   6.968   5.036   2.341
 1089SOL     OW 4165   6.870   0.646   3.294
 1089SOL    HW1 4166   6.773   0.649   3.321
 1089SOL    HW2 4167   6.877   0.666   3.196
 1090SOL     OW 4168   2.943   2.367   6.628
 1090SOL    HW1 4169   2.959   2.398   6.722
 1090SOL    HW2 4170   2.858   2.314   6.625
 1091SOL     OW 4171   1.424   2.194   5.934
 1091SOL    HW1 4172   1.353   2.227   5.872
 1091SOL    HW2 4173   1.447   2.265   6.000
 1092SOL     OW 4174   3.032   4.944   1.465
 1092SOL    HW1 4175   3.055   4.977   1.373
 1092SOL    HW2 4176   2.977   4.861   1.458
 1093SOL     OW 4177   0.200   2.108   1.417
 1093SOL    HW1 4178   0.136   2.155   1.478
 1093SOL    HW2 4179   0.181   2.010   1.418
 1094SOL     OW 4180   0.921   6.038   2.521
 1094SOL    HW1 4181   0.844   6.043   2.586
 1094SOL    HW2 4182   0.902   6.098   2.443
 1095SOL     OW 4183   1.629   2.973   5.836
 1095SOL    HW1 4184   1.601   2.881   5.864
 1095SOL    HW2 4185   1.639   2.975   5.737
 1096SOL     OW 4186   3.576   2.876   2.492
 1096SOL    HW1 4187   3.655   2.817   2.505
 1096SOL    HW2 4188   3.553   2.879   2.394
 1097SOL     OW 4189   2.941   5.253   5.695
 1097SOL    HW1 4190   3.016   5.265   5.630
 1097SOL    HW2 4191   2.958   5.311   5.775
 1098SOL     OW 4192   2.788   0.891   2.915
 1098SOL    HW1 4193   2.765   0.955   2.988
 1098SOL    HW2 4194   2.839   0.938   2.843
 1099SOL     OW 4195   3.115   0.517   2.506
 1099SOL    HW1 4196   3.105   0.521   2.406
 1099SOL    HW2 4197   3.204   0.479   2.529
 1100SOL     OW 4198   6.657   0.837   0.642
 1100SOL    HW1 4199   6.654   0.781   0.559
 1100SOL    HW2 4200   6.586   0.907   0.637
 1101SOL     OW 4201   5.972   4.432   1.020
 1101SOL    HW1 4202   5.948   4.501   1.088
 1101SOL    HW2 4203   5.929   4.345   1.044
 1102SOL     OW 4204   6.917   4.329   4.152
 1102SOL    HW1 4205   6.938   4.363   4.243
 1102SOL    HW2 4206   6.993   4.273   4.119
 1103SOL     OW 4207   0.852   2.546   6.925
 1103SOL    HW1 4208   0.840   2.488   6.844
 1103SOL    HW2 4209   0.798   2.510   7.000
 1104SOL     OW 4210   2.963   5.451   5.870
 1104SOL    HW1 4211   3.018   5.521   5.914
 1104SOL    HW2 4212   2.867   5.463   5.895
 1105SOL     OW 4213   3.816   6.140   0.476
 1105SOL    HW1 4214   3.874   6.165   0.398
 1105SOL    HW2 4215   3.749   6.072   0.448
 1106SOL     OW 4216   0.707   1.837   6.930
 1106SOL    HW1 4217   0.645   1.853   7.007
 1106SOL    HW2 4218   0.656   1.836   6.845
 1107SOL     OW 4219   6.673   0.063   1.258
 1107SOL    HW1 4220   6.731   0.137   1.293
 1107SOL    HW2 4221   6.599   0.044   1.322
 1108SOL     OW 4222   1.227   1.047   0.351
 1108SOL    HW1 4223   1.165   1.107   0.299
 1108SOL    HW2 4224   1.206   0.952   0.330
 1109SOL     OW 4225   4.033   1.550   3.466
 1109SOL    HW1 4226   4.105   1.559   3.535
 1109SOL    HW2 4227   4.074   1.549   3.375
 1110SOL     OW 4228   3.792   3.236   3.045
 1110SOL    HW1 4229   3.700   3.211   3.016
 1110SOL    HW2 4230   3.816   3.184   3.127
 1111SOL     OW 4231   3.739   6.709   6.716
 1111SOL    HW1 4232   3.810   6.690   6.783
 1111SOL    HW2 4233   3.677   6.780   6.752
 1112SOL     OW 4234   0.665   1.255   2.530
 1112SOL    HW1 4235   0.743   1.309   2.497
 1112SOL    HW2 4236   0.594   1.317   2.563
 1113SOL     OW 4237   0.055   4.422   1.972
 1113SOL    HW1 4238   0.029   4.326   1.970
 1113SOL    HW2 4239   0.012   4.470   1.895
 1114SOL     OW 4240   5.919   1.040   5.967
 1114SOL    HW1 4241   5.854   0.970   5.995
 1114SOL    HW2 4242   5.872   1.109   5.912
 1115SOL     OW 4243   2.179   4.954   0.465
 1115SOL    HW1 4244   2.180   4.866   0.511
 1115SOL    HW2 4245   2.268   4.970   0.422
 1116SOL     OW 4246   3.199   6.386   6.320
 1116SOL    HW1 4247   3.236   6.293   6.324
 1116SOL    HW2 4248   3.163   6.403   6.228
 1117SOL     OW 4249   2.846   2.730   0.598
 1117SOL    HW1 4250   2.799   2.779   0.524
 1117SOL    HW2 4251   2.882   2.644   0.563
 1118SOL     OW 4252   1.408   2.281   1.097
 1118SOL    HW1 4253   1.455   2.247   1.178
 1118SOL    HW2 4254   1.474   2.295   1.023
 1119SOL     OW 4255   3.053   3.179   3.790
 1119SOL    HW1 4256   3.071   3.270   3.755
 1119SOL    HW2 4257   3.032   3.184   3.888
 1120SOL     OW 4258   3.496   1.096   3.582
 1120SOL    HW1 4259   3.506   1.057   3.673
 1120SOL    HW2 4260   3.406   1.139   3.574
 1121SOL     OW 4261   4.808   4.468   3.123
 1121SOL    HW1 4262   4.718   4.502   3.149
 1121SOL    HW2 4263   4.879   4.527   3.160
 1122SOL     OW 4264   4.698   4.910   6.801
 1122SOL    HW1 4265   4.637   4.830   6.802
 1122SOL    HW2 4266   4.645   4.991   6.775
 1123SOL     OW 4267   3.441   0.337   2.246
 1123SOL    HW1 4268   3.381   0.416   2.259
 1123SOL    HW2 4269   3.441   0.281   2.329
 1124SOL     OW 4270   2.620   4.909   3.393
 1124SOL    HW1 4271   2.535   4.947   3.356
 1124SOL    HW2 4272   2.657   4.840   3.330
 1125SOL     OW 4273   3.298   4.435   5.384
 1125SOL    HW1 4274   3.216   4.396   5.342
 1125SOL    HW2 4275   3.320   4.522   5.339
 1126SOL     OW 4276   6.293   0.244   2.020
 1126SOL    HW1 4277   6.383   0.244   2.064
 1126SOL    HW2 4278   6.245   0.328   2.043
 1127SOL     OW 4279   2.553   5.506   5.663
 1127SOL    HW1 4280   2.477   5.475   5.720
 1127SOL    HW2 4281   2.521   5.577   5.600
 1128SOL     OW 4282   2.552   2.140   5.279
 1128SOL    HW1 4283   2.499   2.225   5.288
 1128SOL    HW2 4284   2.489   2.065   5.259
 1129SOL     OW 4285   4.376   5.413   6.363
 1129SOL    HW1 4286   4.455   5.456   6.407
 1129SOL    HW2 4287   4.397   5.317   6.344
 1130SOL     OW 4288   1.180   5.214   5.374
 1130SOL    HW1 4289   1.132   5.206   5.287
 1130SOL    HW2 4290   1.114   5.219   5.449
 1131SOL     OW 4291   0.143   3.859   5.818
 1131SOL    HW1 4292   0.235   3.821   5.804
 1131SOL    HW2 4293   0.107   3.825   5.905
 1132SOL     OW 4294   5.267   6.739   5.015
 1132SOL    HW1 4295   5.168   6.746   5.024
 1132SOL    HW2 4296   5.308   6.829   5.025
 1133SOL     OW 4297   6.241   1.781   6.923
 1133SOL    HW1 4298   6.310   1.821   6.984
 1133SOL    HW2 4299   6.256   1.682   6.918
 1134SOL     OW 4300   0.301   3.255   5.235
 1134SOL    HW1 4301   0.263   3.347   5.242
 1134SOL    HW2 4302   0.306   3.214   5.326
 1135SOL     OW 4303   7.005   1.961   4.261
 1135SOL    HW1 4304   0.055   1.905   4.296
 1135SOL    HW2 4305   6.923   1.904   4.252
 1136SOL     OW 4306   3.786   5.607   4.038
 1136SOL    HW1 4307   3.783   5.507   4.038
 1136SOL    HW2 4308   3.695   5.643   4.061
 1137SOL     OW 4309   0.781   0.331   6.713
 1137SOL    HW1 4310   0.879   0.311   6.713
 1137SOL    HW2 4311   0.761   0.405   6.776
 1138SOL     OW 4312   1.039   2.571   5.844
 1138SOL    HW1 4313   1.108   2.637   5.873
 1138SOL    HW2 4314   1.027   2.575   5.745
 1139SOL     OW 4315   0.317   6.904   2.680
 1139SOL    HW1 4316   0.350   6.960   2.757
 1139SOL    HW2 4317   0.252   6.836   2.714
 1140SOL     OW 4318   4.274   2.009   3.326
 1140SOL    HW1 4319   4.185   1.996   3.370
 1140SOL    HW2 4320   4.268   1.983   3.230
 1141SOL     OW 4321   0.328   6.594   5.902
 1141SOL    HW1 4322   0.408   6.589   5.962
 1141SOL    HW2 4323   0.255   6.645   5.948
 1142SOL     OW 4324   6.058   0.104   5.337
 1142SOL    HW1 4325   6.155   0.126   5.323
 1142SOL    HW2 4326   6.009   0.115   5.250
 1143SOL     OW 4327   5.187   2.662   1.785
 1143SOL    HW1 4328   5.162   2.755   1.812
 1143SOL    HW2 4329   5.209   2.660   1.688
 1144SOL     OW 4330   1.160   6.599   4.433
 1144SOL    HW1 4331   1.132   6.692   4.454
 1144SOL    HW2 4332   1.145   6.580   4.336
 1145SOL     OW 4333   2.609   5.016   5.060
 1145SOL    HW1 4334   2.573   5.005   5.153
 1145SOL    HW2 4335   2.637   4.927   5.024
 1146SOL     OW 4336   6.117   2.066   2.130
 1146SOL    HW1 4337   6.021   2.059   2.103
 1146SOL    HW2 4338   6.168   1.989   2.092
 1147SOL     OW 4339   6.656   4.410   2.000
 1147SOL    HW1 4340   6.691   4.319   2.021
 1147SOL    HW2 4341   6.564   4.403   1.962
 1148SOL     OW 4342   6.075   6.936   6.481
 1148SOL    HW1 4343   6.160   6.970   6.519
 1148SOL    HW2 4344   5.997   6.981   6.526
 1149SOL     OW 4345   4.957   3.545   2.986
 1149SOL    HW1 4346   4.928   3.637   3.011
 1149SOL    HW2 4347   5.011   3.505   3.060
 1150SOL     OW 4348   2.406   6.111   5.307
 1150SOL    HW1 4349   2.351   6.172   5.251
 1150SOL    HW2 4350   2.356   6.024   5.319
 1151SOL     OW 4351   2.334   5.574   0.118
 1151SOL    HW1 4352   2.410   5.626   0.158
 1151SOL    HW2 4353   2.354   5.476   0.126
 1152SOL     OW 4354   6.458   1.001   3.565
 1152SOL    HW1 4355   6.386   0.956   3.617
 1152SOL    HW2 4356   6.448   0.979   3.468
 1153SOL     OW 4357   2.264   4.379   2.641
 1153SOL    HW1 4358   2.236   4.470   2.672
 1153SOL    HW2 4359   2.326   4.388   2.563
 1154SOL     OW 4360   1.576   4.212   2.171
 1154SOL    HW1 4361   1.667   4.233   2.206
 1154SOL    HW2 4362   1.522   4.296   2.166
 1155SOL     OW 4363   5.034   0.727   2.024
 1155SOL    HW1 4364   5.081   0.641   2.040
 1155SOL    HW2 4365   5.091   0.803   2.055
 1156SOL     OW 4366   2.686   0.772   4.304
 1156SOL    HW1 4367   2.694   0.770   4.404
 1156SOL    HW2 4368   2.620   0.702   4.274
 1157SOL     OW 4369   1.684   3.305   3.930
 1157SOL    HW1 4370   1.764   3.342   3.883
 1157SOL    HW2 4371   1.690   3.206   3.934
 1158SOL     OW 4372   4.695   5.302   5.348
 1158SOL    HW1 4373   4.712   5.391   5.306
 1158SOL    HW2 4374   4.645   5.244   5.284
 1159SOL     OW 4375   6.297   4.255   2.873
 1159SOL    HW1 4376   6.248   4.176   2.910
 1159SOL    HW2 4377   6.354   4.296   2.945
 1160SOL     OW 4378   2.647   2.509   1.457
 1160SOL    HW1 4379   2.651   2.518   1.556
 1160SOL    HW2 4380   2.563   2.461   1.431
 1161SOL     OW 4381   4.012   1.202   3.493
 1161SOL    HW1 4382   4.053   1.275   3.439
 1161SOL    HW2 4383   4.037   1.213   3.589
 1162SOL     OW 4384   3.503   5.287   1.735
 1162SOL    HW1 4385   3.589   5.272   1.687
 1162SOL    HW2 4386   3.443   5.345   1.680
 1163SOL     OW 4387   4.839   6.483   2.841
 1163SOL    HW1 4388   4.896   6.402   2.829
 1163SOL    HW2 4389   4.873   6.536   2.919
 1164SOL     OW 4390   6.510   4.485   4.347
 1164SOL    HW1 4391   6.608   4.482   4.329
 1164SOL    HW2 4392   6.474   4.391   4.350
 1165SOL     OW 4393   0.505   5.365   1.702
 1165SOL    HW1 4394   0.596   5.377   1.742
 1165SOL    HW2 4395   0.512   5.376   1.602
 1166SOL     OW 4396   3.829   0.600   6.091
 1166SOL    HW1 4397   3.831   0.515   6.143
 1166SOL    HW2 4398   3.917   0.646   6.098
 1167SOL     OW 4399   4.699   1.607   5.228
 1167SOL    HW1 4400   4.666   1.592   5.135
 1167SOL    HW2 4401   4.786   1.560   5.241
 1168SOL     OW 4402   5.629   1.163   3.914
 1168SOL    HW1 4403   5.579   1.109   3.847
 1168SOL    HW2 4404   5.644   1.256   3.879
 1169SOL     OW 4405   2.108   2.134   0.692
 1169SOL    HW1 4406   2.041   2.194   0.646
 1169SOL    HW2 4407   2.169   2.190   0.748
 1170SOL     OW 4408   2.239   0.933   1.750
 1170SOL    HW1 4409   2.290   0.848   1.760
 1170SOL    HW2 4410   2.300   1.005   1.717
 1171SOL     OW 4411   4.561   0.406   0.953
 1171SOL    HW1 4412   4.465   0.423   0.976
 1171SOL    HW2 4413   4.581   0.309   0.963
 1172SOL     OW 4414   3.629   3.229   5.646
 1172SOL    HW1 4415   3.577   3.236   5.561
 1172SOL    HW2 4416   3.726   3.215   5.625
 1173SOL     OW 4417   5.655   5.970   6.510
 1173SOL    HW1 4418   5.623   6.063   6.529
 1173SOL    HW2 4419   5.755   5.968   6.512
 1174SOL     OW 4420   3.613   6.005   6.784
 1174SOL    HW1 4421   3.581   5.969   6.697
 1174SOL    HW2 4422   3.545   6.067   6.821
 1175SOL     OW 4423   0.343   5.363   4.627
 1175SOL    HW1 4424   0.253   5.398   4.654
 1175SOL    HW2 4425   0.405   5.368   4.705
 1176SOL     OW 4426   6.399   3.672   1.825
 1176SOL    HW1 4427   6.401   3.640   1.730
 1176SOL    HW2 4428   6.472   3.627   1.876
 1177SOL     OW 4429   6.797   2.965   5.670
 1177SOL    HW1 4430   6.760   2.889   5.724
 1177SOL    HW2 4431   6.755   2.965   5.580
 1178SOL     OW 4432   4.546   5.325   2.312
 1178SOL    HW1 4433   4.522   5.419   2.287
 1178SOL    HW2 4434   4.599   5.326   2.397
 1179SOL     OW 4435   1.592   5.284   6.239
 1179SOL    HW1 4436   1.502   5.327   6.226
 1179SOL    HW2 4437   1.660   5.334   6.186
 1180SOL     OW 4438   2.192   1.147   4.301
 1180SOL    HW1 4439   2.221   1.242   4.288
 1180SOL    HW2 4440   2.210   1.096   4.217
 1181SOL     OW 4441   1.295   4.089   2.489
 1181SOL    HW1 4442   1.340   4.162   2.540
 1181SOL    HW2 4443   1.365   4.038   2.437
 1182SOL     OW 4444   0.192   3.580   4.241
 1182SOL    HW1 4445   0.198   3.660   4.301
 1182SOL    HW2 4446   0.205   3.497   4.295
 1183SOL     OW 4447   3.970   5.984   1.060
 1183SOL    HW1 4448   3.924   6.005   0.974
 1183SOL    HW2 4449   3.976   5.885   1.071
 1184SOL     OW 4450   3.623   2.881   6.789
 1184SOL    HW1 4451   3.539   2.832   6.766
 1184SOL    HW2 4452   3.675   2.899   6.706
 1185SOL     OW 4453   3.078   1.415   6.776
 1185SOL    HW1 4454   3.088   1.386   6.872
 1185SOL    HW2 4455   3.095   1.513   6.769
 1186SOL     OW 4456   4.008   0.459   4.885
 1186SOL    HW1 4457   4.107   0.475   4.879
 1186SOL    HW2 4458   3.991   0.370   4.927
 1187SOL     OW 4459   0.221   2.247   4.728
 1187SOL    HW1 4460   0.125   2.265   4.751
 1187SOL    HW2 4461   0.237   2.275   4.633
 1188SOL     OW 4462   1.943   1.146   5.779
 1188SOL    HW1 4463   1.851   1.183   5.791
 1188SOL    HW2 4464   1.950   1.104   5.689
 1189SOL     OW 4465   0.611   1.119   1.172
 1189SOL    HW1 4466   0.606   1.075   1.262
 1189SOL    HW2 4467   0.544   1.077   1.111
 1190SOL     OW 4468   3.540   6.237   2.076
 1190SOL    HW1 4469   3.540   6.330   2.112
 1190SOL    HW2 4470   3.593   6.234   1.991
 1191SOL     OW 4471   1.858   4.337   1.837
 1191SOL    HW1 4472   1.885   4.241   1.844
 1191SOL    HW2 4473   1.762   4.343   1.808
 1192SOL     OW 4474   3.557   5.658   2.630
 1192SOL    HW1 4475   3.646   5.701   2.611
 1192SOL    HW2 4476   3.485   5.713   2.589
 1193SOL     OW 4477   3.147   2.089   3.558
 1193SOL    HW1 4478   3.152   2.149   3.638
 1193SOL    HW2 4479   3.222   2.109   3.496
 1194SOL     OW 4480   6.700   2.261   2.817
 1194SOL    HW1 4481   6.691   2.161   2.811
 1194SOL    HW2 4482   6.635   2.304   2.755
 1195SOL     OW 4483   3.796   0.215   7.000
 1195SOL    HW1 4484   3.895   0.218   6.988
 1195SOL    HW2 4485   3.774   0.216   0.072
 1196SOL     OW 4486   1.505   5.626   3.162
 1196SOL    HW1 4487   1.528   5.534   3.192
 1196SOL    HW2 4488   1.407   5.642   3.174
 1197SOL     OW 4489   3.467   5.105   0.049
 1197SOL    HW1 4490   3.564   5.120   0.032
 1197SOL    HW2 4491   3.451   5.009   0.072
 1198SOL     OW 4492   3.229   1.052   3.220
 1198SOL    HW1 4493   3.208   1.143   3.184
 1198SOL    HW2 4494   3.322   1.027   3.193
 1199SOL     OW 4495   3.534   3.829   4.129
 1199SOL    HW1 4496   3.470   3.823   4.205
 1199SOL    HW2 4497   3.526   3.919   4.086
 1200SOL     OW 4498   4.945   4.006   1.381
 1200SOL    HW1 4499   4.938   4.101   1.412
 1200SOL    HW2 4500   4.972   3.948   1.458
 1201SOL     OW 4501   2.000   1.981   5.288
 1201SOL    HW1 4502   2.002   1.896   5.235
 1201SOL    HW2 4503   1.918   2.032   5.264
 1202SOL     OW 4504   6.059   6.656   4.235
 1202SOL    HW1 4505   6.025   6.596   4.162
 1202SOL    HW2 4506   6.061   6.750   4.202
 1203SOL     OW 4507   5.784   0.243   2.020
 1203SOL    HW1 4508   5.836   0.240   2.105
 1203SOL    HW2 4509   5.799   0.331   1.975
 1204SOL     OW 4510   2.477   6.651   6.983
 1204SOL    HW1 4511   2.549   6.665   0.025
 1204SOL    HW2 4512   2.402   6.715   7.001
 1205SOL     OW 4513   0.756   2.890   6.107
 1205SOL    HW1 4514   0.728   2.925   6.197
 1205SOL    HW2 4515   0.729   2.955   6.036
 1206SOL     OW 4516   6.400   1.241   5.624
 1206SOL    HW1 4517   6.334   1.265   5.553
 1206SOL    HW2 4518   6.485   1.209   5.582
 1207SOL     OW 4519   6.371   5.944   6.179
 1207SOL    HW1 4520   6.400   5.950   6.083
 1207SOL    HW2 4521   6.357   6.036   6.215
 1208SOL     OW 4522   3.529   3.703   2.931
 1208SOL    HW1 4523   3.583   3.638   2.985
 1208SOL    HW2 4524   3.489   3.656   2.852
 1209SOL     OW 4525   0.031   3.484   4.851
 1209SOL    HW1 4526   0.091   3.406   4.867
 1209SOL    HW2 4527   6.961   3.454   4.856
 1210SOL     OW 4528   2.461   0.093   3.617
 1210SOL    HW1 4529   2.501   0.183   3.600
 1210SOL    HW2 4530   2.425   0.090   3.711
 1211SOL     OW 4531   0.220   3.714   3.485
 1211SOL    HW1 4532   0.190   3.690   3.578
 1211SOL    HW2 4533   0.287   3.788   3.490
 1212SOL     OW 4534   1.228   4.529   3.158
 1212SOL    HW1 4535   1.232   4.628   3.142
 1212SOL    HW2 4536   1.221   4.512   3.256
 1213SOL     OW 4537   6.001   3.635   5.281
 1213SOL    HW1 4538   6.080   3.648   5.221
 1213SOL    HW2 4539   5.960   3.546   5.261
 1214SOL     OW 4540   0.429   1.835   1.034
 1214SOL    HW1 4541   0.465   1.755   0.985
 1214SOL    HW2 4542   0.469   1.918   0.995
 1215SOL     OW 4543   0.703   5.970   2.154
 1215SOL    HW1 4544   0.750   5.981   2.067
 1215SOL    HW2 4545   0.614   6.015   2.150
 1216SOL     OW 4546   2.328   6.873   1.380
 1216SOL    HW1 4547   2.291   6.815   1.307
 1216SOL    HW2 4548   2.428   6.869   1.379
 1217SOL     OW 4549   1.547   2.925   3.311
 1217SOL    HW1 4550   1.595   2.846   3.349
 1217SOL    HW2 4551   1.457   2.933   3.356
 1218SOL     OW 4552   6.993   4.188   3.392
 1218SOL    HW1 4553   6.955   4.280   3.383
 1218SOL    HW2 4554   0.067   4.192   3.386
 1219SOL     OW 4555   1.787   6.011   3.157
 1219SOL    HW1 4556   1.886   6.021   3.162
 1219SOL    HW2 4557   1.763   5.937   3.095
 1220SOL     OW 4558   6.711   4.764   2.855
 1220SOL    HW1 4559   6.672   4.673   2.858
 1220SOL    HW2 4560   6.779   4.774   2.928
 1221SOL     OW 4561   4.971   4.679   6.385
 1221SOL    HW1 4562   4.932   4.647   6.472
 1221SOL    HW2 4563   4.949   4.776   6.372
 1222SOL     OW 4564   6.864   5.155   1.011
 1222SOL    HW1 4565   6.766   5.134   1.014
 1222SOL    HW2 4566   6.917   5.074   1.035
 1223SOL     OW 4567   0.533   4.637   4.581
 1223SOL    HW1 4568   0.544   4.548   4.623
 1223SOL    HW2 4569   0.436   4.662   4.580
 1224SOL     OW 4570   4.004   4.663   1.377
 1224SOL    HW1 4571   4.092   4.631   1.341
 1224SOL    HW2 4572   4.021   4.727   1.452
 1225SOL     OW 4573   5.058   1.447   6.455
 1225SOL    HW1 4574   4.997   1.459   6.534
 1225SOL    HW2 4575   5.129   1.380   6.477
 1226SOL     OW 4576   5.962   5.568   0.635
 1226SOL    HW1 4577   5.997   5.509   0.562
 1226SOL    HW2 4578   6.036   5.622   0.674
 1227SOL     OW 4579   5.973   4.561   0.298
 1227SOL    HW1 4580   6.057   4.511   0.276
 1227SOL    HW2 4581   5.908   4.553   0.223
 1228SOL     OW 4582   3.887   4.017   4.843
 1228SOL    HW1 4583   3.929   3.969   4.766
 1228SOL    HW2 4584   3.816   4.079   4.810
 1229SOL     OW 4585   2.102   5.257   1.898
 1229SOL    HW1 4586   2.045   5.207   1.964
 1229SOL    HW2 4587   2.169   5.313   1.948
 1230SOL     OW 4588   5.281   4.882   6.874
 1230SOL    HW1 4589   5.287   4.908   6.970
 1230SOL    HW2 4590   5.344   4.938   6.820
 1231SOL     OW 4591   1.693   0.251   0.904
 1231SOL    HW1 4592   1.639   0.335   0.910
 1231SOL    HW2 4593   1.706   0.227   0.807
 1232SOL     OW 4594   2.584   1.449   5.819
 1232SOL    HW1 4595   2.654   1.407   5.876
 1232SOL    HW2 4596   2.549   1.531   5.864
 1233SOL     OW 4597   0.175   5.576   4.655
 1233SOL    HW1 4598   0.254   5.615   4.702
 1233SOL    HW2 4599   0.105   5.647   4.642
 1234SOL     OW 4600   0.040   4.314   5.082
 1234SOL    HW1 4601   6.968   4.293   5.087
 1234SOL    HW2 4602   0.086   4.274   5.161
 1235SOL     OW 4603   6.264   5.425   0.350
 1235SOL    HW1 4604   6.182   5.399   0.400
 1235SOL    HW2 4605   6.243   5.500   0.287
 1236SOL     OW 4606   0.504   0.636   2.584
 1236SOL    HW1 4607   0.482   0.556   2.640
 1236SOL    HW2 4608   0.546   0.706   2.642
 1237SOL     OW 4609   0.669   0.712   4.684
 1237SOL    HW1 4610   0.641   0.710   4.588
 1237SOL    HW2 4611   0.589   0.722   4.742
 1238SOL     OW 4612   0.574   1.051   4.092
 1238SOL    HW1 4613   0.552   1.146   4.114
 1238SOL    HW2 4614   0.566   1.037   3.993
 1239SOL     OW 4615   5.041   4.909   3.698
 1239SOL    HW1 4616   5.083   4.958   3.774
 1239SOL    HW2 4617   4.942   4.925   3.699
 1240SOL     OW 4618   0.855   4.299   1.658
 1240SOL    HW1 4619   0.920   4.300   1.582
 1240SOL    HW2 4620   0.766   4.267   1.626
 1241SOL     OW 4621   3.927   5.553   6.438
 1241SOL    HW1 4622   3.858   5.482   6.427
 1241SOL    HW2 4623   4.008   5.529   6.384
 1242SOL     OW 4624   2.210   5.522   0.963
 1242SOL    HW1 4625   2.198   5.549   0.868
 1242SOL    HW2 4626   2.301   5.483   0.976
 1243SOL     OW 4627   0.610   3.962   3.772
 1243SOL    HW1 4628   0.610   3.876   3.823
 1243SOL    HW2 4629   0.692   4.014   3.794
 1244SOL     OW 4630   6.836   0.038   4.474
 1244SOL    HW1 4631   6.752   7.012   4.461
 1244SOL    HW2 4632   6.817   0.122   4.525
 1245SOL     OW 4633   4.343   0.283   1.520
 1245SOL    HW1 4634   4.339   0.183   1.514
 1245SOL    HW2 4635   4.376   0.320   1.433
 1246SOL     OW 4636   5.025   2.415   2.328
 1246SOL    HW1 4637   5.054   2.422   2.423
 1246SOL    HW2 4638   4.929   2.440   2.320
 1247SOL     OW 4639   4.958   6.604   2.583
 1247SOL    HW1 4640   4.958   6.700   2.557
 1247SOL    HW2 4641   4.903   6.592   2.666
 1248SOL     OW 4642   6.872   0.436   4.961
 1248SOL    HW1 4643   6.967   0.430   4.933
 1248SOL    HW2 4644   6.840   0.530   4.953
 1249SOL     OW 4645   6.302   6.773   6.913
 1249SOL    HW1 4646   6.329   6.802   6.821
 1249SOL    HW2 4647   6.377   6.793   6.977
 1250SOL     OW 4648   0.316   4.212   5.069
 1250SOL    HW1 4649   0.237   4.240   5.015
 1250SOL    HW2 4650   0.398   4.215   5.012
 1251SOL     OW 4651   2.176   0.943   3.552
 1251SOL    HW1 4652   2.188   1.011   3.480
 1251SOL    HW2 4653   2.096   0.967   3.607
 1252SOL     OW 4654   2.326   4.961   6.498
 1252SOL    HW1 4655   2.317   5.059   6.482
 1252SOL    HW2 4656   2.369   4.918   6.419
 1253SOL     OW 4657   2.951   5.643   0.801
 1253SOL    HW1 4658   2.932   5.732   0.843
 1253SOL    HW2 4659   2.931   5.647   0.703
 1254SOL     OW 4660   6.780   1.205   3.674
 1254SOL    HW1 4661   6.689   1.218   3.635
 1254SOL    HW2 4662   6.840   1.164   3.605
 1255SOL     OW 4663   6.082   2.085   6.176
 1255SOL    HW1 4664   6.052   2.007   6.232
 1255SOL    HW2 4665   6.180   2.078   6.161
 1256SOL     OW 4666   7.005   5.996   6.384
 1256SOL    HW1 4667   0.050   5.969   6.319
 1256SOL    HW2 4668   0.017   6.062   6.449
 1257SOL     OW 4669   0.188   6.234   2.402
 1257SOL    HW1 4670   0.273   6.188   2.427
 1257SOL    HW2 4671   0.209   6.315   2.348
 1258SOL     OW 4672   5.325   5.795   6.292
 1258SOL    HW1 4673   5.358   5.799   6.386
 1258SOL    HW2 4674   5.264   5.716   6.281
 1259SOL     OW 4675   6.250   6.785   4.544
 1259SOL    HW1 4676   6.248   6.692   4.507
 1259SOL    HW2 4677   6.187   6.791   4.622
 1260SOL     OW 4678   3.311   1.166   0.740
 1260SOL    HW1 4679   3.378   1.099   0.773
 1260SOL    HW2 4680   3.316   1.248   0.797
 1261SOL     OW 4681   0.526   4.267   4.927
 1261SOL    HW1 4682   0.543   4.365   4.934
 1261SOL    HW2 4683   0.529   4.239   4.831
 1262SOL     OW 4684   4.084   6.756   1.209
 1262SOL    HW1 4685   4.118   6.693   1.278
 1262SOL    HW2 4686   4.162   6.805   1.168
 1263SOL     OW 4687   6.549   1.493   1.082
 1263SOL    HW1 4688   6.557   1.589   1.057
 1263SOL    HW2 4689   6.566   1.482   1.180
 1264SOL     OW 4690   5.708   2.744   5.044
 1264SOL    HW1 4691   5.685   2.732   4.947
 1264SOL    HW2 4692   5.623   2.752   5.097
 1265SOL     OW 4693   5.642   5.118   4.524
 1265SOL    HW1 4694   5.640   5.201   4.469
 1265SOL    HW2 4695   5.676   5.042   4.470
 1266SOL     OW 4696   2.596   0.739   4.016
 1266SOL    HW1 4697   2.661   0.695   3.954
 1266SOL    HW2 4698   2.519   0.775   3.963
 1267SOL     OW 4699   0.167   4.638   2.104
 1267SOL    HW1 4700   0.136   4.727   2.071
 1267SOL    HW2 4701   0.106   4.567   2.069
 1268SOL     OW 4702   6.364   4.671   6.855
 1268SOL    HW1 4703   6.410   4.731   6.921
 1268SOL    HW2 4704   6.369   4.576   6.886
 1269SOL     OW 4705   1.232   3.851   5.969
 1269SOL    HW1 4706   1.233   3.913   5.890
 1269SOL    HW2 4707   1.292   3.888   6.040
 1270SOL     OW 4708   1.822   2.511   3.791
 1270SOL    HW1 4709   1.892   2.533   3.859
 1270SOL    HW2 4710   1.799   2.414   3.797
 1271SOL     OW 4711   5.479   3.591   2.900
 1271SOL    HW1 4712   5.383   3.563   2.907
 1271SOL    HW2 4713   5.493   3.677   2.948
 1272SOL     OW 4714   5.747   6.658   0.382
 1272SOL    HW1 4715   5.714   6.710   0.303
 1272SOL    HW2 4716   5.841   6.627   0.365
 1273SOL     OW 4717   2.844   6.913   4.825
 1273SOL    HW1 4718   2.844   6.868   4.914
 1273SOL    HW2 4719   2.938   6.935   4.799
 1274SOL     OW 4720   5.263   2.567   2.201
 1274SOL    HW1 4721   5.200   2.494   2.227
 1274SOL    HW2 4722   5.214   2.655   2.204
 1275SOL     OW 4723   3.438   1.017   3.865
 1275SOL    HW1 4724   3.498   1.082   3.913
 1275SOL    HW2 4725   3.351   1.063   3.843
 1276SOL     OW 4726   5.237   6.776   3.194
 1276SOL    HW1 4727   5.177   6.810   3.122
 1276SOL    HW2 4728   5.184   6.759   3.277
 1277SOL     OW 4729   0.642   1.741   4.519
 1277SOL    HW1 4730   0.558   1.697   4.487
 1277SOL    HW2 4731   0.622   1.797   4.600
 1278SOL     OW 4732   2.998   1.599   4.860
 1278SOL    HW1 4733   2.928   1.628   4.794
 1278SOL    HW2 4734   3.077   1.659   4.852
 1279SOL     OW 4735   1.778   4.888   0.730
 1279SOL    HW1 4736   1.702   4.868   0.792
 1279SOL    HW2 4737   1.760   4.972   0.680
 1280SOL     OW 4738   1.328   6.041   3.263
 1280SOL    HW1 4739   1.337   6.030   3.164
 1280SOL    HW2 4740   1.418   6.038   3.305
 1281SOL     OW 4741   0.753   6.606   4.043
 1281SOL    HW1 4742   0.831   6.558   4.002
 1281SOL    HW2 4743   0.704   6.543   4.103
 1282SOL     OW 4744   1.683   6.709   2.608
 1282SOL    HW1 4745   1.607   6.743   2.553
 1282SOL    HW2 4746   1.686   6.609   2.603
 1283SOL     OW 4747   5.344   4.311   5.591
 1283SOL    HW1 4748   5.272   4.380   5.595
 1283SOL    HW2 4749   5.347   4.270   5.500
 1284SOL     OW 4750   2.851   1.938   3.073
 1284SOL    HW1 4751   2.798   1.999   3.132
 1284SOL    HW2 4752   2.937   1.982   3.049
 1285SOL     OW 4753   5.961   2.311   5.659
 1285SOL    HW1 4754   5.923   2.271   5.743
 1285SOL    HW2 4755   6.045   2.263   5.634
 1286SOL     OW 4756   5.377   5.783   0.834
 1286SOL    HW1 4757   5.450   5.827   0.885
 1286SOL    HW2 4758   5.290   5.795   0.882
 1287SOL     OW 4759   6.094   3.236   6.094
 1287SOL    HW1 4760   6.152   3.205   6.169
 1287SOL    HW2 4761   6.150   3.281   6.024
 1288SOL     OW 4762   0.118   3.282   3.698
 1288SOL    HW1 4763   0.028   3.319   3.722
 1288SOL    HW2 4764   0.185   3.313   3.766
 1289SOL     OW 4765   0.261   5.574   2.821
 1289SOL    HW1 4766   0.165   5.547   2.813
 1289SOL    HW2 4767   0.320   5.496   2.803
 1290SOL     OW 4768   6.283   6.753   2.056
 1290SOL    HW1 4769   6.261   6.680   1.991
 1290SOL    HW2 4770   6.211   6.822   2.056
 1291SOL     OW 4771   2.028   5.876   1.595
 1291SOL    HW1 4772   1.964   5.876   1.519
 1291SOL    HW2 4773   2.104   5.814   1.575
 1292SOL     OW 4774   1.699   6.473   0.967
 1292SOL    HW1 4775   1.695   6.572   0.981
 1292SOL    HW2 4776   1.751   6.452   0.884
 1293SOL     OW 4777   6.049   1.530   6.589
 1293SOL    HW1 4778   6.016   1.620   6.617
 1293SOL    HW2 4779   6.020   1.510   6.496
 1294SOL     OW 4780   0.426   1.662   3.860
 1294SOL    HW1 4781   0.383   1.736   3.912
 1294SOL    HW2 4782   0.515   1.640   3.899
 1295SOL     OW 4783   5.207   4.310   0.630
 1295SOL    HW1 4784   5.120   4.266   0.652
 1295SOL    HW2 4785   5.198   4.360   0.544
 1296SOL     OW 4786   3.437   1.644   0.652
 1296SOL    HW1 4787   3.356   1.684   0.694
 1296SOL    HW2 4788   3.518   1.670   0.704
 1297SOL     OW 4789   5.963   1.012   6.239
 1297SOL    HW1 4790   5.983   0.914   6.246
 1297SOL    HW2 4791   5.941   1.034   6.144
 1298SOL     OW 4792   6.276   2.754   3.180
 1298SOL    HW1 4793   6.319   2.817   3.116
 1298SOL    HW2 4794   6.344   2.691   3.217
 1299SOL     OW 4795   1.771   3.561   4.808
 1299SOL    HW1 4796   1.728   3.528   4.724
 1299SOL    HW2 4797   1.759   3.660   4.814
 1300SOL     OW 4798   3.641   2.889   3.059
 1300SOL    HW1 4799   3.567   2.839   3.014
 1300SOL    HW2 4800   3.641   2.867   3.156
 1301SOL     OW 4801   0.937   0.969   1.619
 1301SOL    HW1 4802   0.890   1.021   1.690
 1301SOL    HW2 4803   0.911   0.872   1.626
 1302SOL     OW 4804   2.903   6.052   5.926
 1302SOL    HW1 4805   2.837   6.126   5.931
 1302SOL    HW2 4806   2.992   6.088   5.898
 1303SOL     OW 4807   3.086   0.420   1.130
 1303SOL    HW1 4808   3.043   0.505   1.101
 1303SOL    HW2 4809   3.056   0.397   1.223
 1304SOL     OW 4810   3.650   0.873   5.904
 1304SOL    HW1 4811   3.629   0.775   5.899
 1304SOL    HW2 4812   3.575   0.920   5.951
 1305SOL     OW 4813   5.857   6.807   4.511
 1305SOL    HW1 4814   5.774   6.764   4.544
 1305SOL    HW2 4815   5.907   6.742   4.453
 1306SOL     OW 4816   1.588   5.186   3.597
 1306SOL    HW1 4817   1.609   5.270   3.548
 1306SOL    HW2 4818   1.489   5.176   3.606
 1307SOL     OW 4819   1.313   1.218   4.983
 1307SOL    HW1 4820   1.329   1.269   5.068
 1307SOL    HW2 4821   1.282   1.126   5.005
 1308SOL     OW 4822   4.497   6.361   3.053
 1308SOL    HW1 4823   4.407   6.322   3.071
 1308SOL    HW2 4824   4.492   6.461   3.061
 1309SOL     OW 4825   6.226   3.063   4.179
 1309SOL    HW1 4826   6.273   3.076   4.092
 1309SOL    HW2 4827   6.131   3.095   4.171
 1310SOL     OW 4828   5.611   3.639   5.801
 1310SOL    HW1 4829   5.623   3.737   5.785
 1310SOL    HW2 4830   5.538   3.625   5.868
 1311SOL     OW 4831   4.469   4.579   0.329
 1311SOL    HW1 4832   4.533   4.515   0.372
 1311SOL    HW2 4833   4.429   4.536   0.248
 1312SOL     OW 4834   6.828   1.114   1.953
 1312SOL    HW1 4835   6.787   1.026   1.930
 1312SOL    HW2 4836   6.883   1.104   2.036
 1313SOL     OW 4837   3.705   5.253   4.827
 1313SOL    HW1 4838   3.721   5.154   4.828
 1313SOL    HW2 4839   3.721   5.287   4.734
 1314SOL     OW 4840   0.260   0.999   6.112
 1314SOL    HW1 4841   0.160   0.993   6.107
 1314SOL    HW2 4842   0.288   1.037   6.200
 1315SOL     OW 4843   1.676   6.824   4.086
 1315SOL    HW1 4844   1.682   6.923   4.090
 1315SOL    HW2 4845   1.737   6.784   4.155
 1316SOL     OW 4846   3.287   6.112   3.894
 1316SOL    HW1 4847   3.221   6.082   3.962
 1316SOL    HW2 4848   3.355   6.039   3.879
 1317SOL     OW 4849   0.028   3.033   4.075
 1317SOL    HW1 4850   0.081   2.995   4.151
 1317SOL    HW2 4851   0.049   2.984   3.991
 1318SOL     OW 4852   0.819   6.699   1.960
 1318SOL    HW1 4853   0.896   6.641   1.986
 1318SOL    HW2 4854   0.831   6.728   1.865
 1319SOL     OW 4855   0.457   6.340   0.629
 1319SOL    HW1 4856   0.450   6.248   0.589
 1319SOL    HW2 4857   0.554   6.362   0.642
 1320SOL     OW 4858   5.168   5.330   5.402
 1320SOL    HW1 4859   5.159   5.428   5.386
 1320SOL    HW2 4860   5.262   5.301   5.385
 1321SOL     OW 4861   3.377   1.374   0.877
 1321SOL    HW1 4862   3.431   1.453   0.848
 1321SOL    HW2 4863   3.302   1.404   0.936
 1322SOL     OW 4864   4.993   1.011   6.533
 1322SOL    HW1 4865   4.989   1.066   6.617
 1322SOL    HW2 4866   4.937   1.053   6.462
 1323SOL     OW 4867   6.428   0.916   4.252
 1323SOL    HW1 4868   6.390   0.877   4.167
 1323SOL    HW2 4869   6.446   0.842   4.317
 1324SOL     OW 4870   1.073   2.492   0.363
 1324SOL    HW1 4871   1.112   2.429   0.296
 1324SOL    HW2 4872   1.052   2.443   0.447
 1325SOL     OW 4873   4.356   4.856   4.057
 1325SOL    HW1 4874   4.305   4.791   3.999
 1325SOL    HW2 4875   4.454   4.836   4.050
 1326SOL     OW 4876   5.631   4.031   4.333
 1326SOL    HW1 4877   5.712   4.090   4.323
 1326SOL    HW2 4878   5.589   4.016   4.244
 1327SOL     OW 4879   2.864   6.053   3.812
 1327SOL    HW1 4880   2.808   6.135   3.818
 1327SOL    HW2 4881   2.816   5.983   3.759
 1328SOL     OW 4882   2.658   1.672   1.468
 1328SOL    HW1 4883   2.696   1.684   1.376
 1328SOL    HW2 4884   2.636   1.762   1.506
 1329SOL     OW 4885   1.443   6.040   1.514
 1329SOL    HW1 4886   1.429   5.994   1.602
 1329SOL    HW2 4887   1.408   5.982   1.440
 1330SOL     OW 4888   5.356   6.689   1.491
 1330SOL    HW1 4889   5.392   6.650   1.406
 1330SOL    HW2 4890   5.330   6.784   1.476
 1331SOL     OW 4891   0.682   2.086   1.783
 1331SOL    HW1 4892   0.763   2.121   1.735
 1331SOL    HW2 4893   0.609   2.070   1.716
 1332SOL     OW 4894   4.727   2.054   0.654
 1332SOL    HW1 4895   4.773   2.131   0.698
 1332SOL    HW2 4896   4.637   2.084   0.622
 1333SOL     OW 4897   4.219   3.516   5.658
 1333SOL    HW1 4898   4.315   3.506   5.634
 1333SOL    HW2 4899   4.164   3.512   5.574
 1334SOL     OW 4900   1.608   3.169   4.521
 1334SOL    HW1 4901   1.684   3.234   4.510
 1334SOL    HW2 4902   1.531   3.215   4.566
 1335SOL     OW 4903   1.816   5.010   4.196
 1335SOL    HW1 4904   1.727   4.965   4.192
 1335SOL    HW2 4905   1.888   4.946   4.170
 1336SOL     OW 4906   0.273   6.527   5.036
 1336SOL    HW1 4907   0.280   6.487   4.944
 1336SOL    HW2 4908   0.199   6.594   5.038
 1337SOL     OW 4909   3.395   0.017   6.385
 1337SOL    HW1 4910   3.485   7.002   6.366
 1337SOL    HW2 4911   3.405   0.089   6.454
 1338SOL     OW 4912   3.898   4.947   0.729
 1338SOL    HW1 4913   3.871   4.902   0.814
 1338SOL    HW2 4914   3.881   4.885   0.652
 1339SOL     OW 4915   0.009   3.812   6.547
 1339SOL    HW1 4916   7.009   3.880   6.615
 1339SOL    HW2 4917   6.952   3.764   6.514
 1340SOL     OW 4918   3.124   1.824   6.051
 1340SOL    HW1 4919   3.077   1.775   5.978
 1340SOL    HW2 4920   3.170   1.905   6.014
 1341SOL     OW 4921   5.577   1.892   4.260
 1341SOL    HW1 4922   5.585   1.946   4.344
 1341SOL    HW2 4923   5.537   1.803   4.282
 1342SOL     OW 4924   0.489   6.929   0.699
 1342SOL    HW1 4925   0.409   6.872   0.719
 1342SOL    HW2 4926   0.511   6.986   0.778
 1343SOL     OW 4927   3.493   5.975   3.364
 1343SOL    HW1 4928   3.415   5.919   3.393
 1343SOL    HW2 4929   3.467   6.071   3.363
 1344SOL     OW 4930   4.723   1.706   2.350
 1344SOL    HW1 4931   4.816   1.705   2.314
 1344SOL    HW2 4932   4.660   1.671   2.280
 1345SOL     OW 4933   6.286   5.856   2.388
 1345SOL    HW1 4934   6.361   5.919   2.371
 1345SOL    HW2 4935   6.308   5.767   2.348
 1346SOL     OW 4936   6.894   1.814   3.120
 1346SOL    HW1 4937   6.855   1.749   3.054
 1346SOL    HW2 4938   6.819   1.856   3.172
 1347SOL     OW 4939   4.414   1.339   3.695
 1347SOL    HW1 4940   4.442   1.311   3.787
 1347SOL    HW2 4941   4.480   1.304   3.628
 1348SOL     OW 4942   5.110   6.157   4.863
 1348SOL    HW1 4943   5.199   6.175   4.905
 1348SOL    HW2 4944   5.067   6.079   4.910
 1349SOL     OW 4945   5.237   2.002   0.183
 1349SOL    HW1 4946   5.273   2.070   0.246
 1349SOL    HW2 4947   5.238   2.039   0.090
 1350SOL     OW 4948   3.286   1.288   4.428
 1350SOL    HW1 4949   3.197   1.331   4.439
 1350SOL    HW2 4950   3.301   1.264   4.333
 1351SOL     OW 4951   1.410   1.439   3.861
 1351SOL    HW1 4952   1.343   1.443   3.935
 1351SOL    HW2 4953   1.475   1.514   3.871
 1352SOL     OW 4954   1.238   6.065   4.535
 1352SOL    HW1 4955   1.224   5.996   4.606
 1352SOL    HW2 4956   1.322   6.116   4.555
 1353SOL     OW 4957   2.665   3.218   5.785
 1353SOL    HW1 4958   2.739   3.284   5.799
 1353SOL    HW2 4959   2.659   3.195   5.687
 1354SOL     OW 4960   0.020   6.657   6.786
 1354SOL    HW1 4961   0.092   6.602   6.828
 1354SOL    HW2 4962   7.025   6.735   6.845
 1355SOL     OW 4963   4.901   3.022   0.434
 1355SOL    HW1 4964   4.957   3.079   0.494
 1355SOL    HW2 4965   4.932   2.928   0.439
 1356SOL     OW 4966   3.538   2.953   2.203
 1356SOL    HW1 4967   3.446   2.946   2.242
 1356SOL    HW2 4968   3.538   2.917   2.110
 1357SOL     OW 4969   3.689   2.283   5.809
 1357SOL    HW1 4970   3.773   2.293   5.755
 1357SOL    HW2 4971   3.640   2.370   5.811
 1358SOL     OW 4972   1.916   3.132   5.463
 1358SOL    HW1 4973   1.845   3.196   5.493
 1358SOL    HW2 4974   2.001   3.183   5.445
 1359SOL     OW 4975   0.606   1.790   6.645
 1359SOL    HW1 4976   0.652   1.777   6.558
 1359SOL    HW2 4977   0.543   1.714   6.661
 1360SOL     OW 4978   3.375   3.219   4.425
 1360SOL    HW1 4979   3.323   3.275   4.361
 1360SOL    HW2 4980   3.348   3.241   4.518
 1361SOL     OW 4981   1.026   6.473   0.720
 1361SOL    HW1 4982   1.063   6.566   0.728
 1361SOL    HW2 4983   1.071   6.425   0.645
 1362SOL     OW 4984   3.638   1.152   6.537
 1362SOL    HW1 4985   3.619   1.250   6.533
 1362SOL    HW2 4986   3.623   1.118   6.630
 1363SOL     OW 4987   6.694   6.444   1.190
 1363SOL    HW1 4988   6.784   6.437   1.148
 1363SOL    HW2 4989   6.689   6.528   1.244
 1364SOL     OW 4990   1.168   3.108   0.931
 1364SOL    HW1 4991   1.180   3.051   1.013
 1364SOL    HW2 4992   1.073   3.138   0.925
 1365SOL     OW 4993   1.317   3.389   6.339
 1365SOL    HW1 4994   1.403   3.413   6.293
 1365SOL    HW2 4995   1.335   3.370   6.435
 1366SOL     OW 4996   3.735   0.904   1.641
 1366SOL    HW1 4997   3.803   0.872   1.706
 1366SOL    HW2 4998   3.643   0.883   1.676
 1367SOL     OW 4999   1.479   6.846   4.387
 1367SOL    HW1 5000   1.433   6.769   4.431
 1367SOL    HW2 5001   1.430   6.871   4.304
 1368SOL     OW 5002   1.543   6.370   4.751
 1368SOL    HW1 5003   1.639   6.382   4.776
 1368SOL    HW2 5004   1.485   6.388   4.831
 1369SOL     OW 5005   2.390   5.537   3.259
 1369SOL    HW1 5006   2.314   5.577   3.310
 1369SOL    HW2 5007   2.361   5.519   3.165
 1370SOL     OW 5008   0.286   2.970   2.876
 1370SOL    HW1 5009   0.348   3.023   2.819
 1370SOL    HW2 5010   0.279   2.877   2.842
 1371SOL     OW 5011   5.946   1.802   6.624
 1371SOL    HW1 5012   5.889   1.883   6.611
 1371SOL    HW2 5013   5.921   1.757   6.710
 1372SOL     OW 5014   5.155   2.833   2.220
 1372SOL    HW1 5015   5.171   2.929   2.200
 1372SOL    HW2 5016   5.071   2.803   2.173
 1373SOL     OW 5017   4.813   2.620   1.327
 1373SOL    HW1 5018   4.844   2.539   1.278
 1373SOL    HW2 5019   4.846   2.702   1.280
 1374SOL     OW 5020   3.719   3.950   3.193
 1374SOL    HW1 5021   3.670   3.875   3.237
 1374SOL    HW2 5022   3.792   3.982   3.254
 1375SOL     OW 5023   5.401   4.200   5.344
 1375SOL    HW1 5024   5.414   4.100   5.342
 1375SOL    HW2 5025   5.345   4.227   5.266
 1376SOL     OW 5026   3.071   4.593   6.137
 1376SOL    HW1 5027   3.004   4.520   6.152
 1376SOL    HW2 5028   3.023   4.679   6.120
 1377SOL     OW 5029   1.088   1.951   3.471
 1377SOL    HW1 5030   1.031   1.930   3.392
 1377SOL    HW2 5031   1.051   2.030   3.520
 1378SOL     OW 5032   4.494   2.520   4.151
 1378SOL    HW1 5033   4.574   2.461   4.141
 1378SOL    HW2 5034   4.464   2.551   4.061
 1379SOL     OW 5035   4.966   5.706   6.403
 1379SOL    HW1 5036   4.888   5.742   6.351
 1379SOL    HW2 5037   5.043   5.693   6.341
 1380SOL     OW 5038   0.080   6.241   4.009
 1380SOL    HW1 5039   0.045   6.198   3.926
 1380SOL    HW2 5040   0.047   6.336   4.013
 1381SOL     OW 5041   6.877   2.658   6.097
 1381SOL    HW1 5042   6.955   2.625   6.151
 1381SOL    HW2 5043   6.907   2.678   6.004
 1382SOL     OW 5044   4.336   2.202   5.849
 1382SOL    HW1 5045   4.247   2.157   5.860
 1382SOL    HW2 5046   4.392   2.187   5.930
 1383SOL     OW 5047   5.690   0.808   0.787
 1383SOL    HW1 5048   5.787   0.784   0.783
 1383SOL    HW2 5049   5.677   0.901   0.753
 1384SOL     OW 5050   5.659   2.443   2.324
 1384SOL    HW1 5051   5.676   2.376   2.252
 1384SOL    HW2 5052   5.745   2.467   2.368
 1385SOL     OW 5053   6.662   6.714   1.776
 1385SOL    HW1 5054   6.741   6.658   1.802
 1385SOL    HW2 5055   6.597   6.716   1.852
 1386SOL     OW 5056   2.030   0.232   4.123
 1386SOL    HW1 5057   1.972   0.243   4.203
 1386SOL    HW2 5058   2.005   0.148   4.075
 1387SOL     OW 5059   0.844   5.846   1.907
 1387SOL    HW1 5060   0.921   5.794   1.945
 1387SOL    HW2 5061   0.758   5.805   1.937
 1388SOL     OW 5062   6.603   0.930   1.859
 1388SOL    HW1 5063   6.648   0.940   1.770
 1388SOL    HW2 5064   6.586   0.833   1.876
 1389SOL     OW 5065   6.415   0.971   1.591
 1389SOL    HW1 5066   6.428   0.899   1.659
 1389SOL    HW2 5067   6.488   1.039   1.600
 1390SOL     OW 5068   1.249   1.412   4.346
 1390SOL    HW1 5069   1.154   1.404   4.375
 1390SOL    HW2 5070   1.304   1.451   4.420
 1391SOL     OW 5071   0.911   2.932   3.324
 1391SOL    HW1 5072   0.960   2.891   3.401
 1391SOL    HW2 5073   0.965   2.923   3.241
 1392SOL     OW 5074   5.504   5.138   4.131
 1392SOL    HW1 5075   5.498   5.040   4.114
 1392SOL    HW2 5076   5.500   5.188   4.044
 1393SOL     OW 5077   3.786   5.134   6.971
 1393SOL    HW1 5078   3.742   5.165   6.887
 1393SOL    HW2 5079   3.878   5.173   6.977
 1394SOL     OW 5080   1.075   6.669   6.844
 1394SOL    HW1 5081   1.049   6.741   6.779
 1394SOL    HW2 5082   1.149   6.703   6.902
 1395SOL     OW 5083   4.018   4.708   6.474
 1395SOL    HW1 5084   4.101   4.699   6.419
 1395SOL    HW2 5085   4.003   4.625   6.528
 1396SOL     OW 5086   5.048   5.697   3.470
 1396SOL    HW1 5087   5.031   5.772   3.406
 1396SOL    HW2 5088   5.059   5.612   3.420
 1397SOL     OW 5089   5.604   6.429   5.147
 1397SOL    HW1 5090   5.638   6.358   5.086
 1397SOL    HW2 5091   5.529   6.393   5.203
 1398SOL     OW 5092   1.564   0.272   5.341
 1398SOL    HW1 5093   1.515   0.349   5.299
 1398SOL    HW2 5094   1.651   0.259   5.294
 1399SOL     OW 5095   3.405   5.297   2.468
 1399SOL    HW1 5096   3.331   5.267   2.529
 1399SOL    HW2 5097   3.401   5.243   2.383
 1400SOL     OW 5098   1.318   0.035   3.600
 1400SOL    HW1 5099   1.396   0.072   3.549
 1400SOL    HW2 5100   1.233   0.053   3.550
 1401SOL     OW 5101   6.459   2.139   4.007
 1401SOL    HW1 5102   6.407   2.083   3.942
 1401SOL    HW2 5103   6.406   2.149   4.092
 1402SOL     OW 5104   5.350   2.665   6.989
 1402SOL    HW1 5105   5.387   2.631   0.050
 1402SOL    HW2 5106   5.330   2.588   6.928
 1403SOL     OW 5107   3.504   0.571   2.012
 1403SOL    HW1 5108   3.446   0.533   1.940
 1403SOL    HW2 5109   3.448   0.592   2.092
 1404SOL     OW 5110   4.415   1.340   0.186
 1404SOL    HW1 5111   4.426   1.240   0.195
 1404SOL    HW2 5112   4.505   1.383   0.190
 1405SOL     OW 5113   3.783   2.816   1.182
 1405SOL    HW1 5114   3.760   2.719   1.194
 1405SOL    HW2 5115   3.882   2.825   1.168
 1406SOL     OW 5116   0.851   3.704   2.290
 1406SOL    HW1 5117   0.884   3.789   2.247
 1406SOL    HW2 5118   0.922   3.668   2.350
 1407SOL     OW 5119   7.020   2.916   2.387
 1407SOL    HW1 5120   6.975   2.926   2.298
 1407SOL    HW2 5121   6.959   2.868   2.450
 1408SOL     OW 5122   6.350   5.571   6.317
 1408SOL    HW1 5123   6.269   5.624   6.295
 1408SOL    HW2 5124   6.429   5.632   6.322
 1409SOL     OW 5125   0.256   1.495   4.303
 1409SOL    HW1 5126   0.305   1.453   4.379
 1409SOL    HW2 5127   0.158   1.494   4.321
 1410SOL     OW 5128   6.516   1.811   7.001
 1410SOL    HW1 5129   6.515   1.858   6.913
 1410SOL    HW2 5130   6.572   1.728   6.993
 1411SOL     OW 5131   1.846   1.006   1.155
 1411SOL    HW1 5132   1.918   0.981   1.220
 1411SOL    HW2 5133   1.871   0.973   1.064
 1412SOL     OW 5134   1.771   2.530   0.304
 1412SOL    HW1 5135   1.678   2.559   0.329
 1412SOL    HW2 5136   1.765   2.451   0.243
 1413SOL     OW 5137   3.309   0.375   3.391
 1413SOL    HW1 5138   3.381   0.306   3.396
 1413SOL    HW2 5139   3.260   0.379   3.477
 1414SOL     OW 5140   1.611   1.223   2.379
 1414SOL    HW1 5141   1.552   1.267   2.312
 1414SOL    HW2 5142   1.683   1.287   2.407
 1415SOL     OW 5143   5.891   6.783   5.117
 1415SOL    HW1 5144   5.831   6.720   5.166
 1415SOL    HW2 5145   5.937   6.734   5.043
 1416SOL     OW 5146   4.724   5.576   3.484
 1416SOL    HW1 5147   4.727   5.658   3.426
 1416SOL    HW2 5148   4.670   5.596   3.566
 1417SOL     OW 5149   3.716   2.638   6.077
 1417SOL    HW1 5150   3.700   2.692   6.160
 1417SOL    HW2 5151   3.809   2.602   6.078
 1418SOL     OW 5152   3.147   4.054   3.552
 1418SOL    HW1 5153   3.229   4.109   3.540
 1418SOL    HW2 5154   3.127   4.004   3.468
 1419SOL     OW 5155   3.297   6.767   3.780
 1419SOL    HW1 5156   3.291   6.705   3.858
 1419SOL    HW2 5157   3.208   6.772   3.735
 1420SOL     OW 5158   0.700   6.383   2.891
 1420SOL    HW1 5159   0.715   6.456   2.825
 1420SOL    HW2 5160   0.677   6.422   2.980
 1421SOL     OW 5161   3.790   0.852   2.911
 1421SOL    HW1 5162   3.877   0.901   2.901
 1421SOL    HW2 5163   3.803   0.756   2.886
 1422SOL     OW 5164   2.538   6.357   0.772
 1422SOL    HW1 5165   2.506   6.446   0.804
 1422SOL    HW2 5166   2.463   6.291   0.775
 1423SOL     OW 5167   5.337   1.081   2.278
 1423SOL    HW1 5168   5.331   1.169   2.325
 1423SOL    HW2 5169   5.416   1.083   2.217
 1424SOL     OW 5170   6.745   5.405   2.617
 1424SOL    HW1 5171   6.664   5.354   2.590
 1424SOL    HW2 5172   6.719   5.495   2.649
 1425SOL     OW 5173   2.242   0.672   4.833
 1425SOL    HW1 5174   2.176   0.694   4.761
 1425SOL    HW2 5175   2.307   0.747   4.842
 1426SOL     OW 5176   1.592   1.443   5.895
 1426SOL    HW1 5177   1.572   1.419   5.800
 1426SOL    HW2 5178   1.620   1.539   5.901
 1427SOL     OW 5179   5.270   2.123   6.033
 1427SOL    HW1 5180   5.178   2.155   6.009
 1427SOL    HW2 5181   5.329   2.201   6.052
 1428SOL     OW 5182   5.348   0.916   0.656
 1428SOL    HW1 5183   5.443   0.945   0.646
 1428SOL    HW2 5184   5.339   0.856   0.736
 1429SOL     OW 5185   5.622   6.013   0.250
 1429SOL    HW1 5186   5.635   5.971   0.340
 1429SOL    HW2 5187   5.662   5.955   0.179
 1430SOL     OW 5188   3.174   5.048   2.648
 1430SOL    HW1 5189   3.140   4.991   2.723
 1430SOL    HW2 5190   3.172   4.995   2.563
 1431SOL     OW 5191   1.913   6.986   0.954
 1431SOL    HW1 5192   1.924   0.060   0.961
 1431SOL    HW2 5193   1.949   6.955   0.866
 1432SOL     OW 5194   3.273   0.045   1.809
 1432SOL    HW1 5195   3.347   7.014   1.773
 1432SOL    HW2 5196   3.311   0.117   1.866
 1433SOL     OW 5197   5.211   0.013   3.605
 1433SOL    HW1 5198   5.257   0.057   3.528
 1433SOL    HW2 5199   5.279   7.007   3.672
 1434SOL     OW 5200   1.098   1.072   5.377
 1434SOL    HW1 5201   1.152   1.150   5.407
 1434SOL    HW2 5202   1.031   1.049   5.447
 1435SOL     OW 5203   6.729   2.508   3.621
 1435SOL    HW1 5204   6.642   2.461   3.613
 1435SOL    HW2 5205   6.739   2.574   3.547
 1436SOL     OW 5206   5.032   3.567   1.116
 1436SOL    HW1 5207   5.074   3.500   1.178
 1436SOL    HW2 5208   5.103   3.612   1.063
 1437SOL     OW 5209   4.348   0.860   2.552
 1437SOL    HW1 5210   4.291   0.850   2.633
 1437SOL    HW2 5211   4.411   0.782   2.546
 1438SOL     OW 5212   2.349   0.223   2.279
 1438SOL    HW1 5213   2.416   0.171   2.227
 1438SOL    HW2 5214   2.274   0.162   2.307
 1439SOL     OW 5215   0.533   5.886   1.731
 1439SOL    HW1 5216   0.565   5.809   1.786
 1439SOL    HW2 5217   0.456   5.930   1.778
 1440SOL     OW 5218   2.373   2.672   1.609
 1440SOL    HW1 5219   2.385   2.734   1.532
 1440SOL    HW2 5220   2.365   2.578   1.575
 1441SOL     OW 5221   5.048   5.801   6.644
 1441SOL    HW1 5222   5.012   5.777   6.554
 1441SOL    HW2 5223   5.029   5.727   6.708
 1442SOL     OW 5224   5.133   5.988   1.307
 1442SOL    HW1 5225   5.099   6.030   1.391
 1442SOL    HW2 5226   5.151   5.891   1.323
 1443SOL     OW 5227   6.832   3.084   1.939
 1443SOL    HW1 5228   6.871   3.087   1.846
 1443SOL    HW2 5229   6.766   3.010   1.945
 1444SOL     OW 5230   0.447   6.226   5.685
 1444SOL    HW1 5231   0.392   6.295   5.639
 1444SOL    HW2 5232   0.517   6.270   5.740
 1445SOL     OW 5233   0.481   2.353   1.061
 1445SOL    HW1 5234   0.435   2.414   1.125
 1445SOL    HW2 5235   0.464   2.383   0.968
 1446SOL     OW 5236   6.699   5.443   1.333
 1446SOL    HW1 5237   6.703   5.468   1.236
 1446SOL    HW2 5238   6.765   5.497   1.385
 1447SOL     OW 5239   0.000   6.660   4.276
 1447SOL    HW1 5240   0.084   6.662   4.330
 1447SOL    HW2 5241   6.968   6.584   4.306
 1448SOL     OW 5242   1.280   1.354   5.663
 1448SOL    HW1 5243   1.229   1.337   5.579
 1448SOL    HW2 5244   1.372   1.385   5.641
 1449SOL     OW 5245   1.634   3.011   2.805
 1449SOL    HW1 5246   1.682   2.929   2.838
 1449SOL    HW2 5247   1.698   3.088   2.804
 1450SOL     OW 5248   3.226   1.754   3.071
 1450SOL    HW1 5249   3.296   1.691   3.036
 1450SOL    HW2 5250   3.269   1.840   3.098
 1451SOL     OW 5251   4.176   1.613   2.609
 1451SOL    HW1 5252   4.091   1.663   2.622
 1451SOL    HW2 5253   4.158   1.531   2.554
 1452SOL     OW 5254   4.169   2.731   5.811
 1452SOL    HW1 5255   4.249   2.689   5.767
 1452SOL    HW2 5256   4.087   2.709   5.759
 1453SOL     OW 5257   1.128   3.686   5.285
 1453SOL    HW1 5258   1.037   3.706   5.322
 1453SOL    HW2 5259   1.197   3.714   5.351
 1454SOL     OW 5260   3.090   2.165   2.459
 1454SOL    HW1 5261   3.145   2.161   2.543
 1454SOL    HW2 5262   3.079   2.072   2.423
 1455SOL     OW 5263   0.225   5.463   2.131
 1455SOL    HW1 5264   0.310   5.494   2.089
 1455SOL    HW2 5265   0.229   5.480   2.230
 1456SOL     OW 5266   6.783   5.429   3.981
 1456SOL    HW1 5267   6.860   5.478   3.940
 1456SOL    HW2 5268   6.720   5.495   4.021
 1457SOL     OW 5269   1.233   5.499   5.301
 1457SOL    HW1 5270   1.233   5.399   5.306
 1457SOL    HW2 5271   1.290   5.528   5.224
 1458SOL     OW 5272   6.512   5.151   4.970
 1458SOL    HW1 5273   6.451   5.185   4.898
 1458SOL    HW2 5274   6.536   5.056   4.952
 1459SOL     OW 5275   6.435   6.270   4.975
 1459SOL    HW1 5276   6.383   6.297   5.056
 1459SOL    HW2 5277   6.410   6.178   4.948
 1460SOL     OW 5278   1.565   5.847   4.769
 1460SOL    HW1 5279   1.521   5.820   4.684
 1460SOL    HW2 5280   1.537   5.940   4.793
 1461SOL     OW 5281   5.933   3.526   3.436
 1461SOL    HW1 5282   5.960   3.596   3.371
 1461SOL    HW2 5283   5.989   3.534   3.519
 1462SOL     OW 5284   0.461   1.550   2.422
 1462SOL    HW1 5285   0.422   1.624   2.367
 1462SOL    HW2 5286   0.391   1.512   2.483
 1463SOL     OW 5287   1.461   4.747   6.953
 1463SOL    HW1 5288   1.530   4.759   7.024
 1463SOL    HW2 5289   1.408   4.832   6.944
 1464SOL     OW 5290   1.110   4.698   5.164
 1464SOL    HW1 5291   1.038   4.764   5.185
 1464SOL    HW2 5292   1.199   4.737   5.187
 1465SOL     OW 5293   1.544   2.753   5.962
 1465SOL    HW1 5294   1.458   2.733   5.914
 1465SOL    HW2 5295   1.531   2.737   6.060
 1466SOL     OW 5296   5.987   0.831   2.677
 1466SOL    HW1 5297   5.887   0.843   2.678
 1466SOL    HW2 5298   6.009   0.734   2.685
 1467SOL     OW 5299   0.292   7.015   3.610
 1467SOL    HW1 5300   0.382   6.974   3.627
 1467SOL    HW2 5301   0.223   6.965   3.662
 1468SOL     OW 5302   3.255   6.638   3.400
 1468SOL    HW1 5303   3.277   6.691   3.481
 1468SOL    HW2 5304   3.157   6.644   3.380
 1469SOL     OW 5305   5.719   4.566   3.366
 1469SOL    HW1 5306   5.623   4.579   3.390
 1469SOL    HW2 5307   5.738   4.468   3.362
 1470SOL     OW 5308   6.649   2.160   2.397
 1470SOL    HW1 5309   6.588   2.238   2.408
 1470SOL    HW2 5310   6.674   2.150   2.300
 1471SOL     OW 5311   5.052   0.011   6.928
 1471SOL    HW1 5312   5.053   0.079   7.001
 1471SOL    HW2 5313   4.971   0.024   6.871
 1472SOL     OW 5314   2.410   0.582   6.508
 1472SOL    HW1 5315   2.343   0.656   6.514
 1472SOL    HW2 5316   2.382   0.517   6.438
 1473SOL     OW 5317   1.941   5.749   3.417
 1473SOL    HW1 5318   1.953   5.816   3.491
 1473SOL    HW2 5319   1.993   5.666   3.439
 1474SOL     OW 5320   1.520   3.854   1.937
 1474SOL    HW1 5321   1.514   3.799   1.854
 1474SOL    HW2 5322   1.575   3.936   1.919
 1475SOL     OW 5323   6.276   0.110   6.570
 1475SOL    HW1 5324   6.357   0.077   6.619
 1475SOL    HW2 5325   6.275   0.210   6.571
 1476SOL     OW 5326   5.474   0.320   6.888
 1476SOL    HW1 5327   5.438   0.297   6.798
 1476SOL    HW2 5328   5.446   0.250   6.954
 1477SOL     OW 5329   3.281   4.214   1.726
 1477SOL    HW1 5330   3.306   4.304   1.689
 1477SOL    HW2 5331   3.350   4.186   1.792
 1478SOL     OW 5332   5.160   4.232   6.113
 1478SOL    HW1 5333   5.124   4.296   6.045
 1478SOL    HW2 5334   5.254   4.207   6.089
 1479SOL     OW 5335   4.740   4.766   1.301
 1479SOL    HW1 5336   4.768   4.817   1.383
 1479SOL    HW2 5337   4.778   4.673   1.304
 1480SOL     OW 5338   3.026   1.655   3.810
 1480SOL    HW1 5339   3.104   1.595   3.826
 1480SOL    HW2 5340   2.962   1.646   3.886
 1481SOL     OW 5341   4.301   1.565   5.800
 1481SOL    HW1 5342   4.235   1.627   5.756
 1481SOL    HW2 5343   4.383   1.615   5.825
 1482SOL     OW 5344   6.512   1.356   1.805
 1482SOL    HW1 5345   6.515   1.256   1.811
 1482SOL    HW2 5346   6.605   1.391   1.791
 1483SOL     OW 5347   6.488   6.792   0.099
 1483SOL    HW1 5348   6.462   6.886   0.118
 1483SOL    HW2 5349   6.566   6.767   0.156
 1484SOL     OW 5350   3.075   6.145   4.779
 1484SOL    HW1 5351   3.072   6.114   4.874
 1484SOL    HW2 5352   3.123   6.077   4.723
 1485SOL     OW 5353   5.112   3.819   3.447
 1485SOL    HW1 5354   5.020   3.854   3.426
 1485SOL    HW2 5355   5.109   3.766   3.532
 1486SOL     OW 5356   6.061   6.165   4.241
 1486SOL    HW1 5357   6.007   6.081   4.230
 1486SOL    HW2 5358   6.063   6.191   4.338
 1487SOL     OW 5359   5.842   0.964   6.935
 1487SOL    HW1 5360   5.826   0.882   6.881
 1487SOL    HW2 5361   5.933   1.001   6.915
 1488SOL     OW 5362   6.896   2.894   2.804
 1488SOL    HW1 5363   6.915   2.802   2.838
 1488SOL    HW2 5364   6.937   2.961   2.865
 1489SOL     OW 5365   3.250   5.500   6.934
 1489SOL    HW1 5366   3.222   5.413   6.974
 1489SOL    HW2 5367   3.214   5.575   6.989
 1490SOL     OW 5368   5.901   2.949   2.422
 1490SOL    HW1 5369   5.826   2.989   2.369
 1490SOL    HW2 5370   5.968   3.020   2.445
 1491SOL     OW 5371   5.475   2.944   4.449
 1491SOL    HW1 5372   5.462   3.038   4.419
 1491SOL    HW2 5373   5.416   2.926   4.529
 1492SOL     OW 5374   1.254   2.416   1.911
 1492SOL    HW1 5375   1.318   2.483   1.951
 1492SOL    HW2 5376   1.203   2.371   1.985
 1493SOL     OW 5377   5.999   2.479   6.515
 1493SOL    HW1 5378   5.996   2.431   6.603
 1493SOL    HW2 5379   5.907   2.510   6.492
 1494SOL     OW 5380   1.408   3.995   6.524
 1494SOL    HW1 5381   1.319   3.951   6.516
 1494SOL    HW2 5382   1.404   4.087   6.485
 1495SOL     OW 5383   6.436   4.274   3.943
 1495SOL    HW1 5384   6.382   4.225   4.012
 1495SOL    HW2 5385   6.533   4.266   3.966
 1496SOL     OW 5386   6.672   5.868   5.370
 1496SOL    HW1 5387   6.728   5.847   5.290
 1496SOL    HW2 5388   6.699   5.810   5.446
 1497SOL     OW 5389   4.685   2.235   2.742
 1497SOL    HW1 5390   4.609   2.233   2.678
 1497SOL    HW2 5391   4.717   2.141   2.760
 1498SOL     OW 5392   3.370   4.425   0.904
 1498SOL    HW1 5393   3.349   4.509   0.856
 1498SOL    HW2 5394   3.286   4.381   0.934
 1499SOL     OW 5395   1.006   4.109   4.082
 1499SOL    HW1 5396   1.104   4.119   4.063
 1499SOL    HW2 5397   0.992   4.095   4.180
 1500SOL     OW 5398   2.405   5.617   1.722
 1500SOL    HW1 5399   2.321   5.616   1.776
 1500SOL    HW2 5400   2.476   5.668   1.770
 1501SOL     OW 5401   5.557   1.251   1.160
 1501SOL    HW1 5402   5.488   1.323   1.171
 1501SOL    HW2 5403   5.593   1.225   1.249
 1502SOL     OW 5404   0.537   6.086   6.425
 1502SOL    HW1 5405   0.521   6.105   6.522
 1502SOL    HW2 5406   0.454   6.106   6.373
 1503SOL     OW 5407   6.538   5.433   2.105
 1503SOL    HW1 5408   6.499   5.348   2.141
 1503SOL    HW2 5409   6.480   5.467   2.031
 1504SOL     OW 5410   1.988   0.322   3.307
 1504SOL    HW1 5411   1.999   0.227   3.339
 1504SOL    HW2 5412   1.984   0.383   3.386
 1505SOL     OW 5413   6.884   4.677   4.970
 1505SOL    HW1 5414   6.820   4.748   5.002
 1505SOL    HW2 5415   6.864   4.591   5.017
 1506SOL     OW 5416   1.258   0.701   1.028
 1506SOL    HW1 5417   1.350   0.730   1.056
 1506SOL    HW2 5418   1.198   0.781   1.021
 1507SOL     OW 5419   2.376   2.199   3.643
 1507SOL    HW1 5420   2.299   2.244   3.688
 1507SOL    HW2 5421   2.381   2.227   3.547
 1508SOL     OW 5422   1.464   0.732   2.233
 1508SOL    HW1 5423   1.468   0.688   2.144
 1508SOL    HW2 5424   1.546   0.709   2.285
 1509SOL     OW 5425   4.340   1.502   4.452
 1509SOL    HW1 5426   4.297   1.412   4.457
 1509SOL    HW2 5427   4.301   1.562   4.522
 1510SOL     OW 5428   2.895   6.780   5.074
 1510SOL    HW1 5429   2.869   6.842   5.148
 1510SOL    HW2 5430   2.825   6.708   5.065
 1511SOL     OW 5431   3.706   4.235   5.637
 1511SOL    HW1 5432   3.669   4.142   5.641
 1511SOL    HW2 5433   3.630   4.301   5.643
 1512SOL     OW 5434   5.204   6.321   0.749
 1512SOL    HW1 5435   5.196   6.343   0.846
 1512SOL    HW2 5436   5.269   6.385   0.706
 1513SOL     OW 5437   3.191   0.177   5.534
 1513SOL    HW1 5438   3.175   0.163   5.632
 1513SOL    HW2 5439   3.287   0.200   5.518
 1514SOL     OW 5440   2.878   1.886   0.173
 1514SOL    HW1 5441   2.974   1.900   0.195
 1514SOL    HW2 5442   2.842   1.810   0.226
 1515SOL     OW 5443   3.470   1.064   2.522
 1515SOL    HW1 5444   3.433   0.987   2.572
 1515SOL    HW2 5445   3.402   1.098   2.457
 1516SOL     OW 5446   6.644   6.929   6.604
 1516SOL    HW1 5447   6.686   6.838   6.599
 1516SOL    HW2 5448   6.645   6.971   6.513
 1517SOL     OW 5449   2.349   6.107   2.971
 1517SOL    HW1 5450   2.446   6.085   2.983
 1517SOL    HW2 5451   2.323   6.178   3.037
 1518SOL     OW 5452   1.279   2.714   6.942
 1518SOL    HW1 5453   1.185   2.718   6.975
 1518SOL    HW2 5454   1.298   2.794   6.885
 1519SOL     OW 5455   0.367   4.173   6.666
 1519SOL    HW1 5456   0.445   4.200   6.722
 1519SOL    HW2 5457   0.282   4.198   6.713
 1520SOL     OW 5458   6.943   6.695   3.484
 1520SOL    HW1 5459   6.975   6.672   3.392
 1520SOL    HW2 5460   6.845   6.680   3.491
 1521SOL     OW 5461   1.894   4.753   6.922
 1521SOL    HW1 5462   1.856   4.822   6.984
 1521SOL    HW2 5463   1.929   4.797   6.840
 1522SOL     OW 5464   5.993   6.569   3.960
 1522SOL    HW1 5465   5.956   6.497   4.019
 1522SOL    HW2 5466   5.918   6.608   3.906
 1523SOL     OW 5467   2.568   6.345   0.424
 1523SOL    HW1 5468   2.554   6.354   0.326
 1523SOL    HW2 5469   2.575   6.248   0.448
 1524SOL     OW 5470   1.778   2.627   4.592
 1524SOL    HW1 5471   1.757   2.620   4.690
 1524SOL    HW2 5472   1.831   2.710   4.575
 1525SOL     OW 5473   6.072   4.165   6.907
 1525SOL    HW1 5474   6.150   4.105   6.926
 1525SOL    HW2 5475   6.078   4.199   6.813
 1526SOL     OW 5476   0.751   1.617   1.071
 1526SOL    HW1 5477   0.740   1.563   1.153
 1526SOL    HW2 5478   0.664   1.622   1.022
 1527SOL     OW 5479   4.897   1.123   4.119
 1527SOL    HW1 5480   4.932   1.162   4.204
 1527SOL    HW2 5481   4.803   1.153   4.105
 1528SOL     OW 5482   4.088   3.210   2.566
 1528SOL    HW1 5483   4.139   3.226   2.482
 1528SOL    HW2 5484   4.035   3.126   2.557
 1529SOL     OW 5485   4.095   0.768   5.403
 1529SOL    HW1 5486   4.032   0.837   5.366
 1529SOL    HW2 5487   4.067   0.745   5.496
 1530SOL     OW 5488   2.889   0.398   1.735
 1530SOL    HW1 5489   2.797   0.367   1.759
 1530SOL    HW2 5490   2.885   0.494   1.708
 1531SOL     OW 5491   5.488   6.160   4.487
 1531SOL    HW1 5492   5.511   6.253   4.459
 1531SOL    HW2 5493   5.519   6.095   4.416
 1532SOL     OW 5494   2.626   5.339   2.220
 1532SOL    HW1 5495   2.666   5.260   2.267
 1532SOL    HW2 5496   2.543   5.311   2.173
 1533SOL     OW 5497   5.658   6.493   1.301
 1533SOL    HW1 5498   5.574   6.439   1.313
 1533SOL    HW2 5499   5.735   6.431   1.288
 1534SOL     OW 5500   2.124   4.627   6.719
 1534SOL    HW1 5501   2.042   4.570   6.711
 1534SOL    HW2 5502   2.150   4.659   6.628
 1535SOL     OW 5503   4.840   4.782   3.480
 1535SOL    HW1 5504   4.939   4.796   3.488
 1535SOL    HW2 5505   4.819   4.686   3.493
 1536SOL     OW 5506   4.174   4.161   6.507
 1536SOL    HW1 5507   4.191   4.114   6.421
 1536SOL    HW2 5508   4.213   4.109   6.582
 1537SOL     OW 5509   3.431   5.571   2.349
 1537SOL    HW1 5510   3.422   5.642   2.419
 1537SOL    HW2 5511   3.528   5.551   2.333
 1538SOL     OW 5512   2.168   1.087   0.410
 1538SOL    HW1 5513   2.144   1.132   0.495
 1538SOL    HW2 5514   2.265   1.100   0.391
 1539SOL     OW 5515   0.103   2.844   0.637
 1539SOL    HW1 5516   0.127   2.770   0.700
 1539SOL    HW2 5517   0.126   2.932   0.679
 1540SOL     OW 5518   3.651   5.940   3.758
 1540SOL    HW1 5519   3.642   5.951   3.857
 1540SOL    HW2 5520   3.594   5.864   3.728
 1541SOL     OW 5521   4.871   2.453   5.442
 1541SOL    HW1 5522   4.803   2.519   5.412
 1541SOL    HW2 5523   4.851   2.363   5.402
 1542SOL     OW 5524   0.397   4.647   2.633
 1542SOL    HW1 5525   0.362   4.646   2.540
 1542SOL    HW2 5526   0.360   4.570   2.684
 1543SOL     OW 5527   3.448   5.328   1.073
 1543SOL    HW1 5528   3.354   5.359   1.087
 1543SOL    HW2 5529   3.449   5.256   1.002
 1544SOL     OW 5530   3.973   3.358   4.131
 1544SOL    HW1 5531   3.895   3.419   4.143
 1544SOL    HW2 5532   3.954   3.270   4.175
 1545SOL     OW 5533   6.130   5.338   1.112
 1545SOL    HW1 5534   6.210   5.394   1.091
 1545SOL    HW2 5535   6.054   5.398   1.138
 1546SOL     OW 5536   6.472   6.483   5.548
 1546SOL    HW1 5537   6.447   6.459   5.642
 1546SOL    HW2 5538   6.555   6.539   5.550
 1547SOL     OW 5539   1.742   2.975   6.292
 1547SOL    HW1 5540   1.737   2.944   6.197
 1547SOL    HW2 5541   1.762   3.073   6.295
 1548SOL     OW 5542   6.445   2.124   0.142
 1548SOL    HW1 5543   6.400   2.206   0.106
 1548SOL    HW2 5544   6.376   2.059   0.175
 1549SOL     OW 5545   5.091   0.630   4.332
 1549SOL    HW1 5546   5.114   0.598   4.240
 1549SOL    HW2 5547   5.064   0.727   4.328
 1550SOL     OW 5548   2.937   3.570   4.160
 1550SOL    HW1 5549   2.900   3.568   4.253
 1550SOL    HW2 5550   3.035   3.591   4.163
 1551SOL     OW 5551   0.053   5.142   6.213
 1551SOL    HW1 5552   0.048   5.057   6.266
 1551SOL    HW2 5553   7.007   5.205   6.243
 1552SOL     OW 5554   2.011   3.790   1.420
 1552SOL    HW1 5555   2.006   3.734   1.337
 1552SOL    HW2 5556   2.001   3.886   1.396
 1553SOL     OW 5557   1.707   2.098   5.549
 1553SOL    HW1 5558   1.759   2.015   5.570
 1553SOL    HW2 5559   1.763   2.178   5.571
 1554SOL     OW 5560   4.678   1.930   3.480
 1554SOL    HW1 5561   4.639   2.017   3.452
 1554SOL    HW2 5562   4.737   1.944   3.560
 1555SOL     OW 5563   6.048   4.781   5.058
 1555SOL    HW1 5564   5.968   4.778   4.998
 1555SOL    HW2 5565   6.018   4.768   5.153
 1556SOL     OW 5566   1.708   1.211   5.900
 1556SOL    HW1 5567   1.652   1.289   5.927
 1556SOL    HW2 5568   1.774   1.192   5.973
 1557SOL     OW 5569   1.114   1.980   5.905
 1557SOL    HW1 5570   1.192   1.976   5.967
 1557SOL    HW2 5571   1.127   1.914   5.831
 1558SOL     OW 5572   6.536   6.997   4.482
 1558SOL    HW1 5573   6.475   0.021   4.421
 1558SOL    HW2 5574   6.495   6.992   4.573
 1559SOL     OW 5575   1.457   1.115   6.263
 1559SOL    HW1 5576   1.402   1.132   6.345
 1559SOL    HW2 5577   1.499   1.200   6.232
 1560SOL     OW 5578   0.088   0.610   0.691
 1560SOL    HW1 5579   0.042   0.522   0.678
 1560SOL    HW2 5580   0.150   0.604   0.769
 1561SOL     OW 5581   5.673   6.131   1.580
 1561SOL    HW1 5582   5.695   6.049   1.632
 1561SOL    HW2 5583   5.748   6.197   1.590
 1562SOL     OW 5584   5.481   6.988   4.455
 1562SOL    HW1 5585   5.575   7.022   4.449
 1562SOL    HW2 5586   5.480   6.890   4.438
 1563SOL     OW 5587   3.220   0.329   6.313
 1563SOL    HW1 5588   3.158   0.339   6.235
 1563SOL    HW2 5589   3.291   0.262   6.290
 1564SOL     OW 5590   1.387   2.826   2.863
 1564SOL    HW1 5591   1.468   2.883   2.872
 1564SOL    HW2 5592   1.331   2.833   2.946
 1565SOL     OW 5593   6.142   5.048   0.861
 1565SOL    HW1 5594   6.055   5.011   0.892
 1565SOL    HW2 5595   6.129   5.141   0.827
 1566SOL     OW 5596   6.019   4.765   2.548
 1566SOL    HW1 5597   5.954   4.689   2.547
 1566SOL    HW2 5598   5.982   4.841   2.496
 1567SOL     OW 5599   6.837   5.746   5.548
 1567SOL    HW1 5600   6.832   5.808   5.626
 1567SOL    HW2 5601   6.926   5.700   5.548
 1568SOL     OW 5602   0.266   6.831   0.859
 1568SOL    HW1 5603   0.335   6.768   0.895
 1568SOL    HW2 5604   0.175   6.800   0.886
 1569SOL     OW 5605   3.041   5.855   5.458
 1569SOL    HW1 5606   3.083   5.880   5.370
 1569SOL    HW2 5607   2.989   5.770   5.447
 1570SOL     OW 5608   3.031   2.055   2.125
 1570SOL    HW1 5609   3.011   2.152   2.116
 1570SOL    HW2 5610   2.963   2.012   2.185
 1571SOL     OW 5611   0.117   2.801   0.078
 1571SOL    HW1 5612   0.141   2.720   0.024
 1571SOL    HW2 5613   0.033   2.783   0.129
 1572SOL     OW 5614   0.250   5.498   3.606
 1572SOL    HW1 5615   0.296   5.460   3.686
 1572SOL    HW2 5616   0.262   5.436   3.528
 1573SOL     OW 5617   4.467   6.887   0.155
 1573SOL    HW1 5618   4.542   6.937   0.198
 1573SOL    HW2 5619   4.431   6.819   0.220
 1574SOL     OW 5620   5.339   3.851   1.596
 1574SOL    HW1 5621   5.418   3.884   1.646
 1574SOL    HW2 5622   5.364   3.834   1.500
 1575SOL     OW 5623   3.733   2.381   0.557
 1575SOL    HW1 5624   3.774   2.472   0.566
 1575SOL    HW2 5625   3.642   2.390   0.517
 1576SOL     OW 5626   6.393   5.269   3.143
 1576SOL    HW1 5627   6.303   5.269   3.098
 1576SOL    HW2 5628   6.387   5.220   3.230
 1577SOL     OW 5629   1.474   0.456   0.893
 1577SOL    HW1 5630   1.381   0.480   0.922
 1577SOL    HW2 5631   1.528   0.540   0.884
 1578SOL     OW 5632   5.929   5.927   4.678
 1578SOL    HW1 5633   5.876   5.862   4.733
 1578SOL    HW2 5634   5.944   5.890   4.587
 1579SOL     OW 5635   0.136   0.838   3.317
 1579SOL    HW1 5636   0.104   0.748   3.347
 1579SOL    HW2 5637   0.061   0.904   3.324
 1580SOL     OW 5638   3.350   4.151   5.560
 1580SOL    HW1 5639   3.375   4.171   5.465
 1580SOL    HW2 5640   3.251   4.158   5.570
 1581SOL     OW 5641   6.093   3.158   4.510
 1581SOL    HW1 5642   6.055   3.250   4.500
 1581SOL    HW2 5643   6.184   3.164   4.550
 1582SOL     OW 5644   6.297   6.519   3.976
 1582SOL    HW1 5645   6.205   6.553   3.957
 1582SOL    HW2 5646   6.293   6.423   4.003
 1583SOL     OW 5647   2.175   3.004   1.365
 1583SOL    HW1 5648   2.168   3.082   1.428
 1583SOL    HW2 5649   2.234   3.029   1.288
 1584SOL     OW 5650   2.461   0.173   6.606
 1584SOL    HW1 5651   2.512   0.207   6.528
 1584SOL    HW2 5652   2.422   0.083   6.584
 1585SOL     OW 5653   5.594   1.120   6.435
 1585SOL    HW1 5654   5.647   1.161   6.361
 1585SOL    HW2 5655   5.534   1.050   6.398
 1586SOL     OW 5656   4.093   3.291   3.173
 1586SOL    HW1 5657   4.117   3.280   3.269
 1586SOL    HW2 5658   4.126   3.212   3.121
 1587SOL     OW 5659   1.914   6.891   6.022
 1587SOL    HW1 5660   1.824   6.856   5.996
 1587SOL    HW2 5661   1.951   6.948   5.948
 1588SOL     OW 5662   6.229   4.411   0.147
 1588SOL    HW1 5663   6.303   4.389   0.211
 1588SOL    HW2 5664   6.264   4.412   0.054
 1589SOL     OW 5665   5.256   4.634   2.948
 1589SOL    HW1 5666   5.166   4.593   2.935
 1589SOL    HW2 5667   5.305   4.584   3.019
 1590SOL     OW 5668   2.323   5.961   4.403
 1590SOL    HW1 5669   2.346   6.014   4.321
 1590SOL    HW2 5670   2.388   5.886   4.414
 1591SOL     OW 5671   2.328   3.233   0.306
 1591SOL    HW1 5672   2.274   3.312   0.277
 1591SOL    HW2 5673   2.285   3.149   0.271
 1592SOL     OW 5674   3.837   3.611   4.170
 1592SOL    HW1 5675   3.826   3.684   4.102
 1592SOL    HW2 5676   3.796   3.640   4.257
 1593SOL     OW 5677   1.445   4.314   4.120
 1593SOL    HW1 5678   1.531   4.363   4.110
 1593SOL    HW2 5679   1.440   4.275   4.213
 1594SOL     OW 5680   0.538   5.476   2.261
 1594SOL    HW1 5681   0.617   5.472   2.199
 1594SOL    HW2 5682   0.557   5.542   2.334
 1595SOL     OW 5683   6.469   3.413   4.733
 1595SOL    HW1 5684   6.426   3.502   4.747
 1595SOL    HW2 5685   6.543   3.421   4.666
 1596SOL     OW 5686   3.321   4.992   6.833
 1596SOL    HW1 5687   3.316   5.067   6.899
 1596SOL    HW2 5688   3.242   4.932   6.845
 1597SOL     OW 5689   2.611   6.645   1.000
 1597SOL    HW1 5690   2.701   6.606   0.981
 1597SOL    HW2 5691   2.567   6.672   0.914
 1598SOL     OW 5692   6.849   5.797   1.767
 1598SOL    HW1 5693   6.893   5.809   1.856
 1598SOL    HW2 5694   6.917   5.805   1.695
 1599SOL     OW 5695   2.736   5.315   0.161
 1599SOL    HW1 5696   2.799   5.385   0.194
 1599SOL    HW2 5697   2.779   5.264   0.086
 1600SOL     OW 5698   3.482   1.895   4.910
 1600SOL    HW1 5699   3.385   1.877   4.894
 1600SOL    HW2 5700   3.536   1.825   4.863
 1601SOL     OW 5701   1.818   5.425   4.669
 1601SOL    HW1 5702   1.861   5.377   4.746
 1601SOL    HW2 5703   1.835   5.523   4.678
 1602SOL     OW 5704   0.149   3.374   1.773
 1602SOL    HW1 5705   0.101   3.331   1.696
 1602SOL    HW2 5706   0.142   3.315   1.853
 1603SOL     OW 5707   6.032   6.753   0.633
 1603SOL    HW1 5708   6.122   6.715   0.609
 1603SOL    HW2 5709   5.962   6.682   0.620
 1604SOL     OW 5710   0.980   5.196   4.626
 1604SOL    HW1 5711   0.910   5.155   4.568
 1604SOL    HW2 5712   0.982   5.149   4.714
 1605SOL     OW 5713   4.894   5.104   2.302
 1605SOL    HW1 5714   4.888   5.073   2.397
 1605SOL    HW2 5715   4.808   5.085   2.255
 1606SOL     OW 5716   5.986   5.503   4.715
 1606SOL    HW1 5717   5.984   5.442   4.794
 1606SOL    HW2 5718   6.031   5.456   4.638
 1607SOL     OW 5719   5.475   3.460   1.649
 1607SOL    HW1 5720   5.544   3.394   1.618
 1607SOL    HW2 5721   5.520   3.548   1.668
 1608SOL     OW 5722   2.430   0.113   0.933
 1608SOL    HW1 5723   2.478   0.079   0.853
 1608SOL    HW2 5724   2.476   0.081   1.016
 1609SOL     OW 5725   5.512   1.581   5.398
 1609SOL    HW1 5726   5.533   1.671   5.360
 1609SOL    HW2 5727   5.447   1.534   5.339
 1610SOL     OW 5728   4.460   6.620   3.143
 1610SOL    HW1 5729   4.369   6.655   3.165
 1610SOL    HW2 5730   4.517   6.695   3.111
 1611SOL     OW 5731   4.039   4.015   1.691
 1611SOL    HW1 5732   4.134   4.008   1.721
 1611SOL    HW2 5733   3.978   3.995   1.768
 1612SOL     OW 5734   3.025   0.543   4.510
 1612SOL    HW1 5735   3.030   0.640   4.531
 1612SOL    HW2 5736   3.069   0.525   4.422
 1613SOL     OW 5737   2.522   0.478   1.757
 1613SOL    HW1 5738   2.540   0.411   1.829
 1613SOL    HW2 5739   2.444   0.535   1.784
 1614SOL     OW 5740   6.800   1.945   5.152
 1614SOL    HW1 5741   6.720   1.901   5.191
 1614SOL    HW2 5742   6.880   1.887   5.165
 1615SOL     OW 5743   6.858   5.515   5.359
 1615SOL    HW1 5744   6.912   5.450   5.412
 1615SOL    HW2 5745   6.854   5.602   5.407
 1616SOL     OW 5746   2.338   1.980   6.198
 1616SOL    HW1 5747   2.295   1.984   6.288
 1616SOL    HW2 5748   2.397   2.060   6.186
 1617SOL     OW 5749   3.066   1.224   3.592
 1617SOL    HW1 5750   3.118   1.306   3.567
 1617SOL    HW2 5751   3.106   1.145   3.545
 1618SOL     OW 5752   5.173   3.109   2.166
 1618SOL    HW1 5753   5.265   3.092   2.132
 1618SOL    HW2 5754   5.115   3.140   2.091
 1619SOL     OW 5755   1.395   2.844   4.845
 1619SOL    HW1 5756   1.407   2.931   4.893
 1619SOL    HW2 5757   1.319   2.793   4.886
 1620SOL     OW 5758   3.330   5.894   1.516
 1620SOL    HW1 5759   3.412   5.895   1.573
 1620SOL    HW2 5760   3.254   5.935   1.567
 1621SOL     OW 5761   1.979   2.446   1.639
 1621SOL    HW1 5762   2.008   2.417   1.730
 1621SOL    HW2 5763   1.968   2.545   1.638
 1622SOL     OW 5764   2.226   2.529   5.507
 1622SOL    HW1 5765   2.263   2.621   5.495
 1622SOL    HW2 5766   2.180   2.500   5.423
 1623SOL     OW 5767   2.263   2.029   4.635
 1623SOL    HW1 5768   2.357   2.014   4.605
 1623SOL    HW2 5769   2.205   1.953   4.603
 1624SOL     OW 5770   1.823   0.426   0.337
 1624SOL    HW1 5771   1.838   0.523   0.358
 1624SOL    HW2 5772   1.908   0.376   0.348
 1625SOL     OW 5773   1.205   0.094   1.201
 1625SOL    HW1 5774   1.152   0.009   1.207
 1625SOL    HW2 5775   1.147   0.171   1.225
 1626SOL     OW 5776   2.376   3.206   6.249
 1626SOL    HW1 5777   2.297   3.215   6.188
 1626SOL    HW2 5778   2.458   3.240   6.202
 1627SOL     OW 5779   4.675   4.234   3.293
 1627SOL    HW1 5780   4.695   4.332   3.295
 1627SOL    HW2 5781   4.591   4.218   3.241
 1628SOL     OW 5782   3.867   3.314   0.114
 1628SOL    HW1 5783   3.774   3.345   0.136
 1628SOL    HW2 5784   3.879   3.220   0.146
 1629SOL     OW 5785   2.759   2.300   2.932
 1629SOL    HW1 5786   2.662   2.278   2.929
 1629SOL    HW2 5787   2.791   2.320   2.839
 1630SOL     OW 5788   5.708   4.683   3.855
 1630SOL    HW1 5789   5.645   4.760   3.844
 1630SOL    HW2 5790   5.798   4.718   3.882
 1631SOL     OW 5791   1.086   0.635   5.904
 1631SOL    HW1 5792   1.157   0.567   5.921
 1631SOL    HW2 5793   1.112   0.692   5.827
 1632SOL     OW 5794   3.909   6.604   6.898
 1632SOL    HW1 5795   3.910   6.691   6.947
 1632SOL    HW2 5796   3.941   6.531   6.959
 1633SOL     OW 5797   6.627   3.911   2.729
 1633SOL    HW1 5798   6.551   3.918   2.665
 1633SOL    HW2 5799   6.640   3.815   2.756
 1634SOL     OW 5800   3.562   1.136   0.980
 1634SOL    HW1 5801   3.531   1.231   0.991
 1634SOL    HW2 5802   3.633   1.132   0.910
 1635SOL     OW 5803   1.596   4.097   3.266
 1635SOL    HW1 5804   1.603   4.013   3.319
 1635SOL    HW2 5805   1.625   4.079   3.172
 1636SOL     OW 5806   2.789   6.340   0.629
 1636SOL    HW1 5807   2.818   6.350   0.533
 1636SOL    HW2 5808   2.690   6.324   0.632
 1637SOL     OW 5809   0.928   2.747   2.480
 1637SOL    HW1 5810   1.019   2.766   2.514
 1637SOL    HW2 5811   0.910   2.803   2.399
 1638SOL     OW 5812   0.954   2.335   5.973
 1638SOL    HW1 5813   0.873   2.309   6.026
 1638SOL    HW2 5814   0.946   2.431   5.946
 1639SOL     OW 5815   4.024   5.081   2.786
 1639SOL    HW1 5816   4.042   5.066   2.689
 1639SOL    HW2 5817   3.935   5.123   2.798
 1640SOL     OW 5818   5.764   6.903   0.554
 1640SOL    HW1 5819   5.754   6.990   0.506
 1640SOL    HW2 5820   5.760   6.828   0.489
 1641SOL     OW 5821   6.359   2.574   4.665
 1641SOL    HW1 5822   6.447   2.527   4.658
 1641SOL    HW2 5823   6.303   2.529   4.734
 1642SOL     OW 5824   0.684   2.287   1.513
 1642SOL    HW1 5825   0.743   2.302   1.593
 1642SOL    HW2 5826   0.738   2.245   1.440
 1643SOL     OW 5827   3.725   0.007   5.746
 1643SOL    HW1 5828   3.639   7.015   5.697
 1643SOL    HW2 5829   3.800   0.011   5.681
 1644SOL     OW 5830   3.968   1.215   1.016
 1644SOL    HW1 5831   4.061   1.244   1.036
 1644SOL    HW2 5832   3.951   1.125   1.056
 1645SOL     OW 5833   2.475   5.798   5.929
 1645SOL    HW1 5834   2.552   5.741   5.900
 1645SOL    HW2 5835   2.405   5.742   5.971
 1646SOL     OW 5836   2.472   3.332   0.478
 1646SOL    HW1 5837   2.480   3.427   0.448
 1646SOL    HW2 5838   2.417   3.281   0.412
 1647SOL     OW 5839   5.869   3.588   2.292
 1647SOL    HW1 5840   5.850   3.583   2.390
 1647SOL    HW2 5841   5.957   3.544   2.272
 1648SOL     OW 5842   2.914   0.738   3.240
 1648SOL    HW1 5843   2.849   0.777   3.306
 1648SOL    HW2 5844   2.987   0.690   3.289
 1649SOL     OW 5845   2.525   0.396   4.011
 1649SOL    HW1 5846   2.519   0.298   4.033
 1649SOL    HW2 5847   2.462   0.416   3.935
 1650SOL     OW 5848   2.812   0.361   4.387
 1650SOL    HW1 5849   2.795   0.419   4.308
 1650SOL    HW2 5850   2.891   0.396   4.438
 1651SOL     OW 5851   1.481   6.768   2.390
 1651SOL    HW1 5852   1.470   6.847   2.329
 1651SOL    HW2 5853   1.400   6.709   2.382
 1652SOL     OW 5854   3.571   3.609   1.617
 1652SOL    HW1 5855   3.666   3.610   1.648
 1652SOL    HW2 5856   3.552   3.693   1.565
 1653SOL     OW 5857   0.996   4.457   1.412
 1653SOL    HW1 5858   0.943   4.408   1.342
 1653SOL    HW2 5859   0.967   4.553   1.414
 1654SOL     OW 5860   0.722   2.085   4.108
 1654SOL    HW1 5861   0.715   2.080   4.009
 1654SOL    HW2 5862   0.688   1.999   4.148
 1655SOL     OW 5863   4.402   4.207   5.340
 1655SOL    HW1 5864   4.406   4.159   5.428
 1655SOL    HW2 5865   4.307   4.216   5.311
 1656SOL     OW 5866   0.436   3.286   2.388
 1656SOL    HW1 5867   0.347   3.241   2.382
 1656SOL    HW2 5868   0.449   3.324   2.479
 1657SOL     OW 5869   0.966   0.952   5.625
 1657SOL    HW1 5870   0.961   0.860   5.586
 1657SOL    HW2 5871   1.042   0.957   5.690
 1658SOL     OW 5872   6.047   6.847   2.550
 1658SOL    HW1 5873   6.141   6.875   2.532
 1658SOL    HW2 5874   6.030   6.758   2.509
 1659SOL     OW 5875   5.384   2.804   6.503
 1659SOL    HW1 5876   5.395   2.879   6.439
 1659SOL    HW2 5877   5.388   2.839   6.597
 1660SOL     OW 5878   2.380   5.538   3.735
 1660SOL    HW1 5879   2.357   5.513   3.829
 1660SOL    HW2 5880   2.389   5.456   3.680
 1661SOL     OW 5881   2.379   0.835   3.379
 1661SOL    HW1 5882   2.328   0.791   3.305
 1661SOL    HW2 5883   2.316   0.892   3.432
 1662SOL     OW 5884   6.949   0.883   3.625
 1662SOL    HW1 5885   6.975   0.971   3.584
 1662SOL    HW2 5886   6.854   0.863   3.600
 1663SOL     OW 5887   1.427   0.261   3.447
 1663SOL    HW1 5888   1.366   0.304   3.380
 1663SOL    HW2 5889   1.453   0.329   3.515
 1664SOL     OW 5890   1.886   5.458   4.415
 1664SOL    HW1 5891   1.914   5.393   4.344
 1664SOL    HW2 5892   1.899   5.418   4.505
 1665SOL     OW 5893   0.045   1.310   4.030
 1665SOL    HW1 5894   6.984   1.260   4.033
 1665SOL    HW2 5895   0.074   1.334   4.123
 1666SOL     OW 5896   5.463   2.555   6.463
 1666SOL    HW1 5897   5.425   2.628   6.519
 1666SOL    HW2 5898   5.563   2.555   6.472
 1667SOL     OW 5899   7.023   0.543   1.196
 1667SOL    HW1 5900   6.931   0.512   1.220
 1667SOL    HW2 5901   0.009   0.538   1.097
 1668SOL     OW 5902   2.398   0.435   4.771
 1668SOL    HW1 5903   2.365   0.526   4.798
 1668SOL    HW2 5904   2.481   0.445   4.717
 1669SOL     OW 5905   5.313   6.048   6.205
 1669SOL    HW1 5906   5.305   5.952   6.232
 1669SOL    HW2 5907   5.408   6.067   6.181
 1670SOL     OW 5908   6.982   3.240   6.281
 1670SOL    HW1 5909   0.042   3.243   6.334
 1670SOL    HW2 5910   6.972   3.150   6.238
 1671SOL     OW 5911   5.455   5.166   0.613
 1671SOL    HW1 5912   5.500   5.080   0.638
 1671SOL    HW2 5913   5.486   5.239   0.673
 1672SOL     OW 5914   1.984   4.319   2.534
 1672SOL    HW1 5915   2.047   4.326   2.612
 1672SOL    HW2 5916   2.033   4.344   2.450
 1673SOL     OW 5917   6.575   3.015   3.201
 1673SOL    HW1 5918   6.502   3.013   3.133
 1673SOL    HW2 5919   6.655   3.060   3.163
 1674SOL     OW 5920   2.419   5.597   0.396
 1674SOL    HW1 5921   2.412   5.548   0.483
 1674SOL    HW2 5922   2.366   5.681   0.401
 1675SOL     OW 5923   4.871   1.852   5.968
 1675SOL    HW1 5924   4.861   1.767   5.916
 1675SOL    HW2 5925   4.924   1.833   6.051
 1676SOL     OW 5926   2.878   1.963   3.686
 1676SOL    HW1 5927   2.971   1.989   3.662
 1676SOL    HW2 5928   2.879   1.889   3.753
 1677SOL     OW 5929   5.455   0.037   5.908
 1677SOL    HW1 5930   5.440   0.081   5.820
 1677SOL    HW2 5931   5.482   0.106   5.976
 1678SOL     OW 5932   4.867   6.421   2.382
 1678SOL    HW1 5933   4.843   6.468   2.297
 1678SOL    HW2 5934   4.908   6.487   2.446
 1679SOL     OW 5935   6.528   4.805   0.048
 1679SOL    HW1 5936   6.603   4.870   0.057
 1679SOL    HW2 5937   6.529   4.741   0.125
 1680SOL     OW 5938   0.422   2.226   5.594
 1680SOL    HW1 5939   0.451   2.303   5.650
 1680SOL    HW2 5940   0.324   2.232   5.577
 1681SOL     OW 5941   4.326   5.578   0.228
 1681SOL    HW1 5942   4.335   5.609   0.322
 1681SOL    HW2 5943   4.288   5.652   0.172
 1682SOL     OW 5944   0.220   2.818   5.994
 1682SOL    HW1 5945   0.315   2.787   6.002
 1682SOL    HW2 5946   0.200   2.839   5.898
 1683SOL     OW 5947   5.625   5.251   5.588
 1683SOL    HW1 5948   5.543   5.224   5.537
 1683SOL    HW2 5949   5.638   5.189   5.665
 1684SOL     OW 5950   0.579   0.096   4.521
 1684SOL    HW1 5951   0.658   0.057   4.474
 1684SOL    HW2 5952   0.542   0.029   4.585
 1685SOL     OW 5953   1.016   1.985   0.250
 1685SOL    HW1 5954   1.110   2.017   0.244
 1685SOL    HW2 5955   0.961   2.053   0.299
 1686SOL     OW 5956   1.659   6.771   6.020
 1686SOL    HW1 5957   1.614   6.705   6.080
 1686SOL    HW2 5958   1.630   6.755   5.926
 1687SOL     OW 5959   3.052   6.683   2.247
 1687SOL    HW1 5960   2.978   6.633   2.293
 1687SOL    HW2 5961   3.124   6.620   2.220
 1688SOL     OW 5962   0.463   1.342   3.853
 1688SOL    HW1 5963   0.502   1.282   3.783
 1688SOL    HW2 5964   0.443   1.432   3.813
 1689SOL     OW 5965   2.253   1.810   1.664
 1689SOL    HW1 5966   2.179   1.745   1.680
 1689SOL    HW2 5967   2.334   1.780   1.715
 1690SOL     OW 5968   1.047   2.410   0.617
 1690SOL    HW1 5969   0.959   2.416   0.665
 1690SOL    HW2 5970   1.113   2.472   0.659
 1691SOL     OW 5971   4.676   4.269   3.759
 1691SOL    HW1 5972   4.647   4.229   3.846
 1691SOL    HW2 5973   4.682   4.197   3.689
 1692SOL     OW 5974   1.133   6.867   4.002
 1692SOL    HW1 5975   1.224   6.885   4.041
 1692SOL    HW2 5976   1.140   6.865   3.902
 1693SOL     OW 5977   3.795   2.121   4.374
 1693SOL    HW1 5978   3.862   2.095   4.444
 1693SOL    HW2 5979   3.842   2.162   4.296
 1694SOL     OW 5980   6.356   6.024   4.909
 1694SOL    HW1 5981   6.361   5.984   4.817
 1694SOL    HW2 5982   6.342   5.952   4.976
 1695SOL     OW 5983   4.042   1.512   6.332
 1695SOL    HW1 5984   4.106   1.589   6.327
 1695SOL    HW2 5985   3.952   1.545   6.361
 1696SOL     OW 5986   3.691   5.643   1.956
 1696SOL    HW1 5987   3.600   5.627   1.917
 1696SOL    HW2 5988   3.706   5.741   1.966
 1697SOL     OW 5989   1.639   1.833   2.164
 1697SOL    HW1 5990   1.550   1.863   2.131
 1697SOL    HW2 5991   1.639   1.831   2.264
 1698SOL     OW 5992   5.039   1.687   0.057
 1698SOL    HW1 5993   4.950   1.693   0.011
 1698SOL    HW2 5994   5.034   1.733   0.145
 1699SOL     OW 5995   2.137   4.725   1.281
 1699SOL    HW1 5996   2.220   4.669   1.274
 1699SOL    HW2 5997   2.161   4.821   1.269
 1700SOL     OW 5998   5.997   2.919   4.389
 1700SOL    HW1 5999   5.948   2.876   4.465
 1700SOL    HW2 6000   6.037   3.006   4.420
 1701SOL     OW 6001   6.103   2.851   4.909
 1701SOL    HW1 6002   6.064   2.900   4.831
 1701SOL    HW2 6003   6.058   2.880   4.993
 1702SOL     OW 6004   5.274   2.746   1.529
 1702SOL    HW1 6005   5.230   2.746   1.440
 1702SOL    HW2 6006   5.301   2.839   1.553
 1703SOL     OW 6007   2.294   3.692   1.159
 1703SOL    HW1 6008   2.309   3.726   1.252
 1703SOL    HW2 6009   2.196   3.694   1.138
 1704SOL     OW 6010   0.341   1.717   2.232
 1704SOL    HW1 6011   0.294   1.804   2.223
 1704SOL    HW2 6012   0.344   1.671   2.143
 1705SOL     OW 6013   4.138   3.409   2.777
 1705SOL    HW1 6014   4.237   3.407   2.789
 1705SOL    HW2 6015   4.112   3.352   2.699
 1706SOL     OW 6016   2.677   0.993   6.062
 1706SOL    HW1 6017   2.670   0.991   6.161
 1706SOL    HW2 6018   2.626   0.915   6.023
 1707SOL     OW 6019   5.013   1.508   2.115
 1707SOL    HW1 6020   4.950   1.454   2.171
 1707SOL    HW2 6021   5.007   1.604   2.142
 1708SOL     OW 6022   0.591   4.269   1.510
 1708SOL    HW1 6023   0.563   4.183   1.554
 1708SOL    HW2 6024   0.513   4.330   1.504
 1709SOL     OW 6025   3.474   5.399   3.330
 1709SOL    HW1 6026   3.413   5.374   3.405
 1709SOL    HW2 6027   3.495   5.497   3.335
 1710SOL     OW 6028   6.464   4.569   4.891
 1710SOL    HW1 6029   6.364   4.567   4.896
 1710SOL    HW2 6030   6.492   4.558   4.796
 1711SOL     OW 6031   0.815   4.438   5.608
 1711SOL    HW1 6032   0.757   4.519   5.619
 1711SOL    HW2 6033   0.782   4.366   5.669
 1712SOL     OW 6034   1.485   4.608   2.345
 1712SOL    HW1 6035   1.564   4.634   2.290
 1712SOL    HW2 6036   1.501   4.635   2.440
 1713SOL     OW 6037   2.976   3.307   0.936
 1713SOL    HW1 6038   2.931   3.304   1.025
 1713SOL    HW2 6039   2.939   3.382   0.882
 1714SOL     OW 6040   4.702   1.184   1.701
 1714SOL    HW1 6041   4.645   1.146   1.774
 1714SOL    HW2 6042   4.677   1.140   1.614
 1715SOL     OW 6043   0.984   3.422   3.277
 1715SOL    HW1 6044   1.029   3.464   3.357
 1715SOL    HW2 6045   1.041   3.437   3.196
 1716SOL     OW 6046   6.987   0.116   6.743
 1716SOL    HW1 6047   6.963   0.050   6.815
 1716SOL    HW2 6048   6.989   0.070   6.655
 1717SOL     OW 6049   3.008   0.493   6.854
 1717SOL    HW1 6050   3.029   0.573   6.910
 1717SOL    HW2 6051   2.981   0.417   6.912
 1718SOL     OW 6052   2.008   3.998   5.513
 1718SOL    HW1 6053   2.088   4.000   5.454
 1718SOL    HW2 6054   2.012   3.918   5.573
 1719SOL     OW 6055   2.121   3.220   1.028
 1719SOL    HW1 6056   2.169   3.201   0.943
 1719SOL    HW2 6057   2.185   3.255   1.096
 1720SOL     OW 6058   0.162   2.337   2.083
 1720SOL    HW1 6059   0.211   2.424   2.077
 1720SOL    HW2 6060   0.215   2.265   2.038
 1721SOL     OW 6061   1.051   6.252   4.043
 1721SOL    HW1 6062   1.129   6.250   4.105
 1721SOL    HW2 6063   1.062   6.182   3.972
 1722SOL     OW 6064   5.470   7.021   1.664
 1722SOL    HW1 6065   5.444   0.087   1.692
 1722SOL    HW2 6066   5.431   7.001   1.574
 1723SOL     OW 6067   5.975   1.380   3.276
 1723SOL    HW1 6068   5.892   1.388   3.220
 1723SOL    HW2 6069   6.044   1.329   3.225
 1724SOL     OW 6070   4.561   0.561   0.454
 1724SOL    HW1 6071   4.620   0.556   0.373
 1724SOL    HW2 6072   4.469   0.586   0.427
 1725SOL     OW 6073   3.674   5.922   2.002
 1725SOL    HW1 6074   3.703   6.017   2.012
 1725SOL    HW2 6075   3.644   5.887   2.091
 1726SOL     OW 6076   6.122   4.165   4.779
 1726SOL    HW1 6077   6.154   4.247   4.731
 1726SOL    HW2 6078   6.027   4.178   4.807
 1727SOL     OW 6079   2.537   4.544   6.102
 1727SOL    HW1 6080   2.466   4.484   6.067
 1727SOL    HW2 6081   2.507   4.586   6.188
 1728SOL     OW 6082   4.846   5.668   3.839
 1728SOL    HW1 6083   4.747   5.671   3.833
 1728SOL    HW2 6084   4.883   5.761   3.836
 1729SOL     OW 6085   0.577   3.283   2.143
 1729SOL    HW1 6086   0.544   3.265   2.235
 1729SOL    HW2 6087   0.619   3.374   2.139
 1730SOL     OW 6088   4.710   2.146   4.781
 1730SOL    HW1 6089   4.769   2.079   4.738
 1730SOL    HW2 6090   4.617   2.139   4.745
 1731SOL     OW 6091   0.694   6.836   6.855
 1731SOL    HW1 6092   0.626   6.789   6.800
 1731SOL    HW2 6093   0.679   6.935   6.851
 1732SOL     OW 6094   0.916   4.453   0.194
 1732SOL    HW1 6095   1.010   4.486   0.198
 1732SOL    HW2 6096   0.907   4.384   0.122
 1733SOL     OW 6097   1.289   4.433   6.641
 1733SOL    HW1 6098   1.347   4.368   6.590
 1733SOL    HW2 6099   1.314   4.430   6.737
 1734SOL     OW 6100   5.653   4.312   0.533
 1734SOL    HW1 6101   5.588   4.244   0.567
 1734SOL    HW2 6102   5.740   4.267   0.514
 1735SOL     OW 6103   4.798   5.298   6.924
 1735SOL    HW1 6104   4.898   5.304   6.914
 1735SOL    HW2 6105   4.762   5.387   6.952
 1736SOL     OW 6106   3.645   3.288   0.525
 1736SOL    HW1 6107   3.692   3.215   0.475
 1736SOL    HW2 6108   3.688   3.300   0.614
 1737SOL     OW 6109   0.890   5.987   2.919
 1737SOL    HW1 6110   0.846   5.947   2.999
 1737SOL    HW2 6111   0.936   6.072   2.946
 1738SOL     OW 6112   0.648   1.542   2.213
 1738SOL    HW1 6113   0.596   1.561   2.297
 1738SOL    HW2 6114   0.744   1.528   2.236
 1739SOL     OW 6115   4.255   1.864   6.593
 1739SOL    HW1 6116   4.350   1.842   6.614
 1739SOL    HW2 6117   4.227   1.944   6.646
 1740SOL     OW 6118   0.497   2.041   6.601
 1740SOL    HW1 6119   0.506   1.942   6.612
 1740SOL    HW2 6120   0.567   2.087   6.656
 1741SOL     OW 6121   0.698   0.783   2.699
 1741SOL    HW1 6122   0.707   0.879   2.726
 1741SOL    HW2 6123   0.715   0.724   2.778
 1742SOL     OW 6124   6.308   5.928   4.173
 1742SOL    HW1 6125   6.288   5.883   4.086
 1742SOL    HW2 6126   6.252   6.010   4.181
 1743SOL     OW 6127   4.314   1.032   0.475
 1743SOL    HW1 6128   4.262   1.100   0.424
 1743SOL    HW2 6129   4.365   1.076   0.548
 1744SOL     OW 6130   3.922   6.075   1.447
 1744SOL    HW1 6131   3.999   6.028   1.489
 1744SOL    HW2 6132   3.956   6.146   1.385
 1745SOL     OW 6133   6.960   2.324   5.244
 1745SOL    HW1 6134   7.023   2.390   5.204
 1745SOL    HW2 6135   6.922   2.266   5.172
 1746SOL     OW 6136   2.700   0.938   6.331
 1746SOL    HW1 6137   2.705   0.838   6.335
 1746SOL    HW2 6138   2.787   0.977   6.361
 1747SOL     OW 6139   3.918   0.156   4.776
 1747SOL    HW1 6140   3.924   0.157   4.677
 1747SOL    HW2 6141   4.007   0.134   4.816
 1748SOL     OW 6142   6.119   1.027   1.957
 1748SOL    HW1 6143   6.109   1.054   2.052
 1748SOL    HW2 6144   6.113   0.928   1.949
 1749SOL     OW 6145   4.992   0.225   6.336
 1749SOL    HW1 6146   4.914   0.164   6.334
 1749SOL    HW2 6147   5.076   0.172   6.346
 1750SOL     OW 6148   3.472   0.681   3.103
 1750SOL    HW1 6149   3.506   0.775   3.108
 1750SOL    HW2 6150   3.511   0.636   3.022
 1751SOL     OW 6151   1.767   5.710   4.262
 1751SOL    HW1 6152   1.686   5.749   4.219
 1751SOL    HW2 6153   1.744   5.622   4.302
 1752SOL     OW 6154   6.947   1.895   6.228
 1752SOL    HW1 6155   6.898   1.867   6.310
 1752SOL    HW2 6156   0.018   1.906   6.249
 1753SOL     OW 6157   2.105   6.491   2.291
 1753SOL    HW1 6158   2.037   6.565   2.281
 1753SOL    HW2 6159   2.180   6.523   2.349
 1754SOL     OW 6160   3.140   3.010   3.291
 1754SOL    HW1 6161   3.113   3.040   3.199
 1754SOL    HW2 6162   3.175   3.088   3.343
 1755SOL     OW 6163   6.888   4.100   6.998
 1755SOL    HW1 6164   6.847   4.172   6.942
 1755SOL    HW2 6165   6.821   4.028   7.015
 1756SOL     OW 6166   5.930   4.361   5.246
 1756SOL    HW1 6167   5.846   4.308   5.242
 1756SOL    HW2 6168   6.002   4.313   5.195
 1757SOL     OW 6169   3.705   0.730   4.767
 1757SOL    HW1 6170   3.652   0.690   4.841
 1757SOL    HW2 6171   3.731   0.824   4.791
 1758SOL     OW 6172   2.733   1.648   3.352
 1758SOL    HW1 6173   2.810   1.613   3.404
 1758SOL    HW2 6174   2.727   1.747   3.364
 1759SOL     OW 6175   6.907   6.301   6.305
 1759SOL    HW1 6176   6.810   6.325   6.309
 1759SOL    HW2 6177   6.917   6.205   6.279
 1760SOL     OW 6178   4.557   6.493   2.811
 1760SOL    HW1 6179   4.530   6.463   2.902
 1760SOL    HW2 6180   4.656   6.485   2.800
 1761SOL     OW 6181   5.697   3.201   1.294
 1761SOL    HW1 6182   5.745   3.240   1.215
 1761SOL    HW2 6183   5.732   3.109   1.312
 1762SOL     OW 6184   5.745   3.127   0.414
 1762SOL    HW1 6185   5.827   3.179   0.388
 1762SOL    HW2 6186   5.694   3.101   0.331
 1763SOL     OW 6187   2.187   2.638   4.520
 1763SOL    HW1 6188   2.137   2.553   4.501
 1763SOL    HW2 6189   2.208   2.643   4.618
 1764SOL     OW 6190   6.654   3.522   3.231
 1764SOL    HW1 6191   6.668   3.530   3.132
 1764SOL    HW2 6192   6.589   3.592   3.261
 1765SOL     OW 6193   1.657   3.378   5.847
 1765SOL    HW1 6194   1.592   3.344   5.915
 1765SOL    HW2 6195   1.749   3.351   5.872
 1766SOL     OW 6196   5.894   3.825   5.437
 1766SOL    HW1 6197   5.931   3.755   5.376
 1766SOL    HW2 6198   5.934   3.914   5.414
 1767SOL     OW 6199   6.695   5.129   1.307
 1767SOL    HW1 6200   6.650   5.058   1.254
 1767SOL    HW2 6201   6.669   5.219   1.271
 1768SOL     OW 6202   6.003   6.845   2.847
 1768SOL    HW1 6203   6.006   6.928   2.791
 1768SOL    HW2 6204   6.053   6.771   2.801
 1769SOL     OW 6205   4.498   1.035   3.758
 1769SOL    HW1 6206   4.424   1.068   3.699
 1769SOL    HW2 6207   4.577   1.010   3.702
 1770SOL     OW 6208   3.445   5.845   5.326
 1770SOL    HW1 6209   3.397   5.843   5.414
 1770SOL    HW2 6210   3.382   5.818   5.253
 1771SOL     OW 6211   4.936   5.783   0.010
 1771SOL    HW1 6212   4.974   5.874   7.021
 1771SOL    HW2 6213   4.991   5.734   0.077
 1772SOL     OW 6214   2.226   5.796   2.564
 1772SOL    HW1 6215   2.142   5.849   2.581
 1772SOL    HW2 6216   2.301   5.838   2.615
 1773SOL     OW 6217   1.541   6.843   0.236
 1773SOL    HW1 6218   1.504   6.760   0.278
 1773SOL    HW2 6219   1.555   6.828   0.138
 1774SOL     OW 6220   2.558   5.190   1.776
 1774SOL    HW1 6221   2.582   5.184   1.679
 1774SOL    HW2 6222   2.491   5.263   1.789
 1775SOL     OW 6223   0.845   5.342   0.670
 1775SOL    HW1 6224   0.875   5.268   0.609
 1775SOL    HW2 6225   0.900   5.341   0.753
 1776SOL     OW 6226   3.298   5.408   4.980
 1776SOL    HW1 6227   3.256   5.411   5.071
 1776SOL    HW2 6228   3.234   5.367   4.915
 1777SOL     OW 6229   4.384   5.994   0.011
 1777SOL    HW1 6230   4.365   5.943   6.953
 1777SOL    HW2 6231   4.420   5.932   0.080
 1778SOL     OW 6232   0.443   3.332   5.893
 1778SOL    HW1 6233   0.543   3.328   5.891
 1778SOL    HW2 6234   0.405   3.260   5.835
 1779SOL     OW 6235   3.911   6.762   5.335
 1779SOL    HW1 6236   3.854   6.839   5.364
 1779SOL    HW2 6237   3.858   6.678   5.337
 1780SOL     OW 6238   4.304   2.366   0.016
 1780SOL    HW1 6239   4.318   2.460   7.008
 1780SOL    HW2 6240   4.392   2.326   0.042
 1781SOL     OW 6241   2.158   5.585   3.424
 1781SOL    HW1 6242   2.188   5.646   3.498
 1781SOL    HW2 6243   2.178   5.491   3.449
 1782SOL     OW 6244   3.092   1.504   4.476
 1782SOL    HW1 6245   3.038   1.582   4.446
 1782SOL    HW2 6246   3.151   1.531   4.553
 1783SOL     OW 6247   2.083   5.865   0.519
 1783SOL    HW1 6248   2.031   5.949   0.508
 1783SOL    HW2 6249   2.177   5.880   0.488
 1784SOL     OW 6250   1.683   6.857   6.424
 1784SOL    HW1 6251   1.733   6.771   6.418
 1784SOL    HW2 6252   1.724   6.914   6.496
 1785SOL     OW 6253   6.816   5.245   2.861
 1785SOL    HW1 6254   6.769   5.301   2.792
 1785SOL    HW2 6255   6.880   5.302   2.912
 1786SOL     OW 6256   3.880   2.492   1.365
 1786SOL    HW1 6257   3.827   2.573   1.389
 1786SOL    HW2 6258   3.975   2.504   1.394
 1787SOL     OW 6259   3.457   0.405   5.273
 1787SOL    HW1 6260   3.448   0.327   5.334
 1787SOL    HW2 6261   3.472   0.373   5.179
 1788SOL     OW 6262   1.551   5.036   5.220
 1788SOL    HW1 6263   1.616   5.016   5.147
 1788SOL    HW2 6264   1.513   4.951   5.255
 1789SOL     OW 6265   5.396   6.346   0.152
 1789SOL    HW1 6266   5.434   6.298   0.231
 1789SOL    HW2 6267   5.384   6.442   0.174
 1790SOL     OW 6268   2.089   6.857   2.779
 1790SOL    HW1 6269   2.033   6.927   2.824
 1790SOL    HW2 6270   2.046   6.830   2.693
 1791SOL     OW 6271   0.790   6.770   3.821
 1791SOL    HW1 6272   0.784   6.741   3.916
 1791SOL    HW2 6273   0.726   6.716   3.766
 1792SOL     OW 6274   0.797   3.287   4.588
 1792SOL    HW1 6275   0.816   3.307   4.684
 1792SOL    HW2 6276   0.861   3.339   4.530
 1793SOL     OW 6277   0.217   0.475   4.010
 1793SOL    HW1 6278   0.298   0.420   4.029
 1793SOL    HW2 6279   0.225   0.564   4.055
 1794SOL     OW 6280   4.723   5.901   6.130
 1794SOL    HW1 6281   4.630   5.886   6.098
 1794SOL    HW2 6282   4.721   5.958   6.213
 1795SOL     OW 6283   1.233   3.485   0.102
 1795SOL    HW1 6284   1.161   3.481   0.171
 1795SOL    HW2 6285   1.194   3.465   0.012
 1796SOL     OW 6286   4.121   0.231   5.456
 1796SOL    HW1 6287   4.040   0.204   5.404
 1796SOL    HW2 6288   4.162   0.150   5.499
 1797SOL     OW 6289   0.308   1.368   1.815
 1797SOL    HW1 6290   0.337   1.277   1.844
 1797SOL    HW2 6291   0.339   1.385   1.722
 1798SOL     OW 6292   6.167   1.289   3.115
 1798SOL    HW1 6293   6.133   1.259   3.026
 1798SOL    HW2 6294   6.252   1.241   3.136
 1799SOL     OW 6295   2.631   0.296   0.250
 1799SOL    HW1 6296   2.610   0.240   0.170
 1799SOL    HW2 6297   2.557   0.362   0.265
 1800SOL     OW 6298   2.913   4.778   2.284
 1800SOL    HW1 6299   2.909   4.709   2.212
 1800SOL    HW2 6300   2.838   4.761   2.349
 1801SOL     OW 6301   5.496   6.541   0.391
 1801SOL    HW1 6302   5.579   6.594   0.376
 1801SOL    HW2 6303   5.501   6.496   0.481
 1802SOL     OW 6304   6.143   5.213   4.245
 1802SOL    HW1 6305   6.215   5.189   4.310
 1802SOL    HW2 6306   6.146   5.311   4.226
 1803SOL     OW 6307   6.573   4.639   0.296
 1803SOL    HW1 6308   6.547   4.543   0.292
 1803SOL    HW2 6309   6.558   4.673   0.389
 1804SOL     OW 6310   3.041   3.696   6.157
 1804SOL    HW1 6311   3.085   3.625   6.102
 1804SOL    HW2 6312   3.102   3.775   6.165
 1805SOL     OW 6313   6.493   3.081   6.902
 1805SOL    HW1 6314   6.462   3.112   6.992
 1805SOL    HW2 6315   6.546   2.997   6.911
 1806SOL     OW 6316   6.681   6.676   0.318
 1806SOL    HW1 6317   6.722   6.592   0.282
 1806SOL    HW2 6318   6.745   6.722   0.379
 1807SOL     OW 6319   6.728   1.762   5.567
 1807SOL    HW1 6320   6.653   1.749   5.501
 1807SOL    HW2 6321   6.815   1.768   5.518
 1808SOL     OW 6322   2.426   4.742   4.007
 1808SOL    HW1 6323   2.400   4.670   4.071
 1808SOL    HW2 6324   2.351   4.808   3.999
 1809SOL     OW 6325   3.814   0.477   6.595
 1809SOL    HW1 6326   3.742   0.470   6.526
 1809SOL    HW2 6327   3.777   0.452   6.684
 1810SOL     OW 6328   2.719   6.676   2.984
 1810SOL    HW1 6329   2.658   6.739   2.936
 1810SOL    HW2 6330   2.798   6.726   3.018
 1811SOL     OW 6331   5.841   5.568   3.071
 1811SOL    HW1 6332   5.755   5.585   3.119
 1811SOL    HW2 6333   5.853   5.469   3.057
 1812SOL     OW 6334   4.362   4.970   5.243
 1812SOL    HW1 6335   4.286   5.001   5.300
 1812SOL    HW2 6336   4.332   4.892   5.187
 1813SOL     OW 6337   6.887   6.266   5.592
 1813SOL    HW1 6338   6.874   6.184   5.536
 1813SOL    HW2 6339   6.934   6.336   5.538
 1814SOL     OW 6340   5.046   0.501   2.631
 1814SOL    HW1 6341   5.070   0.547   2.545
 1814SOL    HW2 6342   4.950   0.473   2.628
 1815SOL     OW 6343   0.102   1.643   3.037
 1815SOL    HW1 6344   0.077   1.728   2.992
 1815SOL    HW2 6345   0.032   1.574   3.019
 1816SOL     OW 6346   1.228   5.427   0.649
 1816SOL    HW1 6347   1.148   5.476   0.614
 1816SOL    HW2 6348   1.240   5.341   0.600
 1817SOL     OW 6349   1.457   4.727   2.034
 1817SOL    HW1 6350   1.522   4.748   2.106
 1817SOL    HW2 6351   1.496   4.753   1.945
 1818SOL     OW 6352   0.789   1.531   2.862
 1818SOL    HW1 6353   0.808   1.432   2.863
 1818SOL    HW2 6354   0.875   1.581   2.853
 1819SOL     OW 6355   1.246   4.186   2.943
 1819SOL    HW1 6356   1.215   4.094   2.968
 1819SOL    HW2 6357   1.244   4.196   2.844
 1820SOL     OW 6358   5.671   6.316   2.930
 1820SOL    HW1 6359   5.685   6.411   2.901
 1820SOL    HW2 6360   5.577   6.289   2.908
 1821SOL     OW 6361   1.548   2.004   3.169
 1821SOL    HW1 6362   1.600   2.085   3.143
 1821SOL    HW2 6363   1.504   2.019   3.258
 1822SOL     OW 6364   3.288   3.491   2.046
 1822SOL    HW1 6365   3.382   3.510   2.072
 1822SOL    HW2 6366   3.283   3.401   2.002
 1823SOL     OW 6367   4.178   0.182   2.382
 1823SOL    HW1 6368   4.145   0.232   2.461
 1823SOL    HW2 6369   4.166   0.084   2.396
 1824SOL     OW 6370   5.081   1.557   1.797
 1824SOL    HW1 6371   5.067   1.644   1.843
 1824SOL    HW2 6372   5.040   1.561   1.706
 1825SOL     OW 6373   0.750   0.072   1.764
 1825SOL    HW1 6374   0.796   0.152   1.725
 1825SOL    HW2 6375   0.774   7.016   1.711
 1826SOL     OW 6376   2.796   5.603   6.255
 1826SOL    HW1 6377   2.808   5.680   6.193
 1826SOL    HW2 6378   2.866   5.606   6.326
 1827SOL     OW 6379   5.543   0.423   0.622
 1827SOL    HW1 6380   5.618   0.453   0.563
 1827SOL    HW2 6381   5.561   0.452   0.716
 1828SOL     OW 6382   2.697   2.859   0.393
 1828SOL    HW1 6383   2.636   2.788   0.358
 1828SOL    HW2 6384   2.643   2.928   0.441
 1829SOL     OW 6385   5.539   5.263   2.441
 1829SOL    HW1 6386   5.625   5.304   2.409
 1829SOL    HW2 6387   5.553   5.222   2.531
 1830SOL     OW 6388   4.809   6.772   4.512
 1830SOL    HW1 6389   4.865   6.794   4.592
 1830SOL    HW2 6390   4.740   6.843   4.499
 1831SOL     OW 6391   5.223   1.374   3.226
 1831SOL    HW1 6392   5.157   1.423   3.169
 1831SOL    HW2 6393   5.271   1.439   3.285
 1832SOL     OW 6394   5.315   2.864   6.777
 1832SOL    HW1 6395   5.215   2.872   6.771
 1832SOL    HW2 6396   5.339   2.784   6.833
 1833SOL     OW 6397   5.688   1.931   6.085
 1833SOL    HW1 6398   5.698   1.987   6.167
 1833SOL    HW2 6399   5.775   1.930   6.035
 1834SOL     OW 6400   2.492   4.324   0.112
 1834SOL    HW1 6401   2.501   4.248   0.047
 1834SOL    HW2 6402   2.396   4.338   0.134
 1835SOL     OW 6403   1.857   5.036   0.349
 1835SOL    HW1 6404   1.903   5.056   0.436
 1835SOL    HW2 6405   1.909   5.075   0.274
 1836SOL     OW 6406   0.875   6.738   0.478
 1836SOL    HW1 6407   0.837   6.746   0.570
 1836SOL    HW2 6408   0.849   6.649   0.439
 1837SOL     OW 6409   0.390   2.838   4.362
 1837SOL    HW1 6410   0.397   2.746   4.399
 1837SOL    HW2 6411   0.420   2.838   4.266
 1838SOL     OW 6412   0.516   2.508   4.565
 1838SOL    HW1 6413   0.485   2.420   4.528
 1838SOL    HW2 6414   0.457   2.534   4.642
 1839SOL     OW 6415   1.059   1.462   6.731
 1839SOL    HW1 6416   1.075   1.370   6.697
 1839SOL    HW2 6417   0.969   1.467   6.775
 1840SOL     OW 6418   1.104   5.110   1.404
 1840SOL    HW1 6419   1.090   5.207   1.382
 1840SOL    HW2 6420   1.042   5.083   1.478
 1841SOL     OW 6421   1.967   2.948   3.714
 1841SOL    HW1 6422   2.037   3.018   3.701
 1841SOL    HW2 6423   1.961   2.924   3.811
 1842SOL     OW 6424   1.494   5.975   6.216
 1842SOL    HW1 6425   1.452   5.886   6.237
 1842SOL    HW2 6426   1.507   5.984   6.118
 1843SOL     OW 6427   4.412   2.078   5.395
 1843SOL    HW1 6428   4.422   2.146   5.323
 1843SOL    HW2 6429   4.476   2.099   5.469
 1844SOL     OW 6430   5.442   4.877   3.869
 1844SOL    HW1 6431   5.492   4.860   3.954
 1844SOL    HW2 6432   5.369   4.810   3.859
 1845SOL     OW 6433   4.943   6.555   0.777
 1845SOL    HW1 6434   4.934   6.622   0.704
 1845SOL    HW2 6435   5.009   6.485   0.751
 1846SOL     OW 6436   3.837   1.489   5.619
 1846SOL    HW1 6437   3.892   1.412   5.586
 1846SOL    HW2 6438   3.805   1.469   5.711
 1847SOL     OW 6439   1.546   6.278   6.160
 1847SOL    HW1 6440   1.553   6.268   6.060
 1847SOL    HW2 6441   1.507   6.194   6.198
 1848SOL     OW 6442   1.957   0.996   3.900
 1848SOL    HW1 6443   1.966   0.917   3.840
 1848SOL    HW2 6444   2.006   1.074   3.860
 1849SOL     OW 6445   2.386   0.780   6.163
 1849SOL    HW1 6446   2.320   0.839   6.209
 1849SOL    HW2 6447   2.338   0.719   6.100
 1850SOL     OW 6448   5.453   1.805   1.871
 1850SOL    HW1 6449   5.404   1.888   1.843
 1850SOL    HW2 6450   5.436   1.732   1.805
 1851SOL     OW 6451   6.800   4.519   2.579
 1851SOL    HW1 6452   6.745   4.534   2.661
 1851SOL    HW2 6453   6.804   4.604   2.526
 1852SOL     OW 6454   5.401   1.494   5.616
 1852SOL    HW1 6455   5.448   1.545   5.688
 1852SOL    HW2 6456   5.417   1.539   5.528
 1853SOL     OW 6457   1.294   4.863   0.756
 1853SOL    HW1 6458   1.335   4.772   0.765
 1853SOL    HW2 6459   1.364   4.933   0.771
 1854SOL     OW 6460   2.645   5.108   4.111
 1854SOL    HW1 6461   2.667   5.020   4.153
 1854SOL    HW2 6462   2.577   5.155   4.167
 1855SOL     OW 6463   6.309   4.707   1.323
 1855SOL    HW1 6464   6.296   4.779   1.254
 1855SOL    HW2 6465   6.407   4.686   1.331
 1856SOL     OW 6466   5.412   3.006   0.264
 1856SOL    HW1 6467   5.487   3.026   0.201
 1856SOL    HW2 6468   5.326   3.002   0.214
 1857SOL     OW 6469   5.662   1.360   3.344
 1857SOL    HW1 6470   5.691   1.407   3.261
 1857SOL    HW2 6471   5.608   1.422   3.401
 1858SOL     OW 6472   5.145   4.638   2.441
 1858SOL    HW1 6473   5.188   4.556   2.479
 1858SOL    HW2 6474   5.198   4.669   2.362
 1859SOL     OW 6475   5.936   1.978   3.310
 1859SOL    HW1 6476   5.942   2.037   3.390
 1859SOL    HW2 6477   6.027   1.968   3.268
 1860SOL     OW 6478   3.948   2.182   4.876
 1860SOL    HW1 6479   3.987   2.159   4.966
 1860SOL    HW2 6480   3.973   2.275   4.852
 1861SOL     OW 6481   5.161   6.221   2.315
 1861SOL    HW1 6482   5.163   6.160   2.235
 1861SOL    HW2 6483   5.223   6.184   2.385
 1862SOL     OW 6484   2.704   2.092   0.637
 1862SOL    HW1 6485   2.672   2.130   0.550
 1862SOL    HW2 6486   2.638   2.114   0.709
 1863SOL     OW 6487   2.072   1.610   1.333
 1863SOL    HW1 6488   1.985   1.629   1.378
 1863SOL    HW2 6489   2.131   1.690   1.338
 1864SOL     OW 6490   0.425   6.691   3.304
 1864SOL    HW1 6491   0.355   6.742   3.354
 1864SOL    HW2 6492   0.413   6.706   3.206
 1865SOL     OW 6493   5.257   3.504   6.506
 1865SOL    HW1 6494   5.271   3.572   6.434
 1865SOL    HW2 6495   5.164   3.469   6.502
 1866SOL     OW 6496   5.738   5.395   1.563
 1866SOL    HW1 6497   5.762   5.423   1.656
 1866SOL    HW2 6498   5.802   5.437   1.498
 1867SOL     OW 6499   1.207   4.496   6.183
 1867SOL    HW1 6500   1.222   4.499   6.085
 1867SOL    HW2 6501   1.138   4.427   6.205
 1868SOL     OW 6502   6.810   4.234   5.377
 1868SOL    HW1 6503   6.728   4.205   5.329
 1868SOL    HW2 6504   6.883   4.167   5.361
 1869SOL     OW 6505   5.535   1.362   4.618
 1869SOL    HW1 6506   5.579   1.275   4.643
 1869SOL    HW2 6507   5.510   1.360   4.521
 1870SOL     OW 6508   2.169   3.947   4.754
 1870SOL    HW1 6509   2.207   3.979   4.841
 1870SOL    HW2 6510   2.208   3.857   4.732
 1871SOL     OW 6511   1.804   0.499   1.081
 1871SOL    HW1 6512   1.846   0.571   1.026
 1871SOL    HW2 6513   1.790   0.418   1.024
 1872SOL     OW 6514   1.709   5.814   6.386
 1872SOL    HW1 6515   1.638   5.860   6.438
 1872SOL    HW2 6516   1.757   5.880   6.329
 1873SOL     OW 6517   5.248   6.769   6.640
 1873SOL    HW1 6518   5.188   6.705   6.593
 1873SOL    HW2 6519   5.221   6.775   6.737
 1874SOL     OW 6520   0.684   3.695   2.739
 1874SOL    HW1 6521   0.679   3.705   2.640
 1874SOL    HW2 6522   0.700   3.785   2.781
 1875SOL     OW 6523   0.352   6.945   2.165
 1875SOL    HW1 6524   0.288   7.004   2.214
 1875SOL    HW2 6525   0.363   6.979   2.071
 1876SOL     OW 6526   1.977   6.262   4.290
 1876SOL    HW1 6527   1.992   6.213   4.376
 1876SOL    HW2 6528   2.027   6.216   4.217
 1877SOL     OW 6529   0.386   0.154   4.020
 1877SOL    HW1 6530   0.387   0.196   4.110
 1877SOL    HW2 6531   0.293   0.157   3.983
 1878SOL     OW 6532   6.562   2.778   6.052
 1878SOL    HW1 6533   6.583   2.704   6.116
 1878SOL    HW2 6534   6.464   2.781   6.035
 1879SOL     OW 6535   1.946   5.131   5.953
 1879SOL    HW1 6536   1.907   5.217   5.984
 1879SOL    HW2 6537   2.004   5.147   5.874
 1880SOL     OW 6538   6.403   0.472   4.270
 1880SOL    HW1 6539   6.449   0.413   4.336
 1880SOL    HW2 6540   6.459   0.480   4.187
 1881SOL     OW 6541   0.046   2.132   6.819
 1881SOL    HW1 6542   0.040   2.227   6.786
 1881SOL    HW2 6543   0.101   2.078   6.754
 1882SOL     OW 6544   1.062   6.851   0.325
 1882SOL    HW1 6545   1.006   6.807   0.395
 1882SOL    HW2 6546   1.004   6.911   0.269
 1883SOL     OW 6547   0.356   1.879   4.030
 1883SOL    HW1 6548   0.379   1.849   4.122
 1883SOL    HW2 6549   0.273   1.936   4.033
 1884SOL     OW 6550   5.834   2.370   1.523
 1884SOL    HW1 6551   5.795   2.303   1.460
 1884SOL    HW2 6552   5.819   2.462   1.487
 1885SOL     OW 6553   3.248   1.546   4.694
 1885SOL    HW1 6554   3.344   1.522   4.699
 1885SOL    HW2 6555   3.211   1.559   4.786
 1886SOL     OW 6556   0.429   6.218   3.535
 1886SOL    HW1 6557   0.505   6.282   3.521
 1886SOL    HW2 6558   0.401   6.180   3.447
 1887SOL     OW 6559   2.599   5.436   6.538
 1887SOL    HW1 6560   2.578   5.533   6.520
 1887SOL    HW2 6561   2.682   5.410   6.489
 1888SOL     OW 6562   1.973   0.130   3.038
 1888SOL    HW1 6563   2.017   0.116   3.127
 1888SOL    HW2 6564   2.025   0.197   2.985
 1889SOL     OW 6565   0.326   3.456   2.635
 1889SOL    HW1 6566   0.287   3.369   2.665
 1889SOL    HW2 6567   0.257   3.509   2.585
 1890SOL     OW 6568   1.369   6.038   4.863
 1890SOL    HW1 6569   1.385   6.087   4.777
 1890SOL    HW2 6570   1.278   5.995   4.860
 1891SOL     OW 6571   4.079   3.241   3.454
 1891SOL    HW1 6572   3.979   3.236   3.449
 1891SOL    HW2 6573   4.112   3.178   3.525
 1892SOL     OW 6574   0.195   0.413   2.860
 1892SOL    HW1 6575   0.268   0.352   2.892
 1892SOL    HW2 6576   0.176   0.481   2.930
 1893SOL     OW 6577   4.043   3.156   4.329
 1893SOL    HW1 6578   3.948   3.128   4.313
 1893SOL    HW2 6579   4.061   3.156   4.428
 1894SOL     OW 6580   3.404   2.890   4.340
 1894SOL    HW1 6581   3.399   2.987   4.363
 1894SOL    HW2 6582   3.333   2.868   4.273
 1895SOL     OW 6583   0.891   6.283   1.225
 1895SOL    HW1 6584   0.814   6.226   1.252
 1895SOL    HW2 6585   0.962   6.226   1.183
 1896SOL     OW 6586   5.902   3.015   1.348
 1896SOL    HW1 6587   5.870   2.924   1.322
 1896SOL    HW2 6588   5.996   3.009   1.380
 1897SOL     OW 6589   2.008   4.443   3.320
 1897SOL    HW1 6590   1.982   4.356   3.364
 1897SOL    HW2 6591   1.932   4.508   3.328
 1898SOL     OW 6592   1.725   6.133   2.259
 1898SOL    HW1 6593   1.730   6.224   2.300
 1898SOL    HW2 6594   1.807   6.080   2.284
 1899SOL     OW 6595   0.155   0.942   1.920
 1899SOL    HW1 6596   0.191   0.924   2.012
 1899SOL    HW2 6597   0.058   0.917   1.917
 1900SOL     OW 6598   2.835   6.253   6.376
 1900SOL    HW1 6599   2.870   6.232   6.467
 1900SOL    HW2 6600   2.744   6.213   6.365
 1901SOL     OW 6601   3.824   3.002   2.889
 1901SOL    HW1 6602   3.798   3.097   2.907
 1901SOL    HW2 6603   3.757   2.941   2.932
 1902SOL     OW 6604   1.338   6.744   5.356
 1902SOL    HW1 6605   1.297   6.703   5.438
 1902SOL    HW2 6606   1.272   6.741   5.281
 1903SOL     OW 6607   1.260   1.449   4.089
 1903SOL    HW1 6608   1.236   1.414   4.180
 1903SOL    HW2 6609   1.214   1.536   4.073
 1904SOL     OW 6610   5.983   5.859   1.735
 1904SOL    HW1 6611   5.904   5.921   1.741
 1904SOL    HW2 6612   6.002   5.821   1.825
 1905SOL     OW 6613   0.493   3.021   3.902
 1905SOL    HW1 6614   0.413   2.996   3.847
 1905SOL    HW2 6615   0.510   3.119   3.892
 1906SOL     OW 6616   0.462   6.132   3.945
 1906SOL    HW1 6617   0.427   6.222   3.922
 1906SOL    HW2 6618   0.486   6.082   3.862
 1907SOL     OW 6619   6.052   3.269   0.906
 1907SOL    HW1 6620   6.103   3.273   0.991
 1907SOL    HW2 6621   6.113   3.290   0.829
 1908SOL     OW 6622   3.910   0.742   1.883
 1908SOL    HW1 6623   3.900   0.745   1.982
 1908SOL    HW2 6624   3.976   0.811   1.854
 1909SOL     OW 6625   6.174   5.431   5.274
 1909SOL    HW1 6626   6.125   5.351   5.309
 1909SOL    HW2 6627   6.273   5.415   5.283
 1910SOL     OW 6628   0.239   6.134   5.391
 1910SOL    HW1 6629   0.259   6.212   5.332
 1910SOL    HW2 6630   0.318   6.115   5.450
 1911SOL     OW 6631   5.899   6.377   4.137
 1911SOL    HW1 6632   5.950   6.312   4.193
 1911SOL    HW2 6633   5.857   6.329   4.060
 1912SOL     OW 6634   3.379   4.938   2.101
 1912SOL    HW1 6635   3.414   4.959   2.010
 1912SOL    HW2 6636   3.433   4.865   2.142
 1913SOL     OW 6637   3.183   4.231   6.429
 1913SOL    HW1 6638   3.248   4.160   6.456
 1913SOL    HW2 6639   3.223   4.287   6.357
 1914SOL     OW 6640   4.069   3.942   0.513
 1914SOL    HW1 6641   4.012   3.880   0.460
 1914SOL    HW2 6642   4.019   4.026   0.531
 1915SOL     OW 6643   3.839   2.298   0.066
 1915SOL    HW1 6644   3.785   2.259   0.140
 1915SOL    HW2 6645   3.907   2.231   0.035
 1916SOL     OW 6646   3.849   1.310   2.562
 1916SOL    HW1 6647   3.775   1.373   2.537
 1916SOL    HW2 6648   3.932   1.335   2.513
 1917SOL     OW 6649   2.583   3.651   1.495
 1917SOL    HW1 6650   2.608   3.571   1.549
 1917SOL    HW2 6651   2.636   3.730   1.526
 1918SOL     OW 6652   4.990   2.749   4.065
 1918SOL    HW1 6653   5.032   2.682   4.004
 1918SOL    HW2 6654   5.029   2.839   4.048
 1919SOL     OW 6655   6.563   1.543   6.453
 1919SOL    HW1 6656   6.640   1.483   6.474
 1919SOL    HW2 6657   6.480   1.489   6.441
 1920SOL     OW 6658   4.670   3.899   0.577
 1920SOL    HW1 6659   4.649   3.885   0.674
 1920SOL    HW2 6660   4.770   3.901   0.565
 1921SOL     OW 6661   3.277   2.298   6.779
 1921SOL    HW1 6662   3.271   2.198   6.788
 1921SOL    HW2 6663   3.202   2.341   6.829
 1922SOL     OW 6664   3.696   3.745   4.657
 1922SOL    HW1 6665   3.623   3.765   4.723
 1922SOL    HW2 6666   3.780   3.722   4.707
 1923SOL     OW 6667   3.236   0.668   3.928
 1923SOL    HW1 6668   3.325   0.622   3.936
 1923SOL    HW2 6669   3.222   0.697   3.833
 1924SOL     OW 6670   5.558   0.795   1.080
 1924SOL    HW1 6671   5.498   0.769   1.005
 1924SOL    HW2 6672   5.632   0.728   1.088
 1925SOL     OW 6673   1.282   4.340   1.107
 1925SOL    HW1 6674   1.225   4.410   1.151
 1925SOL    HW2 6675   1.252   4.250   1.137
 1926SOL     OW 6676   3.074   6.826   1.790
 1926SOL    HW1 6677   2.995   6.851   1.846
 1926SOL    HW2 6678   3.047   6.823   1.694
 1927SOL     OW 6679   1.939   5.199   0.856
 1927SOL    HW1 6680   2.013   5.189   0.923
 1927SOL    HW2 6681   1.857   5.153   0.889
 1928SOL     OW 6682   0.370   4.360   2.546
 1928SOL    HW1 6683   0.275   4.392   2.553
 1928SOL    HW2 6684   0.374   4.263   2.570
 1929SOL     OW 6685   3.695   0.585   3.384
 1929SOL    HW1 6686   3.741   0.641   3.315
 1929SOL    HW2 6687   3.699   0.489   3.357
 1930SOL     OW 6688   3.750   3.652   0.111
 1930SOL    HW1 6689   3.685   3.688   0.178
 1930SOL    HW2 6690   3.701   3.593   0.046
 1931SOL     OW 6691   6.408   3.752   3.637
 1931SOL    HW1 6692   6.401   3.834   3.694
 1931SOL    HW2 6693   6.410   3.671   3.695
 1932SOL     OW 6694   4.794   0.657   1.897
 1932SOL    HW1 6695   4.880   0.690   1.938
 1932SOL    HW2 6696   4.794   0.676   1.799
 1933SOL     OW 6697   1.581   1.421   1.114
 1933SOL    HW1 6698   1.545   1.513   1.131
 1933SOL    HW2 6699   1.530   1.378   1.039
 1934SOL     OW 6700   6.363   0.586   6.853
 1934SOL    HW1 6701   6.346   0.645   6.931
 1934SOL    HW2 6702   6.375   0.492   6.884
 1935SOL     OW 6703   6.247   5.151   3.934
 1935SOL    HW1 6704   6.213   5.202   3.855
 1935SOL    HW2 6705   6.298   5.212   3.994
 1936SOL     OW 6706   5.540   3.410   6.527
 1936SOL    HW1 6707   5.446   3.429   6.553
 1936SOL    HW2 6708   5.542   3.332   6.464
 1937SOL     OW 6709   0.750   4.928   6.677
 1937SOL    HW1 6710   0.815   4.884   6.739
 1937SOL    HW2 6711   0.689   4.987   6.729
 1938SOL     OW 6712   6.476   1.792   6.463
 1938SOL    HW1 6713   6.440   1.819   6.553
 1938SOL    HW2 6714   6.501   1.695   6.465
 1939SOL     OW 6715   6.924   0.554   4.234
 1939SOL    HW1 6716   6.998   0.617   4.211
 1939SOL    HW2 6717   6.938   0.468   4.186
 1940SOL     OW 6718   1.168   5.333   1.592
 1940SOL    HW1 6719   1.128   5.251   1.632
 1940SOL    HW2 6720   1.268   5.331   1.604
 1941SOL     OW 6721   5.854   0.330   4.174
 1941SOL    HW1 6722   5.846   0.284   4.086
 1941SOL    HW2 6723   5.791   0.408   4.178
 1942SOL     OW 6724   0.600   5.741   1.968
 1942SOL    HW1 6725   0.598   5.645   1.998
 1942SOL    HW2 6726   0.556   5.798   2.038
 1943SOL     OW 6727   1.168   3.243   4.141
 1943SOL    HW1 6728   1.107   3.321   4.123
 1943SOL    HW2 6729   1.238   3.270   4.207
 1944SOL     OW 6730   0.280   3.610   3.993
 1944SOL    HW1 6731   0.225   3.601   4.076
 1944SOL    HW2 6732   0.274   3.704   3.959
 1945SOL     OW 6733   4.993   1.739   2.211
 1945SOL    HW1 6734   5.043   1.807   2.265
 1945SOL    HW2 6735   4.959   1.782   2.128
 1946SOL     OW 6736   5.931   5.121   6.883
 1946SOL    HW1 6737   5.859   5.155   6.823
 1946SOL    HW2 6738   5.927   5.021   6.887
 1947SOL     OW 6739   5.813   5.708   2.667
 1947SOL    HW1 6740   5.752   5.754   2.732
 1947SOL    HW2 6741   5.760   5.645   2.610
 1948SOL     OW 6742   5.427   3.456   3.300
 1948SOL    HW1 6743   5.386   3.542   3.272
 1948SOL    HW2 6744   5.373   3.414   3.373
 1949SOL     OW 6745   3.404   4.037   6.538
 1949SOL    HW1 6746   3.358   3.989   6.614
 1949SOL    HW2 6747   3.466   3.973   6.492
 1950SOL     OW 6748   3.722   3.935   3.725
 1950SOL    HW1 6749   3.656   4.000   3.686
 1950SOL    HW2 6750   3.715   3.847   3.677
 1951SOL     OW 6751   0.415   5.350   6.374
 1951SOL    HW1 6752   0.324   5.391   6.364
 1951SOL    HW2 6753   0.485   5.418   6.355
 1952SOL     OW 6754   5.870   4.074   0.025
 1952SOL    HW1 6755   5.919   4.131   6.985
 1952SOL    HW2 6756   5.793   4.029   7.004
 1953SOL     OW 6757   0.427   1.143   6.657
 1953SOL    HW1 6758   0.361   1.068   6.652
 1953SOL    HW2 6759   0.504   1.117   6.714
 1954SOL     OW 6760   3.805   6.681   2.774
 1954SOL    HW1 6761   3.736   6.712   2.840
 1954SOL    HW2 6762   3.760   6.654   2.689
 1955SOL     OW 6763   6.611   3.588   4.080
 1955SOL    HW1 6764   6.582   3.546   4.165
 1955SOL    HW2 6765   6.710   3.599   4.079
 1956SOL     OW 6766   4.609   1.708   1.508
 1956SOL    HW1 6767   4.629   1.618   1.547
 1956SOL    HW2 6768   4.691   1.765   1.513
 1957SOL     OW 6769   6.856   2.857   4.661
 1957SOL    HW1 6770   6.868   2.763   4.694
 1957SOL    HW2 6771   6.885   2.921   4.732
 1958SOL     OW 6772   5.047   2.382   6.963
 1958SOL    HW1 6773   5.124   2.356   7.021
 1958SOL    HW2 6774   4.972   2.414   7.020
 1959SOL     OW 6775   1.583   1.523   6.401
 1959SOL    HW1 6776   1.632   1.607   6.378
 1959SOL    HW2 6777   1.587   1.459   6.325
 1960SOL     OW 6778   4.761   4.842   2.045
 1960SOL    HW1 6779   4.736   4.816   2.138
 1960SOL    HW2 6780   4.843   4.792   2.017
 1961SOL     OW 6781   0.482   3.998   4.024
 1961SOL    HW1 6782   0.577   3.985   3.999
 1961SOL    HW2 6783   0.460   4.096   4.022
 1962SOL     OW 6784   0.427   0.105   2.385
 1962SOL    HW1 6785   0.405   0.158   2.467
 1962SOL    HW2 6786   0.489   0.030   2.410
 1963SOL     OW 6787   0.788   1.488   6.871
 1963SOL    HW1 6788   0.761   1.583   6.890
 1963SOL    HW2 6789   0.761   1.431   6.948
 1964SOL     OW 6790   5.431   3.535   0.291
 1964SOL    HW1 6791   5.456   3.440   0.313
 1964SOL    HW2 6792   5.357   3.564   0.351
 1965SOL     OW 6793   5.502   4.780   4.815
 1965SOL    HW1 6794   5.458   4.788   4.904
 1965SOL    HW2 6795   5.511   4.683   4.791
 1966SOL     OW 6796   1.487   5.084   6.610
 1966SOL    HW1 6797   1.473   4.989   6.582
 1966SOL    HW2 6798   1.400   5.122   6.643
 1967SOL     OW 6799   6.573   2.402   4.568
 1967SOL    HW1 6800   6.631   2.457   4.507
 1967SOL    HW2 6801   6.491   2.373   4.519
 1968SOL     OW 6802   2.953   1.367   6.088
 1968SOL    HW1 6803   2.877   1.326   6.038
 1968SOL    HW2 6804   2.986   1.448   6.038
 1969SOL     OW 6805   0.063   6.396   1.687
 1969SOL    HW1 6806   0.129   6.435   1.623
 1969SOL    HW2 6807   0.039   6.465   1.755
 1970SOL     OW 6808   5.193   4.198   2.933
 1970SOL    HW1 6809   5.121   4.134   2.906
 1970SOL    HW2 6810   5.276   4.147   2.956
 1971SOL     OW 6811   1.465   5.507   4.436
 1971SOL    HW1 6812   1.454   5.595   4.483
 1971SOL    HW2 6813   1.496   5.438   4.501
 1972SOL     OW 6814   5.308   2.068   3.177
 1972SOL    HW1 6815   5.349   1.984   3.212
 1972SOL    HW2 6816   5.271   2.052   3.086
 1973SOL     OW 6817   4.738   2.316   0.001
 1973SOL    HW1 6818   4.797   2.323   0.081
 1973SOL    HW2 6819   4.660   2.257   0.022
 1974SOL     OW 6820   2.060   6.061   4.455
 1974SOL    HW1 6821   1.983   6.000   4.435
 1974SOL    HW2 6822   2.140   6.033   4.401
 1975SOL     OW 6823   2.271   2.407   2.358
 1975SOL    HW1 6824   2.336   2.479   2.331
 1975SOL    HW2 6825   2.321   2.324   2.383
 1976SOL     OW 6826   2.416   0.889   4.730
 1976SOL    HW1 6827   2.447   0.925   4.642
 1976SOL    HW2 6828   2.325   0.850   4.719
 1977SOL     OW 6829   1.198   4.594   0.240
 1977SOL    HW1 6830   1.253   4.561   0.316
 1977SOL    HW2 6831   1.174   4.690   0.255
 1978SOL     OW 6832   2.649   0.437   2.409
 1978SOL    HW1 6833   2.745   0.434   2.438
 1978SOL    HW2 6834   2.596   0.369   2.459
 1979SOL     OW 6835   5.496   3.481   6.824
 1979SOL    HW1 6836   5.566   3.412   6.804
 1979SOL    HW2 6837   5.522   3.568   6.783
 1980SOL     OW 6838   4.101   0.313   1.751
 1980SOL    HW1 6839   4.016   0.271   1.719
 1980SOL    HW2 6840   4.170   0.306   1.680
 1981SOL     OW 6841   4.437   2.547   1.798
 1981SOL    HW1 6842   4.341   2.572   1.785
 1981SOL    HW2 6843   4.495   2.625   1.774
 1982SOL     OW 6844   1.923   2.381   0.023
 1982SOL    HW1 6845   1.989   2.454   0.007
 1982SOL    HW2 6846   1.970   2.303   0.066
 1983SOL     OW 6847   6.540   2.231   1.562
 1983SOL    HW1 6848   6.570   2.146   1.518
 1983SOL    HW2 6849   6.564   2.229   1.659
 1984SOL     OW 6850   4.626   3.419   5.935
 1984SOL    HW1 6851   4.561   3.350   5.902
 1984SOL    HW2 6852   4.671   3.463   5.857
 1985SOL     OW 6853   5.440   5.464   4.386
 1985SOL    HW1 6854   5.357   5.514   4.411
 1985SOL    HW2 6855   5.441   5.376   4.434
 1986SOL     OW 6856   3.064   3.085   3.044
 1986SOL    HW1 6857   3.003   3.134   2.981
 1986SOL    HW2 6858   3.130   3.032   2.991
 1987SOL     OW 6859   1.944   1.498   2.044
 1987SOL    HW1 6860   2.021   1.483   1.981
 1987SOL    HW2 6861   1.858   1.497   1.992
 1988SOL     OW 6862   1.143   1.721   2.922
 1988SOL    HW1 6863   1.045   1.738   2.925
 1988SOL    HW2 6864   1.190   1.782   2.985
 1989SOL     OW 6865   3.498   5.741   3.654
 1989SOL    HW1 6866   3.423   5.703   3.601
 1989SOL    HW2 6867   3.534   5.671   3.716
 1990SOL     OW 6868   4.134   6.695   0.568
 1990SOL    HW1 6869   4.221   6.742   0.583
 1990SOL    HW2 6870   4.086   6.685   0.655
 1991SOL     OW 6871   2.783   5.156   2.363
 1991SOL    HW1 6872   2.816   5.246   2.389
 1991SOL    HW2 6873   2.847   5.114   2.299
 1992SOL     OW 6874   1.026   0.112   3.674
 1992SOL    HW1 6875   1.099   0.173   3.706
 1992SOL    HW2 6876   1.038   0.022   3.715
 1993SOL     OW 6877   1.514   0.979   1.901
 1993SOL    HW1 6878   1.563   0.945   1.821
 1993SOL    HW2 6879   1.538   1.075   1.916
 1994SOL     OW 6880   2.864   3.143   1.951
 1994SOL    HW1 6881   2.910   3.112   1.868
 1994SOL    HW2 6882   2.765   3.137   1.938
 1995SOL     OW 6883   5.941   0.623   4.049
 1995SOL    HW1 6884   5.947   0.677   3.965
 1995SOL    HW2 6885   6.030   0.582   4.068
 1996SOL     OW 6886   5.023   0.360   1.374
 1996SOL    HW1 6887   5.024   0.379   1.276
 1996SOL    HW2 6888   4.928   0.346   1.403
 1997SOL     OW 6889   2.925   1.671   2.973
 1997SOL    HW1 6890   3.016   1.658   3.012
 1997SOL    HW2 6891   2.894   1.765   2.991
 1998SOL     OW 6892   2.538   3.443   1.294
 1998SOL    HW1 6893   2.557   3.466   1.198
 1998SOL    HW2 6894   2.589   3.504   1.354
 1999SOL     OW 6895   0.778   6.886   5.835
 1999SOL    HW1 6896   0.833   6.887   5.751
 1999SOL    HW2 6897   0.790   6.798   5.881
 2000SOL     OW 6898   4.650   4.104   6.727
 2000SOL    HW1 6899   4.683   4.010   6.739
 2000SOL    HW2 6900   4.721   4.168   6.756
 2001SOL     OW 6901   1.332   1.920   0.807
 2001SOL    HW1 6902   1.401   1.893   0.874
 2001SOL    HW2 6903   1.294   1.838   0.764
 2002SOL     OW 6904   6.305   4.865   6.663
 2002SOL    HW1 6905   6.262   4.948   6.698
 2002SOL    HW2 6906   6.306   4.795   6.735
 2003SOL     OW 6907   6.605   5.668   1.078
 2003SOL    HW1 6908   6.674   5.700   1.012
 2003SOL    HW2 6909   6.623   5.710   1.167
 2004SOL     OW 6910   3.562   0.514   2.410
 2004SOL    HW1 6911   3.482   0.503   2.468
 2004SOL    HW2 6912   3.548   0.466   2.323
 2005SOL     OW 6913   1.834   6.174   0.028
 2005SOL    HW1 6914   1.926   6.135   0.017
 2005SOL    HW2 6915   1.780   6.152   6.972
 2006SOL     OW 6916   6.068   6.892   1.850
 2006SOL    HW1 6917   6.079   6.888   1.950
 2006SOL    HW2 6918   5.985   6.842   1.824
 2007SOL     OW 6919   5.515   5.507   5.551
 2007SOL    HW1 6920   5.554   5.558   5.627
 2007SOL    HW2 6921   5.552   5.414   5.551
 2008SOL     OW 6922   1.900   3.000   2.597
 2008SOL    HW1 6923   1.828   2.932   2.585
 2008SOL    HW2 6924   1.930   3.033   2.507
 2009SOL     OW 6925   5.948   0.589   3.721
 2009SOL    HW1 6926   5.989   0.656   3.783
 2009SOL    HW2 6927   6.016   0.562   3.653
 2010SOL     OW 6928   7.003   1.376   1.499
 2010SOL    HW1 6929   0.035   1.427   1.433
 2010SOL    HW2 6930   6.999   1.427   1.585
 2011SOL     OW 6931   1.046   0.430   4.959
 2011SOL    HW1 6932   0.969   0.492   4.940
 2011SOL    HW2 6933   1.011   0.338   4.974
 2012SOL     OW 6934   6.826   2.146   0.394
 2012SOL    HW1 6935   6.801   2.051   0.411
 2012SOL    HW2 6936   6.805   2.170   0.299
 2013SOL     OW 6937   0.537   2.658   1.992
 2013SOL    HW1 6938   0.626   2.615   2.009
 2013SOL    HW2 6939   0.549   2.756   1.977
 2014SOL     OW 6940   3.906   1.903   3.594
 2014SOL    HW1 6941   3.974   1.860   3.652
 2014SOL    HW2 6942   3.893   1.998   3.623
 2015SOL     OW 6943   3.689   6.151   1.613
 2015SOL    HW1 6944   3.733   6.147   1.702
 2015SOL    HW2 6945   3.757   6.138   1.541
 2016SOL     OW 6946   2.135   0.872   4.636
 2016SOL    HW1 6947   2.112   0.909   4.726
 2016SOL    HW2 6948   2.050   0.847   4.589
 2017SOL     OW 6949   1.653   6.755   4.779
 2017SOL    HW1 6950   1.595   6.819   4.729
 2017SOL    HW2 6951   1.722   6.717   4.717
 2018SOL     OW 6952   0.272   0.972   4.551
 2018SOL    HW1 6953   0.288   0.881   4.587
 2018SOL    HW2 6954   0.350   1.031   4.574
 2019SOL     OW 6955   0.599   5.068   6.877
 2019SOL    HW1 6956   0.565   4.997   6.938
 2019SOL    HW2 6957   0.534   5.083   6.803
 2020SOL     OW 6958   1.960   6.917   1.819
 2020SOL    HW1 6959   1.975   6.840   1.882
 2020SOL    HW2 6960   2.022   6.907   1.741
 2021SOL     OW 6961   0.268   5.252   3.459
 2021SOL    HW1 6962   0.273   5.157   3.490
 2021SOL    HW2 6963   0.309   5.259   3.368
 2022SOL     OW 6964   2.278   2.758   4.026
 2022SOL    HW1 6965   2.181   2.757   4.002
 2022SOL    HW2 6966   2.287   2.769   4.125
 2023SOL     OW 6967   0.602   5.826   6.674
 2023SOL    HW1 6968   0.609   5.741   6.621
 2023SOL    HW2 6969   0.694   5.857   6.699
 2024SOL     OW 6970   6.445   6.228   3.454
 2024SOL    HW1 6971   6.450   6.283   3.538
 2024SOL    HW2 6972   6.528   6.173   3.446
 2025SOL     OW 6973   2.013   0.527   4.653
 2025SOL    HW1 6974   1.985   0.460   4.722
 2025SOL    HW2 6975   2.092   0.492   4.603
 2026SOL     OW 6976   1.596   6.765   5.708
 2026SOL    HW1 6977   1.546   6.840   5.664
 2026SOL    HW2 6978   1.693   6.772   5.687
 2027SOL     OW 6979   6.433   6.833   2.849
 2027SOL    HW1 6980   6.425   6.736   2.872
 2027SOL    HW2 6981   6.399   6.888   2.926
 2028SOL     OW 6982   2.003   5.957   4.798
 2028SOL    HW1 6983   1.918   5.935   4.847
 2028SOL    HW2 6984   2.004   5.909   4.711
 2029SOL     OW 6985   6.714   2.188   0.148
 2029SOL    HW1 6986   6.754   2.172   0.058
 2029SOL    HW2 6987   6.621   2.152   0.150
 2030SOL     OW 6988   1.633   6.165   2.701
 2030SOL    HW1 6989   1.575   6.125   2.771
 2030SOL    HW2 6990   1.710   6.104   2.682
 2031SOL     OW 6991   6.665   0.264   4.875
 2031SOL    HW1 6992   6.597   0.303   4.937
 2031SOL    HW2 6993   6.755   0.305   4.893
 2032SOL     OW 6994   2.769   2.990   6.237
 2032SOL    HW1 6995   2.698   2.928   6.202
 2032SOL    HW2 6996   2.850   2.937   6.260
 2033SOL     OW 6997   2.776   0.185   1.542
 2033SOL    HW1 6998   2.868   0.218   1.564
 2033SOL    HW2 6999   2.723   0.175   1.627
 2034SOL     OW 7000   0.795   3.561   4.745
 2034SOL    HW1 7001   0.748   3.607   4.820
 2034SOL    HW2 7002   0.837   3.477   4.778
 2035SOL     OW 7003   4.939   5.917   3.299
 2035SOL    HW1 7004   4.987   5.998   3.265
 2035SOL    HW2 7005   4.843   5.921   3.271
 2036SOL     OW 7006   0.072   3.088   5.880
 2036SOL    HW1 7007   0.024   3.046   5.956
 2036SOL    HW2 7008   0.061   3.187   5.883
 2037SOL     OW 7009   1.268   2.443   6.914
 2037SOL    HW1 7010   1.280   2.541   6.930
 2037SOL    HW2 7011   1.202   2.406   6.979
 2038SOL     OW 7012   1.774   0.863   5.774
 2038SOL    HW1 7013   1.760   0.931   5.701
 2038SOL    HW2 7014   1.862   0.880   5.818
 2039SOL     OW 7015   5.385   6.126   4.037
 2039SOL    HW1 7016   5.421   6.065   4.109
 2039SOL    HW2 7017   5.383   6.076   3.950
 2040SOL     OW 7018   2.792   1.545   0.808
 2040SOL    HW1 7019   2.764   1.633   0.847
 2040SOL    HW2 7020   2.711   1.499   0.771
 2041SOL     OW 7021   3.030   0.092   0.190
 2041SOL    HW1 7022   3.033   0.068   0.093
 2041SOL    HW2 7023   3.013   0.191   0.199
 2042SOL     OW 7024   6.894   0.117   4.956
 2042SOL    HW1 7025   6.943   0.159   5.032
 2042SOL    HW2 7026   6.796   0.120   4.972
 2043SOL     OW 7027   1.278   3.435   0.443
 2043SOL    HW1 7028   1.360   3.384   0.470
 2043SOL    HW2 7029   1.304   3.511   0.383
 2044SOL     OW 7030   3.903   0.848   2.350
 2044SOL    HW1 7031   3.847   0.922   2.387
 2044SOL    HW2 7032   3.969   0.818   2.418
 2045SOL     OW 7033   1.977   5.633   3.151
 2045SOL    HW1 7034   2.060   5.579   3.165
 2045SOL    HW2 7035   1.969   5.701   3.223
 2046SOL     OW 7036   0.567   2.309   5.879
 2046SOL    HW1 7037   0.630   2.285   5.952
 2046SOL    HW2 7038   0.487   2.249   5.883
 2047SOL     OW 7039   0.002   0.042   2.150
 2047SOL    HW1 7040   0.007   0.119   2.214
 2047SOL    HW2 7041   0.043   0.068   2.063
 2048SOL     OW 7042   1.693   1.115   3.747
 2048SOL    HW1 7043   1.730   1.033   3.702
 2048SOL    HW2 7044   1.765   1.184   3.753
 2049SOL     OW 7045   4.289   1.946   5.600
 2049SOL    HW1 7046   4.310   1.852   5.573
 2049SOL    HW2 7047   4.311   2.008   5.524
 2050SOL     OW 7048   0.265   1.280   2.289
 2050SOL    HW1 7049   0.316   1.208   2.335
 2050SOL    HW2 7050   0.258   1.360   2.349
 2051SOL     OW 7051   3.724   0.179   6.363
 2051SOL    HW1 7052   3.646   0.223   6.408
 2051SOL    HW2 7053   3.757   0.104   6.419
 2052SOL     OW 7054   0.446   4.459   0.703
 2052SOL    HW1 7055   0.506   4.383   0.678
 2052SOL    HW2 7056   0.453   4.476   0.802
 2053SOL     OW 7057   4.334   5.167   1.457
 2053SOL    HW1 7058   4.395   5.096   1.420
 2053SOL    HW2 7059   4.242   5.130   1.467
 2054SOL     OW 7060   2.988   3.788   3.609
 2054SOL    HW1 7061   2.962   3.748   3.697
 2054SOL    HW2 7062   2.979   3.888   3.614
 2055SOL     OW 7063   3.479   3.257   5.422
 2055SOL    HW1 7064   3.503   3.167   5.387
 2055SOL    HW2 7065   3.393   3.287   5.379
 2056SOL     OW 7066   2.486   5.517   2.431
 2056SOL    HW1 7067   2.541   5.489   2.353
 2056SOL    HW2 7068   2.545   5.548   2.505
 2057SOL     OW 7069   6.514   3.072   4.051
 2057SOL    HW1 7070   6.521   3.109   4.144
 2057SOL    HW2 7071   6.587   3.111   3.995
 2058SOL     OW 7072   5.671   0.372   3.409
 2058SOL    HW1 7073   5.664   0.465   3.372
 2058SOL    HW2 7074   5.709   0.376   3.501
 2059SOL     OW 7075   2.780   1.224   5.948
 2059SOL    HW1 7076   2.791   1.157   5.874
 2059SOL    HW2 7077   2.752   1.178   6.032
 2060SOL     OW 7078   1.168   2.313   6.391
 2060SOL    HW1 7079   1.166   2.247   6.466
 2060SOL    HW2 7080   1.257   2.307   6.345
 2061SOL     OW 7081   2.324   2.917   3.783
 2061SOL    HW1 7082   2.319   2.878   3.875
 2061SOL    HW2 7083   2.309   2.844   3.716
 2062SOL     OW 7084   4.966   5.420   3.810
 2062SOL    HW1 7085   4.911   5.359   3.868
 2062SOL    HW2 7086   4.921   5.509   3.804
 2063SOL     OW 7087   1.103   1.682   4.466
 2063SOL    HW1 7088   1.089   1.614   4.393
 2063SOL    HW2 7089   1.153   1.761   4.429
 2064SOL     OW 7090   0.674   3.618   4.534
 2064SOL    HW1 7091   0.582   3.582   4.552
 2064SOL    HW2 7092   0.735   3.591   4.608
 2065SOL     OW 7093   3.462   3.872   5.949
 2065SOL    HW1 7094   3.461   3.876   6.049
 2065SOL    HW2 7095   3.368   3.867   5.915
 2066SOL     OW 7096   2.238   2.296   4.573
 2066SOL    HW1 7097   2.173   2.347   4.629
 2066SOL    HW2 7098   2.255   2.206   4.616
 2067SOL     OW 7099   6.416   4.703   2.718
 2067SOL    HW1 7100   6.360   4.760   2.779
 2067SOL    HW2 7101   6.411   4.739   2.625
 2068SOL     OW 7102   3.351   0.009   4.441
 2068SOL    HW1 7103   3.368   0.079   4.372
 2068SOL    HW2 7104   3.428   0.005   4.504
 2069SOL     OW 7105   5.765   2.137   2.949
 2069SOL    HW1 7106   5.831   2.200   2.908
 2069SOL    HW2 7107   5.720   2.085   2.876
 2070SOL     OW 7108   0.197   5.352   1.609
 2070SOL    HW1 7109   0.246   5.269   1.636
 2070SOL    HW2 7110   0.144   5.386   1.687
 2071SOL     OW 7111   6.778   2.252   3.752
 2071SOL    HW1 7112   6.772   2.349   3.730
 2071SOL    HW2 7113   6.698   2.224   3.804
 2072SOL     OW 7114   4.978   3.255   5.956
 2072SOL    HW1 7115   4.966   3.294   5.865
 2072SOL    HW2 7116   4.969   3.156   5.952
 2073SOL     OW 7117   3.411   5.389   6.736
 2073SOL    HW1 7118   3.366   5.452   6.799
 2073SOL    HW2 7119   3.457   5.316   6.788
 2074SOL     OW 7120   3.579   4.569   5.473
 2074SOL    HW1 7121   3.549   4.533   5.562
 2074SOL    HW2 7122   3.501   4.605   5.423
 2075SOL     OW 7123   5.322   0.794   0.892
 2075SOL    HW1 7124   5.278   0.833   0.973
 2075SOL    HW2 7125   5.303   0.696   0.887
 2076SOL     OW 7126   0.147   0.184   3.894
 2076SOL    HW1 7127   0.177   0.278   3.908
 2076SOL    HW2 7128   0.049   0.182   3.874
 2077SOL     OW 7129   0.896   4.148   0.664
 2077SOL    HW1 7130   0.874   4.066   0.717
 2077SOL    HW2 7131   0.994   4.149   0.644
 2078SOL     OW 7132   0.696   2.399   0.074
 2078SOL    HW1 7133   0.683   2.446   0.162
 2078SOL    HW2 7134   0.671   2.303   0.084
 2079SOL     OW 7135   5.216   2.229   3.562
 2079SOL    HW1 7136   5.164   2.309   3.593
 2079SOL    HW2 7137   5.262   2.251   3.476
 2080SOL     OW 7138   2.244   2.943   5.328
 2080SOL    HW1 7139   2.218   3.017   5.390
 2080SOL    HW2 7140   2.297   2.980   5.252
 2081SOL     OW 7141   0.125   6.165   3.074
 2081SOL    HW1 7142   0.157   6.260   3.066
 2081SOL    HW2 7143   0.187   6.114   3.133
 2082SOL     OW 7144   6.510   6.170   3.819
 2082SOL    HW1 7145   6.598   6.153   3.775
 2082SOL    HW2 7146   6.518   6.249   3.880
 2083SOL     OW 7147   0.810   5.865   3.147
 2083SOL    HW1 7148   0.746   5.788   3.152
 2083SOL    HW2 7149   0.894   5.842   3.197
 2084SOL     OW 7150   5.707   2.593   1.394
 2084SOL    HW1 7151   5.613   2.575   1.425
 2084SOL    HW2 7152   5.708   2.676   1.338
 2085SOL     OW 7153   6.527   5.185   6.951
 2085SOL    HW1 7154   6.545   5.127   6.872
 2085SOL    HW2 7155   6.457   5.143   7.008
 2086SOL     OW 7156   5.359   0.741   5.598
 2086SOL    HW1 7157   5.384   0.746   5.695
 2086SOL    HW2 7158   5.396   0.657   5.559
 2087SOL     OW 7159   4.850   1.316   6.065
 2087SOL    HW1 7160   4.915   1.242   6.050
 2087SOL    HW2 7161   4.792   1.327   5.985
 2088SOL     OW 7162   0.391   3.231   5.508
 2088SOL    HW1 7163   0.468   3.184   5.465
 2088SOL    HW2 7164   0.391   3.210   5.606
 2089SOL     OW 7165   2.999   4.909   4.404
 2089SOL    HW1 7166   3.024   4.893   4.500
 2089SOL    HW2 7167   2.983   5.007   4.391
 2090SOL     OW 7168   4.922   2.427   6.051
 2090SOL    HW1 7169   4.898   2.383   6.138
 2090SOL    HW2 7170   4.983   2.368   5.999
 2091SOL     OW 7171   5.660   6.875   0.808
 2091SOL    HW1 7172   5.587   6.806   0.804
 2091SOL    HW2 7173   5.705   6.881   0.719
 2092SOL     OW 7174   3.826   3.075   2.605
 2092SOL    HW1 7175   3.740   3.062   2.554
 2092SOL    HW2 7176   3.817   3.032   2.695
 2093SOL     OW 7177   4.239   0.016   6.954
 2093SOL    HW1 7178   4.277   6.963   6.904
 2093SOL    HW2 7179   4.284   0.023   0.017
 2094SOL     OW 7180   4.402   2.868   1.489
 2094SOL    HW1 7181   4.318   2.911   1.522
 2094SOL    HW2 7182   4.380   2.796   1.423
 2095SOL     OW 7183   4.547   5.582   3.682
 2095SOL    HW1 7184   4.543   5.547   3.776
 2095SOL    HW2 7185   4.469   5.642   3.665
 2096SOL     OW 7186   4.077   0.292   2.659
 2096SOL    HW1 7187   4.114   0.378   2.694
 2096SOL    HW2 7188   4.101   0.218   2.721
 2097SOL     OW 7189   2.560   5.598   5.247
 2097SOL    HW1 7190   2.563   5.659   5.169
 2097SOL    HW2 7191   2.582   5.505   5.218
 2098SOL     OW 7192   1.921   0.015   3.998
 2098SOL    HW1 7193   1.962   6.969   4.054
 2098SOL    HW2 7194   1.831   0.039   4.035
 2099SOL     OW 7195   4.370   1.600   0.265
 2099SOL    HW1 7196   4.380   1.516   0.212
 2099SOL    HW2 7197   4.360   1.578   0.362
 2100SOL     OW 7198   4.556   0.090   1.047
 2100SOL    HW1 7199   4.485   0.094   0.976
 2100SOL    HW2 7200   4.621   0.017   1.025
 2101SOL     OW 7201   1.194   0.147   2.499
 2101SOL    HW1 7202   1.292   0.131   2.488
 2101SOL    HW2 7203   1.149   0.140   2.410
 2102SOL     OW 7204   4.053   3.098   2.233
 2102SOL    HW1 7205   4.029   3.107   2.137
 2102SOL    HW2 7206   4.065   3.001   2.255
 2103SOL     OW 7207   1.789   0.162   1.750
 2103SOL    HW1 7208   1.865   0.129   1.807
 2103SOL    HW2 7209   1.824   0.225   1.681
 2104SOL     OW 7210   1.013   4.111   2.488
 2104SOL    HW1 7211   1.109   4.082   2.482
 2104SOL    HW2 7212   0.996   4.184   2.421
 2105SOL     OW 7213   5.373   6.219   4.964
 2105SOL    HW1 7214   5.371   6.240   5.062
 2105SOL    HW2 7215   5.436   6.143   4.948
 2106SOL     OW 7216   3.456   2.959   0.841
 2106SOL    HW1 7217   3.371   2.989   0.798
 2106SOL    HW2 7218   3.447   2.864   0.870
 2107SOL     OW 7219   6.197   4.558   4.985
 2107SOL    HW1 7220   6.249   4.555   5.070
 2107SOL    HW2 7221   6.167   4.652   4.968
 2108SOL     OW 7222   4.276   6.450   5.606
 2108SOL    HW1 7223   4.224   6.469   5.689
 2108SOL    HW2 7224   4.247   6.512   5.533
 2109SOL     OW 7225   2.605   5.752   2.220
 2109SOL    HW1 7226   2.682   5.690   2.236
 2109SOL    HW2 7227   2.575   5.790   2.307
 2110SOL     OW 7228   3.942   5.545   0.051
 2110SOL    HW1 7229   4.014   5.524   7.010
 2110SOL    HW2 7230   3.962   5.632   0.096
 2111SOL     OW 7231   0.615   2.546   0.357
 2111SOL    HW1 7232   0.632   2.460   0.404
 2111SOL    HW2 7233   0.673   2.617   0.397
 2112SOL     OW 7234   0.536   0.879   6.705
 2112SOL    HW1 7235   0.487   0.796   6.732
 2112SOL    HW2 7236   0.539   0.885   6.606
 2113SOL     OW 7237   6.424   1.877   4.304
 2113SOL    HW1 7238   6.454   1.939   4.376
 2113SOL    HW2 7239   6.334   1.840   4.328
 2114SOL     OW 7240   3.314   0.702   5.543
 2114SOL    HW1 7241   3.250   0.628   5.522
 2114SOL    HW2 7242   3.276   0.789   5.510
 2115SOL     OW 7243   6.809   6.806   3.974
 2115SOL    HW1 7244   6.793   6.900   3.946
 2115SOL    HW2 7245   6.762   6.789   4.062
 2116SOL     OW 7246   2.209   0.227   6.104
 2116SOL    HW1 7247   2.248   0.135   6.101
 2116SOL    HW2 7248   2.127   0.226   6.161
 2117SOL     OW 7249   5.559   2.988   1.044
 2117SOL    HW1 7250   5.630   3.057   1.028
 2117SOL    HW2 7251   5.564   2.919   0.971
 2118SOL     OW 7252   0.067   3.308   2.341
 2118SOL    HW1 7253   7.025   3.240   2.370
 2118SOL    HW2 7254   0.061   3.389   2.399
 2119SOL     OW 7255   2.316   2.398   0.172
 2119SOL    HW1 7256   2.392   2.334   0.184
 2119SOL    HW2 7257   2.251   2.386   0.247
 2120SOL     OW 7258   6.184   1.580   0.534
 2120SOL    HW1 7259   6.110   1.527   0.575
 2120SOL    HW2 7260   6.231   1.524   0.465
 2121SOL     OW 7261   2.718   5.563   1.959
 2121SOL    HW1 7262   2.808   5.582   2.000
 2121SOL    HW2 7263   2.666   5.504   2.020
 2122SOL     OW 7264   0.528   1.094   5.070
 2122SOL    HW1 7265   0.455   1.154   5.038
 2122SOL    HW2 7266   0.564   1.128   5.156
 2123SOL     OW 7267   1.042   4.305   3.581
 2123SOL    HW1 7268   1.080   4.249   3.654
 2123SOL    HW2 7269   1.113   4.326   3.514
 2124SOL     OW 7270   5.268   3.627   6.248
 2124SOL    HW1 7271   5.342   3.681   6.209
 2124SOL    HW2 7272   5.288   3.529   6.237
 2125SOL     OW 7273   2.353   5.396   5.943
 2125SOL    HW1 7274   2.353   5.350   6.031
 2125SOL    HW2 7275   2.363   5.329   5.869
 2126SOL     OW 7276   3.000   5.570   2.068
 2126SOL    HW1 7277   3.059   5.490   2.059
 2126SOL    HW2 7278   3.031   5.641   2.004
 2127SOL     OW 7279   1.511   3.982   4.398
 2127SOL    HW1 7280   1.585   3.926   4.360
 2127SOL    HW2 7281   1.518   4.075   4.364
 2128SOL     OW 7282   5.203   2.799   0.711
 2128SOL    HW1 7283   5.216   2.850   0.626
 2128SOL    HW2 7284   5.289   2.753   0.735
 2129SOL     OW 7285   5.805   4.311   4.337
 2129SOL    HW1 7286   5.802   4.374   4.260
 2129SOL    HW2 7287   5.842   4.223   4.307
 2130SOL     OW 7288   2.188   0.265   2.914
 2130SOL    HW1 7289   2.217   0.328   2.842
 2130SOL    HW2 7290   2.260   0.198   2.930
 2131SOL     OW 7291   5.662   0.050   6.761
 2131SOL    HW1 7292   5.746   0.086   6.802
 2131SOL    HW2 7293   5.669   0.056   6.661
 2132SOL     OW 7294   3.079   1.562   0.356
 2132SOL    HW1 7295   3.059   1.469   0.386
 2132SOL    HW2 7296   3.173   1.568   0.324
 2133SOL     OW 7297   3.972   3.382   1.986
 2133SOL    HW1 7298   4.041   3.455   1.978
 2133SOL    HW2 7299   4.015   3.294   1.964
 2134SOL     OW 7300   2.626   0.403   4.939
 2134SOL    HW1 7301   2.655   0.315   4.978
 2134SOL    HW2 7302   2.540   0.390   4.890
 2135SOL     OW 7303   0.575   5.950   4.761
 2135SOL    HW1 7304   0.510   5.932   4.835
 2135SOL    HW2 7305   0.576   6.048   4.741
 2136SOL     OW 7306   0.489   4.850   3.603
 2136SOL    HW1 7307   0.475   4.858   3.504
 2136SOL    HW2 7308   0.573   4.896   3.629
 2137SOL     OW 7309   0.080   0.412   4.728
 2137SOL    HW1 7310   0.120   0.438   4.816
 2137SOL    HW2 7311   0.042   0.493   4.684
 2138SOL     OW 7312   1.246   2.093   0.183
 2138SOL    HW1 7313   1.307   2.098   0.104
 2138SOL    HW2 7314   1.292   2.131   0.263
 2139SOL     OW 7315   3.518   6.227   4.365
 2139SOL    HW1 7316   3.572   6.303   4.400
 2139SOL    HW2 7317   3.578   6.149   4.347
 2140SOL     OW 7318   1.322   5.388   3.517
 2140SOL    HW1 7319   1.341   5.302   3.565
 2140SOL    HW2 7320   1.406   5.441   3.509
 2141SOL     OW 7321   6.613   0.555   6.754
 2141SOL    HW1 7322   6.644   0.505   6.835
 2141SOL    HW2 7323   6.517   0.579   6.765
 2142SOL     OW 7324   3.955   0.964   3.380
 2142SOL    HW1 7325   3.940   1.059   3.409
 2142SOL    HW2 7326   3.921   0.902   3.450
 2143SOL     OW 7327   3.789   5.853   0.291
 2143SOL    HW1 7328   3.713   5.805   0.248
 2143SOL    HW2 7329   3.830   5.794   0.360
 2144SOL     OW 7330   0.861   1.313   2.047
 2144SOL    HW1 7331   0.873   1.407   2.016
 2144SOL    HW2 7332   0.931   1.291   2.115
 2145SOL     OW 7333   2.517   5.771   3.572
 2145SOL    HW1 7334   2.566   5.714   3.638
 2145SOL    HW2 7335   2.430   5.799   3.611
 2146SOL     OW 7336   3.293   2.169   1.238
 2146SOL    HW1 7337   3.230   2.108   1.285
 2146SOL    HW2 7338   3.370   2.191   1.298
 2147SOL     OW 7339   6.910   0.327   3.912
 2147SOL    HW1 7340   6.961   0.409   3.887
 2147SOL    HW2 7341   6.844   0.306   3.840
 2148SOL     OW 7342   6.493   3.936   3.100
 2148SOL    HW1 7343   6.531   3.888   3.021
 2148SOL    HW2 7344   6.565   3.988   3.145
 2149SOL     OW 7345   2.538   1.038   2.558
 2149SOL    HW1 7346   2.507   1.062   2.650
 2149SOL    HW2 7347   2.467   1.063   2.492
 2150SOL     OW 7348   5.468   0.829   2.838
 2150SOL    HW1 7349   5.425   0.773   2.908
 2150SOL    HW2 7350   5.408   0.907   2.816
 2151SOL     OW 7351   4.467   4.401   5.710
 2151SOL    HW1 7352   4.477   4.396   5.809
 2151SOL    HW2 7353   4.377   4.365   5.683
 2152SOL     OW 7354   6.953   6.541   3.028
 2152SOL    HW1 7355   6.870   6.595   3.016
 2152SOL    HW2 7356   6.948   6.458   2.972
 2153SOL     OW 7357   4.385   1.665   3.967
 2153SOL    HW1 7358   4.366   1.763   3.975
 2153SOL    HW2 7359   4.420   1.645   3.875
 2154SOL     OW 7360   4.528   7.012   3.965
 2154SOL    HW1 7361   4.504   6.999   3.869
 2154SOL    HW2 7362   4.579   0.072   3.976
 2155SOL     OW 7363   5.860   4.177   0.769
 2155SOL    HW1 7364   5.816   4.128   0.694
 2155SOL    HW2 7365   5.866   4.274   0.746
 2156SOL     OW 7366   5.819   5.973   2.263
 2156SOL    HW1 7367   5.915   5.966   2.290
 2156SOL    HW2 7368   5.772   5.887   2.285
 2157SOL     OW 7369   5.295   1.638   3.854
 2157SOL    HW1 7370   5.266   1.546   3.827
 2157SOL    HW2 7371   5.393   1.647   3.838
 2158SOL     OW 7372   3.758   0.816   3.554
 2158SOL    HW1 7373   3.741   0.727   3.511
 2158SOL    HW2 7374   3.717   0.817   3.645
 2159SOL     OW 7375   2.536   1.695   5.085
 2159SOL    HW1 7376   2.627   1.725   5.059
 2159SOL    HW2 7377   2.497   1.640   5.011
 2160SOL     OW 7378   2.272   3.945   0.721
 2160SOL    HW1 7379   2.267   3.872   0.790
 2160SOL    HW2 7380   2.236   3.911   0.635
 2161SOL     OW 7381   4.545   2.423   2.514
 2161SOL    HW1 7382   4.538   2.502   2.573
 2161SOL    HW2 7383   4.458   2.408   2.467
 2162SOL     OW 7384   2.386   1.895   2.581
 2162SOL    HW1 7385   2.318   1.845   2.526
 2162SOL    HW2 7386   2.375   1.871   2.677
 2163SOL     OW 7387   4.605   1.345   1.092
 2163SOL    HW1 7388   4.530   1.400   1.128
 2163SOL    HW2 7389   4.677   1.338   1.161
 2164SOL     OW 7390   6.466   0.718   1.704
 2164SOL    HW1 7391   6.489   0.687   1.612
 2164SOL    HW2 7392   6.514   0.662   1.771
 2165SOL     OW 7393   1.940   0.522   2.328
 2165SOL    HW1 7394   1.939   0.523   2.228
 2165SOL    HW2 7395   1.866   0.581   2.363
 2166SOL     OW 7396   5.644   2.737   4.786
 2166SOL    HW1 7397   5.679   2.656   4.740
 2166SOL    HW2 7398   5.548   2.751   4.761
 2167SOL     OW 7399   3.449   1.623   1.260
 2167SOL    HW1 7400   3.394   1.548   1.296
 2167SOL    HW2 7401   3.462   1.692   1.332
 2168SOL     OW 7402   5.216   6.851   4.604
 2168SOL    HW1 7403   5.217   6.951   4.600
 2168SOL    HW2 7404   5.160   6.821   4.681
 2169SOL     OW 7405   5.119   1.780   5.744
 2169SOL    HW1 7406   5.046   1.844   5.768
 2169SOL    HW2 7407   5.128   1.777   5.644
 2170SOL     OW 7408   5.029   5.694   4.645
 2170SOL    HW1 7409   5.062   5.700   4.739
 2170SOL    HW2 7410   4.933   5.722   4.642
 2171SOL     OW 7411   0.584   2.934   0.445
 2171SOL    HW1 7412   0.547   2.942   0.352
 2171SOL    HW2 7413   0.520   2.882   0.502
 2172SOL     OW 7414   2.517   0.485   2.896
 2172SOL    HW1 7415   2.486   0.477   2.990
 2172SOL    HW2 7416   2.600   0.430   2.883
 2173SOL     OW 7417   4.332   1.966   4.363
 2173SOL    HW1 7418   4.292   2.057   4.378
 2173SOL    HW2 7419   4.422   1.976   4.320
 2174SOL     OW 7420   0.749   6.032   5.190
 2174SOL    HW1 7421   0.662   6.014   5.144
 2174SOL    HW2 7422   0.768   5.957   5.255
 2175SOL     OW 7423   1.046   0.322   6.750
 2175SOL    HW1 7424   1.081   0.299   6.841
 2175SOL    HW2 7425   1.104   0.393   6.709
 2176SOL     OW 7426   2.339   2.778   2.172
 2176SOL    HW1 7427   2.371   2.820   2.087
 2176SOL    HW2 7428   2.239   2.771   2.170
 2177SOL     OW 7429   0.927   1.608   2.189
 2177SOL    HW1 7430   0.957   1.598   2.094
 2177SOL    HW2 7431   0.996   1.570   2.250
 2178SOL     OW 7432   6.929   6.359   0.509
 2178SOL    HW1 7433   6.926   6.260   0.523
 2178SOL    HW2 7434   6.894   6.406   0.591
 2179SOL     OW 7435   2.248   4.026   4.065
 2179SOL    HW1 7436   2.342   4.060   4.059
 2179SOL    HW2 7437   2.244   3.935   4.023
 2180SOL     OW 7438   3.227   2.959   2.861
 2180SOL    HW1 7439   3.322   2.940   2.888
 2180SOL    HW2 7440   3.219   2.954   2.761
 2181SOL     OW 7441   3.249   6.993   0.742
 2181SOL    HW1 7442   3.168   7.006   0.685
 2181SOL    HW2 7443   3.326   6.967   0.684
 2182SOL     OW 7444   4.347   3.686   0.598
 2182SOL    HW1 7445   4.416   3.719   0.534
 2182SOL    HW2 7446   4.377   3.705   0.692
 2183SOL     OW 7447   4.884   2.945   1.722
 2183SOL    HW1 7448   4.967   2.974   1.770
 2183SOL    HW2 7449   4.804   2.962   1.780
 2184SOL     OW 7450   4.658   2.744   6.201
 2184SOL    HW1 7451   4.569   2.789   6.194
 2184SOL    HW2 7452   4.647   2.657   6.250
 2185SOL     OW 7453   6.971   6.635   2.357
 2185SOL    HW1 7454   7.015   6.685   2.432
 2185SOL    HW2 7455   6.994   6.678   2.270
 2186SOL     OW 7456   7.017   4.449   2.971
 2186SOL    HW1 7457   6.948   4.513   3.005
 2186SOL    HW2 7458   6.973   4.381   2.912
 2187SOL     OW 7459   6.279   0.388   6.609
 2187SOL    HW1 7460   6.239   0.435   6.530
 2187SOL    HW2 7461   6.377   0.374   6.593
 2188SOL     OW 7462   4.577   2.560   3.605
 2188SOL    HW1 7463   4.547   2.569   3.510
 2188SOL    HW2 7464   4.640   2.634   3.628
 2189SOL     OW 7465   4.008   6.296   6.612
 2189SOL    HW1 7466   3.961   6.383   6.596
 2189SOL    HW2 7467   4.073   6.307   6.688
 2190SOL     OW 7468   5.811   3.533   1.253
 2190SOL    HW1 7469   5.764   3.570   1.333
 2190SOL    HW2 7470   5.755   3.546   1.171
 2191SOL     OW 7471   3.538   0.463   0.173
 2191SOL    HW1 7472   3.635   0.479   0.158
 2191SOL    HW2 7473   3.506   0.390   0.112
 2192SOL     OW 7474   4.143   6.449   1.666
 2192SOL    HW1 7475   4.138   6.358   1.626
 2192SOL    HW2 7476   4.105   6.448   1.758
 2193SOL     OW 7477   0.121   6.311   4.736
 2193SOL    HW1 7478   0.040   6.275   4.780
 2193SOL    HW2 7479   0.101   6.330   4.640
 2194SOL     OW 7480   2.237   0.016   2.503
 2194SOL    HW1 7481   2.157   0.070   2.527
 2194SOL    HW2 7482   2.294   0.004   2.584
 2195SOL     OW 7483   0.244   5.102   2.598
 2195SOL    HW1 7484   0.258   5.020   2.654
 2195SOL    HW2 7485   0.245   5.077   2.501
 2196SOL     OW 7486   4.525   4.114   0.530
 2196SOL    HW1 7487   4.440   4.104   0.582
 2196SOL    HW2 7488   4.585   4.037   0.551
 2197SOL     OW 7489   4.987   3.793   0.117
 2197SOL    HW1 7490   5.046   3.722   0.077
 2197SOL    HW2 7491   5.040   3.877   0.128
 2198SOL     OW 7492   0.631   4.531   6.391
 2198SOL    HW1 7493   0.609   4.595   6.464
 2198SOL    HW2 7494   0.730   4.523   6.383
 2199SOL     OW 7495   4.011   1.794   3.108
 2199SOL    HW1 7496   3.978   1.846   3.187
 2199SOL    HW2 7497   4.071   1.720   3.138
 2200SOL     OW 7498   4.173   0.228   3.975
 2200SOL    HW1 7499   4.083   0.236   3.931
 2200SOL    HW2 7500   4.194   0.132   3.989
 2201SOL     OW 7501   5.113   4.690   4.444
 2201SOL    HW1 7502   5.072   4.766   4.494
 2201SOL    HW2 7503   5.213   4.700   4.442
 2202SOL     OW 7504   4.912   5.861   4.236
 2202SOL    HW1 7505   4.855   5.894   4.160
 2202SOL    HW2 7506   4.992   5.920   4.246
 2203SOL     OW 7507   2.180   1.304   2.743
 2203SOL    HW1 7508   2.108   1.347   2.798
 2203SOL    HW2 7509   2.175   1.339   2.650
 2204SOL     OW 7510   3.483   2.500   1.305
 2204SOL    HW1 7511   3.568   2.520   1.256
 2204SOL    HW2 7512   3.477   2.402   1.324
 2205SOL     OW 7513   3.343   0.587   2.237
 2205SOL    HW1 7514   3.317   0.661   2.299
 2205SOL    HW2 7515   3.262   0.556   2.186
 2206SOL     OW 7516   1.691   4.152   0.225
 2206SOL    HW1 7517   1.718   4.196   0.310
 2206SOL    HW2 7518   1.698   4.218   0.150
 2207SOL     OW 7519   6.360   4.463   5.217
 2207SOL    HW1 7520   6.277   4.445   5.271
 2207SOL    HW2 7521   6.437   4.479   5.279
 2208SOL     OW 7522   6.291   5.208   1.846
 2208SOL    HW1 7523   6.362   5.148   1.810
 2208SOL    HW2 7524   6.249   5.165   1.926
 2209SOL     OW 7525   6.562   0.107   1.874
 2209SOL    HW1 7526   6.627   0.166   1.923
 2209SOL    HW2 7527   6.469   0.138   1.893
 2210SOL     OW 7528   2.353   4.296   3.740
 2210SOL    HW1 7529   2.325   4.385   3.704
 2210SOL    HW2 7530   2.451   4.295   3.757
 2211SOL     OW 7531   5.728   0.400   5.875
 2211SOL    HW1 7532   5.804   0.337   5.896
 2211SOL    HW2 7533   5.759   0.494   5.887
 2212SOL     OW 7534   2.270   6.243   6.172
 2212SOL    HW1 7535   2.239   6.253   6.077
 2212SOL    HW2 7536   2.200   6.195   6.225
 2213SOL     OW 7537   4.848   1.183   3.552
 2213SOL    HW1 7538   4.854   1.233   3.638
 2213SOL    HW2 7539   4.924   1.210   3.493
 2214SOL     OW 7540   4.027   0.367   4.179
 2214SOL    HW1 7541   4.031   0.446   4.118
 2214SOL    HW2 7542   4.086   0.294   4.143
 2215SOL     OW 7543   5.829   2.297   6.163
 2215SOL    HW1 7544   5.917   2.332   6.196
 2215SOL    HW2 7545   5.802   2.217   6.218
 2216SOL     OW 7546   3.308   1.428   2.599
 2216SOL    HW1 7547   3.349   1.365   2.533
 2216SOL    HW2 7548   3.296   1.380   2.687
 2217SOL     OW 7549   2.741   0.156   0.972
 2217SOL    HW1 7550   2.710   0.061   0.975
 2217SOL    HW2 7551   2.700   0.207   1.047
 2218SOL     OW 7552   6.598   1.025   2.321
 2218SOL    HW1 7553   6.626   0.934   2.288
 2218SOL    HW2 7554   6.577   1.083   2.243
 2219SOL     OW 7555   2.464   1.881   2.893
 2219SOL    HW1 7556   2.562   1.873   2.871
 2219SOL    HW2 7557   2.437   1.977   2.889
 2220SOL     OW 7558   1.886   6.463   2.861
 2220SOL    HW1 7559   1.819   6.445   2.934
 2220SOL    HW2 7560   1.857   6.418   2.777
 2221SOL     OW 7561   0.075   6.655   4.795
 2221SOL    HW1 7562   0.031   6.732   4.749
 2221SOL    HW2 7563   0.078   6.673   4.894
 2222SOL     OW 7564   5.922   5.350   3.992
 2222SOL    HW1 7565   5.950   5.330   4.086
 2222SOL    HW2 7566   5.877   5.439   3.988
 2223SOL     OW 7567   6.736   6.607   2.559
 2223SOL    HW1 7568   6.817   6.618   2.502
 2223SOL    HW2 7569   6.721   6.690   2.612
 2224SOL     OW 7570   0.948   5.702   1.628
 2224SOL    HW1 7571   1.008   5.774   1.592
 2224SOL    HW2 7572   0.905   5.734   1.713
 2225SOL     OW 7573   0.482   4.270   0.032
 2225SOL    HW1 7574   0.460   4.367   0.017
 2225SOL    HW2 7575   0.400   4.215   0.016
 2226SOL     OW 7576   3.377   3.823   3.196
 2226SOL    HW1 7577   3.418   3.784   3.114
 2226SOL    HW2 7578   3.277   3.812   3.193
 2227SOL     OW 7579   2.186   2.234   5.229
 2227SOL    HW1 7580   2.168   2.149   5.179
 2227SOL    HW2 7581   2.279   2.265   5.211
 2228SOL     OW 7582   1.490   4.442   4.684
 2228SOL    HW1 7583   1.471   4.510   4.755
 2228SOL    HW2 7584   1.430   4.363   4.696
 2229SOL     OW 7585   5.629   5.583   2.508
 2229SOL    HW1 7586   5.536   5.584   2.542
 2229SOL    HW2 7587   5.652   5.490   2.476
 2230SOL     OW 7588   1.814   5.479   2.746
 2230SOL    HW1 7589   1.858   5.569   2.749
 2230SOL    HW2 7590   1.814   5.439   2.838
 2231SOL     OW 7591   2.054   5.643   0.665
 2231SOL    HW1 7592   1.984   5.581   0.629
 2231SOL    HW2 7593   2.046   5.732   0.619
 2232SOL     OW 7594   5.871   2.121   3.548
 2232SOL    HW1 7595   5.963   2.157   3.560
 2232SOL    HW2 7596   5.814   2.147   3.626
 2233SOL     OW 7597   3.295   1.442   0.540
 2233SOL    HW1 7598   3.226   1.434   0.611
 2233SOL    HW2 7599   3.350   1.524   0.555
 2234SOL     OW 7600   4.500   2.308   1.201
 2234SOL    HW1 7601   4.535   2.356   1.282
 2234SOL    HW2 7602   4.495   2.210   1.220
 2235SOL     OW 7603   1.854   2.723   2.209
 2235SOL    HW1 7604   1.778   2.763   2.261
 2235SOL    HW2 7605   1.885   2.639   2.253
 2236SOL     OW 7606   0.847   3.999   5.289
 2236SOL    HW1 7607   0.813   3.985   5.196
 2236SOL    HW2 7608   0.825   4.093   5.317
 2237SOL     OW 7609   5.999   2.796   3.204
 2237SOL    HW1 7610   5.957   2.712   3.239
 2237SOL    HW2 7611   6.098   2.784   3.201
 2238SOL     OW 7612   5.494   6.295   6.925
 2238SOL    HW1 7613   5.475   6.324   7.018
 2238SOL    HW2 7614   5.546   6.367   6.877
 2239SOL     OW 7615   7.015   5.806   1.552
 2239SOL    HW1 7616   7.023   5.905   1.542
 2239SOL    HW2 7617   0.080   5.764   1.544
 2240SOL     OW 7618   6.904   3.564   1.350
 2240SOL    HW1 7619   6.814   3.521   1.343
 2240SOL    HW2 7620   6.912   3.636   1.280
 2241SOL     OW 7621   0.579   0.422   3.996
 2241SOL    HW1 7622   0.614   0.337   4.036
 2241SOL    HW2 7623   0.587   0.496   4.064
 2242SOL     OW 7624   2.025   1.623   3.294
 2242SOL    HW1 7625   2.082   1.699   3.324
 2242SOL    HW2 7626   1.996   1.638   3.200
 2243SOL     OW 7627   1.643   0.569   4.574
 2243SOL    HW1 7628   1.735   0.549   4.540
 2243SOL    HW2 7629   1.582   0.586   4.496
 2244SOL     OW 7630   3.637   0.456   4.723
 2244SOL    HW1 7631   3.634   0.546   4.680
 2244SOL    HW2 7632   3.613   0.464   4.820
 2245SOL     OW 7633   0.821   2.632   1.792
 2245SOL    HW1 7634   0.915   2.598   1.780
 2245SOL    HW2 7635   0.777   2.582   1.867
 2246SOL     OW 7636   0.745   3.940   5.027
 2246SOL    HW1 7637   0.652   3.908   5.007
 2246SOL    HW2 7638   0.779   3.993   4.950
 2247SOL     OW 7639   1.986   2.496   4.047
 2247SOL    HW1 7640   2.066   2.447   4.081
 2247SOL    HW2 7641   1.906   2.471   4.102
 2248SOL     OW 7642   5.733   3.836   6.012
 2248SOL    HW1 7643   5.633   3.827   6.011
 2248SOL    HW2 7644   5.773   3.747   6.034
 2249SOL     OW 7645   5.597   5.610   4.728
 2249SOL    HW1 7646   5.680   5.656   4.760
 2249SOL    HW2 7647   5.528   5.678   4.705
 2250SOL     OW 7648   4.473   4.582   1.989
 2250SOL    HW1 7649   4.491   4.484   1.993
 2250SOL    HW2 7650   4.417   4.603   1.908
 2251SOL     OW 7651   0.638   1.098   5.323
 2251SOL    HW1 7652   0.720   1.079   5.270
 2251SOL    HW2 7653   0.664   1.130   5.415
 2252SOL     OW 7654   3.339   1.434   6.725
 2252SOL    HW1 7655   3.364   1.501   6.795
 2252SOL    HW2 7656   3.245   1.404   6.740
 2253SOL     OW 7657   0.847   4.002   0.901
 2253SOL    HW1 7658   0.766   4.036   0.948
 2253SOL    HW2 7659   0.929   4.027   0.954
 2254SOL     OW 7660   1.633   5.020   6.249
 2254SOL    HW1 7661   1.607   5.117   6.247
 2254SOL    HW2 7662   1.733   5.013   6.245
 2255SOL     OW 7663   6.737   3.661   6.625
 2255SOL    HW1 7664   6.648   3.705   6.627
 2255SOL    HW2 7665   6.737   3.589   6.555
 2256SOL     OW 7666   3.175   5.464   2.404
 2256SOL    HW1 7667   3.268   5.428   2.394
 2256SOL    HW2 7668   3.178   5.554   2.447
 2257SOL     OW 7669   1.118   4.555   5.614
 2257SOL    HW1 7670   1.025   4.518   5.621
 2257SOL    HW2 7671   1.160   4.524   5.528
 2258SOL     OW 7672   2.245   6.834   5.703
 2258SOL    HW1 7673   2.215   6.821   5.609
 2258SOL    HW2 7674   2.213   6.922   5.737
 2259SOL     OW 7675   6.044   1.849   6.370
 2259SOL    HW1 7676   5.964   1.818   6.318
 2259SOL    HW2 7677   6.022   1.851   6.467
 2260SOL     OW 7678   4.611   3.007   0.692
 2260SOL    HW1 7679   4.562   3.084   0.650
 2260SOL    HW2 7680   4.634   3.030   0.787
 2261SOL     OW 7681   2.437   7.009   5.059
 2261SOL    HW1 7682   2.490   7.002   5.144
 2261SOL    HW2 7683   2.420   0.080   5.038
 2262SOL     OW 7684   2.681   1.911   3.950
 2262SOL    HW1 7685   2.678   1.977   3.875
 2262SOL    HW2 7686   2.612   1.841   3.936
 2263SOL     OW 7687   0.654   4.678   5.626
 2263SOL    HW1 7688   0.568   4.626   5.625
 2263SOL    HW2 7689   0.637   4.770   5.592
 2264SOL     OW 7690   3.473   3.418   3.598
 2264SOL    HW1 7691   3.508   3.420   3.692
 2264SOL    HW2 7692   3.378   3.388   3.598
 2265SOL     OW 7693   0.916   5.977   4.091
 2265SOL    HW1 7694   0.864   6.030   4.024
 2265SOL    HW2 7695   0.916   5.881   4.065
 2266SOL     OW 7696   6.871   0.629   5.446
 2266SOL    HW1 7697   6.802   0.611   5.516
 2266SOL    HW2 7698   6.950   0.674   5.488
 2267SOL     OW 7699   6.125   1.698   5.233
 2267SOL    HW1 7700   6.157   1.633   5.301
 2267SOL    HW2 7701   6.027   1.716   5.246
 2268SOL     OW 7702   0.557   6.967   0.138
 2268SOL    HW1 7703   0.587   6.873   0.128
 2268SOL    HW2 7704   0.526   6.983   0.232
 2269SOL     OW 7705   6.479   6.284   2.666
 2269SOL    HW1 7706   6.529   6.283   2.580
 2269SOL    HW2 7707   6.436   6.374   2.679
 2270SOL     OW 7708   3.506   2.885   3.623
 2270SOL    HW1 7709   3.421   2.927   3.591
 2270SOL    HW2 7710   3.517   2.902   3.721
 2271SOL     OW 7711   1.588   3.738   2.714
 2271SOL    HW1 7712   1.533   3.817   2.741
 2271SOL    HW2 7713   1.651   3.765   2.642
 2272SOL     OW 7714   4.916   0.758   5.872
 2272SOL    HW1 7715   4.918   0.693   5.796
 2272SOL    HW2 7716   4.874   0.844   5.842
 2273SOL     OW 7717   0.380   1.117   1.886
 2273SOL    HW1 7718   0.307   1.048   1.890
 2273SOL    HW2 7719   0.430   1.117   1.973
 2274SOL     OW 7720   0.024   5.067   2.871
 2274SOL    HW1 7721   6.973   5.022   2.824
 2274SOL    HW2 7722   0.068   5.131   2.808
 2275SOL     OW 7723   4.688   6.419   3.828
 2275SOL    HW1 7724   4.678   6.454   3.734
 2275SOL    HW2 7725   4.605   6.438   3.879
 2276SOL     OW 7726   3.537   6.229   2.932
 2276SOL    HW1 7727   3.552   6.162   3.004
 2276SOL    HW2 7728   3.618   6.231   2.872
 2277SOL     OW 7729   3.483   2.902   2.796
 2277SOL    HW1 7730   3.509   2.984   2.745
 2277SOL    HW2 7731   3.514   2.821   2.747
 2278SOL     OW 7732   4.109   4.822   1.026
 2278SOL    HW1 7733   4.162   4.781   1.101
 2278SOL    HW2 7734   4.123   4.768   0.943
 2279SOL     OW 7735   5.655   3.921   5.527
 2279SOL    HW1 7736   5.574   3.870   5.499
 2279SOL    HW2 7737   5.734   3.888   5.477
 2280SOL     OW 7738   5.499   0.932   6.202
 2280SOL    HW1 7739   5.522   0.974   6.114
 2280SOL    HW2 7740   5.554   0.849   6.215
 2281SOL     OW 7741   2.294   0.491   0.453
 2281SOL    HW1 7742   2.342   0.529   0.374
 2281SOL    HW2 7743   2.357   0.438   0.509
 2282SOL     OW 7744   3.876   0.236   2.472
 2282SOL    HW1 7745   3.951   0.229   2.538
 2282SOL    HW2 7746   3.907   0.287   2.392
 2283SOL     OW 7747   0.901   3.191   0.996
 2283SOL    HW1 7748   0.906   3.290   0.999
 2283SOL    HW2 7749   0.890   3.155   1.089
 2284SOL     OW 7750   2.027   3.029   0.671
 2284SOL    HW1 7751   2.119   3.066   0.686
 2284SOL    HW2 7752   1.987   3.003   0.758
 2285SOL     OW 7753   2.513   2.927   0.172
 2285SOL    HW1 7754   2.433   2.888   0.127
 2285SOL    HW2 7755   2.566   2.853   0.215
 2286SOL     OW 7756   6.548   5.889   3.960
 2286SOL    HW1 7757   6.563   5.978   3.917
 2286SOL    HW2 7758   6.451   5.880   3.985
 2287SOL     OW 7759   2.439   1.549   0.699
 2287SOL    HW1 7760   2.402   1.637   0.730
 2287SOL    HW2 7761   2.412   1.533   0.604
 2288SOL     OW 7762   2.904   5.725   4.100
 2288SOL    HW1 7763   2.892   5.706   4.198
 2288SOL    HW2 7764   2.920   5.822   4.086
 2289SOL     OW 7765   3.974   7.005   6.144
 2289SOL    HW1 7766   4.003   0.075   6.156
 2289SOL    HW2 7767   3.885   7.003   6.099
 2290SOL     OW 7768   2.236   3.346   5.717
 2290SOL    HW1 7769   2.260   3.274   5.782
 2290SOL    HW2 7770   2.136   3.356   5.715
 2291SOL     OW 7771   3.188   1.995   0.186
 2291SOL    HW1 7772   3.149   2.062   0.249
 2291SOL    HW2 7773   3.288   2.000   0.192
 2292SOL     OW 7774   4.981   2.115   3.030
 2292SOL    HW1 7775   4.890   2.156   3.031
 2292SOL    HW2 7776   4.984   2.039   3.095
 2293SOL     OW 7777   0.546   0.798   0.162
 2293SOL    HW1 7778   0.643   0.777   0.160
 2293SOL    HW2 7779   0.516   0.811   0.256
 2294SOL     OW 7780   6.817   2.234   5.629
 2294SOL    HW1 7781   6.903   2.193   5.597
 2294SOL    HW2 7782   6.765   2.267   5.550
 2295SOL     OW 7783   5.611   5.496   0.121
 2295SOL    HW1 7784   5.625   5.398   0.108
 2295SOL    HW2 7785   5.513   5.516   0.116
 2296SOL     OW 7786   3.636   5.893   4.546
 2296SOL    HW1 7787   3.608   5.857   4.634
 2296SOL    HW2 7788   3.707   5.834   4.507
 2297SOL     OW 7789   6.417   2.732   0.175
 2297SOL    HW1 7790   6.426   2.824   0.212
 2297SOL    HW2 7791   6.320   2.707   0.169
 2298SOL     OW 7792   2.413   3.416   5.397
 2298SOL    HW1 7793   2.361   3.462   5.325
 2298SOL    HW2 7794   2.478   3.481   5.438
 2299SOL     OW 7795   6.391   3.180   4.566
 2299SOL    HW1 7796   6.434   3.153   4.481
 2299SOL    HW2 7797   6.452   3.240   4.617
 2300SOL     OW 7798   4.499   0.400   3.332
 2300SOL    HW1 7799   4.536   0.440   3.248
 2300SOL    HW2 7800   4.537   0.308   3.344
 2301SOL     OW 7801   4.484   3.208   5.846
 2301SOL    HW1 7802   4.400   3.179   5.892
 2301SOL    HW2 7803   4.496   3.155   5.762
 2302SOL     OW 7804   0.101   3.044   4.652
 2302SOL    HW1 7805   0.200   3.031   4.645
 2302SOL    HW2 7806   0.059   2.965   4.696
 2303SOL     OW 7807   2.733   2.185   6.625
 2303SOL    HW1 7808   2.656   2.168   6.563
 2303SOL    HW2 7809   2.744   2.106   6.686
 2304SOL     OW 7810   3.934   6.843   3.495
 2304SOL    HW1 7811   3.883   6.761   3.518
 2304SOL    HW2 7812   3.879   6.902   3.436
 2305SOL     OW 7813   2.692   6.108   4.875
 2305SOL    HW1 7814   2.735   6.080   4.789
 2305SOL    HW2 7815   2.600   6.070   4.881
 2306SOL     OW 7816   0.598   4.866   5.317
 2306SOL    HW1 7817   0.664   4.799   5.285
 2306SOL    HW2 7818   0.630   4.908   5.402
 2307SOL     OW 7819   6.073   3.899   4.972
 2307SOL    HW1 7820   6.004   3.969   4.956
 2307SOL    HW2 7821   6.162   3.932   4.943
 2308SOL     OW 7822   1.399   6.517   2.800
 2308SOL    HW1 7823   1.415   6.603   2.849
 2308SOL    HW2 7824   1.302   6.508   2.779
 2309SOL     OW 7825   2.148   0.964   4.892
 2309SOL    HW1 7826   2.075   0.956   4.959
 2309SOL    HW2 7827   2.175   1.060   4.882
 2310SOL     OW 7828   4.986   5.953   0.284
 2310SOL    HW1 7829   5.066   5.979   0.338
 2310SOL    HW2 7830   5.002   5.976   0.188
 2311SOL     OW 7831   2.328   5.577   0.700
 2311SOL    HW1 7832   2.247   5.621   0.661
 2311SOL    HW2 7833   2.387   5.645   0.743
 2312SOL     OW 7834   2.668   4.705   2.410
 2312SOL    HW1 7835   2.656   4.660   2.322
 2312SOL    HW2 7836   2.589   4.764   2.428
 2313SOL     OW 7837   5.012   5.281   1.561
 2313SOL    HW1 7838   4.941   5.352   1.555
 2313SOL    HW2 7839   5.028   5.260   1.657
 2314SOL     OW 7840   2.186   4.187   2.832
 2314SOL    HW1 7841   2.205   4.097   2.794
 2314SOL    HW2 7842   2.212   4.257   2.766
 2315SOL     OW 7843   3.756   1.828   6.619
 2315SOL    HW1 7844   3.822   1.903   6.611
 2315SOL    HW2 7845   3.770   1.764   6.543
 2316SOL     OW 7846   5.821   4.424   1.561
 2316SOL    HW1 7847   5.772   4.499   1.604
 2316SOL    HW2 7848   5.773   4.396   1.478
 2317SOL     OW 7849   0.175   6.535   3.611
 2317SOL    HW1 7850   0.104   6.595   3.648
 2317SOL    HW2 7851   0.235   6.588   3.551
 2318SOL     OW 7852   6.961   1.679   3.339
 2318SOL    HW1 7853   6.915   1.716   3.419
 2318SOL    HW2 7854   6.928   1.725   3.256
 2319SOL     OW 7855   1.010   5.673   3.004
 2319SOL    HW1 7856   1.052   5.691   2.915
 2319SOL    HW2 7857   1.043   5.741   3.070
 2320SOL     OW 7858   6.827   4.673   3.196
 2320SOL    HW1 7859   6.752   4.727   3.234
 2320SOL    HW2 7860   6.894   4.733   3.153
 2321SOL     OW 7861   3.180   4.906   3.953
 2321SOL    HW1 7862   3.101   4.852   3.981
 2321SOL    HW2 7863   3.196   4.893   3.855
 2322SOL     OW 7864   2.123   1.813   4.519
 2322SOL    HW1 7865   2.090   1.776   4.606
 2322SOL    HW2 7866   2.050   1.808   4.450
 2323SOL     OW 7867   5.610   3.724   1.333
 2323SOL    HW1 7868   5.542   3.748   1.403
 2323SOL    HW2 7869   5.568   3.662   1.266
 2324SOL     OW 7870   0.666   5.608   4.092
 2324SOL    HW1 7871   0.594   5.546   4.060
 2324SOL    HW2 7872   0.631   5.664   4.167
 2325SOL     OW 7873   6.289   2.064   0.722
 2325SOL    HW1 7874   6.227   2.008   0.669
 2325SOL    HW2 7875   6.237   2.122   0.785
 2326SOL     OW 7876   0.482   5.594   0.268
 2326SOL    HW1 7877   0.410   5.661   0.245
 2326SOL    HW2 7878   0.439   5.506   0.288
 2327SOL     OW 7879   4.915   1.867   3.146
 2327SOL    HW1 7880   4.942   1.781   3.189
 2327SOL    HW2 7881   4.819   1.861   3.118
 2328SOL     OW 7882   6.058   4.984   4.073
 2328SOL    HW1 7883   6.101   5.064   4.031
 2328SOL    HW2 7884   5.996   5.015   4.145
 2329SOL     OW 7885   1.578   6.528   3.487
 2329SOL    HW1 7886   1.598   6.599   3.419
 2329SOL    HW2 7887   1.626   6.444   3.462
 2330SOL     OW 7888   2.229   4.355   0.213
 2330SOL    HW1 7889   2.165   4.416   0.167
 2330SOL    HW2 7890   2.237   4.382   0.309
 2331SOL     OW 7891   1.980   4.817   4.796
 2331SOL    HW1 7892   1.914   4.864   4.738
 2331SOL    HW2 7893   1.977   4.855   4.889
 2332SOL     OW 7894   6.832   3.388   6.083
 2332SOL    HW1 7895   6.753   3.336   6.049
 2332SOL    HW2 7896   6.863   3.348   6.169
 2333SOL     OW 7897   2.393   4.317   4.105
 2333SOL    HW1 7898   2.390   4.406   4.150
 2333SOL    HW2 7899   2.371   4.329   4.008
 2334SOL     OW 7900   2.714   0.195   5.968
 2334SOL    HW1 7901   2.635   0.192   6.030
 2334SOL    HW2 7902   2.706   0.120   5.902
 2335SOL     OW 7903   4.731   4.221   4.435
 2335SOL    HW1 7904   4.804   4.288   4.420
 2335SOL    HW2 7905   4.707   4.217   4.532
 2336SOL     OW 7906   4.722   1.317   5.310
 2336SOL    HW1 7907   4.656   1.243   5.298
 2336SOL    HW2 7908   4.727   1.341   5.407
 2337SOL     OW 7909   5.675   0.784   5.266
 2337SOL    HW1 7910   5.620   0.702   5.280
 2337SOL    HW2 7911   5.709   0.786   5.172
 2338SOL     OW 7912   1.651   6.873   6.777
 2338SOL    HW1 7913   1.655   6.777   6.750
 2338SOL    HW2 7914   1.556   6.899   6.794
 2339SOL     OW 7915   3.592   4.618   6.456
 2339SOL    HW1 7916   3.538   4.681   6.400
 2339SOL    HW2 7917   3.600   4.653   6.549
 2340SOL     OW 7918   4.260   4.789   4.297
 2340SOL    HW1 7919   4.162   4.772   4.310
 2340SOL    HW2 7920   4.275   4.827   4.206
 2341SOL     OW 7921   0.212   3.652   5.978
 2341SOL    HW1 7922   0.204   3.591   5.899
 2341SOL    HW2 7923   0.215   3.598   6.062
 2342SOL     OW 7924   5.489   0.674   6.002
 2342SOL    HW1 7925   5.465   0.763   5.965
 2342SOL    HW2 7926   5.463   0.670   6.099
 2343SOL     OW 7927   1.357   5.706   1.983
 2343SOL    HW1 7928   1.333   5.698   2.080
 2343SOL    HW2 7929   1.396   5.620   1.951
 2344SOL     OW 7930   2.175   0.807   2.939
 2344SOL    HW1 7931   2.151   0.903   2.922
 2344SOL    HW2 7932   2.230   0.773   2.864
 2345SOL     OW 7933   1.159   2.429   2.265
 2345SOL    HW1 7934   1.258   2.428   2.278
 2345SOL    HW2 7935   1.134   2.365   2.192
 2346SOL     OW 7936   5.084   3.268   5.152
 2346SOL    HW1 7937   5.130   3.323   5.221
 2346SOL    HW2 7938   5.048   3.327   5.080
 2347SOL     OW 7939   1.546   4.165   0.667
 2347SOL    HW1 7940   1.630   4.120   0.694
 2347SOL    HW2 7941   1.515   4.128   0.579
 2348SOL     OW 7942   3.074   0.321   1.380
 2348SOL    HW1 7943   3.163   0.366   1.385
 2348SOL    HW2 7944   3.059   0.267   1.463
 2349SOL     OW 7945   5.646   3.040   0.123
 2349SOL    HW1 7946   5.706   3.100   0.069
 2349SOL    HW2 7947   5.645   2.949   0.081
 2350SOL     OW 7948   2.537   5.923   5.625
 2350SOL    HW1 7949   2.542   5.859   5.549
 2350SOL    HW2 7950   2.497   5.878   5.704
 2351SOL     OW 7951   1.959   5.130   3.379
 2351SOL    HW1 7952   2.053   5.119   3.346
 2351SOL    HW2 7953   1.952   5.099   3.473
 2352SOL     OW 7954   5.954   5.888   6.369
 2352SOL    HW1 7955   6.015   5.855   6.297
 2352SOL    HW2 7956   5.953   5.988   6.368
 2353SOL     OW 7957   3.502   2.952   6.251
 2353SOL    HW1 7958   3.483   3.008   6.332
 2353SOL    HW2 7959   3.419   2.947   6.194
 2354SOL     OW 7960   3.512   1.691   2.142
 2354SOL    HW1 7961   3.498   1.604   2.094
 2354SOL    HW2 7962   3.451   1.696   2.221
 2355SOL     OW 7963   7.002   1.575   2.353
 2355SOL    HW1 7964   7.007   1.475   2.343
 2355SOL    HW2 7965   0.063   1.615   2.325
 2356SOL     OW 7966   3.659   4.926   4.110
 2356SOL    HW1 7967   3.696   4.930   4.203
 2356SOL    HW2 7968   3.565   4.960   4.109
 2357SOL     OW 7969   1.083   5.680   1.248
 2357SOL    HW1 7970   1.009   5.743   1.269
 2357SOL    HW2 7971   1.058   5.588   1.279
 2358SOL     OW 7972   2.031   0.592   5.612
 2358SOL    HW1 7973   2.100   0.546   5.667
 2358SOL    HW2 7974   2.048   0.573   5.515
 2359SOL     OW 7975   3.383   2.680   6.218
 2359SOL    HW1 7976   3.359   2.718   6.129
 2359SOL    HW2 7977   3.452   2.738   6.261
 2360SOL     OW 7978   3.148   4.922   1.019
 2360SOL    HW1 7979   3.068   4.881   0.975
 2360SOL    HW2 7980   3.200   4.851   1.067
 2361SOL     OW 7981   3.560   4.843   1.350
 2361SOL    HW1 7982   3.514   4.931   1.358
 2361SOL    HW2 7983   3.642   4.853   1.294
 2362SOL     OW 7984   2.762   4.914   4.235
 2362SOL    HW1 7985   2.825   4.891   4.309
 2362SOL    HW2 7986   2.675   4.867   4.249
 2363SOL     OW 7987   2.430   4.001   1.426
 2363SOL    HW1 7988   2.360   4.052   1.476
 2363SOL    HW2 7989   2.407   3.904   1.425
 2364SOL     OW 7990   4.826   0.952   2.563
 2364SOL    HW1 7991   4.919   0.953   2.524
 2364SOL    HW2 7992   4.803   1.043   2.597
 2365SOL     OW 7993   5.913   4.032   2.868
 2365SOL    HW1 7994   5.954   4.015   2.958
 2365SOL    HW2 7995   5.912   3.947   2.815
 2366SOL     OW 7996   3.546   5.327   5.290
 2366SOL    HW1 7997   3.539   5.424   5.267
 2366SOL    HW2 7998   3.609   5.282   5.227
 2367SOL     OW 7999   6.140   4.466   5.369
 2367SOL    HW1 8000   6.047   4.453   5.335
 2367SOL    HW2 8001   6.148   4.423   5.459
 2368SOL     OW 8002   5.239   0.978   5.575
 2368SOL    HW1 8003   5.291   0.893   5.571
 2368SOL    HW2 8004   5.279   1.044   5.512
 2369SOL     OW 8005   4.011   1.889   4.132
 2369SOL    HW1 8006   3.913   1.876   4.146
 2369SOL    HW2 8007   4.031   1.892   4.035
 2370SOL     OW 8008   3.989   2.175   0.852
 2370SOL    HW1 8009   4.029   2.111   0.787
 2370SOL    HW2 8010   4.025   2.157   0.943
 2371SOL     OW 8011   2.559   6.867   2.892
 2371SOL    HW1 8012   2.507   6.903   2.970
 2371SOL    HW2 8013   2.505   6.876   2.809
 2372SOL     OW 8014   5.990   6.754   6.259
 2372SOL    HW1 8015   6.026   6.821   6.325
 2372SOL    HW2 8016   6.004   6.788   6.166
 2373SOL     OW 8017   6.527   4.150   5.677
 2373SOL    HW1 8018   6.475   4.127   5.759
 2373SOL    HW2 8019   6.472   4.132   5.595
 2374SOL     OW 8020   0.006   5.970   2.915
 2374SOL    HW1 8021   0.079   5.972   2.847
 2374SOL    HW2 8022   0.033   6.022   2.995
 2375SOL     OW 8023   1.767   0.146   4.571
 2375SOL    HW1 8024   1.765   0.051   4.543
 2375SOL    HW2 8025   1.853   0.165   4.620
 2376SOL     OW 8026   5.564   3.335   3.702
 2376SOL    HW1 8027   5.582   3.315   3.606
 2376SOL    HW2 8028   5.651   3.342   3.751
 2377SOL     OW 8029   3.713   4.701   6.169
 2377SOL    HW1 8030   3.712   4.607   6.204
 2377SOL    HW2 8031   3.646   4.710   6.095
 2378SOL     OW 8032   0.680   0.736   0.600
 2378SOL    HW1 8033   0.736   0.805   0.645
 2378SOL    HW2 8034   0.682   0.751   0.501
 2379SOL     OW 8035   0.550   4.785   2.335
 2379SOL    HW1 8036   0.629   4.725   2.323
 2379SOL    HW2 8037   0.477   4.734   2.381
 2380SOL     OW 8038   4.719   5.715   6.586
 2380SOL    HW1 8039   4.727   5.789   6.654
 2380SOL    HW2 8040   4.807   5.669   6.577
 2381SOL     OW 8041   2.210   3.796   3.937
 2381SOL    HW1 8042   2.214   3.821   3.840
 2381SOL    HW2 8043   2.195   3.698   3.945
 2382SOL     OW 8044   6.260   6.133   2.688
 2382SOL    HW1 8045   6.350   6.177   2.676
 2382SOL    HW2 8046   6.198   6.164   2.617
 2383SOL     OW 8047   5.418   4.141   6.144
 2383SOL    HW1 8048   5.483   4.201   6.097
 2383SOL    HW2 8049   5.430   4.150   6.243
 2384SOL     OW 8050   0.978   1.947   3.103
 2384SOL    HW1 8051   0.954   1.944   3.200
 2384SOL    HW2 8052   1.077   1.945   3.093
 2385SOL     OW 8053   0.503   0.842   1.015
 2385SOL    HW1 8054   0.472   0.771   1.078
 2385SOL    HW2 8055   0.600   0.862   1.032
 2386SOL     OW 8056   6.850   4.779   5.896
 2386SOL    HW1 8057   6.780   4.835   5.940
 2386SOL    HW2 8058   6.924   4.837   5.863
 2387SOL     OW 8059   0.050   0.300   3.130
 2387SOL    HW1 8060   6.977   0.310   3.144
 2387SOL    HW2 8061   0.081   0.216   3.176
 2388SOL     OW 8062   1.939   3.902   3.997
 2388SOL    HW1 8063   1.881   3.834   4.043
 2388SOL    HW2 8064   2.032   3.866   3.990
 2389SOL     OW 8065   3.545   0.192   2.778
 2389SOL    HW1 8066   3.589   0.251   2.710
 2389SOL    HW2 8067   3.563   0.096   2.755
 2390SOL     OW 8068   5.120   3.091   5.378
 2390SOL    HW1 8069   5.084   3.110   5.286
 2390SOL    HW2 8070   5.065   3.021   5.422
 2391SOL     OW 8071   2.642   3.895   6.241
 2391SOL    HW1 8072   2.725   3.856   6.282
 2391SOL    HW2 8073   2.667   3.973   6.183
 2392SOL     OW 8074   4.227   5.386   5.820
 2392SOL    HW1 8075   4.134   5.371   5.784
 2392SOL    HW2 8076   4.255   5.306   5.873
 2393SOL     OW 8077   4.273   4.338   0.135
 2393SOL    HW1 8078   4.341   4.276   0.176
 2393SOL    HW2 8079   4.210   4.369   0.206
 2394SOL     OW 8080   0.065   2.813   3.217
 2394SOL    HW1 8081   0.146   2.762   3.191
 2394SOL    HW2 8082   7.014   2.750   3.229
 2395SOL     OW 8083   1.252   2.214   3.879
 2395SOL    HW1 8084   1.240   2.312   3.895
 2395SOL    HW2 8085   1.192   2.163   3.941
 2396SOL     OW 8086   0.252   0.466   6.104
 2396SOL    HW1 8087   0.296   0.442   6.017
 2396SOL    HW2 8088   0.291   0.551   6.139
 2397SOL     OW 8089   2.091   4.477   6.027
 2397SOL    HW1 8090   2.045   4.449   5.943
 2397SOL    HW2 8091   2.189   4.488   6.009
 2398SOL     OW 8092   3.808   6.161   4.657
 2398SOL    HW1 8093   3.789   6.162   4.559
 2398SOL    HW2 8094   3.841   6.071   4.684
 2399SOL     OW 8095   3.124   1.603   2.462
 2399SOL    HW1 8096   3.047   1.548   2.431
 2399SOL    HW2 8097   3.176   1.552   2.530
 2400SOL     OW 8098   0.954   2.186   6.746
 2400SOL    HW1 8099   1.010   2.268   6.748
 2400SOL    HW2 8100   0.981   2.124   6.819
 2401SOL     OW 8101   1.248   6.798   1.062
 2401SOL    HW1 8102   1.322   6.752   1.110
 2401SOL    HW2 8103   1.286   6.873   1.008
 2402SOL     OW 8104   0.467   3.057   1.706
 2402SOL    HW1 8105   0.521   3.043   1.623
 2402SOL    HW2 8106   0.406   2.980   1.719
 2403SOL     OW 8107   3.075   4.307   5.261
 2403SOL    HW1 8108   3.028   4.239   5.318
 2403SOL    HW2 8109   3.008   4.373   5.226
 2404SOL     OW 8110   6.460   2.003   2.176
 2404SOL    HW1 8111   6.540   2.003   2.116
 2404SOL    HW2 8112   6.462   2.084   2.235
 2405SOL     OW 8113   2.617   3.089   0.532
 2405SOL    HW1 8114   2.603   3.096   0.631
 2405SOL    HW2 8115   2.574   3.167   0.487
 2406SOL     OW 8116   4.036   5.793   4.958
 2406SOL    HW1 8117   4.010   5.856   5.030
 2406SOL    HW2 8118   4.131   5.810   4.931
 2407SOL     OW 8119   2.228   1.805   3.390
 2407SOL    HW1 8120   2.297   1.768   3.328
 2407SOL    HW2 8121   2.273   1.843   3.471
 2408SOL     OW 8122   4.555   6.932   4.991
 2408SOL    HW1 8123   4.603   6.993   5.052
 2408SOL    HW2 8124   4.505   6.863   5.044
 2409SOL     OW 8125   1.228   3.073   6.613
 2409SOL    HW1 8126   1.184   3.162   6.619
 2409SOL    HW2 8127   1.279   3.066   6.527
 2410SOL     OW 8128   6.494   3.761   4.683
 2410SOL    HW1 8129   6.542   3.847   4.665
 2410SOL    HW2 8130   6.399   3.768   4.652
 2411SOL     OW 8131   2.963   1.572   1.055
 2411SOL    HW1 8132   2.898   1.564   0.980
 2411SOL    HW2 8133   3.015   1.657   1.045
 2412SOL     OW 8134   3.616   2.462   0.252
 2412SOL    HW1 8135   3.659   2.383   0.297
 2412SOL    HW2 8136   3.574   2.433   0.166
 2413SOL     OW 8137   6.652   3.660   6.026
 2413SOL    HW1 8138   6.716   3.596   6.068
 2413SOL    HW2 8139   6.618   3.622   5.940
 2414SOL     OW 8140   6.248   1.657   4.685
 2414SOL    HW1 8141   6.270   1.649   4.782
 2414SOL    HW2 8142   6.320   1.707   4.638
 2415SOL     OW 8143   3.207   3.887   5.291
 2415SOL    HW1 8144   3.237   3.969   5.242
 2415SOL    HW2 8145   3.124   3.908   5.343
 2416SOL     OW 8146   0.095   3.671   3.720
 2416SOL    HW1 8147   0.065   3.767   3.713
 2416SOL    HW2 8148   0.030   3.621   3.778
 2417SOL     OW 8149   3.559   2.654   1.761
 2417SOL    HW1 8150   3.545   2.723   1.691
 2417SOL    HW2 8151   3.473   2.605   1.778
 2418SOL     OW 8152   5.975   3.567   6.490
 2418SOL    HW1 8153   5.884   3.606   6.500
 2418SOL    HW2 8154   5.967   3.467   6.483
 2419SOL     OW 8155   3.616   0.854   2.693
 2419SOL    HW1 8156   3.673   0.892   2.621
 2419SOL    HW2 8157   3.669   0.849   2.778
 2420SOL     OW 8158   0.947   3.073   1.260
 2420SOL    HW1 8159   0.925   2.991   1.314
 2420SOL    HW2 8160   1.031   3.115   1.295
 2421SOL     OW 8161   2.637   0.300   3.081
 2421SOL    HW1 8162   2.693   0.375   3.117
 2421SOL    HW2 8163   2.697   0.229   3.045
 2422SOL     OW 8164   3.491   6.885   0.627
 2422SOL    HW1 8165   3.547   6.948   0.574
 2422SOL    HW2 8166   3.549   6.827   0.684
 2423SOL     OW 8167   3.747   4.978   4.862
 2423SOL    HW1 8168   3.683   4.904   4.841
 2423SOL    HW2 8169   3.809   4.949   4.935
 2424SOL     OW 8170   5.326   0.392   6.240
 2424SOL    HW1 8171   5.266   0.324   6.198
 2424SOL    HW2 8172   5.373   0.351   6.318
 2425SOL     OW 8173   4.820   5.322   4.890
 2425SOL    HW1 8174   4.864   5.362   4.810
 2425SOL    HW2 8175   4.792   5.229   4.870
 2426SOL     OW 8176   3.186   2.528   5.503
 2426SOL    HW1 8177   3.116   2.495   5.439
 2426SOL    HW2 8178   3.275   2.526   5.458
 2427SOL     OW 8179   4.428   1.923   6.976
 2427SOL    HW1 8180   4.525   1.937   6.998
 2427SOL    HW2 8181   4.376   1.917   0.036
 2428SOL     OW 8182   1.904   1.788   2.429
 2428SOL    HW1 8183   1.959   1.871   2.416
 2428SOL    HW2 8184   1.807   1.810   2.420
 2429SOL     OW 8185   5.191   5.767   1.632
 2429SOL    HW1 8186   5.269   5.788   1.690
 2429SOL    HW2 8187   5.144   5.852   1.607
 2430SOL     OW 8188   6.511   0.022   6.954
 2430SOL    HW1 8189   6.514   0.059   6.861
 2430SOL    HW2 8190   6.416   0.009   6.982
 2431SOL     OW 8191   1.777   2.415   1.183
 2431SOL    HW1 8192   1.840   2.473   1.131
 2431SOL    HW2 8193   1.830   2.350   1.238
 2432SOL     OW 8194   3.135   6.018   2.389
 2432SOL    HW1 8195   3.229   6.013   2.357
 2432SOL    HW2 8196   3.095   6.106   2.364
 2433SOL     OW 8197   0.605   4.344   4.016
 2433SOL    HW1 8198   0.639   4.411   4.082
 2433SOL    HW2 8199   0.599   4.386   3.925
 2434SOL     OW 8200   3.972   1.920   2.875
 2434SOL    HW1 8201   3.987   2.016   2.899
 2434SOL    HW2 8202   4.009   1.862   2.948
 2435SOL     OW 8203   5.446   6.918   6.277
 2435SOL    HW1 8204   5.469   6.872   6.191
 2435SOL    HW2 8205   5.372   6.869   6.322
 2436SOL     OW 8206   0.204   2.593   0.388
 2436SOL    HW1 8207   0.273   2.540   0.340
 2436SOL    HW2 8208   0.235   2.612   0.481
 2437SOL     OW 8209   1.264   4.750   1.475
 2437SOL    HW1 8210   1.194   4.733   1.544
 2437SOL    HW2 8211   1.223   4.799   1.397
 2438SOL     OW 8212   3.726   1.859   4.351
 2438SOL    HW1 8213   3.725   1.838   4.254
 2438SOL    HW2 8214   3.744   1.957   4.364
 2439SOL     OW 8215   0.493   5.804   6.917
 2439SOL    HW1 8216   0.523   5.809   6.822
 2439SOL    HW2 8217   0.442   5.887   6.940
 2440SOL     OW 8218   6.571   2.440   5.205
 2440SOL    HW1 8219   6.475   2.469   5.210
 2440SOL    HW2 8220   6.613   2.483   5.125
 2441SOL     OW 8221   6.725   0.449   6.990
 2441SOL    HW1 8222   6.757   0.361   6.955
 2441SOL    HW2 8223   6.673   0.435   0.048
 2442SOL     OW 8224   5.538   2.903   2.657
 2442SOL    HW1 8225   5.479   2.863   2.727
 2442SOL    HW2 8226   5.488   2.910   2.571
 2443SOL     OW 8227   0.462   3.113   0.866
 2443SOL    HW1 8228   0.525   3.177   0.821
 2443SOL    HW2 8229   0.496   3.090   0.957
 2444SOL     OW 8230   3.391   5.252   2.879
 2444SOL    HW1 8231   3.385   5.322   2.808
 2444SOL    HW2 8232   3.487   5.231   2.898
 2445SOL     OW 8233   0.537   1.841   1.375
 2445SOL    HW1 8234   0.509   1.745   1.363
 2445SOL    HW2 8235   0.522   1.891   1.290
 2446SOL     OW 8236   6.771   5.791   0.879
 2446SOL    HW1 8237   6.730   5.878   0.909
 2446SOL    HW2 8238   6.746   5.774   0.784
 2447SOL     OW 8239   2.256   6.891   6.881
 2447SOL    HW1 8240   2.337   6.896   6.822
 2447SOL    HW2 8241   2.180   6.852   6.829
 2448SOL     OW 8242   5.740   0.869   4.203
 2448SOL    HW1 8243   5.659   0.843   4.150
 2448SOL    HW2 8244   5.768   0.792   4.259
 2449SOL     OW 8245   2.035   3.807   1.107
 2449SOL    HW1 8246   2.076   3.891   1.071
 2449SOL    HW2 8247   1.984   3.761   1.034
 2450SOL     OW 8248   6.707   6.386   5.306
 2450SOL    HW1 8249   6.622   6.363   5.352
 2450SOL    HW2 8250   6.756   6.455   5.359
 2451SOL     OW 8251   1.663   6.748   0.017
 2451SOL    HW1 8252   1.597   6.787   6.979
 2451SOL    HW2 8253   1.702   6.665   7.003
 2452SOL     OW 8254   2.007   2.411   3.338
 2452SOL    HW1 8255   1.934   2.363   3.290
 2452SOL    HW2 8256   2.076   2.442   3.272
 2453SOL     OW 8257   1.126   2.193   6.140
 2453SOL    HW1 8258   1.137   2.262   6.211
 2453SOL    HW2 8259   1.059   2.225   6.073
 2454SOL     OW 8260   2.601   6.452   6.829
 2454SOL    HW1 8261   2.577   6.361   6.798
 2454SOL    HW2 8262   2.559   6.469   6.918
 2455SOL     OW 8263   4.892   2.061   7.011
 2455SOL    HW1 8264   4.892   1.993   0.060
 2455SOL    HW2 8265   4.982   2.103   7.005
 2456SOL     OW 8266   0.950   3.392   5.891
 2456SOL    HW1 8267   0.865   3.446   5.896
 2456SOL    HW2 8268   0.989   3.385   5.983
 2457SOL     OW 8269   5.167   1.609   5.939
 2457SOL    HW1 8270   5.137   1.664   5.861
 2457SOL    HW2 8271   5.113   1.633   6.019
 2458SOL     OW 8272   1.098   0.143   2.255
 2458SOL    HW1 8273   1.015   0.129   2.200
 2458SOL    HW2 8274   1.165   0.193   2.200
 2459SOL     OW 8275   1.838   6.416   1.465
 2459SOL    HW1 8276   1.871   6.324   1.445
 2459SOL    HW2 8277   1.902   6.462   1.527
 2460SOL     OW 8278   0.096   0.743   4.174
 2460SOL    HW1 8279   0.059   0.835   4.179
 2460SOL    HW2 8280   0.177   0.737   4.232
 2461SOL     OW 8281   2.500   1.429   3.136
 2461SOL    HW1 8282   2.453   1.494   3.196
 2461SOL    HW2 8283   2.599   1.435   3.152
 2462SOL     OW 8284   0.268   6.203   0.793
 2462SOL    HW1 8285   0.297   6.298   0.787
 2462SOL    HW2 8286   0.232   6.173   0.704
 2463SOL     OW 8287   6.958   6.984   0.777
 2463SOL    HW1 8288   6.887   0.014   0.735
 2463SOL    HW2 8289   6.956   6.996   0.876
 2464SOL     OW 8290   0.883   2.448   4.844
 2464SOL    HW1 8291   0.891   2.364   4.898
 2464SOL    HW2 8292   0.971   2.471   4.804
 2465SOL     OW 8293   6.420   1.513   0.129
 2465SOL    HW1 8294   6.516   1.509   0.102
 2465SOL    HW2 8295   6.363   1.478   0.054
 2466SOL     OW 8296   0.849   2.160   1.286
 2466SOL    HW1 8297   0.890   2.250   1.278
 2466SOL    HW2 8298   0.833   2.122   1.195
 2467SOL     OW 8299   5.228   2.447   5.311
 2467SOL    HW1 8300   5.185   2.466   5.399
 2467SOL    HW2 8301   5.158   2.434   5.241
 2468SOL     OW 8302   2.739   0.259   4.717
 2468SOL    HW1 8303   2.798   0.201   4.661
 2468SOL    HW2 8304   2.760   0.245   4.813
 2469SOL     OW 8305   2.894   1.801   6.221
 2469SOL    HW1 8306   2.979   1.828   6.176
 2469SOL    HW2 8307   2.895   1.702   6.238
 2470SOL     OW 8308   1.821   5.349   6.622
 2470SOL    HW1 8309   1.840   5.442   6.655
 2470SOL    HW2 8310   1.725   5.342   6.596
 2471SOL     OW 8311   3.270   5.622   2.905
 2471SOL    HW1 8312   3.307   5.582   2.822
 2471SOL    HW2 8313   3.170   5.619   2.901
 2472SOL     OW 8314   5.093   1.052   2.974
 2472SOL    HW1 8315   5.130   1.051   3.067
 2472SOL    HW2 8316   5.161   1.090   2.912
 2473SOL     OW 8317   0.893   4.020   4.781
 2473SOL    HW1 8318   0.944   3.943   4.742
 2473SOL    HW2 8319   0.941   4.056   4.861
 2474SOL     OW 8320   1.649   6.741   0.982
 2474SOL    HW1 8321   1.550   6.732   0.966
 2474SOL    HW2 8322   1.665   6.790   1.067
 2475SOL     OW 8323   5.483   1.877   0.834
 2475SOL    HW1 8324   5.536   1.917   0.908
 2475SOL    HW2 8325   5.544   1.846   0.762
 2476SOL     OW 8326   4.653   0.116   6.944
 2476SOL    HW1 8327   4.566   0.088   6.985
 2476SOL    HW2 8328   4.636   0.182   6.872
 2477SOL     OW 8329   3.606   1.480   3.661
 2477SOL    HW1 8330   3.581   1.576   3.651
 2477SOL    HW2 8331   3.526   1.426   3.685
 2478SOL     OW 8332   3.489   0.719   4.241
 2478SOL    HW1 8333   3.546   0.639   4.225
 2478SOL    HW2 8334   3.519   0.767   4.323
 2479SOL     OW 8335   5.995   4.392   1.788
 2479SOL    HW1 8336   5.916   4.397   1.726
 2479SOL    HW2 8337   6.056   4.319   1.758
 2480SOL     OW 8338   3.194   2.249   1.573
 2480SOL    HW1 8339   3.270   2.218   1.629
 2480SOL    HW2 8340   3.112   2.257   1.631
 2481SOL     OW 8341   2.952   6.953   2.228
 2481SOL    HW1 8342   2.864   6.932   2.187
 2481SOL    HW2 8343   3.006   6.868   2.236
 2482SOL     OW 8344   7.006   2.999   6.770
 2482SOL    HW1 8345   6.968   2.944   6.845
 2482SOL    HW2 8346   6.931   3.040   6.717
 2483SOL     OW 8347   2.421   2.176   1.625
 2483SOL    HW1 8348   2.447   2.193   1.720
 2483SOL    HW2 8349   2.473   2.100   1.588
 2484SOL     OW 8350   4.385   0.567   6.526
 2484SOL    HW1 8351   4.409   0.511   6.447
 2484SOL    HW2 8352   4.366   0.508   6.604
 2485SOL     OW 8353   0.332   1.556   6.490
 2485SOL    HW1 8354   0.340   1.510   6.578
 2485SOL    HW2 8355   0.422   1.557   6.445
 2486SOL     OW 8356   6.701   6.119   3.456
 2486SOL    HW1 8357   6.762   6.119   3.378
 2486SOL    HW2 8358   6.748   6.082   3.536
 2487SOL     OW 8359   4.282   6.266   0.202
 2487SOL    HW1 8360   4.279   6.291   0.299
 2487SOL    HW2 8361   4.377   6.260   0.172
 2488SOL     OW 8362   0.008   3.947   0.783
 2488SOL    HW1 8363   7.010   3.989   0.870
 2488SOL    HW2 8364   0.068   4.008   0.732
 2489SOL     OW 8365   6.370   5.477   4.714
 2489SOL    HW1 8366   6.312   5.549   4.752
 2489SOL    HW2 8367   6.342   5.389   4.751
 2490SOL     OW 8368   2.774   5.917   2.047
 2490SOL    HW1 8369   2.702   5.864   2.090
 2490SOL    HW2 8370   2.827   5.858   1.985
 2491SOL     OW 8371   3.974   4.734   1.774
 2491SOL    HW1 8372   4.020   4.783   1.701
 2491SOL    HW2 8373   3.982   4.636   1.759
 2492SOL     OW 8374   6.790   5.493   1.741
 2492SOL    HW1 8375   6.857   5.474   1.669
 2492SOL    HW2 8376   6.800   5.587   1.774
 2493SOL     OW 8377   5.941   6.121   0.691
 2493SOL    HW1 8378   6.032   6.116   0.652
 2493SOL    HW2 8379   5.884   6.184   0.638
 2494SOL     OW 8380   6.925   4.008   1.045
 2494SOL    HW1 8381   6.963   4.014   1.138
 2494SOL    HW2 8382   6.828   4.032   1.048
 2495SOL     OW 8383   6.741   3.226   2.160
 2495SOL    HW1 8384   6.774   3.178   2.242
 2495SOL    HW2 8385   6.785   3.187   2.079
 2496SOL     OW 8386   5.823   4.110   6.222
 2496SOL    HW1 8387   5.899   4.047   6.237
 2496SOL    HW2 8388   5.794   4.105   6.126
 2497SOL     OW 8389   0.644   0.045   3.975
 2497SOL    HW1 8390   0.556   0.089   3.959
 2497SOL    HW2 8391   0.630   6.977   4.006
 2498SOL     OW 8392   2.052   3.413   4.519
 2498SOL    HW1 8393   2.046   3.488   4.586
 2498SOL    HW2 8394   1.964   3.400   4.476
 2499SOL     OW 8395   6.118   3.657   1.893
 2499SOL    HW1 8396   6.065   3.606   1.825
 2499SOL    HW2 8397   6.215   3.655   1.869
 2500SOL     OW 8398   3.563   3.554   2.104
 2500SOL    HW1 8399   3.612   3.635   2.136
 2500SOL    HW2 8400   3.627   3.479   2.089
 2501SOL     OW 8401   6.276   5.492   5.029
 2501SOL    HW1 8402   6.375   5.494   5.022
 2501SOL    HW2 8403   6.249   5.509   5.124
 2502SOL     OW 8404   2.907   5.406   3.825
 2502SOL    HW1 8405   2.904   5.371   3.731
 2502SOL    HW2 8406   2.883   5.503   3.826
 2503SOL     OW 8407   2.395   0.279   5.374
 2503SOL    HW1 8408   2.407   0.245   5.281
 2503SOL    HW2 8409   2.313   0.336   5.379
 2504SOL     OW 8410   4.141   0.283   3.132
 2504SOL    HW1 8411   4.155   0.328   3.220
 2504SOL    HW2 8412   4.176   0.189   3.137
 2505SOL     OW 8413   5.684   4.661   4.228
 2505SOL    HW1 8414   5.725   4.595   4.166
 2505SOL    HW2 8415   5.753   4.729   4.255
 2506SOL     OW 8416   6.278   5.260   6.364
 2506SOL    HW1 8417   6.291   5.359   6.363
 2506SOL    HW2 8418   6.359   5.216   6.325
 2507SOL     OW 8419   6.304   3.496   3.500
 2507SOL    HW1 8420   6.325   3.428   3.430
 2507SOL    HW2 8421   6.368   3.573   3.492
 2508SOL     OW 8422   5.902   1.032   3.693
 2508SOL    HW1 8423   5.899   0.957   3.626
 2508SOL    HW2 8424   5.851   1.110   3.658
 2509SOL     OW 8425   0.147   2.652   6.202
 2509SOL    HW1 8426   0.238   2.639   6.243
 2509SOL    HW2 8427   0.153   2.719   6.129
 2510SOL     OW 8428   3.530   4.153   2.516
 2510SOL    HW1 8429   3.563   4.214   2.589
 2510SOL    HW2 8430   3.604   4.135   2.451
 2511SOL     OW 8431   2.336   1.016   4.494
 2511SOL    HW1 8432   2.287   1.066   4.422
 2511SOL    HW2 8433   2.271   0.960   4.545
 2512SOL     OW 8434   3.535   4.956   3.821
 2512SOL    HW1 8435   3.537   4.942   3.920
 2512SOL    HW2 8436   3.614   5.010   3.794
 2513SOL     OW 8437   1.860   5.663   6.641
 2513SOL    HW1 8438   1.794   5.714   6.586
 2513SOL    HW2 8439   1.911   5.727   6.699
 2514SOL     OW 8440   1.558   2.089   2.764
 2514SOL    HW1 8441   1.537   2.160   2.832
 2514SOL    HW2 8442   1.490   2.016   2.770
 2515SOL     OW 8443   6.817   1.696   1.026
 2515SOL    HW1 8444   6.726   1.725   1.056
 2515SOL    HW2 8445   6.831   1.724   0.931
 2516SOL     OW 8446   6.570   2.548   4.932
 2516SOL    HW1 8447   6.472   2.531   4.926
 2516SOL    HW2 8448   6.586   2.644   4.958
 2517SOL     OW 8449   0.106   1.352   4.559
 2517SOL    HW1 8450   0.153   1.438   4.580
 2517SOL    HW2 8451   0.074   1.310   4.644
 2518SOL     OW 8452   2.865   4.052   1.397
 2518SOL    HW1 8453   2.806   3.975   1.378
 2518SOL    HW2 8454   2.861   4.074   1.495
 2519SOL     OW 8455   0.798   1.019   0.774
 2519SOL    HW1 8456   0.820   1.073   0.855
 2519SOL    HW2 8457   0.847   1.057   0.695
 2520SOL     OW 8458   2.597   2.756   1.051
 2520SOL    HW1 8459   2.674   2.817   1.074
 2520SOL    HW2 8460   2.538   2.801   0.984
 2521SOL     OW 8461   5.073   0.397   5.490
 2521SOL    HW1 8462   5.064   0.298   5.478
 2521SOL    HW2 8463   5.031   0.424   5.577
 2522SOL     OW 8464   1.605   1.841   0.153
 2522SOL    HW1 8465   1.673   1.795   0.096
 2522SOL    HW2 8466   1.636   1.935   0.172
 2523SOL     OW 8467   0.828   5.515   5.670
 2523SOL    HW1 8468   0.840   5.476   5.578
 2523SOL    HW2 8469   0.816   5.614   5.663
 2524SOL     OW 8470   1.204   2.131   4.838
 2524SOL    HW1 8471   1.143   2.119   4.916
 2524SOL    HW2 8472   1.169   2.204   4.779
 2525SOL     OW 8473   6.443   2.461   6.166
 2525SOL    HW1 8474   6.539   2.467   6.140
 2525SOL    HW2 8475   6.427   2.514   6.249
 2526SOL     OW 8476   1.600   0.706   0.827
 2526SOL    HW1 8477   1.542   0.786   0.810
 2526SOL    HW2 8478   1.696   0.735   0.835
 2527SOL     OW 8479   4.042   5.161   6.847
 2527SOL    HW1 8480   4.058   5.068   6.880
 2527SOL    HW2 8481   4.031   5.159   6.747
 2528SOL     OW 8482   4.584   5.646   6.151
 2528SOL    HW1 8483   4.673   5.622   6.112
 2528SOL    HW2 8484   4.512   5.611   6.091
 2529SOL     OW 8485   0.295   5.914   5.199
 2529SOL    HW1 8486   0.283   5.980   5.274
 2529SOL    HW2 8487   0.210   5.862   5.188
 2530SOL     OW 8488   2.373   6.071   6.967
 2530SOL    HW1 8489   2.323   6.057   0.026
 2530SOL    HW2 8490   2.469   6.045   6.980
 2531SOL     OW 8491   0.314   4.298   6.121
 2531SOL    HW1 8492   0.309   4.288   6.220
 2531SOL    HW2 8493   0.288   4.212   6.077
 2532SOL     OW 8494   5.656   5.642   1.818
 2532SOL    HW1 8495   5.564   5.608   1.837
 2532SOL    HW2 8496   5.721   5.566   1.820
 2533SOL     OW 8497   4.274   0.840   3.833
 2533SOL    HW1 8498   4.341   0.908   3.803
 2533SOL    HW2 8499   4.184   0.864   3.799
 2534SOL     OW 8500   4.610   1.345   2.497
 2534SOL    HW1 8501   4.584   1.409   2.569
 2534SOL    HW2 8502   4.530   1.326   2.439
 2535SOL     OW 8503   3.645   3.286   6.384
 2535SOL    HW1 8504   3.548   3.289   6.410
 2535SOL    HW2 8505   3.654   3.305   6.287
 2536SOL     OW 8506   1.113   0.275   0.933
 2536SOL    HW1 8507   1.122   0.338   0.857
 2536SOL    HW2 8508   1.106   0.326   1.019
 2537SOL     OW 8509   4.019   6.466   4.916
 2537SOL    HW1 8510   3.921   6.456   4.901
 2537SOL    HW2 8511   4.046   6.411   4.995
 2538SOL     OW 8512   5.931   3.842   3.702
 2538SOL    HW1 8513   5.928   3.919   3.639
 2538SOL    HW2 8514   5.988   3.769   3.663
 2539SOL     OW 8515   4.833   2.224   5.306
 2539SOL    HW1 8516   4.769   2.154   5.275
 2539SOL    HW2 8517   4.926   2.187   5.303
 2540SOL     OW 8518   2.983   2.229   1.757
 2540SOL    HW1 8519   2.932   2.143   1.752
 2540SOL    HW2 8520   2.938   2.290   1.822
 2541SOL     OW 8521   3.084   6.820   3.617
 2541SOL    HW1 8522   3.108   6.871   3.535
 2541SOL    HW2 8523   2.992   6.846   3.646
 2542SOL     OW 8524   1.805   5.780   5.652
 2542SOL    HW1 8525   1.745   5.709   5.618
 2542SOL    HW2 8526   1.866   5.811   5.579
 2543SOL     OW 8527   0.494   1.007   3.831
 2543SOL    HW1 8528   0.399   1.004   3.800
 2543SOL    HW2 8529   0.546   1.069   3.773
 2544SOL     OW 8530   0.715   5.191   6.107
 2544SOL    HW1 8531   0.791   5.177   6.170
 2544SOL    HW2 8532   0.677   5.283   6.121
 2545SOL     OW 8533   2.655   5.619   3.293
 2545SOL    HW1 8534   2.561   5.597   3.317
 2545SOL    HW2 8535   2.673   5.590   3.199
 2546SOL     OW 8536   6.980   0.754   1.997
 2546SOL    HW1 8537   6.973   0.737   1.898
 2546SOL    HW2 8538   6.925   0.686   2.046
 2547SOL     OW 8539   0.384   3.705   5.527
 2547SOL    HW1 8540   0.316   3.638   5.500
 2547SOL    HW2 8541   0.400   3.770   5.453
 2548SOL     OW 8542   0.346   0.695   6.178
 2548SOL    HW1 8543   0.377   0.777   6.131
 2548SOL    HW2 8544   0.282   0.721   6.251
 2549SOL     OW 8545   5.772   2.775   2.710
 2549SOL    HW1 8546   5.853   2.820   2.673
 2549SOL    HW2 8547   5.691   2.830   2.688
 2550SOL     OW 8548   5.420   5.156   6.894
 2550SOL    HW1 8549   5.383   5.231   6.840
 2550SOL    HW2 8550   5.427   5.184   6.989
 2551SOL     OW 8551   1.205   5.105   6.697
 2551SOL    HW1 8552   1.222   5.193   6.654
 2551SOL    HW2 8553   1.124   5.063   6.657
 2552SOL     OW 8554   1.661   5.781   3.413
 2552SOL    HW1 8555   1.609   5.781   3.327
 2552SOL    HW2 8556   1.759   5.776   3.393
 2553SOL     OW 8557   4.592   3.442   0.293
 2553SOL    HW1 8558   4.509   3.400   0.256
 2553SOL    HW2 8559   4.640   3.491   0.220
 2554SOL     OW 8560   0.906   1.691   0.629
 2554SOL    HW1 8561   0.956   1.770   0.666
 2554SOL    HW2 8562   0.810   1.717   0.614
 2555SOL     OW 8563   0.214   6.962   6.340
 2555SOL    HW1 8564   0.259   6.916   6.417
 2555SOL    HW2 8565   0.255   0.027   6.328
 2556SOL     OW 8566   3.831   4.848   0.292
 2556SOL    HW1 8567   3.881   4.926   0.330
 2556SOL    HW2 8568   3.828   4.775   0.360
 2557SOL     OW 8569   1.978   4.497   7.013
 2557SOL    HW1 8570   1.952   4.576   6.956
 2557SOL    HW2 8571   1.976   4.524   0.084
 2558SOL     OW 8572   3.993   0.548   5.236
 2558SOL    HW1 8573   4.072   0.489   5.219
 2558SOL    HW2 8574   4.022   0.627   5.291
 2559SOL     OW 8575   0.453   4.953   4.827
 2559SOL    HW1 8576   0.417   5.030   4.878
 2559SOL    HW2 8577   0.553   4.960   4.820
 2560SOL     OW 8578   6.147   0.940   0.804
 2560SOL    HW1 8579   6.193   0.972   0.887
 2560SOL    HW2 8580   6.095   1.015   0.763
 2561SOL     OW 8581   3.205   5.760   4.129
 2561SOL    HW1 8582   3.218   5.811   4.044
 2561SOL    HW2 8583   3.160   5.673   4.109
 2562SOL     OW 8584   2.151   3.513   0.279
 2562SOL    HW1 8585   2.138   3.499   0.377
 2562SOL    HW2 8586   2.183   3.606   0.262
 2563SOL     OW 8587   1.712   0.527   1.938
 2563SOL    HW1 8588   1.757   0.594   1.880
 2563SOL    HW2 8589   1.613   0.537   1.929
 2564SOL     OW 8590   1.464   6.118   2.445
 2564SOL    HW1 8591   1.555   6.134   2.482
 2564SOL    HW2 8592   1.470   6.114   2.345
 2565SOL     OW 8593   0.672   0.556   1.481
 2565SOL    HW1 8594   0.658   0.463   1.449
 2565SOL    HW2 8595   0.648   0.563   1.578
 2566SOL     OW 8596   2.584   6.831   5.263
 2566SOL    HW1 8597   2.497   6.842   5.312
 2566SOL    HW2 8598   2.578   6.752   5.202
 2567SOL     OW 8599   0.924   0.473   0.817
 2567SOL    HW1 8600   0.869   0.552   0.792
 2567SOL    HW2 8601   1.020   0.492   0.798
 2568SOL     OW 8602   5.520   3.870   0.664
 2568SOL    HW1 8603   5.518   3.920   0.750
 2568SOL    HW2 8604   5.438   3.891   0.612
 2569SOL     OW 8605   2.423   0.819   2.415
 2569SOL    HW1 8606   2.471   0.890   2.465
 2569SOL    HW2 8607   2.468   0.805   2.326
 2570SOL     OW 8608   5.469   2.599   6.195
 2570SOL    HW1 8609   5.468   2.608   6.294
 2570SOL    HW2 8610   5.467   2.690   6.153
 2571SOL     OW 8611   1.223   3.721   4.565
 2571SOL    HW1 8612   1.220   3.658   4.643
 2571SOL    HW2 8613   1.305   3.778   4.572
 2572SOL     OW 8614   1.440   4.689   3.652
 2572SOL    HW1 8615   1.468   4.651   3.564
 2572SOL    HW2 8616   1.448   4.619   3.723
 2573SOL     OW 8617   1.819   0.242   6.897
 2573SOL    HW1 8618   1.813   0.306   6.973
 2573SOL    HW2 8619   1.838   0.293   6.813
 2574SOL     OW 8620   6.478   3.657   0.487
 2574SOL    HW1 8621   6.548   3.591   0.462
 2574SOL    HW2 8622   6.521   3.745   0.509
 2575SOL     OW 8623   0.427   6.432   6.234
 2575SOL    HW1 8624   0.485   6.484   6.172
 2575SOL    HW2 8625   0.425   6.336   6.205
 2576SOL     OW 8626   4.628   6.772   5.417
 2576SOL    HW1 8627   4.591   6.806   5.331
 2576SOL    HW2 8628   4.707   6.713   5.399
 2577SOL     OW 8629   1.365   3.503   2.557
 2577SOL    HW1 8630   1.425   3.494   2.636
 2577SOL    HW2 8631   1.377   3.423   2.498
 2578SOL     OW 8632   4.220   1.745   2.008
 2578SOL    HW1 8633   4.256   1.716   2.097
 2578SOL    HW2 8634   4.274   1.702   1.935
 2579SOL     OW 8635   0.260   6.435   2.999
 2579SOL    HW1 8636   0.213   6.438   3.087
 2579SOL    HW2 8637   0.359   6.426   3.014
 2580SOL     OW 8638   3.042   2.145   5.465
 2580SOL    HW1 8639   3.094   2.131   5.380
 2580SOL    HW2 8640   2.949   2.175   5.442
 2581SOL     OW 8641   3.433   0.160   5.810
 2581SOL    HW1 8642   3.349   0.106   5.817
 2581SOL    HW2 8643   3.460   0.192   5.901
 2582SOL     OW 8644   6.999   3.658   0.831
 2582SOL    HW1 8645   7.017   3.603   0.749
 2582SOL    HW2 8646   0.014   3.748   0.821
 2583SOL     OW 8647   5.320   0.509   0.885
 2583SOL    HW1 8648   5.418   0.517   0.907
 2583SOL    HW2 8649   5.310   0.486   0.788
 2584SOL     OW 8650   3.533   4.288   6.435
 2584SOL    HW1 8651   3.506   4.217   6.500
 2584SOL    HW2 8652   3.557   4.372   6.484
 2585SOL     OW 8653   2.432   5.315   0.206
 2585SOL    HW1 8654   2.530   5.333   0.219
 2585SOL    HW2 8655   2.387   5.311   0.295
 2586SOL     OW 8656   2.209   1.279   3.467
 2586SOL    HW1 8657   2.116   1.268   3.502
 2586SOL    HW2 8658   2.242   1.370   3.492
 2587SOL     OW 8659   5.681   1.162   4.657
 2587SOL    HW1 8660   5.756   1.162   4.724
 2587SOL    HW2 8661   5.698   1.092   4.588
 2588SOL     OW 8662   4.342   1.090   6.781
 2588SOL    HW1 8663   4.291   1.073   6.697
 2588SOL    HW2 8664   4.353   1.188   6.794
 2589SOL     OW 8665   2.109   6.154   0.253
 2589SOL    HW1 8666   2.148   6.218   0.319
 2589SOL    HW2 8667   2.021   6.122   0.288
 2590SOL     OW 8668   2.309   5.278   0.449
 2590SOL    HW1 8669   2.216   5.313   0.458
 2590SOL    HW2 8670   2.314   5.185   0.485
 2591SOL     OW 8671   5.110   6.230   3.394
 2591SOL    HW1 8672   5.174   6.183   3.453
 2591SOL    HW2 8673   5.111   6.328   3.415
 2592SOL     OW 8674   3.428   3.543   0.755
 2592SOL    HW1 8675   3.447   3.552   0.853
 2592SOL    HW2 8676   3.362   3.469   0.741
 2593SOL     OW 8677   3.347   4.578   6.762
 2593SOL    HW1 8678   3.362   4.677   6.755
 2593SOL    HW2 8679   3.286   4.559   6.840
 2594SOL     OW 8680   2.214   2.990   3.176
 2594SOL    HW1 8681   2.256   2.932   3.246
 2594SOL    HW2 8682   2.227   2.947   3.086
 2595SOL     OW 8683   1.732   1.302   2.887
 2595SOL    HW1 8684   1.730   1.210   2.848
 2595SOL    HW2 8685   1.657   1.356   2.849
 2596SOL     OW 8686   0.027   1.246   0.619
 2596SOL    HW1 8687   7.012   1.157   0.640
 2596SOL    HW2 8688   0.104   1.263   0.680
 2597SOL     OW 8689   6.356   6.029   0.672
 2597SOL    HW1 8690   6.347   6.075   0.761
 2597SOL    HW2 8691   6.335   5.932   0.682
 2598SOL     OW 8692   4.881   2.855   2.057
 2598SOL    HW1 8693   4.871   2.796   1.976
 2598SOL    HW2 8694   4.851   2.948   2.034
 2599SOL     OW 8695   2.523   5.635   2.827
 2599SOL    HW1 8696   2.590   5.661   2.897
 2599SOL    HW2 8697   2.571   5.598   2.747
 2600SOL     OW 8698   5.654   4.990   4.782
 2600SOL    HW1 8699   5.621   5.056   4.713
 2600SOL    HW2 8700   5.584   4.920   4.795
 2601SOL     OW 8701   6.815   1.219   4.042
 2601SOL    HW1 8702   6.746   1.172   4.097
 2601SOL    HW2 8703   6.773   1.295   3.993
 2602SOL     OW 8704   0.763   4.683   2.799
 2602SOL    HW1 8705   0.849   4.635   2.816
 2602SOL    HW2 8706   0.703   4.674   2.878
 2603SOL     OW 8707   1.605   5.907   2.000
 2603SOL    HW1 8708   1.531   5.863   2.051
 2603SOL    HW2 8709   1.568   5.983   1.947
 2604SOL     OW 8710   5.218   3.204   3.108
 2604SOL    HW1 8711   5.308   3.213   3.065
 2604SOL    HW2 8712   5.148   3.193   3.037
 2605SOL     OW 8713   1.189   2.305   0.930
 2605SOL    HW1 8714   1.232   2.337   0.846
 2605SOL    HW2 8715   1.259   2.288   0.999
 2606SOL     OW 8716   5.239   3.941   0.919
 2606SOL    HW1 8717   5.332   3.971   0.897
 2606SOL    HW2 8718   5.174   3.994   0.865
 2607SOL     OW 8719   2.596   2.726   1.731
 2607SOL    HW1 8720   2.638   2.635   1.728
 2607SOL    HW2 8721   2.517   2.728   1.670
 2608SOL     OW 8722   3.379   4.990   4.662
 2608SOL    HW1 8723   3.300   4.942   4.700
 2608SOL    HW2 8724   3.441   5.016   4.736
 2609SOL     OW 8725   0.189   1.828   1.415
 2609SOL    HW1 8726   0.255   1.762   1.451
 2609SOL    HW2 8727   0.196   1.831   1.315
 2610SOL     OW 8728   1.222   4.470   4.863
 2610SOL    HW1 8729   1.216   4.406   4.786
 2610SOL    HW2 8730   1.160   4.440   4.936
 2611SOL     OW 8731   5.659   1.016   5.691
 2611SOL    HW1 8732   5.578   0.974   5.732
 2611SOL    HW2 8733   5.722   0.945   5.661
 2612SOL     OW 8734   6.894   6.791   0.489
 2612SOL    HW1 8735   6.956   6.836   0.423
 2612SOL    HW2 8736   6.946   6.764   0.570
 2613SOL     OW 8737   1.649   6.677   0.618
 2613SOL    HW1 8738   1.565   6.677   0.673
 2613SOL    HW2 8739   1.696   6.765   0.630
 2614SOL     OW 8740   5.615   2.348   1.101
 2614SOL    HW1 8741   5.600   2.389   1.011
 2614SOL    HW2 8742   5.540   2.284   1.121
 2615SOL     OW 8743   1.108   3.332   6.620
 2615SOL    HW1 8744   1.127   3.393   6.544
 2615SOL    HW2 8745   1.013   3.302   6.616
 2616SOL     OW 8746   1.298   1.137   4.560
 2616SOL    HW1 8747   1.326   1.087   4.477
 2616SOL    HW2 8748   1.380   1.173   4.606
 2617SOL     OW 8749   5.443   0.315   0.357
 2617SOL    HW1 8750   5.497   0.399   0.356
 2617SOL    HW2 8751   5.428   0.286   0.452
 2618SOL     OW 8752   1.351   0.898   0.079
 2618SOL    HW1 8753   1.411   0.820   0.098
 2618SOL    HW2 8754   1.392   0.981   0.117
 2619SOL     OW 8755   4.754   1.172   2.686
 2619SOL    HW1 8756   4.699   1.219   2.617
 2619SOL    HW2 8757   4.694   1.120   2.746
 2620SOL     OW 8758   5.759   2.214   2.186
 2620SOL    HW1 8759   5.789   2.162   2.106
 2620SOL    HW2 8760   5.776   2.161   2.269
 2621SOL     OW 8761   2.638   6.685   1.465
 2621SOL    HW1 8762   2.628   6.784   1.457
 2621SOL    HW2 8763   2.721   6.656   1.418
 2622SOL     OW 8764   2.499   3.968   6.732
 2622SOL    HW1 8765   2.519   4.019   6.648
 2622SOL    HW2 8766   2.531   3.874   6.723
 2623SOL     OW 8767   6.918   1.622   3.630
 2623SOL    HW1 8768   6.996   1.684   3.646
 2623SOL    HW2 8769   6.922   1.547   3.695
 2624SOL     OW 8770   1.446   1.981   5.611
 2624SOL    HW1 8771   1.532   2.006   5.567
 2624SOL    HW2 8772   1.407   2.061   5.656
 2625SOL     OW 8773   3.132   5.254   6.052
 2625SOL    HW1 8774   3.136   5.246   6.152
 2625SOL    HW2 8775   3.067   5.325   6.027
 2626SOL     OW 8776   0.057   6.958   0.334
 2626SOL    HW1 8777   0.149   6.955   0.373
 2626SOL    HW2 8778   0.064   6.969   0.235
 2627SOL     OW 8779   2.223   0.276   5.663
 2627SOL    HW1 8780   2.285   0.326   5.603
 2627SOL    HW2 8781   2.146   0.241   5.610
 2628SOL     OW 8782   6.966   5.406   1.533
 2628SOL    HW1 8783   0.031   5.390   1.572
 2628SOL    HW2 8784   6.975   5.444   1.441
 2629SOL     OW 8785   3.202   3.663   2.887
 2629SOL    HW1 8786   3.285   3.619   2.920
 2629SOL    HW2 8787   3.159   3.605   2.818
 2630SOL     OW 8788   3.430   0.925   4.726
 2630SOL    HW1 8789   3.331   0.926   4.710
 2630SOL    HW2 8790   3.471   1.007   4.687
 2631SOL     OW 8791   4.503   5.998   0.768
 2631SOL    HW1 8792   4.417   6.036   0.804
 2631SOL    HW2 8793   4.485   5.909   0.726
 2632SOL     OW 8794   4.437   4.911   2.066
 2632SOL    HW1 8795   4.489   4.830   2.094
 2632SOL    HW2 8796   4.366   4.931   2.134
 2633SOL     OW 8797   0.118   2.882   5.697
 2633SOL    HW1 8798   0.080   2.960   5.746
 2633SOL    HW2 8799   0.110   2.898   5.598
 2634SOL     OW 8800   1.999   2.129   6.262
 2634SOL    HW1 8801   2.015   2.228   6.251
 2634SOL    HW2 8802   1.998   2.107   6.360
 2635SOL     OW 8803   3.860   5.207   3.242
 2635SOL    HW1 8804   3.903   5.136   3.298
 2635SOL    HW2 8805   3.926   5.280   3.225
 2636SOL     OW 8806   2.913   6.515   6.398
 2636SOL    HW1 8807   3.005   6.550   6.414
 2636SOL    HW2 8808   2.917   6.416   6.384
 2637SOL     OW 8809   0.442   1.963   2.912
 2637SOL    HW1 8810   0.401   1.887   2.962
 2637SOL    HW2 8811   0.371   2.028   2.885
 2638SOL     OW 8812   0.775   6.268   4.845
 2638SOL    HW1 8813   0.787   6.231   4.937
 2638SOL    HW2 8814   0.863   6.266   4.797
 2639SOL     OW 8815   4.954   5.497   5.064
 2639SOL    HW1 8816   4.892   5.433   5.020
 2639SOL    HW2 8817   5.039   5.502   5.012
 2640SOL     OW 8818   2.192   1.075   3.280
 2640SOL    HW1 8819   2.212   1.101   3.186
 2640SOL    HW2 8820   2.186   1.157   3.337
 2641SOL     OW 8821   5.303   2.191   0.392
 2641SOL    HW1 8822   5.313   2.162   0.487
 2641SOL    HW2 8823   5.392   2.219   0.356
 2642SOL     OW 8824   0.353   0.260   2.611
 2642SOL    HW1 8825   0.413   0.317   2.666
 2642SOL    HW2 8826   0.266   0.308   2.597
 2643SOL     OW 8827   1.958   4.363   4.297
 2643SOL    HW1 8828   1.997   4.404   4.215
 2643SOL    HW2 8829   1.943   4.266   4.282
 2644SOL     OW 8830   5.609   5.307   3.569
 2644SOL    HW1 8831   5.680   5.377   3.575
 2644SOL    HW2 8832   5.537   5.338   3.507
 2645SOL     OW 8833   4.548   5.756   2.663
 2645SOL    HW1 8834   4.645   5.779   2.669
 2645SOL    HW2 8835   4.493   5.839   2.669
 2646SOL     OW 8836   1.113   1.983   6.286
 2646SOL    HW1 8837   1.119   2.018   6.379
 2646SOL    HW2 8838   1.109   2.059   6.221
 2647SOL     OW 8839   4.422   0.240   2.853
 2647SOL    HW1 8840   4.503   0.227   2.910
 2647SOL    HW2 8841   4.354   0.171   2.876
 2648SOL     OW 8842   1.728   0.592   5.635
 2648SOL    HW1 8843   1.719   0.667   5.701
 2648SOL    HW2 8844   1.824   0.566   5.627
 2649SOL     OW 8845   5.829   1.852   3.692
 2649SOL    HW1 8846   5.826   1.917   3.617
 2649SOL    HW2 8847   5.888   1.887   3.764
 2650SOL     OW 8848   2.151   6.709   4.615
 2650SOL    HW1 8849   2.127   6.612   4.604
 2650SOL    HW2 8850   2.229   6.717   4.676
 2651SOL     OW 8851   3.476   1.406   3.342
 2651SOL    HW1 8852   3.565   1.449   3.358
 2651SOL    HW2 8853   3.467   1.385   3.245
 2652SOL     OW 8854   4.547   3.703   5.580
 2652SOL    HW1 8855   4.507   3.679   5.668
 2652SOL    HW2 8856   4.517   3.636   5.511
 2653SOL     OW 8857   2.113   6.398   0.006
 2653SOL    HW1 8858   2.150   6.314   0.045
 2653SOL    HW2 8859   2.088   6.382   6.936
 2654SOL     OW 8860   6.661   0.514   1.083
 2654SOL    HW1 8861   6.583   0.549   1.031
 2654SOL    HW2 8862   6.746   0.536   1.035
 2655SOL     OW 8863   5.046   6.838   3.436
 2655SOL    HW1 8864   5.083   6.881   3.518
 2655SOL    HW2 8865   4.995   6.757   3.461
 2656SOL     OW 8866   4.571   0.057   4.758
 2656SOL    HW1 8867   4.569   0.009   4.846
 2656SOL    HW2 8868   4.479   0.093   4.738
 2657SOL     OW 8869   1.762   3.363   6.456
 2657SOL    HW1 8870   1.736   3.322   6.368
 2657SOL    HW2 8871   1.742   3.461   6.454
 2658SOL     OW 8872   3.642   4.486   0.380
 2658SOL    HW1 8873   3.623   4.388   0.383
 2658SOL    HW2 8874   3.556   4.537   0.367
 2659SOL     OW 8875   0.511   2.196   5.339
 2659SOL    HW1 8876   0.457   2.141   5.276
 2659SOL    HW2 8877   0.471   2.191   5.431
 2660SOL     OW 8878   0.892   1.354   0.428
 2660SOL    HW1 8879   0.840   1.402   0.357
 2660SOL    HW2 8880   0.984   1.391   0.432
 2661SOL     OW 8881   2.206   0.815   0.711
 2661SOL    HW1 8882   2.144   0.759   0.656
 2661SOL    HW2 8883   2.241   0.890   0.656
 2662SOL     OW 8884   2.609   1.906   1.625
 2662SOL    HW1 8885   2.546   1.865   1.691
 2662SOL    HW2 8886   2.700   1.915   1.667
 2663SOL     OW 8887   3.844   0.640   0.805
 2663SOL    HW1 8888   3.894   0.554   0.804
 2663SOL    HW2 8889   3.760   0.631   0.751
 2664SOL     OW 8890   5.003   3.571   5.732
 2664SOL    HW1 8891   5.097   3.595   5.706
 2664SOL    HW2 8892   4.982   3.610   5.821
 2665SOL     OW 8893   1.272   3.057   4.654
 2665SOL    HW1 8894   1.174   3.072   4.646
 2665SOL    HW2 8895   1.316   3.076   4.566
 2666SOL     OW 8896   1.861   3.761   1.897
 2666SOL    HW1 8897   1.818   3.782   1.985
 2666SOL    HW2 8898   1.960   3.766   1.906
 2667SOL     OW 8899   6.029   2.394   4.511
 2667SOL    HW1 8900   6.041   2.482   4.465
 2667SOL    HW2 8901   6.037   2.406   4.610
 2668SOL     OW 8902   5.581   0.668   4.666
 2668SOL    HW1 8903   5.513   0.629   4.729
 2668SOL    HW2 8904   5.534   0.708   4.587
 2669SOL     OW 8905   2.444   1.266   2.033
 2669SOL    HW1 8906   2.391   1.277   1.949
 2669SOL    HW2 8907   2.425   1.342   2.095
 2670SOL     OW 8908   0.566   0.282   1.441
 2670SOL    HW1 8909   0.554   0.252   1.536
 2670SOL    HW2 8910   0.634   0.225   1.397
 2671SOL     OW 8911   5.771   4.397   6.278
 2671SOL    HW1 8912   5.761   4.298   6.267
 2671SOL    HW2 8913   5.814   4.435   6.197
 2672SOL     OW 8914   2.244   1.797   2.375
 2672SOL    HW1 8915   2.232   1.736   2.296
 2672SOL    HW2 8916   2.161   1.851   2.388
 2673SOL     OW 8917   3.442   0.226   3.057
 2673SOL    HW1 8918   3.516   0.236   3.123
 2673SOL    HW2 8919   3.480   0.222   2.965
 2674SOL     OW 8920   5.929   5.833   3.593
 2674SOL    HW1 8921   5.952   5.787   3.508
 2674SOL    HW2 8922   5.864   5.908   3.574
 2675SOL     OW 8923   4.628   1.252   3.865
 2675SOL    HW1 8924   4.571   1.173   3.841
 2675SOL    HW2 8925   4.620   1.269   3.964
 2676SOL     OW 8926   4.032   3.460   5.286
 2676SOL    HW1 8927   4.089   3.541   5.301
 2676SOL    HW2 8928   4.087   3.388   5.243
 2677SOL     OW 8929   1.721   5.861   0.943
 2677SOL    HW1 8930   1.654   5.918   0.991
 2677SOL    HW2 8931   1.703   5.764   0.962
 2678SOL     OW 8932   3.584   1.986   1.870
 2678SOL    HW1 8933   3.607   2.061   1.932
 2678SOL    HW2 8934   3.668   1.946   1.833
 2679SOL     OW 8935   2.099   3.267   2.304
 2679SOL    HW1 8936   2.060   3.184   2.344
 2679SOL    HW2 8937   2.106   3.256   2.205
 2680SOL     OW 8938   5.767   2.643   6.478
 2680SOL    HW1 8939   5.770   2.717   6.545
 2680SOL    HW2 8940   5.794   2.677   6.388
 2681SOL     OW 8941   2.562   2.545   3.437
 2681SOL    HW1 8942   2.585   2.561   3.533
 2681SOL    HW2 8943   2.635   2.492   3.394
 2682SOL     OW 8944   3.714   3.982   2.662
 2682SOL    HW1 8945   3.735   4.007   2.756
 2682SOL    HW2 8946   3.616   3.995   2.645
 2683SOL     OW 8947   1.839   3.142   1.282
 2683SOL    HW1 8948   1.787   3.228   1.287
 2683SOL    HW2 8949   1.785   3.074   1.232
 2684SOL     OW 8950   5.209   0.541   3.793
 2684SOL    HW1 8951   5.129   0.506   3.745
 2684SOL    HW2 8952   5.230   0.633   3.760
 2685SOL     OW 8953   1.921   6.600   5.749
 2685SOL    HW1 8954   1.831   6.575   5.787
 2685SOL    HW2 8955   1.916   6.693   5.711
 2686SOL     OW 8956   1.788   2.276   5.956
 2686SOL    HW1 8957   1.739   2.190   5.942
 2686SOL    HW2 8958   1.853   2.266   6.031
 2687SOL     OW 8959   3.778   2.485   1.691
 2687SOL    HW1 8960   3.710   2.556   1.675
 2687SOL    HW2 8961   3.741   2.417   1.755
 2688SOL     OW 8962   4.081   2.398   0.206
 2688SOL    HW1 8963   4.153   2.343   0.163
 2688SOL    HW2 8964   3.997   2.389   0.152
 2689SOL     OW 8965   6.769   4.100   2.322
 2689SOL    HW1 8966   6.822   4.166   2.376
 2689SOL    HW2 8967   6.689   4.071   2.374
 2690SOL     OW 8968   5.295   1.009   4.485
 2690SOL    HW1 8969   5.199   0.998   4.513
 2690SOL    HW2 8970   5.299   1.065   4.403
 2691SOL     OW 8971   6.005   3.749   4.095
 2691SOL    HW1 8972   5.905   3.755   4.092
 2691SOL    HW2 8973   6.037   3.694   4.018
 2692SOL     OW 8974   1.663   5.126   1.519
 2692SOL    HW1 8975   1.730   5.097   1.587
 2692SOL    HW2 8976   1.577   5.078   1.536
 2693SOL     OW 8977   0.533   5.931   2.555
 2693SOL    HW1 8978   0.611   5.954   2.614
 2693SOL    HW2 8979   0.497   5.842   2.581
 2694SOL     OW 8980   2.323   0.426   2.694
 2694SOL    HW1 8981   2.391   0.460   2.758
 2694SOL    HW2 8982   2.365   0.358   2.633
 2695SOL     OW 8983   6.573   5.800   3.479
 2695SOL    HW1 8984   6.577   5.898   3.460
 2695SOL    HW2 8985   6.662   5.758   3.461
 2696SOL     OW 8986   3.773   4.466   6.298
 2696SOL    HW1 8987   3.838   4.409   6.349
 2696SOL    HW2 8988   3.718   4.519   6.362
 2697SOL     OW 8989   4.094   2.155   0.348
 2697SOL    HW1 8990   4.013   2.101   0.327
 2697SOL    HW2 8991   4.080   2.249   0.319
 2698SOL     OW 8992   1.620   5.774   6.867
 2698SOL    HW1 8993   1.668   5.810   6.787
 2698SOL    HW2 8994   1.648   5.824   6.949
 2699SOL     OW 8995   2.816   6.599   2.361
 2699SOL    HW1 8996   2.742   6.608   2.294
 2699SOL    HW2 8997   2.799   6.518   2.417
 2700SOL     OW 8998   4.480   2.076   1.879
 2700SOL    HW1 8999   4.560   2.025   1.848
 2700SOL    HW2 9000   4.446   2.036   1.964
 2701SOL     OW 9001   5.393   3.723   5.460
 2701SOL    HW1 9002   5.337   3.678   5.529
 2701SOL    HW2 9003   5.448   3.655   5.412
 2702SOL     OW 9004   1.849   1.856   4.834
 2702SOL    HW1 9005   1.837   1.898   4.924
 2702SOL    HW2 9006   1.874   1.926   4.767
 2703SOL     OW 9007   2.363   6.201   1.712
 2703SOL    HW1 9008   2.362   6.144   1.630
 2703SOL    HW2 9009   2.324   6.291   1.691
 2704SOL     OW 9010   4.397   1.103   3.451
 2704SOL    HW1 9011   4.391   1.022   3.393
 2704SOL    HW2 9012   4.493   1.131   3.460
 2705SOL     OW 9013   0.986   6.841   5.564
 2705SOL    HW1 9014   1.079   6.806   5.571
 2705SOL    HW2 9015   0.978   6.899   5.483
 2706SOL     OW 9016   0.190   4.504   4.390
 2706SOL    HW1 9017   0.205   4.586   4.445
 2706SOL    HW2 9018   0.214   4.522   4.294
 2707SOL     OW 9019   4.410   1.147   3.096
 2707SOL    HW1 9020   4.436   1.200   3.177
 2707SOL    HW2 9021   4.344   1.077   3.123
 2708SOL     OW 9022   5.856   3.283   5.509
 2708SOL    HW1 9023   5.916   3.260   5.586
 2708SOL    HW2 9024   5.794   3.356   5.536
 2709SOL     OW 9025   5.412   0.889   5.840
 2709SOL    HW1 9026   5.450   0.969   5.886
 2709SOL    HW2 9027   5.319   0.909   5.809
 2710SOL     OW 9028   0.918   2.734   4.153
 2710SOL    HW1 9029   0.947   2.821   4.112
 2710SOL    HW2 9030   0.856   2.687   4.090
 2711SOL     OW 9031   5.018   1.043   1.978
 2711SOL    HW1 9032   5.019   1.035   2.077
 2711SOL    HW2 9033   4.953   0.978   1.940
 2712SOL     OW 9034   4.783   6.393   1.954
 2712SOL    HW1 9035   4.780   6.438   2.043
 2712SOL    HW2 9036   4.794   6.463   1.882
 2713SOL     OW 9037   3.686   4.944   5.454
 2713SOL    HW1 9038   3.652   4.896   5.373
 2713SOL    HW2 9039   3.766   4.999   5.429
 2714SOL     OW 9040   2.819   4.435   6.149
 2714SOL    HW1 9041   2.749   4.506   6.147
 2714SOL    HW2 9042   2.780   4.351   6.186
 2715SOL     OW 9043   4.514   6.674   0.346
 2715SOL    HW1 9044   4.541   6.686   0.441
 2715SOL    HW2 9045   4.581   6.616   0.299
 2716SOL     OW 9046   4.940   1.090   2.251
 2716SOL    HW1 9047   5.000   1.063   2.328
 2716SOL    HW2 9048   4.853   1.041   2.259
 2717SOL     OW 9049   0.802   2.134   2.299
 2717SOL    HW1 9050   0.838   2.190   2.374
 2717SOL    HW2 9051   0.736   2.069   2.336
 2718SOL     OW 9052   6.664   1.253   5.978
 2718SOL    HW1 9053   6.619   1.225   5.893
 2718SOL    HW2 9054   6.599   1.304   6.034
 2719SOL     OW 9055   1.018   4.683   3.801
 2719SOL    HW1 9056   0.970   4.752   3.747
 2719SOL    HW2 9057   1.116   4.699   3.796
 2720SOL     OW 9058   1.825   5.099   6.539
 2720SOL    HW1 9059   1.733   5.096   6.500
 2720SOL    HW2 9060   1.854   5.195   6.546
 2721SOL     OW 9061   2.403   5.821   3.855
 2721SOL    HW1 9062   2.401   5.725   3.828
 2721SOL    HW2 9063   2.309   5.855   3.862
 2722SOL     OW 9064   3.288   3.853   6.749
 2722SOL    HW1 9065   3.310   3.937   6.800
 2722SOL    HW2 9066   3.255   3.783   6.813
 2723SOL     OW 9067   4.080   5.479   0.441
 2723SOL    HW1 9068   3.984   5.450   0.446
 2723SOL    HW2 9069   4.127   5.427   0.370
 2724SOL     OW 9070   6.645   6.029   0.934
 2724SOL    HW1 9071   6.555   6.070   0.918
 2724SOL    HW2 9072   6.699   6.089   0.991
 2725SOL     OW 9073   6.202   4.854   2.787
 2725SOL    HW1 9074   6.159   4.820   2.871
 2725SOL    HW2 9075   6.148   4.826   2.708
 2726SOL     OW 9076   6.535   2.624   2.859
 2726SOL    HW1 9077   6.487   2.700   2.815
 2726SOL    HW2 9078   6.483   2.592   2.938
 2727SOL     OW 9079   1.451   4.881   4.070
 2727SOL    HW1 9080   1.359   4.899   4.105
 2727SOL    HW2 9081   1.514   4.869   4.147
 2728SOL     OW 9082   5.086   5.084   6.062
 2728SOL    HW1 9083   5.041   5.132   5.986
 2728SOL    HW2 9084   5.131   5.002   6.027
 2729SOL     OW 9085   0.155   0.348   0.333
 2729SOL    HW1 9086   0.060   0.334   0.362
 2729SOL    HW2 9087   0.189   0.433   0.374
 2730SOL     OW 9088   1.485   5.350   2.754
 2730SOL    HW1 9089   1.454   5.431   2.805
 2730SOL    HW2 9090   1.519   5.379   2.664
 2731SOL     OW 9091   4.202   3.651   5.355
 2731SOL    HW1 9092   4.287   3.695   5.325
 2731SOL    HW2 9093   4.156   3.709   5.421
 2732SOL     OW 9094   4.458   0.636   2.476
 2732SOL    HW1 9095   4.445   0.546   2.520
 2732SOL    HW2 9096   4.554   0.661   2.479
 2733SOL     OW 9097   0.836   0.222   0.696
 2733SOL    HW1 9098   0.871   0.299   0.749
 2733SOL    HW2 9099   0.909   0.153   0.686
 2734SOL     OW 9100   3.080   0.427   1.955
 2734SOL    HW1 9101   3.048   0.463   1.867
 2734SOL    HW2 9102   3.038   0.338   1.972
 2735SOL     OW 9103   1.013   2.441   2.624
 2735SOL    HW1 9104   0.927   2.492   2.627
 2735SOL    HW2 9105   1.088   2.502   2.649
 2736SOL     OW 9106   5.738   4.623   2.772
 2736SOL    HW1 9107   5.793   4.552   2.815
 2736SOL    HW2 9108   5.641   4.604   2.786
 2737SOL     OW 9109   2.582   0.233   6.355
 2737SOL    HW1 9110   2.674   0.272   6.349
 2737SOL    HW2 9111   2.561   0.184   6.271
 2738SOL     OW 9112   5.348   6.399   1.285
 2738SOL    HW1 9113   5.353   6.309   1.241
 2738SOL    HW2 9114   5.254   6.434   1.278
 2739SOL     OW 9115   0.564   5.402   1.436
 2739SOL    HW1 9116   0.650   5.352   1.424
 2739SOL    HW2 9117   0.575   5.495   1.401
 2740SOL     OW 9118   6.348   5.806   5.070
 2740SOL    HW1 9119   6.403   5.731   5.035
 2740SOL    HW2 9120   6.400   5.856   5.139
 2741SOL     OW 9121   0.625   0.080   6.808
 2741SOL    HW1 9122   0.532   0.115   6.820
 2741SOL    HW2 9123   0.660   0.108   6.718
 2742SOL     OW 9124   2.505   4.993   2.227
 2742SOL    HW1 9125   2.458   5.001   2.140
 2742SOL    HW2 9126   2.600   5.025   2.217
 2743SOL     OW 9127   5.905   1.963   2.657
 2743SOL    HW1 9128   5.935   1.926   2.745
 2743SOL    HW2 9129   5.862   1.891   2.603
 2744SOL     OW 9130   3.084   3.867   2.580
 2744SOL    HW1 9131   3.046   3.776   2.564
 2744SOL    HW2 9132   3.075   3.922   2.497
 2745SOL     OW 9133   0.485   6.248   6.974
 2745SOL    HW1 9134   0.485   6.323   6.909
 2745SOL    HW2 9135   0.568   6.194   6.963
 2746SOL     OW 9136   1.471   0.675   4.799
 2746SOL    HW1 9137   1.548   0.725   4.840
 2746SOL    HW2 9138   1.505   0.618   4.724
 2747SOL     OW 9139   4.728   4.777   0.054
 2747SOL    HW1 9140   4.825   4.758   0.039
 2747SOL    HW2 9141   4.676   4.693   0.040
 2748SOL     OW 9142   4.172   0.120   0.661
 2748SOL    HW1 9143   4.154   0.044   0.599
 2748SOL    HW2 9144   4.262   0.107   0.703
 2749SOL     OW 9145   3.553   0.707   0.255
 2749SOL    HW1 9146   3.632   0.723   0.313
 2749SOL    HW2 9147   3.568   0.624   0.200
 2750SOL     OW 9148   2.117   6.228   2.153
 2750SOL    HW1 9149   2.180   6.297   2.190
 2750SOL    HW2 9150   2.159   6.181   2.076
 2751SOL     OW 9151   6.342   5.087   1.380
 2751SOL    HW1 9152   6.243   5.086   1.397
 2751SOL    HW2 9153   6.391   5.091   1.467
 2752SOL     OW 9154   4.459   5.168   6.288
 2752SOL    HW1 9155   4.544   5.155   6.339
 2752SOL    HW2 9156   4.395   5.095   6.312
 2753SOL     OW 9157   4.864   4.860   6.098
 2753SOL    HW1 9158   4.899   4.893   6.186
 2753SOL    HW2 9159   4.786   4.800   6.114
 2754SOL     OW 9160   1.214   0.662   4.872
 2754SOL    HW1 9161   1.310   0.669   4.845
 2754SOL    HW2 9162   1.159   0.638   4.792
 2755SOL     OW 9163   3.433   0.186   2.490
 2755SOL    HW1 9164   3.511   0.139   2.448
 2755SOL    HW2 9165   3.355   0.123   2.494
 2756SOL     OW 9166   4.810   5.365   6.382
 2756SOL    HW1 9167   4.767   5.454   6.392
 2756SOL    HW2 9168   4.866   5.345   6.462
 2757SOL     OW 9169   0.875   4.888   0.417
 2757SOL    HW1 9170   0.790   4.886   0.364
 2757SOL    HW2 9171   0.862   4.838   0.502
 2758SOL     OW 9172   4.858   0.149   5.893
 2758SOL    HW1 9173   4.878   0.247   5.895
 2758SOL    HW2 9174   4.763   0.134   5.923
 2759SOL     OW 9175   4.628   4.844   3.990
 2759SOL    HW1 9176   4.659   4.840   3.895
 2759SOL    HW2 9177   4.655   4.932   4.030
 2760SOL     OW 9178   0.897   6.246   3.430
 2760SOL    HW1 9179   0.878   6.294   3.516
 2760SOL    HW2 9180   0.982   6.194   3.439
 2761SOL     OW 9181   2.297   5.136   4.947
 2761SOL    HW1 9182   2.364   5.104   4.881
 2761SOL    HW2 9183   2.344   5.166   5.030
 2762SOL     OW 9184   1.645   2.044   5.907
 2762SOL    HW1 9185   1.559   2.095   5.906
 2762SOL    HW2 9186   1.634   1.959   5.854
 2763SOL     OW 9187   5.212   6.798   1.913
 2763SOL    HW1 9188   5.160   6.878   1.942
 2763SOL    HW2 9189   5.171   6.715   1.951
 2764SOL     OW 9190   6.202   0.737   1.761
 2764SOL    HW1 9191   6.204   0.739   1.861
 2764SOL    HW2 9192   6.294   0.746   1.725
 2765SOL     OW 9193   5.493   1.972   3.533
 2765SOL    HW1 9194   5.491   2.063   3.491
 2765SOL    HW2 9195   5.442   1.908   3.476
 2766SOL     OW 9196   5.602   6.760   2.483
 2766SOL    HW1 9197   5.524   6.813   2.450
 2766SOL    HW2 9198   5.687   6.807   2.460
 2767SOL     OW 9199   6.568   4.183   5.270
 2767SOL    HW1 9200   6.472   4.167   5.296
 2767SOL    HW2 9201   6.578   4.171   5.171
 2768SOL     OW 9202   5.689   0.815   6.524
 2768SOL    HW1 9203   5.702   0.883   6.596
 2768SOL    HW2 9204   5.592   0.793   6.517
 2769SOL     OW 9205   1.048   4.110   1.069
 2769SOL    HW1 9206   1.092   4.092   1.156
 2769SOL    HW2 9207   1.108   4.164   1.010
 2770SOL     OW 9208   4.945   6.137   2.535
 2770SOL    HW1 9209   5.004   6.215   2.513
 2770SOL    HW2 9210   4.869   6.134   2.470
 2771SOL     OW 9211   4.841   0.309   1.597
 2771SOL    HW1 9212   4.913   0.344   1.656
 2771SOL    HW2 9213   4.759   0.366   1.608
 2772SOL     OW 9214   3.310   1.085   6.900
 2772SOL    HW1 9215   3.353   1.026   6.969
 2772SOL    HW2 9216   3.381   1.133   6.848
 2773SOL     OW 9217   3.108   4.428   1.438
 2773SOL    HW1 9218   3.072   4.369   1.510
 2773SOL    HW2 9219   3.046   4.505   1.423
 2774SOL     OW 9220   5.010   3.178   1.932
 2774SOL    HW1 9221   4.991   3.264   1.883
 2774SOL    HW2 9222   4.924   3.142   1.970
 2775SOL     OW 9223   0.100   0.006   2.565
 2775SOL    HW1 9224   0.122   0.102   2.547
 2775SOL    HW2 9225   0.185   6.981   2.584
 2776SOL     OW 9226   2.941   6.068   0.287
 2776SOL    HW1 9227   3.037   6.044   0.280
 2776SOL    HW2 9228   2.889   5.991   0.324
 2777SOL     OW 9229   1.497   2.393   4.233
 2777SOL    HW1 9230   1.528   2.426   4.322
 2777SOL    HW2 9231   1.461   2.470   4.180
 2778SOL     OW 9232   3.216   2.116   5.252
 2778SOL    HW1 9233   3.173   2.172   5.180
 2778SOL    HW2 9234   3.302   2.079   5.218
 2779SOL     OW 9235   6.331   0.779   0.657
 2779SOL    HW1 9236   6.267   0.836   0.709
 2779SOL    HW2 9237   6.331   0.687   0.696
 2780SOL     OW 9238   3.346   5.840   6.597
 2780SOL    HW1 9239   3.325   5.862   6.692
 2780SOL    HW2 9240   3.435   5.880   6.573
 2781SOL     OW 9241   5.233   3.960   6.390
 2781SOL    HW1 9242   5.312   3.905   6.364
 2781SOL    HW2 9243   5.260   4.055   6.402
 2782SOL     OW 9244   3.592   0.941   5.261
 2782SOL    HW1 9245   3.559   0.847   5.257
 2782SOL    HW2 9246   3.551   0.994   5.187
 2783SOL     OW 9247   0.418   3.910   5.357
 2783SOL    HW1 9248   0.348   3.951   5.298
 2783SOL    HW2 9249   0.467   3.982   5.405
 2784SOL     OW 9250   2.487   1.773   1.815
 2784SOL    HW1 9251   2.492   1.823   1.901
 2784SOL    HW2 9252   2.514   1.678   1.830
 2785SOL     OW 9253   6.246   2.169   2.362
 2785SOL    HW1 9254   6.195   2.146   2.279
 2785SOL    HW2 9255   6.210   2.118   2.440
 2786SOL     OW 9256   3.775   0.279   1.248
 2786SOL    HW1 9257   3.748   0.345   1.318
 2786SOL    HW2 9258   3.693   0.236   1.210
 2787SOL     OW 9259   1.792   4.107   5.922
 2787SOL    HW1 9260   1.854   4.136   5.850
 2787SOL    HW2 9261   1.788   4.176   5.994
 2788SOL     OW 9262   1.363   3.170   0.370
 2788SOL    HW1 9263   1.268   3.193   0.348
 2788SOL    HW2 9264   1.402   3.117   0.295
 2789SOL     OW 9265   0.441   3.470   3.706
 2789SOL    HW1 9266   0.433   3.400   3.635
 2789SOL    HW2 9267   0.454   3.426   3.795
 2790SOL     OW 9268   3.953   6.608   4.383
 2790SOL    HW1 9269   3.923   6.583   4.475
 2790SOL    HW2 9270   4.053   6.598   4.377
 2791SOL     OW 9271   1.509   3.303   2.399
 2791SOL    HW1 9272   1.502   3.227   2.464
 2791SOL    HW2 9273   1.605   3.313   2.370
 2792SOL     OW 9274   0.705   1.824   5.857
 2792SOL    HW1 9275   0.667   1.908   5.817
 2792SOL    HW2 9276   0.715   1.836   5.955
 2793SOL     OW 9277   4.685   0.799   4.151
 2793SOL    HW1 9278   4.702   0.744   4.233
 2793SOL    HW2 9279   4.631   0.745   4.086
 2794SOL     OW 9280   0.607   1.282   2.062
 2794SOL    HW1 9281   0.577   1.370   2.100
 2794SOL    HW2 9282   0.703   1.288   2.034
 2795SOL     OW 9283   0.670   3.847   0.714
 2795SOL    HW1 9284   0.736   3.888   0.778
 2795SOL    HW2 9285   0.582   3.836   0.760
 2796SOL     OW 9286   4.287   4.708   2.193
 2796SOL    HW1 9287   4.318   4.660   2.111
 2796SOL    HW2 9288   4.193   4.740   2.179
 2797SOL     OW 9289   4.951   4.143   5.465
 2797SOL    HW1 9290   4.895   4.127   5.546
 2797SOL    HW2 9291   4.899   4.117   5.383
 2798SOL     OW 9292   1.936   3.630   2.971
 2798SOL    HW1 9293   1.896   3.690   2.902
 2798SOL    HW2 9294   2.028   3.604   2.944
 2799SOL     OW 9295   6.860   5.893   5.785
 2799SOL    HW1 9296   6.852   5.847   5.873
 2799SOL    HW2 9297   6.929   5.966   5.791
 2800SOL     OW 9298   2.620   0.716   6.004
 2800SOL    HW1 9299   2.671   0.656   6.066
 2800SOL    HW2 9300   2.529   0.734   6.043
 2801SOL     OW 9301   3.940   5.148   2.163
 2801SOL    HW1 9302   3.926   5.225   2.100
 2801SOL    HW2 9303   3.918   5.063   2.115
 2802SOL     OW 9304   6.648   0.441   6.249
 2802SOL    HW1 9305   6.597   0.521   6.279
 2802SOL    HW2 9306   6.700   0.463   6.166
 2803SOL     OW 9307   2.905   5.844   4.967
 2803SOL    HW1 9308   2.940   5.774   5.029
 2803SOL    HW2 9309   2.845   5.801   4.899
 2804SOL     OW 9310   0.453   5.290   2.642
 2804SOL    HW1 9311   0.470   5.307   2.545
 2804SOL    HW2 9312   0.367   5.241   2.652
 2805SOL     OW 9313   6.597   4.172   6.429
 2805SOL    HW1 9314   6.683   4.206   6.466
 2805SOL    HW2 9315   6.594   4.072   6.437
 2806SOL     OW 9316   6.400   5.330   2.803
 2806SOL    HW1 9317   6.313   5.376   2.819
 2806SOL    HW2 9318   6.395   5.236   2.838
 2807SOL     OW 9319   3.800   5.022   3.668
 2807SOL    HW1 9320   3.819   4.952   3.599
 2807SOL    HW2 9321   3.816   5.113   3.630
 2808SOL     OW 9322   4.700   6.490   4.560
 2808SOL    HW1 9323   4.758   6.440   4.496
 2808SOL    HW2 9324   4.701   6.587   4.536
 2809SOL     OW 9325   5.397   2.545   0.210
 2809SOL    HW1 9326   5.324   2.534   0.277
 2809SOL    HW2 9327   5.466   2.473   0.224
 2810SOL     OW 9328   2.190   1.075   6.420
 2810SOL    HW1 9329   2.290   1.079   6.414
 2810SOL    HW2 9330   2.159   1.133   6.495
 2811SOL     OW 9331   0.398   0.388   3.774
 2811SOL    HW1 9332   0.396   0.488   3.781
 2811SOL    HW2 9333   0.435   0.350   3.859
 2812SOL     OW 9334   4.782   4.582   2.813
 2812SOL    HW1 9335   4.692   4.596   2.772
 2812SOL    HW2 9336   4.794   4.485   2.833
 2813SOL     OW 9337   6.303   1.634   6.059
 2813SOL    HW1 9338   6.265   1.616   6.150
 2813SOL    HW2 9339   6.335   1.548   6.018
 2814SOL     OW 9340   5.488   4.558   5.128
 2814SOL    HW1 9341   5.537   4.472   5.147
 2814SOL    HW2 9342   5.555   4.631   5.110
 2815SOL     OW 9343   1.324   1.015   4.280
 2815SOL    HW1 9344   1.329   0.942   4.212
 2815SOL    HW2 9345   1.238   1.065   4.269
 2816SOL     OW 9346   4.486   6.437   3.375
 2816SOL    HW1 9347   4.498   6.495   3.294
 2816SOL    HW2 9348   4.501   6.342   3.351
 2817SOL     OW 9349   1.205   1.552   1.343
 2817SOL    HW1 9350   1.109   1.523   1.339
 2817SOL    HW2 9351   1.264   1.479   1.308
 2818SOL     OW 9352   1.338   2.267   6.715
 2818SOL    HW1 9353   1.416   2.306   6.666
 2818SOL    HW2 9354   1.319   2.323   6.795
 2819SOL     OW 9355   6.512   3.232   1.575
 2819SOL    HW1 9356   6.419   3.247   1.609
 2819SOL    HW2 9357   6.578   3.262   1.643
 2820SOL     OW 9358   5.140   3.441   4.006
 2820SOL    HW1 9359   5.212   3.470   3.943
 2820SOL    HW2 9360   5.181   3.405   4.089
 2821SOL     OW 9361   1.162   3.527   3.083
 2821SOL    HW1 9362   1.204   3.535   2.993
 2821SOL    HW2 9363   1.228   3.556   3.153
 2822SOL     OW 9364   2.987   2.476   0.463
 2822SOL    HW1 9365   3.023   2.445   0.551
 2822SOL    HW2 9366   3.063   2.503   0.403
 2823SOL     OW 9367   1.192   0.330   4.373
 2823SOL    HW1 9368   1.117   0.394   4.390
 2823SOL    HW2 9369   1.279   0.375   4.390
 2824SOL     OW 9370   3.591   2.124   6.126
 2824SOL    HW1 9371   3.687   2.124   6.152
 2824SOL    HW2 9372   3.549   2.210   6.153
 2825SOL     OW 9373   5.610   5.829   0.986
 2825SOL    HW1 9374   5.604   5.792   1.079
 2825SOL    HW2 9375   5.701   5.868   0.972
 2826SOL     OW 9376   4.917   3.857   4.458
 2826SOL    HW1 9377   4.929   3.759   4.476
 2826SOL    HW2 9378   4.833   3.872   4.407
 2827SOL     OW 9379   0.116   6.728   6.053
 2827SOL    HW1 9380   0.034   6.781   6.035
 2827SOL    HW2 9381   0.121   6.705   6.150
 2828SOL     OW 9382   3.420   1.965   6.444
 2828SOL    HW1 9383   3.453   1.976   6.350
 2828SOL    HW2 9384   3.352   2.035   6.464
 2829SOL     OW 9385   2.797   1.115   6.756
 2829SOL    HW1 9386   2.816   1.017   6.763
 2829SOL    HW2 9387   2.866   1.158   6.698
 2830SOL     OW 9388   3.217   3.650   6.919
 2830SOL    HW1 9389   3.170   3.669   7.005
 2830SOL    HW2 9390   3.165   3.584   6.866
 2831SOL     OW 9391   6.615   6.618   3.821
 2831SOL    HW1 9392   6.535   6.625   3.880
 2831SOL    HW2 9393   6.698   6.615   3.877
 2832SOL     OW 9394   0.335   0.690   2.148
 2832SOL    HW1 9395   0.383   0.617   2.196
 2832SOL    HW2 9396   0.402   0.749   2.102
 2833SOL     OW 9397   6.082   3.149   2.494
 2833SOL    HW1 9398   6.130   3.129   2.409
 2833SOL    HW2 9399   6.022   3.228   2.481
 2834SOL     OW 9400   4.310   0.813   5.262
 2834SOL    HW1 9401   4.231   0.805   5.322
 2834SOL    HW2 9402   4.280   0.814   5.167
 2835SOL     OW 9403   6.174   6.164   3.357
 2835SOL    HW1 9404   6.179   6.170   3.257
 2835SOL    HW2 9405   6.266   6.169   3.395
 2836SOL     OW 9406   6.250   0.016   1.178
 2836SOL    HW1 9407   6.171   6.982   1.196
 2836SOL    HW2 9408   6.329   7.008   1.230
 2837SOL     OW 9409   5.880   2.743   4.126
 2837SOL    HW1 9410   5.884   2.843   4.127
 2837SOL    HW2 9411   5.789   2.713   4.100
 2838SOL     OW 9412   1.778   4.500   4.437
 2838SOL    HW1 9413   1.848   4.440   4.397
 2838SOL    HW2 9414   1.783   4.494   4.537
 2839SOL     OW 9415   5.110   3.153   0.579
 2839SOL    HW1 9416   5.124   3.182   0.674
 2839SOL    HW2 9417   5.159   3.067   0.563
 2840SOL     OW 9418   6.799   2.560   4.743
 2840SOL    HW1 9419   6.714   2.541   4.792
 2840SOL    HW2 9420   6.857   2.479   4.746
 2841SOL     OW 9421   0.095   6.030   0.166
 2841SOL    HW1 9422   0.052   6.069   0.085
 2841SOL    HW2 9423   0.025   5.995   0.228
 2842SOL     OW 9424   5.992   3.581   2.976
 2842SOL    HW1 9425   6.015   3.593   2.880
 2842SOL    HW2 9426   5.894   3.564   2.986
 2843SOL     OW 9427   4.054   0.960   3.771
 2843SOL    HW1 9428   3.956   0.965   3.791
 2843SOL    HW2 9429   4.084   1.048   3.735
 2844SOL     OW 9430   1.716   4.227   5.323
 2844SOL    HW1 9431   1.757   4.142   5.355
 2844SOL    HW2 9432   1.616   4.217   5.321
 2845SOL     OW 9433   0.479   3.586   6.223
 2845SOL    HW1 9434   0.545   3.514   6.249
 2845SOL    HW2 9435   0.487   3.604   6.125
 2846SOL     OW 9436   5.282   1.157   6.094
 2846SOL    HW1 9437   5.297   1.101   6.175
 2846SOL    HW2 9438   5.321   1.248   6.108
 2847SOL     OW 9439   4.310   5.061   4.406
 2847SOL    HW1 9440   4.307   4.964   4.383
 2847SOL    HW2 9441   4.224   5.088   4.451
 2848SOL     OW 9442   2.482   0.063   5.538
 2848SOL    HW1 9443   2.441   7.008   5.496
 2848SOL    HW2 9444   2.432   0.145   5.510
 2849SOL     OW 9445   2.115   2.803   1.598
 2849SOL    HW1 9446   2.127   2.856   1.514
 2849SOL    HW2 9447   2.201   2.758   1.622
 2850SOL     OW 9448   4.168   1.420   0.986
 2850SOL    HW1 9449   4.117   1.487   1.039
 2850SOL    HW2 9450   4.172   1.449   0.890
 2851SOL     OW 9451   3.033   5.708   5.682
 2851SOL    HW1 9452   2.944   5.745   5.709
 2851SOL    HW2 9453   3.075   5.767   5.614
 2852SOL     OW 9454   0.316   2.217   6.370
 2852SOL    HW1 9455   0.393   2.280   6.386
 2852SOL    HW2 9456   0.244   2.235   6.437
 2853SOL     OW 9457   3.727   2.778   1.494
 2853SOL    HW1 9458   3.628   2.792   1.500
 2853SOL    HW2 9459   3.766   2.844   1.430
 2854SOL     OW 9460   0.694   0.861   3.574
 2854SOL    HW1 9461   0.649   0.806   3.504
 2854SOL    HW2 9462   0.736   0.941   3.531
 2855SOL     OW 9463   3.291   1.585   4.290
 2855SOL    HW1 9464   3.229   1.540   4.355
 2855SOL    HW2 9465   3.259   1.679   4.274
 2856SOL     OW 9466   3.302   1.533   5.762
 2856SOL    HW1 9467   3.391   1.578   5.765
 2856SOL    HW2 9468   3.270   1.515   5.855
 2857SOL     OW 9469   3.810   2.920   3.939
 2857SOL    HW1 9470   3.712   2.905   3.950
 2857SOL    HW2 9471   3.845   2.970   4.018
 2858SOL     OW 9472   5.400   2.711   2.876
 2858SOL    HW1 9473   5.380   2.666   2.962
 2858SOL    HW2 9474   5.356   2.661   2.801
 2859SOL     OW 9475   5.377   5.678   6.814
 2859SOL    HW1 9476   5.475   5.671   6.797
 2859SOL    HW2 9477   5.362   5.718   6.905
 2860SOL     OW 9478   4.523   2.362   0.923
 2860SOL    HW1 9479   4.523   2.322   1.014
 2860SOL    HW2 9480   4.540   2.460   0.929
 2861SOL     OW 9481   4.418   4.632   6.061
 2861SOL    HW1 9482   4.384   4.697   6.129
 2861SOL    HW2 9483   4.382   4.654   5.971
 2862SOL     OW 9484   6.414   0.119   3.468
 2862SOL    HW1 9485   6.463   0.035   3.444
 2862SOL    HW2 9486   6.480   0.192   3.485
 2863SOL     OW 9487   6.382   0.330   6.986
 2863SOL    HW1 9488   6.460   0.343   0.021
 2863SOL    HW2 9489   6.356   0.233   6.986
 2864SOL     OW 9490   3.965   2.432   0.750
 2864SOL    HW1 9491   3.866   2.427   0.738
 2864SOL    HW2 9492   3.992   2.376   0.829
 2865SOL     OW 9493   4.771   4.957   5.275
 2865SOL    HW1 9494   4.700   4.993   5.215
 2865SOL    HW2 9495   4.838   5.029   5.295
 2866SOL     OW 9496   0.427   6.976   6.569
 2866SOL    HW1 9497   0.464   0.020   6.508
 2866SOL    HW2 9498   0.362   7.018   6.632
 2867SOL     OW 9499   6.535   4.009   4.420
 2867SOL    HW1 9500   6.496   3.961   4.341
 2867SOL    HW2 9501   6.480   4.090   4.439
 2868SOL     OW 9502   1.596   4.656   5.083
 2868SOL    HW1 9503   1.676   4.606   5.049
 2868SOL    HW2 9504   1.543   4.691   5.007
 2869SOL     OW 9505   6.071   1.325   2.070
 2869SOL    HW1 9506   6.157   1.276   2.054
 2869SOL    HW2 9507   5.996   1.260   2.080
 2870SOL     OW 9508   4.264   2.210   2.065
 2870SOL    HW1 9509   4.345   2.268   2.071
 2870SOL    HW2 9510   4.213   2.232   1.982
 2871SOL     OW 9511   1.386   1.700   5.917
 2871SOL    HW1 9512   1.301   1.704   5.865
 2871SOL    HW2 9513   1.382   1.765   5.993
 2872SOL     OW 9514   1.678   0.298   3.816
 2872SOL    HW1 9515   1.607   0.366   3.799
 2872SOL    HW2 9516   1.648   0.209   3.783
 2873SOL     OW 9517   6.293   5.609   2.240
 2873SOL    HW1 9518   6.278   5.566   2.151
 2873SOL    HW2 9519   6.389   5.634   2.250
 2874SOL     OW 9520   5.101   2.299   1.953
 2874SOL    HW1 9521   5.116   2.244   2.035
 2874SOL    HW2 9522   5.035   2.372   1.973
 2875SOL     OW 9523   2.974   4.778   0.839
 2875SOL    HW1 9524   2.957   4.688   0.879
 2875SOL    HW2 9525   3.022   4.767   0.751
 2876SOL     OW 9526   5.860   2.469   1.940
 2876SOL    HW1 9527   5.900   2.440   2.027
 2876SOL    HW2 9528   5.902   2.417   1.865
 2877SOL     OW 9529   1.431   3.634   5.457
 2877SOL    HW1 9530   1.417   3.732   5.474
 2877SOL    HW2 9531   1.457   3.589   5.543
 2878SOL     OW 9532   4.314   4.908   0.262
 2878SOL    HW1 9533   4.286   4.827   0.314
 2878SOL    HW2 9534   4.391   4.885   0.202
 2879SOL     OW 9535   5.135   4.217   6.637
 2879SOL    HW1 9536   5.102   4.229   6.544
 2879SOL    HW2 9537   5.220   4.269   6.649
 2880SOL     OW 9538   1.936   6.511   3.205
 2880SOL    HW1 9539   1.848   6.469   3.182
 2880SOL    HW2 9540   1.998   6.502   3.127
 2881SOL     OW 9541   6.990   0.268   7.009
 2881SOL    HW1 9542   0.042   0.214   0.016
 2881SOL    HW2 9543   6.964   0.236   6.917
 2882SOL     OW 9544   0.038   3.793   3.295
 2882SOL    HW1 9545   0.096   3.746   3.363
 2882SOL    HW2 9546   6.989   3.840   3.342
 2883SOL     OW 9547   3.826   6.481   1.926
 2883SOL    HW1 9548   3.808   6.526   1.838
 2883SOL    HW2 9549   3.755   6.507   1.991
 2884SOL     OW 9550   1.928   4.999   2.999
 2884SOL    HW1 9551   1.960   4.965   3.088
 2884SOL    HW2 9552   1.834   5.031   3.007
 2885SOL     OW 9553   1.060   2.192   4.543
 2885SOL    HW1 9554   1.010   2.130   4.482
 2885SOL    HW2 9555   1.143   2.223   4.498
 2886SOL     OW 9556   2.690   2.644   6.307
 2886SOL    HW1 9557   2.661   2.690   6.223
 2886SOL    HW2 9558   2.778   2.598   6.291
 2887SOL     OW 9559   2.806   1.366   5.265
 2887SOL    HW1 9560   2.736   1.311   5.219
 2887SOL    HW2 9561   2.881   1.384   5.201
 2888SOL     OW 9562   6.996   5.681   7.020
 2888SOL    HW1 9563   0.011   5.680   0.086
 2888SOL    HW2 9564   6.976   5.587   6.992
 2889SOL     OW 9565   1.188   0.543   0.810
 2889SOL    HW1 9566   1.195   0.599   0.727
 2889SOL    HW2 9567   1.196   0.602   0.891
 2890SOL     OW 9568   2.473   0.367   0.654
 2890SOL    HW1 9569   2.493   0.364   0.752
 2890SOL    HW2 9570   2.550   0.408   0.605
 2891SOL     OW 9571   3.010   4.859   5.090
 2891SOL    HW1 9572   2.946   4.799   5.041
 2891SOL    HW2 9573   3.027   4.823   5.181
 2892SOL     OW 9574   4.100   3.948   5.265
 2892SOL    HW1 9575   4.033   3.986   5.201
 2892SOL    HW2 9576   4.136   3.862   5.228
 2893SOL     OW 9577   3.329   0.744   4.971
 2893SOL    HW1 9578   3.377   0.812   4.915
 2893SOL    HW2 9579   3.231   0.755   4.960
 2894SOL     OW 9580   4.251   3.200   1.696
 2894SOL    HW1 9581   4.266   3.296   1.716
 2894SOL    HW2 9582   4.337   3.158   1.667
 2895SOL     OW 9583   3.793   3.102   0.331
 2895SOL    HW1 9584   3.843   3.015   0.327
 2895SOL    HW2 9585   3.696   3.085   0.315
 2896SOL     OW 9586   1.347   4.552   0.467
 2896SOL    HW1 9587   1.353   4.596   0.557
 2896SOL    HW2 9588   1.317   4.457   0.479
 2897SOL     OW 9589   0.656   6.786   3.448
 2897SOL    HW1 9590   0.732   6.722   3.443
 2897SOL    HW2 9591   0.584   6.758   3.384
 2898SOL     OW 9592   1.799   5.181   2.657
 2898SOL    HW1 9593   1.760   5.186   2.565
 2898SOL    HW2 9594   1.778   5.265   2.707
 2899SOL     OW 9595   5.598   0.567   0.877
 2899SOL    HW1 9596   5.655   0.511   0.937
 2899SOL    HW2 9597   5.636   0.659   0.871
 2900SOL     OW 9598   2.805   5.343   6.398
 2900SOL    HW1 9599   2.800   5.417   6.332
 2900SOL    HW2 9600   2.832   5.258   6.352
 2901SOL     OW 9601   3.074   6.730   1.174
 2901SOL    HW1 9602   3.106   6.790   1.247
 2901SOL    HW2 9603   3.131   6.741   1.093
 2902SOL     OW 9604   4.764   5.426   0.974
 2902SOL    HW1 9605   4.710   5.364   0.917
 2902SOL    HW2 9606   4.703   5.489   1.021
 2903SOL     OW 9607   3.029   2.543   1.692
 2903SOL    HW1 9608   2.984   2.500   1.770
 2903SOL    HW2 9609   3.127   2.525   1.696
 2904SOL     OW 9610   2.805   1.892   4.496
 2904SOL    HW1 9611   2.882   1.848   4.450
 2904SOL    HW2 9612   2.838   1.966   4.554
 2905SOL     OW 9613   0.703   2.216   2.045
 2905SOL    HW1 9614   0.699   2.154   1.967
 2905SOL    HW2 9615   0.761   2.177   2.117
 2906SOL     OW 9616   5.181   5.107   2.199
 2906SOL    HW1 9617   5.152   5.128   2.106
 2906SOL    HW2 9618   5.106   5.128   2.263
 2907SOL     OW 9619   5.695   0.740   4.990
 2907SOL    HW1 9620   5.643   0.671   4.941
 2907SOL    HW2 9621   5.787   0.746   4.951
 2908SOL     OW 9622   3.944   5.922   4.726
 2908SOL    HW1 9623   3.931   5.841   4.668
 2908SOL    HW2 9624   3.986   5.894   4.813
 2909SOL     OW 9625   2.310   6.454   5.642
 2909SOL    HW1 9626   2.258   6.482   5.723
 2909SOL    HW2 9627   2.357   6.368   5.661
 2910SOL     OW 9628   4.126   5.913   5.259
 2910SOL    HW1 9629   4.090   5.823   5.287
 2910SOL    HW2 9630   4.100   5.981   5.327
 2911SOL     OW 9631   2.425   4.406   3.256
 2911SOL    HW1 9632   2.409   4.404   3.157
 2911SOL    HW2 9633   2.369   4.337   3.300
 2912SOL     OW 9634   2.917   5.056   1.692
 2912SOL    HW1 9635   2.831   5.006   1.701
 2912SOL    HW2 9636   2.956   5.039   1.601
 2913SOL     OW 9637   0.643   2.895   1.890
 2913SOL    HW1 9638   0.597   2.924   1.806
 2913SOL    HW2 9639   0.735   2.861   1.868
 2914SOL     OW 9640   5.183   4.593   5.920
 2914SOL    HW1 9641   5.264   4.640   5.887
 2914SOL    HW2 9642   5.181   4.594   6.020
 2915SOL     OW 9643   4.952   1.621   3.270
 2915SOL    HW1 9644   4.950   1.675   3.353
 2915SOL    HW2 9645   4.889   1.544   3.279
 2916SOL     OW 9646   4.844   0.137   4.728
 2916SOL    HW1 9647   4.906   0.114   4.803
 2916SOL    HW2 9648   4.750   0.116   4.755
 2917SOL     OW 9649   3.953   0.323   2.037
 2917SOL    HW1 9650   3.986   0.347   2.129
 2917SOL    HW2 9651   3.894   0.397   2.003
 2918SOL     OW 9652   1.009   2.921   4.590
 2918SOL    HW1 9653   1.052   2.834   4.615
 2918SOL    HW2 9654   0.981   2.917   4.494
 2919SOL     OW 9655   5.681   5.784   0.113
 2919SOL    HW1 9656   5.689   5.686   0.094
 2919SOL    HW2 9657   5.756   5.812   0.172
 2920SOL     OW 9658   4.771   1.694   2.883
 2920SOL    HW1 9659   4.853   1.637   2.891
 2920SOL    HW2 9660   4.737   1.691   2.789
 2921SOL     OW 9661   6.437   1.640   0.644
 2921SOL    HW1 9662   6.346   1.598   0.646
 2921SOL    HW2 9663   6.505   1.574   0.675
 2922SOL     OW 9664   4.450   6.826   4.645
 2922SOL    HW1 9665   4.441   6.861   4.552
 2922SOL    HW2 9666   4.505   6.890   4.699
 2923SOL     OW 9667   0.373   4.720   6.615
 2923SOL    HW1 9668   0.445   4.738   6.548
 2923SOL    HW2 9669   0.318   4.802   6.629
 2924SOL     OW 9670   6.554   7.000   6.297
 2924SOL    HW1 9671   6.464   0.015   6.279
 2924SOL    HW2 9672   6.624   0.046   6.298
 2925SOL     OW 9673   6.109   4.674   7.005
 2925SOL    HW1 9674   6.070   4.583   6.987
 2925SOL    HW2 9675   6.191   4.686   6.948
 2926SOL     OW 9676   0.295   1.342   2.897
 2926SOL    HW1 9677   0.214   1.343   2.839
 2926SOL    HW2 9678   0.274   1.295   2.983
 2927SOL     OW 9679   0.229   3.232   2.725
 2927SOL    HW1 9680   0.224   3.158   2.657
 2927SOL    HW2 9681   0.180   3.204   2.808
 2928SOL     OW 9682   5.625   6.106   0.601
 2928SOL    HW1 9683   5.694   6.170   0.567
 2928SOL    HW2 9684   5.652   6.013   0.578
 2929SOL     OW 9685   0.799   0.115   5.238
 2929SOL    HW1 9686   0.855   0.074   5.311
 2929SOL    HW2 9687   0.703   0.093   5.254
 2930SOL     OW 9688   2.854   0.124   4.507
 2930SOL    HW1 9689   2.888   0.166   4.423
 2930SOL    HW2 9690   2.896   0.033   4.518
 2931SOL     OW 9691   4.600   4.873   6.353
 2931SOL    HW1 9692   4.630   4.965   6.378
 2931SOL    HW2 9693   4.613   4.811   6.430
 2932SOL     OW 9694   1.162   4.456   1.779
 2932SOL    HW1 9695   1.177   4.523   1.852
 2932SOL    HW2 9696   1.068   4.423   1.784
 2933SOL     OW 9697   4.794   2.473   3.798
 2933SOL    HW1 9698   4.740   2.500   3.878
 2933SOL    HW2 9699   4.775   2.377   3.777
 2934SOL     OW 9700   2.065   1.261   0.904
 2934SOL    HW1 9701   1.966   1.276   0.899
 2934SOL    HW2 9702   2.104   1.319   0.976
 2935SOL     OW 9703   6.896   1.171   1.128
 2935SOL    HW1 9704   6.888   1.176   1.029
 2935SOL    HW2 9705   6.808   1.197   1.170
 2936SOL     OW 9706   3.519   5.163   0.841
 2936SOL    HW1 9707   3.618   5.171   0.849
 2936SOL    HW2 9708   3.497   5.082   0.787
 2937SOL     OW 9709   2.677   4.539   0.076
 2937SOL    HW1 9710   2.654   4.614   0.014
 2937SOL    HW2 9711   2.608   4.468   0.070
 2938SOL     OW 9712   4.876   4.250   6.759
 2938SOL    HW1 9713   4.874   4.349   6.766
 2938SOL    HW2 9714   4.968   4.219   6.736
 2939SOL     OW 9715   7.000   6.498   5.500
 2939SOL    HW1 9716   0.008   6.577   5.552
 2939SOL    HW2 9717   0.033   6.484   5.420
 2940SOL     OW 9718   3.746   6.990   5.374
 2940SOL    HW1 9719   3.660   6.982   5.426
 2940SOL    HW2 9720   3.730   0.018   5.292
 2941SOL     OW 9721   3.962   1.745   5.224
 2941SOL    HW1 9722   3.884   1.803   5.248
 2941SOL    HW2 9723   3.940   1.650   5.246
 2942SOL     OW 9724   3.124   6.345   4.327
 2942SOL    HW1 9725   3.191   6.335   4.401
 2942SOL    HW2 9726   3.045   6.286   4.345
 2943SOL     OW 9727   5.765   4.896   2.702
 2943SOL    HW1 9728   5.769   4.799   2.728
 2943SOL    HW2 9729   5.774   4.953   2.784
 2944SOL     OW 9730   4.909   5.962   0.624
 2944SOL    HW1 9731   4.851   5.945   0.545
 2944SOL    HW2 9732   4.994   6.007   0.595
 2945SOL     OW 9733   2.880   3.426   4.629
 2945SOL    HW1 9734   2.940   3.486   4.682
 2945SOL    HW2 9735   2.817   3.379   4.690
 2946SOL     OW 9736   1.157   6.196   5.313
 2946SOL    HW1 9737   1.213   6.125   5.356
 2946SOL    HW2 9738   1.120   6.257   5.383
 2947SOL     OW 9739   6.992   5.356   6.990
 2947SOL    HW1 9740   6.899   5.329   7.016
 2947SOL    HW2 9741   0.033   5.301   0.016
 2948SOL     OW 9742   6.260   3.481   5.488
 2948SOL    HW1 9743   6.346   3.432   5.473
 2948SOL    HW2 9744   6.183   3.418   5.478
 2949SOL     OW 9745   0.587   6.676   0.112
 2949SOL    HW1 9746   0.670   6.674   0.056
 2949SOL    HW2 9747   0.531   6.596   0.093
 2950SOL     OW 9748   5.223   3.561   4.974
 2950SOL    HW1 9749   5.280   3.530   5.050
 2950SOL    HW2 9750   5.141   3.504   4.968
 2951SOL     OW 9751   5.713   0.288   0.208
 2951SOL    HW1 9752   5.775   0.335   0.145
 2951SOL    HW2 9753   5.628   0.339   0.216
 2952SOL     OW 9754   0.492   3.362   1.850
 2952SOL    HW1 9755   0.464   3.286   1.791
 2952SOL    HW2 9756   0.525   3.325   1.937
 2953SOL     OW 9757   5.997   1.837   2.308
 2953SOL    HW1 9758   6.016   1.744   2.278
 2953SOL    HW2 9759   6.070   1.898   2.277
 2954SOL     OW 9760   4.995   5.776   2.135
 2954SOL    HW1 9761   4.991   5.785   2.035
 2954SOL    HW2 9762   4.958   5.858   2.177
 2955SOL     OW 9763   6.159   1.937   1.160
 2955SOL    HW1 9764   6.163   2.036   1.156
 2955SOL    HW2 9765   6.252   1.899   1.149
 2956SOL     OW 9766   5.715   6.012   3.822
 2956SOL    HW1 9767   5.652   5.946   3.863
 2956SOL    HW2 9768   5.721   5.995   3.723
 2957SOL     OW 9769   1.524   4.702   1.501
 2957SOL    HW1 9770   1.424   4.706   1.499
 2957SOL    HW2 9771   1.557   4.661   1.416
 2958SOL     OW 9772   2.867   4.924   6.515
 2958SOL    HW1 9773   2.960   4.887   6.514
 2958SOL    HW2 9774   2.804   4.855   6.553
 2959SOL     OW 9775   3.541   4.933   0.391
 2959SOL    HW1 9776   3.489   5.016   0.375
 2959SOL    HW2 9777   3.638   4.950   0.375
 2960SOL     OW 9778   2.842   1.681   0.362
 2960SOL    HW1 9779   2.925   1.626   0.370
 2960SOL    HW2 9780   2.764   1.620   0.346
 2961SOL     OW 9781   5.478   1.392   4.303
 2961SOL    HW1 9782   5.548   1.367   4.237
 2961SOL    HW2 9783   5.398   1.332   4.292
 2962SOL     OW 9784   4.838   0.220   2.778
 2962SOL    HW1 9785   4.829   0.299   2.718
 2962SOL    HW2 9786   4.905   0.156   2.739
 2963SOL     OW 9787   2.141   3.172   4.997
 2963SOL    HW1 9788   2.181   3.263   5.009
 2963SOL    HW2 9789   2.208   3.103   5.022
 2964SOL     OW 9790   3.143   5.900   0.685
 2964SOL    HW1 9791   3.182   5.989   0.664
 2964SOL    HW2 9792   3.070   5.910   0.752
 2965SOL     OW 9793   0.617   3.020   6.309
 2965SOL    HW1 9794   0.537   3.034   6.250
 2965SOL    HW2 9795   0.627   3.098   6.370
 2966SOL     OW 9796   4.688   4.860   3.730
 2966SOL    HW1 9797   4.689   4.952   3.691
 2966SOL    HW2 9798   4.712   4.793   3.659
 2967SOL     OW 9799   5.980   2.607   4.336
 2967SOL    HW1 9800   5.944   2.657   4.257
 2967SOL    HW2 9801   6.065   2.650   4.366
 2968SOL     OW 9802   6.756   4.178   3.605
 2968SOL    HW1 9803   6.723   4.084   3.597
 2968SOL    HW2 9804   6.827   4.194   3.537
 2969SOL     OW 9805   3.648   1.682   4.804
 2969SOL    HW1 9806   3.643   1.684   4.705
 2969SOL    HW2 9807   3.738   1.713   4.834
 2970SOL     OW 9808   1.218   4.157   6.022
 2970SOL    HW1 9809   1.145   4.216   6.058
 2970SOL    HW2 9810   1.290   4.214   5.985
 2971SOL     OW 9811   5.593   3.649   2.257
 2971SOL    HW1 9812   5.689   3.620   2.255
 2971SOL    HW2 9813   5.582   3.728   2.317
 2972SOL     OW 9814   0.624   4.064   4.634
 2972SOL    HW1 9815   0.610   3.988   4.570
 2972SOL    HW2 9816   0.717   4.060   4.671
 2973SOL     OW 9817   6.004   0.265   3.674
 2973SOL    HW1 9818   6.043   0.357   3.669
 2973SOL    HW2 9819   6.016   0.229   3.766
 2974SOL     OW 9820   6.798   4.322   0.904
 2974SOL    HW1 9821   6.747   4.240   0.930
 2974SOL    HW2 9822   6.841   4.361   0.985
 2975SOL     OW 9823   6.442   1.600   4.148
 2975SOL    HW1 9824   6.494   1.544   4.084
 2975SOL    HW2 9825   6.442   1.695   4.117
 2976SOL     OW 9826   2.413   5.899   1.289
 2976SOL    HW1 9827   2.404   5.888   1.388
 2976SOL    HW2 9828   2.463   5.984   1.269
 2977SOL     OW 9829   2.834   6.875   3.742
 2977SOL    HW1 9830   2.804   6.813   3.814
 2977SOL    HW2 9831   2.807   6.968   3.765
 2978SOL     OW 9832   2.176   0.201   6.687
 2978SOL    HW1 9833   2.150   0.111   6.650
 2978SOL    HW2 9834   2.275   0.206   6.696
 2979SOL     OW 9835   2.888   1.308   3.228
 2979SOL    HW1 9836   2.826   1.379   3.194
 2979SOL    HW2 9837   2.851   1.269   3.312
 2980SOL     OW 9838   6.212   6.900   3.046
 2980SOL    HW1 9839   6.136   6.902   2.981
 2980SOL    HW2 9840   6.188   6.840   3.123
 2981SOL     OW 9841   1.881   1.745   6.025
 2981SOL    HW1 9842   1.925   1.833   6.003
 2981SOL    HW2 9843   1.812   1.724   5.956
 2982SOL     OW 9844   4.672   5.852   2.048
 2982SOL    HW1 9845   4.681   5.766   2.098
 2982SOL    HW2 9846   4.576   5.881   2.048
 2983SOL     OW 9847   0.230   1.127   2.694
 2983SOL    HW1 9848   0.263   1.147   2.601
 2983SOL    HW2 9849   0.308   1.114   2.755
 2984SOL     OW 9850   5.896   4.845   1.523
 2984SOL    HW1 9851   5.974   4.887   1.570
 2984SOL    HW2 9852   5.858   4.772   1.581
 2985SOL     OW 9853   6.428   2.475   3.117
 2985SOL    HW1 9854   6.465   2.527   3.194
 2985SOL    HW2 9855   6.341   2.432   3.144
 2986SOL     OW 9856   1.650   3.185   5.188
 2986SOL    HW1 9857   1.725   3.212   5.128
 2986SOL    HW2 9858   1.631   3.259   5.253
 2987SOL     OW 9859   5.125   1.900   5.058
 2987SOL    HW1 9860   5.170   1.835   5.120
 2987SOL    HW2 9861   5.194   1.946   5.002
 2988SOL     OW 9862   1.317   0.181   2.766
 2988SOL    HW1 9863   1.405   0.136   2.753
 2988SOL    HW2 9864   1.255   0.156   2.691
 2989SOL     OW 9865   6.336   5.245   0.670
 2989SOL    HW1 9866   6.405   5.316   0.683
 2989SOL    HW2 9867   6.251   5.272   0.716
 2990SOL     OW 9868   2.776   1.481   1.596
 2990SOL    HW1 9869   2.746   1.556   1.538
 2990SOL    HW2 9870   2.747   1.394   1.556
 2991SOL     OW 9871   6.642   4.553   6.734
 2991SOL    HW1 9872   6.558   4.554   6.788
 2991SOL    HW2 9873   6.623   4.513   6.644
 2992SOL     OW 9874   4.439   4.238   6.841
 2992SOL    HW1 9875   4.400   4.177   6.911
 2992SOL    HW2 9876   4.512   4.191   6.793
 2993SOL     OW 9877   1.291   4.525   6.985
 2993SOL    HW1 9878   1.352   4.605   6.994
 2993SOL    HW2 9879   1.222   4.528   0.031
 2994SOL     OW 9880   4.536   6.225   0.066
 2994SOL    HW1 9881   4.636   6.224   0.063
 2994SOL    HW2 9882   4.501   6.134   0.043
 2995SOL     OW 9883   2.556   0.804   5.693
 2995SOL    HW1 9884   2.457   0.797   5.703
 2995SOL    HW2 9885   2.600   0.722   5.731
 2996SOL     OW 9886   4.525   6.809   6.059
 2996SOL    HW1 9887   4.561   6.718   6.039
 2996SOL    HW2 9888   4.436   6.820   6.014
 2997SOL     OW 9889   4.113   5.841   0.203
 2997SOL    HW1 9890   4.025   5.865   0.245
 2997SOL    HW2 9891   4.187   5.880   0.258
 2998SOL     OW 9892   6.347   4.213   5.969
 2998SOL    HW1 9893   6.380   4.307   5.953
 2998SOL    HW2 9894   6.261   4.216   6.019
 2999SOL     OW 9895   2.047   1.586   1.651
 2999SOL    HW1 9896   2.084   1.570   1.560
 2999SOL    HW2 9897   2.079   1.515   1.714
 3000SOL     OW 9898   1.400   1.996   4.673
 3000SOL    HW1 9899   1.398   2.078   4.616
 3000SOL    HW2 9900   1.337   2.007   4.749
 3001SOL     OW 9901   4.885   6.101   5.728
 3001SOL    HW1 9902   4.863   6.012   5.688
 3001SOL    HW2 9903   4.831   6.172   5.683
 3002SOL     OW 9904   3.144   0.478   4.759
 3002SOL    HW1 9905   3.097   0.474   4.671
 3002SOL    HW2 9906   3.142   0.572   4.794
 3003SOL     OW 9907   1.233   0.044   5.581
 3003SOL    HW1 9908   1.321   7.024   5.569
 3003SOL    HW2 9909   1.216   0.105   5.504
 3004SOL     OW 9910   6.972   2.671   5.821
 3004SOL    HW1 9911   0.010   2.594   5.830
 3004SOL    HW2 9912   7.020   2.750   5.783
 3005SOL     OW 9913   4.984   2.378   0.654
 3005SOL    HW1 9914   4.931   2.427   0.584
 3005SOL    HW2 9915   4.922   2.325   0.712
 3006SOL     OW 9916   4.344   6.859   1.716
 3006SOL    HW1 9917   4.366   6.940   1.770
 3006SOL    HW2 9918   4.369   6.777   1.768
 3007SOL     OW 9919   5.821   5.417   1.814
 3007SOL    HW1 9920   5.920   5.435   1.821
 3007SOL    HW2 9921   5.797   5.339   1.872
 3008SOL     OW 9922   4.294   5.386   5.532
 3008SOL    HW1 9923   4.272   5.391   5.629
 3008SOL    HW2 9924   4.392   5.369   5.522
 3009SOL     OW 9925   1.211   0.428   2.758
 3009SOL    HW1 9926   1.233   0.340   2.801
 3009SOL    HW2 9927   1.186   0.494   2.828
 3010SOL     OW 9928   2.943   0.268   3.203
 3010SOL    HW1 9929   3.042   0.279   3.202
 3010SOL    HW2 9930   2.913   0.233   3.292
 3011SOL     OW 9931   5.421   0.148   0.673
 3011SOL    HW1 9932   5.448   0.243   0.658
 3011SOL    HW2 9933   5.462   0.090   0.603
 3012SOL     OW 9934   7.009   5.480   1.256
 3012SOL    HW1 9935   6.937   5.476   1.186
 3012SOL    HW2 9936   0.035   5.394   1.257
 3013SOL     OW 9937   5.749   4.662   1.675
 3013SOL    HW1 9938   5.818   4.656   1.748
 3013SOL    HW2 9939   5.658   4.655   1.715
 3014SOL     OW 9940   5.094   6.519   5.661
 3014SOL    HW1 9941   5.080   6.421   5.673
 3014SOL    HW2 9942   5.006   6.563   5.641
 3015SOL     OW 9943   2.633   1.001   0.139
 3015SOL    HW1 9944   2.660   1.085   0.090
 3015SOL    HW2 9945   2.693   0.987   0.217
 3016SOL     OW 9946   3.844   6.347   3.715
 3016SOL    HW1 9947   3.764   6.299   3.680
 3016SOL    HW2 9948   3.869   6.309   3.804
 3017SOL     OW 9949   0.703   6.002   1.538
 3017SOL    HW1 9950   0.637   5.957   1.598
 3017SOL    HW2 9951   0.789   6.014   1.587
 3018SOL     OW 9952   4.593   0.026   5.871
 3018SOL    HW1 9953   4.587   6.974   5.933
 3018SOL    HW2 9954   4.505   0.038   5.824
 3019SOL     OW 9955   4.765   0.636   1.632
 3019SOL    HW1 9956   4.804   0.644   1.540
 3019SOL    HW2 9957   4.712   0.552   1.638
 3020SOL     OW 9958   1.838   0.720   1.800
 3020SOL    HW1 9959   1.790   0.737   1.714
 3020SOL    HW2 9960   1.923   0.771   1.802
 3021SOL     OW 9961   4.222   0.799   6.697
 3021SOL    HW1 9962   4.229   0.825   6.601
 3021SOL    HW2 9963   4.217   0.699   6.704
 3022SOL     OW 9964   0.153   0.600   3.049
 3022SOL    HW1 9965   0.191   0.566   3.135
 3022SOL    HW2 9966   0.132   0.697   3.058
 3023SOL     OW 9967   5.715   0.342   1.587
 3023SOL    HW1 9968   5.784   0.402   1.628
 3023SOL    HW2 9969   5.751   0.302   1.503
 3024SOL     OW 9970   2.086   6.964   6.561
 3024SOL    HW1 9971   2.064   6.885   6.618
 3024SOL    HW2 9972   2.099   6.934   6.466
 3025SOL     OW 9973   1.874   2.089   1.698
 3025SOL    HW1 9974   1.848   2.170   1.751
 3025SOL    HW2 9975   1.973   2.089   1.684
 3026SOL     OW 9976   2.945   5.832   0.506
 3026SOL    HW1 9977   3.019   5.860   0.567
 3026SOL    HW2 9978   2.858   5.837   0.554
 3027SOL     OW 9979   1.487   1.900   3.750
 3027SOL    HW1 9980   1.387   1.898   3.747
 3027SOL    HW2 9981   1.522   1.807   3.764
 3028SOL     OW 9982   1.283   0.250   4.751
 3028SOL    HW1 9983   1.379   0.256   4.723
 3028SOL    HW2 9984   1.277   0.261   4.850
 3029SOL     OW 9985   6.412   5.117   5.738
 3029SOL    HW1 9986   6.366   5.193   5.692
 3029SOL    HW2 9987   6.502   5.102   5.698
 3030SOL     OW 9988   1.171   0.471   5.372
 3030SOL    HW1 9989   1.172   0.506   5.466
 3030SOL    HW2 9990   1.143   0.544   5.310
 3031SOL     OW 9991   0.249   5.643   6.178
 3031SOL    HW1 9992   0.302   5.713   6.227
 3031SOL    HW2 9993   0.240   5.562   6.235
 3032SOL     OW 9994   3.870   6.705   5.786
 3032SOL    HW1 9995   3.772   6.693   5.770
 3032SOL    HW2 9996   3.921   6.665   5.710
 3033SOL     OW 9997   5.057   4.839   5.895
 3033SOL    HW1 9998   4.977   4.854   5.952
 3033SOL    HW2 9999   5.079   4.742   5.893
 3034SOL     OW10000   2.758   6.792   4.445
 3034SOL    HW110001   2.800   6.701   4.450
 3034SOL    HW210002   2.772   6.829   4.353
 3035SOL     OW10003   6.237   0.073   0.023
 3035SOL    HW110004   6.161   0.042   0.079
 3035SOL    HW210005   6.203   0.095   6.956
 3036SOL     OW10006   0.617   4.949   5.587
 3036SOL    HW110007   0.651   4.952   5.682
 3036SOL    HW210008   0.591   5.041   5.558
 3037SOL     OW10009   5.317   6.540   6.219
 3037SOL    HW110010   5.416   6.535   6.237
 3037SOL    HW210011   5.291   6.635   6.203
 3038SOL     OW10012   6.161   5.924   5.771
 3038SOL    HW110013   6.129   5.955   5.860
 3038SOL    HW210014   6.083   5.902   5.713
 3039SOL     OW10015   0.583   5.181   0.582
 3039SOL    HW110016   0.660   5.245   0.581
 3039SOL    HW210017   0.527   5.194   0.500
 3040SOL     OW10018   2.901   1.179   0.172
 3040SOL    HW110019   2.909   1.134   0.261
 3040SOL    HW210020   2.957   1.131   0.105
 3041SOL     OW10021   1.461   2.270   6.347
 3041SOL    HW110022   1.520   2.281   6.427
 3041SOL    HW210023   1.499   2.321   6.270
 3042SOL     OW10024   6.064   0.402   0.971
 3042SOL    HW110025   6.062   0.498   0.945
 3042SOL    HW210026   6.082   0.346   0.891
 3043SOL     OW10027   0.074   5.473   6.630
 3043SOL    HW110028   7.004   5.487   6.655
 3043SOL    HW210029   0.128   5.456   6.712
 3044SOL     OW10030   2.494   3.241   6.504
 3044SOL    HW110031   2.537   3.158   6.538
 3044SOL    HW210032   2.459   3.225   6.411
 3045SOL     OW10033   4.904   2.571   4.510
 3045SOL    HW110034   4.848   2.648   4.481
 3045SOL    HW210035   4.845   2.496   4.539
 3046SOL     OW10036   2.018   2.388   6.228
 3046SOL    HW110037   2.113   2.404   6.258
 3046SOL    HW210038   1.972   2.476   6.219
 3047SOL     OW10039   7.011   5.178   1.885
 3047SOL    HW110040   7.013   5.104   1.819
 3047SOL    HW210041   6.916   5.201   1.908
 3048SOL     OW10042   3.307   2.937   1.903
 3048SOL    HW110043   3.401   2.903   1.906
 3048SOL    HW210044   3.277   2.946   1.808
 3049SOL     OW10045   0.877   0.362   1.134
 3049SOL    HW110046   0.832   0.451   1.138
 3049SOL    HW210047   0.963   0.371   1.083
 3050SOL     OW10048   1.558   0.665   3.801
 3050SOL    HW110049   1.498   0.738   3.771
 3050SOL    HW210050   1.509   0.605   3.865
 3051SOL     OW10051   2.657   4.957   5.957
 3051SOL    HW110052   2.678   4.859   5.961
 3051SOL    HW210053   2.708   4.999   5.882
 3052SOL     OW10054   5.266   6.768   2.650
 3052SOL    HW110055   5.337   6.723   2.705
 3052SOL    HW210056   5.195   6.702   2.627
 3053SOL     OW10057   4.044   6.987   1.858
 3053SOL    HW110058   4.051   6.937   1.772
 3053SOL    HW210059   3.984   6.938   1.920
 3054SOL     OW10060   1.865   4.171   5.671
 3054SOL    HW110061   1.921   4.251   5.693
 3054SOL    HW210062   1.917   4.108   5.613
 3055SOL     OW10063   6.379   6.534   2.664
 3055SOL    HW110064   6.285   6.500   2.657
 3055SOL    HW210065   6.407   6.574   2.577
 3056SOL     OW10066   5.630   0.641   2.199
 3056SOL    HW110067   5.614   0.649   2.101
 3056SOL    HW210068   5.552   0.681   2.249
 3057SOL     OW10069   6.496   5.329   2.542
 3057SOL    HW110070   6.421   5.371   2.490
 3057SOL    HW210071   6.468   5.319   2.637
 3058SOL     OW10072   5.833   6.259   1.371
 3058SOL    HW110073   5.884   6.273   1.456
 3058SOL    HW210074   5.743   6.221   1.392
 3059SOL     OW10075   2.611   2.369   6.351
 3059SOL    HW110076   2.573   2.352   6.441
 3059SOL    HW210077   2.625   2.468   6.338
 3060SOL     OW10078   0.470   6.532   6.476
 3060SOL    HW110079   0.391   6.507   6.533
 3060SOL    HW210080   0.453   6.502   6.382
 3061SOL     OW10081   0.564   0.914   6.132
 3061SOL    HW110082   0.489   0.972   6.101
 3061SOL    HW210083   0.651   0.955   6.102
 3062SOL     OW10084   3.184   5.111   6.314
 3062SOL    HW110085   3.195   5.096   6.412
 3062SOL    HW210086   3.272   5.097   6.268
 3063SOL     OW10087   2.632   5.831   1.114
 3063SOL    HW110088   2.704   5.856   1.179
 3063SOL    HW210089   2.543   5.846   1.157
 3064SOL     OW10090   0.350   4.632   3.146
 3064SOL    HW110091   0.411   4.578   3.205
 3064SOL    HW210092   0.317   4.712   3.196
 3065SOL     OW10093   3.037   1.572   1.611
 3065SOL    HW110094   2.957   1.512   1.614
 3065SOL    HW210095   3.013   1.660   1.653
 3066SOL     OW10096   5.174   5.183   0.649
 3066SOL    HW110097   5.271   5.166   0.633
 3066SOL    HW210098   5.160   5.279   0.673
 3067SOL     OW10099   4.165   6.927   3.068
 3067SOL    HW110100   4.097   6.856   3.088
 3067SOL    HW210101   4.220   6.945   3.149
 3068SOL     OW10102   6.471   4.729   6.396
 3068SOL    HW110103   6.418   4.761   6.475
 3068SOL    HW210104   6.481   4.630   6.400
 3069SOL     OW10105   1.276   4.421   3.413
 3069SOL    HW110106   1.329   4.385   3.490
 3069SOL    HW210107   1.321   4.396   3.327
 3070SOL     OW10108   4.283   1.923   4.047
 3070SOL    HW110109   4.318   2.017   4.042
 3070SOL    HW210110   4.255   1.902   4.140
 3071SOL     OW10111   5.722   0.386   3.720
 3071SOL    HW110112   5.785   0.464   3.718
 3071SOL    HW210113   5.752   0.320   3.788
 3072SOL     OW10114   0.105   0.673   1.584
 3072SOL    HW110115   0.140   0.624   1.504
 3072SOL    HW210116   0.113   0.771   1.569
 3073SOL     OW10117   2.152   1.766   4.896
 3073SOL    HW110118   2.171   1.732   4.989
 3073SOL    HW210119   2.054   1.775   4.883
 3074SOL     OW10120   4.815   3.905   5.981
 3074SOL    HW110121   4.815   3.941   5.887
 3074SOL    HW210122   4.837   3.979   6.045
 3075SOL     OW10123   0.303   5.690   0.881
 3075SOL    HW110124   0.207   5.706   0.904
 3075SOL    HW210125   0.322   5.592   0.885
 3076SOL     OW10126   0.814   0.760   5.306
 3076SOL    HW110127   0.821   0.854   5.273
 3076SOL    HW210128   0.720   0.741   5.333
 3077SOL     OW10129   4.649   4.770   3.293
 3077SOL    HW110130   4.670   4.796   3.199
 3077SOL    HW210131   4.721   4.805   3.354
 3078SOL     OW10132   1.989   2.890   0.073
 3078SOL    HW110133   1.928   2.863   7.024
 3078SOL    HW210134   1.991   2.818   0.143
 3079SOL     OW10135   5.357   3.005   5.820
 3079SOL    HW110136   5.442   2.984   5.771
 3079SOL    HW210137   5.316   3.087   5.782
 3080SOL     OW10138   5.827   6.723   1.850
 3080SOL    HW110139   5.760   6.686   1.914
 3080SOL    HW210140   5.853   6.652   1.784
 3081SOL     OW10141   1.274   4.545   5.901
 3081SOL    HW110142   1.212   4.531   5.824
 3081SOL    HW210143   1.280   4.642   5.922
 3082SOL     OW10144   3.607   6.982   2.329
 3082SOL    HW110145   3.529   6.937   2.285
 3082SOL    HW210146   3.689   6.927   2.313
 3083SOL     OW10147   3.867   0.059   2.127
 3083SOL    HW110148   3.912   0.129   2.072
 3083SOL    HW210149   3.860   0.090   2.221
 3084SOL     OW10150   4.254   6.122   4.185
 3084SOL    HW110151   4.280   6.124   4.282
 3084SOL    HW210152   4.156   6.137   4.177
 3085SOL     OW10153   0.862   4.924   2.356
 3085SOL    HW110154   0.856   4.826   2.376
 3085SOL    HW210155   0.953   4.944   2.319
 3086SOL     OW10156   6.074   1.215   4.481
 3086SOL    HW110157   6.009   1.234   4.407
 3086SOL    HW210158   6.155   1.171   4.443
 3087SOL     OW10159   5.898   4.037   1.446
 3087SOL    HW110160   5.828   4.107   1.433
 3087SOL    HW210161   5.887   3.994   1.535
 3088SOL     OW10162   3.026   3.829   6.586
 3088SOL    HW110163   3.076   3.912   6.608
 3088SOL    HW210164   3.084   3.749   6.603
 3089SOL     OW10165   3.762   1.880   1.599
 3089SOL    HW110166   3.799   1.833   1.680
 3089SOL    HW210167   3.772   1.979   1.610
 3090SOL     OW10168   6.116   1.840   0.637
 3090SOL    HW110169   6.161   1.763   0.593
 3090SOL    HW210170   6.122   1.830   0.737
 3091SOL     OW10171   2.242   5.949   0.142
 3091SOL    HW110172   2.199   5.863   0.113
 3091SOL    HW210173   2.176   6.004   0.192
 3092SOL     OW10174   3.725   5.204   0.345
 3092SOL    HW110175   3.781   5.141   0.399
 3092SOL    HW210176   3.630   5.199   0.376
 3093SOL     OW10177   5.033   0.027   3.209
 3093SOL    HW110178   5.058   6.986   3.279
 3093SOL    HW210179   5.097   0.104   3.213
 3094SOL     OW10180   3.525   5.470   4.803
 3094SOL    HW110181   3.454   5.472   4.874
 3094SOL    HW210182   3.563   5.377   4.796
 3095SOL     OW10183   1.842   5.314   5.230
 3095SOL    HW110184   1.772   5.349   5.293
 3095SOL    HW210185   1.816   5.335   5.136
 3096SOL     OW10186   0.597   1.608   5.429
 3096SOL    HW110187   0.560   1.605   5.336
 3096SOL    HW210188   0.666   1.536   5.440
 3097SOL     OW10189   2.074   0.548   0.130
 3097SOL    HW110190   2.064   0.498   0.216
 3097SOL    HW210191   1.998   0.524   0.069
 3098SOL     OW10192   4.189   2.580   0.717
 3098SOL    HW110193   4.104   2.529   0.706
 3098SOL    HW210194   4.219   2.575   0.812
 3099SOL     OW10195   1.533   5.841   5.321
 3099SOL    HW110196   1.522   5.909   5.249
 3099SOL    HW210197   1.590   5.766   5.288
 3100SOL     OW10198   6.535   6.741   6.177
 3100SOL    HW110199   6.499   6.758   6.085
 3100SOL    HW210200   6.552   6.829   6.222
 3101SOL     OW10201   3.608   0.558   1.321
 3101SOL    HW110202   3.612   0.524   1.415
 3101SOL    HW210203   3.517   0.595   1.303
 3102SOL     OW10204   0.947   5.846   0.095
 3102SOL    HW110205   0.976   5.791   0.173
 3102SOL    HW210206   0.856   5.817   0.066
 3103SOL     OW10207   4.278   4.343   1.710
 3103SOL    HW110208   4.358   4.289   1.737
 3103SOL    HW210209   4.220   4.289   1.648
 3104SOL     OW10210   5.704   5.607   3.871
 3104SOL    HW110211   5.641   5.538   3.906
 3104SOL    HW210212   5.671   5.640   3.782
 3105SOL     OW10213   5.959   5.677   3.801
 3105SOL    HW110214   5.940   5.741   3.727
 3105SOL    HW210215   5.884   5.678   3.867
 3106SOL     OW10216   6.854   3.062   4.835
 3106SOL    HW110217   6.857   3.055   4.935
 3106SOL    HW210218   6.822   3.154   4.810
 3107SOL     OW10219   2.615   7.016   4.018
 3107SOL    HW110220   2.551   0.049   4.068
 3107SOL    HW210221   2.573   6.987   3.932
 3108SOL     OW10222   1.969   0.632   3.027
 3108SOL    HW110223   2.013   0.550   3.066
 3108SOL    HW210224   2.040   0.697   3.000
 3109SOL     OW10225   4.665   5.860   3.274
 3109SOL    HW110226   4.604   5.826   3.345
 3109SOL    HW210227   4.631   5.831   3.184
 3110SOL     OW10228   0.906   2.860   1.657
 3110SOL    HW110229   0.854   2.775   1.665
 3110SOL    HW210230   0.945   2.866   1.565
 3111SOL     OW10231   0.648   4.806   2.063
 3111SOL    HW110232   0.596   4.790   2.147
 3111SOL    HW210233   0.671   4.719   2.020
 3112SOL     OW10234   2.881   3.351   5.868
 3112SOL    HW110235   2.961   3.319   5.920
 3112SOL    HW210236   2.893   3.447   5.844
 3113SOL     OW10237   4.144   6.382   4.394
 3113SOL    HW110238   4.234   6.414   4.364
 3113SOL    HW210239   4.153   6.332   4.480
 3114SOL     OW10240   5.142   5.704   0.628
 3114SOL    HW110241   5.083   5.785   0.634
 3114SOL    HW210242   5.227   5.729   0.581
 3115SOL     OW10243   3.102   2.992   2.068
 3115SOL    HW110244   3.019   3.028   2.026
 3115SOL    HW210245   3.167   2.965   1.997
 3116SOL     OW10246   0.183   1.264   6.985
 3116SOL    HW110247   0.243   1.238   0.035
 3116SOL    HW210248   0.177   1.363   6.978
 3117SOL     OW10249   3.637   4.113   6.011
 3117SOL    HW110250   3.723   4.067   5.989
 3117SOL    HW210251   3.561   4.060   5.972
 3118SOL     OW10252   6.185   5.388   6.771
 3118SOL    HW110253   6.166   5.292   6.751
 3118SOL    HW210254   6.100   5.435   6.795
 3119SOL     OW10255   2.309   4.288   6.843
 3119SOL    HW110256   2.275   4.199   6.814
 3119SOL    HW210257   2.232   4.350   6.861
 3120SOL     OW10258   2.499   5.231   6.967
 3120SOL    HW110259   2.539   5.309   6.918
 3120SOL    HW210260   2.505   5.247   0.040
 3121SOL     OW10261   0.456   5.984   3.718
 3121SOL    HW110262   0.434   6.056   3.653
 3121SOL    HW210263   0.438   5.895   3.677
 3122SOL     OW10264   3.425   5.664   1.403
 3122SOL    HW110265   3.350   5.612   1.362
 3122SOL    HW210266   3.388   5.735   1.463
 3123SOL     OW10267   3.668   0.004   4.280
 3123SOL    HW110268   3.754   0.053   4.264
 3123SOL    HW210269   3.687   6.933   4.299
 3124SOL     OW10270   3.563   6.873   5.917
 3124SOL    HW110271   3.477   6.922   5.904
 3124SOL    HW210272   3.640   6.935   5.905
 3125SOL     OW10273   6.760   2.144   6.404
 3125SOL    HW110274   6.810   2.122   6.321
 3125SOL    HW210275   6.713   2.063   6.439
 3126SOL     OW10276   3.901   6.274   6.373
 3126SOL    HW110277   3.888   6.365   6.334
 3126SOL    HW210278   3.928   6.283   6.469
 3127SOL     OW10279   0.981   1.345   4.367
 3127SOL    HW110280   0.974   1.319   4.464
 3127SOL    HW210281   0.977   1.264   4.310
 3128SOL     OW10282   1.491   0.800   1.132
 3128SOL    HW110283   1.532   0.733   1.195
 3128SOL    HW210284   1.556   0.820   1.058
 3129SOL     OW10285   0.959   3.231   3.070
 3129SOL    HW110286   0.954   3.273   3.161
 3129SOL    HW210287   1.051   3.192   3.058
 3130SOL     OW10288   2.527   5.296   3.316
 3130SOL    HW110289   2.612   5.272   3.271
 3130SOL    HW210290   2.493   5.383   3.280
 3131SOL     OW10291   0.559   2.849   4.133
 3131SOL    HW110292   0.587   2.908   4.209
 3131SOL    HW210293   0.540   2.904   4.052
 3132SOL     OW10294   5.132   3.796   5.930
 3132SOL    HW110295   5.054   3.763   5.982
 3132SOL    HW210296   5.120   3.893   5.910
 3133SOL     OW10297   2.350   1.923   3.621
 3133SOL    HW110298   2.439   1.880   3.634
 3133SOL    HW210299   2.355   2.020   3.643
 3134SOL     OW10300   5.756   2.942   2.167
 3134SOL    HW110301   5.683   2.951   2.099
 3134SOL    HW210302   5.792   2.849   2.165
 3135SOL     OW10303   1.316   1.899   2.755
 3135SOL    HW110304   1.240   1.960   2.735
 3135SOL    HW210305   1.281   1.813   2.791
 3136SOL     OW10306   6.148   0.530   4.944
 3136SOL    HW110307   6.115   0.574   5.028
 3136SOL    HW210308   6.088   0.555   4.868
 3137SOL     OW10309   0.357   1.769   4.642
 3137SOL    HW110310   0.315   1.842   4.588
 3137SOL    HW210311   0.404   1.809   4.721
 3138SOL     OW10312   6.274   2.197   4.206
 3138SOL    HW110313   6.221   2.152   4.278
 3138SOL    HW210314   6.220   2.272   4.168
 3139SOL     OW10315   4.801   5.555   5.289
 3139SOL    HW110316   4.874   5.556   5.220
 3139SOL    HW210317   4.713   5.547   5.244
 3140SOL     OW10318   6.072   6.020   6.006
 3140SOL    HW110319   5.981   6.060   6.000
 3140SOL    HW210320   6.140   6.093   6.017
 3141SOL     OW10321   1.054   6.378   1.802
 3141SOL    HW110322   1.037   6.319   1.881
 3141SOL    HW210323   0.968   6.399   1.757
 3142SOL     OW10324   3.427   0.236   0.394
 3142SOL    HW110325   3.366   0.256   0.471
 3142SOL    HW210326   3.409   0.143   0.362
 3143SOL     OW10327   0.327   1.706   0.410
 3143SOL    HW110328   0.274   1.623   0.428
 3143SOL    HW210329   0.265   1.782   0.390
 3144SOL     OW10330   2.588   2.982   6.886
 3144SOL    HW110331   2.554   2.990   6.980
 3144SOL    HW210332   2.660   2.913   6.882
 3145SOL     OW10333   2.855   5.178   2.904
 3145SOL    HW110334   2.878   5.166   2.807
 3145SOL    HW210335   2.938   5.166   2.959
 3146SOL     OW10336   2.039   6.849   4.133
 3146SOL    HW110337   2.056   6.752   4.113
 3146SOL    HW210338   2.047   6.864   4.232
 3147SOL     OW10339   3.849   4.293   0.637
 3147SOL    HW110340   3.766   4.339   0.669
 3147SOL    HW210341   3.824   4.203   0.600
 3148SOL     OW10342   2.791   5.790   4.628
 3148SOL    HW110343   2.817   5.717   4.564
 3148SOL    HW210344   2.748   5.750   4.709
 3149SOL     OW10345   2.541   6.605   5.734
 3149SOL    HW110346   2.570   6.660   5.656
 3149SOL    HW210347   2.442   6.590   5.728
 3150SOL     OW10348   6.568   0.551   4.049
 3150SOL    HW110349   6.581   0.637   4.000
 3150SOL    HW210350   6.545   0.479   3.984
 3151SOL     OW10351   3.423   6.893   1.669
 3151SOL    HW110352   3.390   6.799   1.663
 3151SOL    HW210353   3.523   6.894   1.663
 3152SOL     OW10354   1.336   4.931   6.234
 3152SOL    HW110355   1.419   4.978   6.203
 3152SOL    HW210356   1.342   4.914   6.332
 3153SOL     OW10357   6.715   4.101   3.137
 3153SOL    HW110358   6.731   4.199   3.148
 3153SOL    HW210359   6.761   4.069   3.054
 3154SOL     OW10360   5.810   2.719   5.858
 3154SOL    HW110361   5.812   2.640   5.918
 3154SOL    HW210362   5.807   2.803   5.913
 3155SOL     OW10363   4.331   5.970   0.323
 3155SOL    HW110364   4.310   6.047   0.264
 3155SOL    HW210365   4.382   6.003   0.403
 3156SOL     OW10366   3.487   3.781   3.444
 3156SOL    HW110367   3.520   3.856   3.501
 3156SOL    HW210368   3.450   3.818   3.358
 3157SOL     OW10369   2.270   2.121   4.919
 3157SOL    HW110370   2.271   2.086   4.825
 3157SOL    HW210371   2.293   2.047   4.983
 3158SOL     OW10372   4.737   6.812   1.412
 3158SOL    HW110373   4.686   6.744   1.464
 3158SOL    HW210374   4.713   6.903   1.444
 3159SOL     OW10375   5.243   4.887   0.343
 3159SOL    HW110376   5.341   4.867   0.349
 3159SOL    HW210377   5.219   4.903   0.247
 3160SOL     OW10378   6.509   4.734   0.577
 3160SOL    HW110379   6.455   4.813   0.546
 3160SOL    HW210380   6.581   4.766   0.639
 3161SOL     OW10381   1.177   0.985   3.994
 3161SOL    HW110382   1.109   0.922   4.032
 3161SOL    HW210383   1.262   0.936   3.976
 3162SOL     OW10384   7.013   0.099   6.135
 3162SOL    HW110385   0.015   0.047   6.216
 3162SOL    HW210386   6.941   0.049   6.086
 3163SOL     OW10387   1.790   4.484   5.416
 3163SOL    HW110388   1.755   4.402   5.370
 3163SOL    HW210389   1.869   4.459   5.473
 3164SOL     OW10390   6.490   5.049   5.328
 3164SOL    HW110391   6.546   4.978   5.287
 3164SOL    HW210392   6.469   5.024   5.423
 3165SOL     OW10393   0.189   2.908   1.235
 3165SOL    HW110394   0.230   2.875   1.149
 3165SOL    HW210395   0.194   3.008   1.238
 3166SOL     OW10396   3.785   3.047   6.191
 3166SOL    HW110397   3.834   3.125   6.230
 3166SOL    HW210398   3.694   3.040   6.232
 3167SOL     OW10399   0.117   4.903   2.009
 3167SOL    HW110400   0.183   4.975   1.988
 3167SOL    HW210401   0.049   4.938   2.074
 3168SOL     OW10402   6.145   2.801   1.102
 3168SOL    HW110403   6.058   2.758   1.127
 3168SOL    HW210404   6.149   2.812   1.003
 3169SOL     OW10405   2.696   2.197   5.689
 3169SOL    HW110406   2.628   2.256   5.732
 3169SOL    HW210407   2.729   2.239   5.605
 3170SOL     OW10408   3.496   0.335   5.022
 3170SOL    HW110409   3.567   0.291   4.968
 3170SOL    HW210410   3.483   0.430   4.991
 3171SOL     OW10411   5.985   5.740   2.936
 3171SOL    HW110412   5.997   5.710   2.842
 3171SOL    HW210413   5.947   5.665   2.991
 3172SOL     OW10414   5.685   6.929   5.578
 3172SOL    HW110415   5.634   7.012   5.600
 3172SOL    HW210416   5.650   6.890   5.493
 3173SOL     OW10417   1.823   0.913   1.558
 3173SOL    HW110418   1.885   0.975   1.510
 3173SOL    HW210419   1.776   0.962   1.631
 3174SOL     OW10420   2.452   3.464   6.645
 3174SOL    HW110421   2.457   3.417   6.557
 3174SOL    HW210422   2.490   3.406   6.716
 3175SOL     OW10423   0.342   6.586   0.626
 3175SOL    HW110424   0.382   6.619   0.540
 3175SOL    HW210425   0.369   6.491   0.641
 3176SOL     OW10426   0.724   5.434   0.005
 3176SOL    HW110427   0.748   5.377   0.084
 3176SOL    HW210428   0.783   5.412   6.954
 3177SOL     OW10429   1.008   0.452   4.135
 3177SOL    HW110430   1.065   0.370   4.132
 3177SOL    HW210431   0.996   0.487   4.042
 3178SOL     OW10432   3.536   3.020   0.278
 3178SOL    HW110433   3.477   2.940   0.275
 3178SOL    HW210434   3.482   3.103   0.265
 3179SOL     OW10435   1.140   2.497   4.401
 3179SOL    HW110436   1.042   2.517   4.406
 3179SOL    HW210437   1.157   2.409   4.445
 3180SOL     OW10438   6.468   1.326   6.712
 3180SOL    HW110439   6.384   1.278   6.737
 3180SOL    HW210440   6.452   1.383   6.632
 3181SOL     OW10441   0.687   1.737   2.518
 3181SOL    HW110442   0.619   1.672   2.484
 3181SOL    HW210443   0.659   1.830   2.493
 3182SOL     OW10444   1.677   5.381   5.847
 3182SOL    HW110445   1.665   5.283   5.836
 3182SOL    HW210446   1.709   5.400   5.940
 3183SOL     OW10447   4.642   3.756   1.409
 3183SOL    HW110448   4.737   3.757   1.379
 3183SOL    HW210449   4.635   3.711   1.498
 3184SOL     OW10450   0.604   2.027   3.120
 3184SOL    HW110451   0.651   2.115   3.118
 3184SOL    HW210452   0.549   2.017   3.037
 3185SOL     OW10453   0.190   6.538   6.988
 3185SOL    HW110454   0.197   6.444   6.957
 3185SOL    HW210455   0.142   6.541   0.050
 3186SOL     OW10456   3.335   0.382   1.431
 3186SOL    HW110457   3.355   0.430   1.345
 3186SOL    HW210458   3.418   0.379   1.487
 3187SOL     OW10459   3.223   4.163   0.242
 3187SOL    HW110460   3.200   4.207   0.328
 3187SOL    HW210461   3.318   4.183   0.218
 3188SOL     OW10462   3.574   6.807   3.653
 3188SOL    HW110463   3.630   6.845   3.726
 3188SOL    HW210464   3.480   6.795   3.685
 3189SOL     OW10465   6.365   6.354   2.227
 3189SOL    HW110466   6.460   6.386   2.223
 3189SOL    HW210467   6.346   6.295   2.149
 3190SOL     OW10468   1.294   0.273   2.111
 3190SOL    HW110469   1.391   0.293   2.121
 3190SOL    HW210470   1.278   0.226   2.024
 3191SOL     OW10471   3.203   1.305   0.331
 3191SOL    HW110472   3.177   1.213   0.362
 3191SOL    HW210473   3.257   1.350   0.402
 3192SOL     OW10474   5.506   3.119   4.009
 3192SOL    HW110475   5.583   3.059   3.990
 3192SOL    HW210476   5.422   3.077   3.976
 3193SOL     OW10477   5.232   4.570   1.314
 3193SOL    HW110478   5.205   4.654   1.267
 3193SOL    HW210479   5.279   4.593   1.399
 3194SOL     OW10480   2.691   5.690   4.863
 3194SOL    HW110481   2.625   5.720   4.932
 3194SOL    HW210482   2.708   5.592   4.873
 3195SOL     OW10483   6.671   4.237   4.094
 3195SOL    HW110484   6.745   4.288   4.137
 3195SOL    HW210485   6.691   4.139   4.098
 3196SOL     OW10486   0.076   6.435   6.161
 3196SOL    HW110487   0.115   6.511   6.213
 3196SOL    HW210488   0.010   6.386   6.218
 3197SOL     OW10489   0.551   4.385   5.721
 3197SOL    HW110490   0.617   4.379   5.795
 3197SOL    HW210491   0.469   4.433   5.753
 3198SOL     OW10492   5.830   6.559   0.619
 3198SOL    HW110493   5.788   6.582   0.708
 3198SOL    HW210494   5.774   6.598   0.546
 3199SOL     OW10495   3.017   1.453   3.424
 3199SOL    HW110496   3.115   1.447   3.407
 3199SOL    HW210497   2.968   1.403   3.353
 3200SOL     OW10498   6.211   1.975   0.172
 3200SOL    HW110499   6.230   1.879   0.194
 3200SOL    HW210500   6.115   1.996   0.191
 3201SOL     OW10501   4.124   4.709   3.093
 3201SOL    HW110502   4.027   4.689   3.086
 3201SOL    HW210503   4.138   4.792   3.148
 3202SOL     OW10504   1.211   5.158   1.885
 3202SOL    HW110505   1.290   5.100   1.867
 3202SOL    HW210506   1.153   5.114   1.954
 3203SOL     OW10507   4.527   0.170   0.773
 3203SOL    HW110508   4.498   0.100   0.707
 3203SOL    HW210509   4.550   0.254   0.725
 3204SOL     OW10510   6.563   6.719   2.029
 3204SOL    HW110511   6.466   6.743   2.041
 3204SOL    HW210512   6.620   6.793   2.066
 3205SOL     OW10513   1.106   3.559   4.374
 3205SOL    HW110514   1.185   3.499   4.363
 3205SOL    HW210515   1.131   3.638   4.429
 3206SOL     OW10516   1.929   6.540   0.180
 3206SOL    HW110517   1.912   6.637   0.192
 3206SOL    HW210518   2.017   6.527   0.133
 3207SOL     OW10519   1.668   1.377   3.163
 3207SOL    HW110520   1.713   1.333   3.241
 3207SOL    HW210521   1.727   1.368   3.082
 3208SOL     OW10522   5.932   6.483   5.844
 3208SOL    HW110523   5.861   6.534   5.796
 3208SOL    HW210524   5.961   6.406   5.788
 3209SOL     OW10525   0.872   0.202   3.883
 3209SOL    HW110526   0.812   0.136   3.928
 3209SOL    HW210527   0.935   0.154   3.822
 3210SOL     OW10528   0.423   5.891   2.085
 3210SOL    HW110529   0.379   5.945   2.156
 3210SOL    HW210530   0.378   5.802   2.077
 3211SOL     OW10531   0.628   4.565   3.828
 3211SOL    HW110532   0.656   4.656   3.860
 3211SOL    HW210533   0.707   4.520   3.785
 3212SOL     OW10534   4.607   2.782   4.975
 3212SOL    HW110535   4.547   2.703   4.986
 3212SOL    HW210536   4.559   2.854   4.924
 3213SOL     OW10537   5.471   0.174   1.347
 3213SOL    HW110538   5.420   0.095   1.381
 3213SOL    HW210539   5.569   0.159   1.360
 3214SOL     OW10540   4.665   4.253   0.216
 3214SOL    HW110541   4.677   4.239   0.118
 3214SOL    HW210542   4.581   4.208   0.246
 3215SOL     OW10543   6.216   1.498   6.948
 3215SOL    HW110544   6.160   1.466   7.024
 3215SOL    HW210545   6.224   1.426   6.879
 3216SOL     OW10546   5.296   6.525   5.220
 3216SOL    HW110547   5.302   6.602   5.157
 3216SOL    HW210548   5.347   6.546   5.304
 3217SOL     OW10549   0.051   4.370   6.311
 3217SOL    HW110550   0.100   4.292   6.271
 3217SOL    HW210551   0.109   4.417   6.377
 3218SOL     OW10552   4.035   2.361   1.648
 3218SOL    HW110553   3.950   2.411   1.664
 3218SOL    HW210554   4.063   2.315   1.732
 3219SOL     OW10555   0.647   1.540   3.325
 3219SOL    HW110556   0.626   1.604   3.399
 3219SOL    HW210557   0.607   1.572   3.240
 3220SOL     OW10558   6.819   2.908   6.427
 3220SOL    HW110559   6.802   2.931   6.523
 3220SOL    HW210560   6.916   2.888   6.415
 3221SOL     OW10561   3.663   0.661   1.806
 3221SOL    HW110562   3.610   0.638   1.887
 3221SOL    HW210563   3.760   0.670   1.831
 3222SOL     OW10564   6.498   3.908   2.218
 3222SOL    HW110565   6.549   3.827   2.246
 3222SOL    HW210566   6.497   3.975   2.292
 3223SOL     OW10567   1.441   4.255   5.340
 3223SOL    HW110568   1.424   4.256   5.439
 3223SOL    HW210569   1.407   4.339   5.299
 3224SOL     OW10570   2.828   6.323   1.207
 3224SOL    HW110571   2.762   6.340   1.280
 3224SOL    HW210572   2.780   6.292   1.125
 3225SOL     OW10573   1.667   2.103   0.816
 3225SOL    HW110574   1.760   2.075   0.840
 3225SOL    HW210575   1.665   2.131   0.720
 3226SOL     OW10576   6.570   1.682   3.756
 3226SOL    HW110577   6.600   1.607   3.698
 3226SOL    HW210578   6.543   1.647   3.845
 3227SOL     OW10579   2.605   1.568   5.337
 3227SOL    HW110580   2.592   1.602   5.244
 3227SOL    HW210581   2.669   1.491   5.336
 3228SOL     OW10582   4.964   3.438   4.969
 3228SOL    HW110583   4.914   3.516   5.006
 3228SOL    HW210584   4.926   3.413   4.880
 3229SOL     OW10585   4.260   1.696   4.672
 3229SOL    HW110586   4.175   1.681   4.721
 3229SOL    HW210587   4.301   1.783   4.700
 3230SOL     OW10588   1.750   6.882   4.434
 3230SOL    HW110589   1.652   6.889   4.414
 3230SOL    HW210590   1.791   6.813   4.376
 3231SOL     OW10591   4.151   4.669   0.333
 3231SOL    HW110592   4.064   4.717   0.349
 3231SOL    HW210593   4.135   4.570   0.334
 3232SOL     OW10594   0.798   3.897   3.246
 3232SOL    HW110595   0.770   3.903   3.151
 3232SOL    HW210596   0.894   3.868   3.251
 3233SOL     OW10597   2.447   4.170   0.578
 3233SOL    HW110598   2.397   4.098   0.626
 3233SOL    HW210599   2.471   4.137   0.486
 3234SOL     OW10600   6.712   1.628   4.527
 3234SOL    HW110601   6.652   1.559   4.485
 3234SOL    HW210602   6.794   1.638   4.471
 3235SOL     OW10603   6.211   0.726   2.304
 3235SOL    HW110604   6.173   0.673   2.379
 3235SOL    HW210605   6.227   0.820   2.335
 3236SOL     OW10606   6.710   1.969   1.284
 3236SOL    HW110607   6.801   2.005   1.305
 3236SOL    HW210608   6.681   1.907   1.357
 3237SOL     OW10609   2.641   5.990   4.242
 3237SOL    HW110610   2.733   6.008   4.276
 3237SOL    HW210611   2.608   5.902   4.278
 3238SOL     OW10612   6.546   6.544   6.621
 3238SOL    HW110613   6.610   6.472   6.646
 3238SOL    HW210614   6.542   6.612   6.694
 3239SOL     OW10615   1.969   6.227   6.239
 3239SOL    HW110616   1.972   6.301   6.172
 3239SOL    HW210617   2.026   6.251   6.317
 3240SOL     OW10618   1.408   2.461   4.649
 3240SOL    HW110619   1.389   2.560   4.648
 3240SOL    HW210620   1.387   2.424   4.739
 3241SOL     OW10621   3.329   6.122   5.135
 3241SOL    HW110622   3.252   6.072   5.094
 3241SOL    HW210623   3.390   6.153   5.062
 3242SOL     OW10624   2.486   0.802   0.765
 3242SOL    HW110625   2.477   0.897   0.736
 3242SOL    HW210626   2.398   0.756   0.757
 3243SOL     OW10627   4.037   5.564   2.296
 3243SOL    HW110628   4.081   5.474   2.297
 3243SOL    HW210629   4.077   5.620   2.224
 3244SOL     OW10630   1.214   0.189   5.058
 3244SOL    HW110631   1.118   0.184   5.031
 3244SOL    HW210632   1.249   0.097   5.077
 3245SOL     OW10633   3.357   1.945   5.798
 3245SOL    HW110634   3.367   1.976   5.704
 3245SOL    HW210635   3.416   1.999   5.859
 3246SOL     OW10636   6.091   6.478   2.660
 3246SOL    HW110637   6.045   6.476   2.749
 3246SOL    HW210638   6.031   6.520   2.592
 3247SOL     OW10639   6.183   3.000   5.208
 3247SOL    HW110640   6.150   3.052   5.129
 3247SOL    HW210641   6.254   2.936   5.178
 3248SOL     OW10642   5.147   4.312   3.272
 3248SOL    HW110643   5.073   4.281   3.213
 3248SOL    HW210644   5.225   4.249   3.265
 3249SOL     OW10645   3.585   5.464   5.980
 3249SOL    HW110646   3.652   5.395   5.952
 3249SOL    HW210647   3.493   5.433   5.955
 3250SOL     OW10648   4.328   4.478   0.539
 3250SOL    HW110649   4.333   4.537   0.459
 3250SOL    HW210650   4.241   4.428   0.538
 3251SOL     OW10651   2.315   1.514   3.551
 3251SOL    HW110652   2.374   1.540   3.475
 3251SOL    HW210653   2.296   1.595   3.607
 3252SOL     OW10654   3.013   2.173   2.992
 3252SOL    HW110655   3.071   2.166   2.911
 3252SOL    HW210656   2.924   2.210   2.965
 3253SOL     OW10657   4.924   4.773   1.716
 3253SOL    HW110658   4.954   4.745   1.807
 3253SOL    HW210659   4.983   4.847   1.682
 3254SOL     OW10660   6.169   3.688   2.753
 3254SOL    HW110661   6.249   3.747   2.761
 3254SOL    HW210662   6.089   3.743   2.731
 3255SOL     OW10663   3.559   4.877   1.037
 3255SOL    HW110664   3.474   4.826   1.051
 3255SOL    HW210665   3.540   4.961   0.986
 3256SOL     OW10666   6.581   6.983   5.224
 3256SOL    HW110667   6.628   0.035   5.265
 3256SOL    HW210668   6.649   6.923   5.181
 3257SOL     OW10669   2.380   1.139   1.671
 3257SOL    HW110670   2.476   1.114   1.661
 3257SOL    HW210671   2.356   1.207   1.603
 3258SOL     OW10672   5.002   0.094   2.424
 3258SOL    HW110673   4.942   0.151   2.367
 3258SOL    HW210674   5.055   0.153   2.485
 3259SOL     OW10675   5.887   5.307   3.097
 3259SOL    HW110676   5.905   5.256   3.181
 3259SOL    HW210677   5.795   5.286   3.065
 3260SOL     OW10678   2.404   1.579   1.379
 3260SOL    HW110679   2.386   1.635   1.298
 3260SOL    HW210680   2.478   1.619   1.432
 3261SOL     OW10681   5.633   6.524   4.128
 3261SOL    HW110682   5.698   6.449   4.122
 3261SOL    HW210683   5.584   6.534   4.042
 3262SOL     OW10684   4.447   2.310   3.579
 3262SOL    HW110685   4.489   2.399   3.594
 3262SOL    HW210686   4.502   2.257   3.515
 3263SOL     OW10687   3.238   4.848   3.296
 3263SOL    HW110688   3.226   4.943   3.325
 3263SOL    HW210689   3.331   4.835   3.262
 3264SOL     OW10690   5.396   4.192   6.399
 3264SOL    HW110691   5.463   4.186   6.473
 3264SOL    HW210692   5.353   4.283   6.400
 3265SOL     OW10693   5.194   6.952   5.619
 3265SOL    HW110694   5.105   6.916   5.591
 3265SOL    HW210695   5.245   6.881   5.667
 3266SOL     OW10696   0.740   2.385   6.578
 3266SOL    HW110697   0.802   2.359   6.652
 3266SOL    HW210698   0.754   2.481   6.554
 3267SOL     OW10699   5.482   4.228   1.782
 3267SOL    HW110700   5.567   4.277   1.802
 3267SOL    HW210701   5.421   4.233   1.861
 3268SOL     OW10702   1.868   5.476   0.233
 3268SOL    HW110703   1.930   5.554   0.237
 3268SOL    HW210704   1.921   5.391   0.235
 3269SOL     OW10705   4.443   2.736   1.005
 3269SOL    HW110706   4.535   2.773   1.018
 3269SOL    HW210707   4.413   2.691   1.089
 3270SOL     OW10708   6.760   5.660   3.349
 3270SOL    HW110709   6.839   5.605   3.378
 3270SOL    HW210710   6.723   5.623   3.263
 3271SOL     OW10711   4.847   0.000   0.626
 3271SOL    HW110712   4.827   0.077   0.687
 3271SOL    HW210713   4.923   0.024   0.565
 3272SOL     OW10714   4.353   5.893   5.453
 3272SOL    HW110715   4.270   5.931   5.412
 3272SOL    HW210716   4.430   5.954   5.433
 3273SOL     OW10717   6.830   0.110   3.059
 3273SOL    HW110718   6.839   0.102   3.158
 3273SOL    HW210719   6.919   0.098   3.016
 3274SOL     OW10720   3.039   0.903   1.282
 3274SOL    HW110721   3.070   0.922   1.188
 3274SOL    HW210722   2.942   0.924   1.289
 3275SOL     OW10723   4.045   0.210   6.877
 3275SOL    HW110724   4.043   0.230   6.779
 3275SOL    HW210725   4.119   0.145   6.896
 3276SOL     OW10726   1.297   5.862   1.324
 3276SOL    HW110727   1.362   5.794   1.293
 3276SOL    HW210728   1.207   5.843   1.285
 3277SOL     OW10729   0.193   6.273   6.852
 3277SOL    HW110730   0.267   6.207   6.843
 3277SOL    HW210731   0.114   6.229   6.896
 3278SOL     OW10732   1.430   0.360   6.885
 3278SOL    HW110733   1.487   0.382   6.964
 3278SOL    HW210734   1.392   0.269   6.897
 3279SOL     OW10735   2.012   6.597   1.623
 3279SOL    HW110736   2.037   6.693   1.609
 3279SOL    HW210737   1.955   6.588   1.704
 3280SOL     OW10738   2.833   5.788   3.381
 3280SOL    HW110739   2.900   5.729   3.426
 3280SOL    HW210740   2.761   5.731   3.340
 3281SOL     OW10741   1.404   6.523   1.156
 3281SOL    HW110742   1.486   6.498   1.207
 3281SOL    HW210743   1.325   6.527   1.218
 3282SOL     OW10744   1.654   4.882   2.436
 3282SOL    HW110745   1.641   4.959   2.500
 3282SOL    HW210746   1.621   4.798   2.478
 3283SOL     OW10747   1.580   0.771   3.176
 3283SOL    HW110748   1.532   0.717   3.107
 3283SOL    HW210749   1.524   0.849   3.202
 3284SOL     OW10750   1.989   5.933   5.486
 3284SOL    HW110751   1.934   6.010   5.519
 3284SOL    HW210752   2.086   5.951   5.505
 3285SOL     OW10753   0.528   3.371   4.432
 3285SOL    HW110754   0.509   3.417   4.346
 3285SOL    HW210755   0.617   3.325   4.426
 3286SOL     OW10756   5.238   4.404   6.400
 3286SOL    HW110757   5.250   4.481   6.337
 3286SOL    HW210758   5.156   4.354   6.376
 3287SOL     OW10759   0.016   2.625   1.242
 3287SOL    HW110760   0.030   2.711   1.193
 3287SOL    HW210761   7.008   2.555   1.179
 3288SOL     OW10762   0.730   0.122   0.431
 3288SOL    HW110763   0.748   0.126   0.530
 3288SOL    HW210764   0.634   0.095   0.417
 3289SOL     OW10765   1.427   0.027   3.841
 3289SOL    HW110766   1.364   0.045   3.766
 3289SOL    HW210767   1.520   0.017   3.805
 3290SOL     OW10768   6.999   5.003   4.030
 3290SOL    HW110769   7.001   5.088   4.081
 3290SOL    HW210770   6.928   5.007   3.960
 3291SOL     OW10771   0.993   1.887   1.654
 3291SOL    HW110772   0.982   1.941   1.571
 3291SOL    HW210773   1.064   1.818   1.639
 3292SOL     OW10774   0.618   6.395   4.161
 3292SOL    HW110775   0.576   6.386   4.252
 3292SOL    HW210776   0.695   6.332   4.153
 3293SOL     OW10777   6.030   0.352   2.872
 3293SOL    HW110778   6.020   0.328   2.969
 3293SOL    HW210779   6.007   0.272   2.816
 3294SOL     OW10780   0.116   6.552   1.285
 3294SOL    HW110781   0.116   6.652   1.288
 3294SOL    HW210782   0.068   6.521   1.203
 3295SOL     OW10783   3.230   2.985   6.189
 3295SOL    HW110784   3.184   2.938   6.265
 3295SOL    HW210785   3.164   3.043   6.141
 3296SOL     OW10786   0.818   6.463   1.696
 3296SOL    HW110787   0.874   6.518   1.634
 3296SOL    HW210788   0.749   6.413   1.644
 3297SOL     OW10789   3.590   0.869   5.599
 3297SOL    HW110790   3.610   0.871   5.697
 3297SOL    HW210791   3.500   0.828   5.584
 3298SOL     OW10792   0.596   5.638   3.135
 3298SOL    HW110793   0.598   5.674   3.042
 3298SOL    HW210794   0.511   5.667   3.180
 3299SOL     OW10795   1.848   1.354   4.392
 3299SOL    HW110796   1.754   1.386   4.389
 3299SOL    HW210797   1.904   1.407   4.328
 3300SOL     OW10798   0.207   6.970   5.009
 3300SOL    HW110799   0.250   7.010   4.928
 3300SOL    HW210800   0.278   6.940   5.073
 3301SOL     OW10801   6.305   4.580   2.056
 3301SOL    HW110802   6.341   4.495   2.093
 3301SOL    HW210803   6.205   4.579   2.059
 3302SOL     OW10804   1.861   6.152   5.603
 3302SOL    HW110805   1.825   6.146   5.697
 3302SOL    HW210806   1.951   6.195   5.605
 3303SOL     OW10807   3.434   3.632   4.975
 3303SOL    HW110808   3.344   3.640   5.019
 3303SOL    HW210809   3.434   3.685   4.890
 3304SOL     OW10810   1.421   0.904   3.739
 3304SOL    HW110811   1.322   0.909   3.726
 3304SOL    HW210812   1.454   0.989   3.779
 3305SOL     OW10813   0.640   2.302   0.450
 3305SOL    HW110814   0.557   2.256   0.481
 3305SOL    HW210815   0.718   2.241   0.460
 3306SOL     OW10816   1.490   1.379   0.866
 3306SOL    HW110817   1.414   1.315   0.877
 3306SOL    HW210818   1.482   1.426   0.778
 3307SOL     OW10819   0.143   6.988   0.088
 3307SOL    HW110820   0.218   0.022   0.117
 3307SOL    HW210821   0.179   6.914   0.031
 3308SOL     OW10822   5.191   6.043   0.466
 3308SOL    HW110823   5.191   6.066   0.564
 3308SOL    HW210824   5.252   6.106   0.417
 3309SOL     OW10825   0.824   4.470   2.010
 3309SOL    HW110826   0.757   4.518   1.954
 3309SOL    HW210827   0.854   4.388   1.962
 3310SOL     OW10828   2.052   6.010   2.577
 3310SOL    HW110829   1.959   6.008   2.613
 3310SOL    HW210830   2.075   6.104   2.549
 3311SOL     OW10831   4.145   5.489   0.942
 3311SOL    HW110832   4.089   5.432   0.882
 3311SOL    HW210833   4.178   5.435   1.019
 3312SOL     OW10834   1.755   2.298   6.417
 3312SOL    HW110835   1.748   2.199   6.413
 3312SOL    HW210836   1.831   2.329   6.360
 3313SOL     OW10837   5.740   6.612   5.289
 3313SOL    HW110838   5.692   6.561   5.218
 3313SOL    HW210839   5.683   6.689   5.318
 3314SOL     OW10840   0.610   4.192   6.176
 3314SOL    HW110841   0.530   4.214   6.232
 3314SOL    HW210842   0.581   4.152   6.090
 3315SOL     OW10843   6.261   3.230   3.078
 3315SOL    HW110844   6.168   3.257   3.051
 3315SOL    HW210845   6.278   3.136   3.051
 3316SOL     OW10846   3.333   0.421   6.644
 3316SOL    HW110847   3.314   0.361   6.722
 3316SOL    HW210848   3.248   0.464   6.613
 3317SOL     OW10849   5.331   3.012   1.250
 3317SOL    HW110850   5.396   3.012   1.173
 3317SOL    HW210851   5.241   3.043   1.218
 3318SOL     OW10852   2.486   5.032   6.795
 3318SOL    HW110853   2.387   5.018   6.783
 3318SOL    HW210854   2.502   5.122   6.833
 3319SOL     OW10855   0.995   5.812   6.085
 3319SOL    HW110856   1.017   5.833   6.180
 3319SOL    HW210857   1.031   5.883   6.025
 3320SOL     OW10858   1.017   0.673   1.522
 3320SOL    HW110859   0.931   0.695   1.569
 3320SOL    HW210860   1.022   0.575   1.505
 3321SOL     OW10861   3.695   3.673   4.367
 3321SOL    HW110862   3.733   3.597   4.420
 3321SOL    HW210863   3.659   3.742   4.429
 3322SOL     OW10864   5.026   3.722   2.685
 3322SOL    HW110865   5.006   3.640   2.630
 3322SOL    HW210866   4.965   3.796   2.657
 3323SOL     OW10867   1.426   4.617   0.727
 3323SOL    HW110868   1.487   4.627   0.805
 3323SOL    HW210869   1.365   4.539   0.742
 3324SOL     OW10870   6.717   3.299   1.763
 3324SOL    HW110871   6.746   3.255   1.848
 3324SOL    HW210872   6.793   3.351   1.725
 3325SOL     OW10873   1.260   4.987   5.063
 3325SOL    HW110874   1.166   4.957   5.081
 3325SOL    HW210875   1.319   4.959   5.139
 3326SOL     OW10876   4.547   6.584   2.145
 3326SOL    HW110877   4.506   6.659   2.197
 3326SOL    HW210878   4.514   6.496   2.180
 3327SOL     OW10879   4.826   6.465   1.574
 3327SOL    HW110880   4.729   6.490   1.573
 3327SOL    HW210881   4.840   6.382   1.520
 3328SOL     OW10882   6.101   6.429   3.613
 3328SOL    HW110883   6.100   6.361   3.540
 3328SOL    HW210884   6.098   6.521   3.573
 3329SOL     OW10885   5.767   0.247   6.371
 3329SOL    HW110886   5.774   0.343   6.344
 3329SOL    HW210887   5.671   0.217   6.364
 3330SOL     OW10888   5.978   0.109   2.739
 3330SOL    HW110889   6.065   0.118   2.691
 3330SOL    HW210890   5.903   0.118   2.673
 3331SOL     OW10891   0.878   3.292   2.319
 3331SOL    HW110892   0.842   3.290   2.412
 3331SOL    HW210893   0.947   3.364   2.311
 3332SOL     OW10894   4.289   5.179   0.750
 3332SOL    HW110895   4.301   5.085   0.781
 3332SOL    HW210896   4.356   5.238   0.797
 3333SOL     OW10897   2.414   4.131   1.141
 3333SOL    HW110898   2.428   4.100   1.236
 3333SOL    HW210899   2.472   4.077   1.080
 3334SOL     OW10900   1.503   2.753   2.366
 3334SOL    HW110901   1.578   2.696   2.400
 3334SOL    HW210902   1.526   2.788   2.275
 3335SOL     OW10903   4.706   4.217   6.483
 3335SOL    HW110904   4.697   4.156   6.562
 3335SOL    HW210905   4.640   4.192   6.413
 3336SOL     OW10906   3.812   6.120   5.946
 3336SOL    HW110907   3.797   6.035   5.997
 3336SOL    HW210908   3.851   6.099   5.857
 3337SOL     OW10909   2.951   3.670   3.877
 3337SOL    HW110910   2.979   3.766   3.882
 3337SOL    HW210911   2.896   3.647   3.957
 3338SOL     OW10912   3.445   2.809   1.502
 3338SOL    HW110913   3.370   2.861   1.543
 3338SOL    HW210914   3.425   2.792   1.406
 3339SOL     OW10915   0.810   6.681   6.043
 3339SOL    HW110916   0.785   6.706   6.137
 3339SOL    HW210917   0.909   6.680   6.034
 3340SOL     OW10918   4.696   1.610   6.731
 3340SOL    HW110919   4.791   1.600   6.700
 3340SOL    HW210920   4.639   1.541   6.685
 3341SOL     OW10921   1.278   4.152   1.641
 3341SOL    HW110922   1.215   4.092   1.591
 3341SOL    HW210923   1.323   4.099   1.713
 3342SOL     OW10924   5.727   0.604   2.606
 3342SOL    HW110925   5.635   0.564   2.611
 3342SOL    HW210926   5.720   0.703   2.606
 3343SOL     OW10927   3.703   4.654   0.743
 3343SOL    HW110928   3.746   4.697   0.823
 3343SOL    HW210929   3.610   4.625   0.768
 3344SOL     OW10930   1.548   3.338   0.958
 3344SOL    HW110931   1.462   3.355   0.911
 3344SOL    HW210932   1.591   3.425   0.984
 3345SOL     OW10933   4.478   4.942   1.118
 3345SOL    HW110934   4.553   5.001   1.089
 3345SOL    HW210935   4.501   4.899   1.205
 3346SOL     OW10936   1.217   0.534   6.831
 3346SOL    HW110937   1.297   0.475   6.842
 3346SOL    HW210938   1.159   0.528   6.912
 3347SOL     OW10939   0.716   3.270   5.863
 3347SOL    HW110940   0.810   3.290   5.892
 3347SOL    HW210941   0.709   3.279   5.764
 3348SOL     OW10942   3.272   4.184   5.894
 3348SOL    HW110943   3.231   4.156   5.808
 3348SOL    HW210944   3.257   4.282   5.909
 3349SOL     OW10945   2.333   5.077   1.969
 3349SOL    HW110946   2.419   5.033   1.941
 3349SOL    HW210947   2.351   5.172   1.994
 3350SOL     OW10948   3.141   5.528   3.951
 3350SOL    HW110949   3.060   5.487   3.907
 3350SOL    HW210950   3.198   5.455   3.989
 3351SOL     OW10951   4.992   0.020   1.709
 3351SOL    HW110952   5.008   6.958   1.664
 3351SOL    HW210953   4.896   0.026   1.739
 3352SOL     OW10954   6.008   0.737   0.281
 3352SOL    HW110955   6.054   0.659   0.238
 3352SOL    HW210956   5.912   0.737   0.253
 3353SOL     OW10957   4.261   0.828   5.959
 3353SOL    HW110958   4.183   0.882   5.928
 3353SOL    HW210959   4.343   0.884   5.960
 3354SOL     OW10960   2.970   2.141   0.035
 3354SOL    HW110961   3.007   2.114   0.124
 3354SOL    HW210962   3.009   2.083   6.989
 3355SOL     OW10963   1.216   2.386   5.395
 3355SOL    HW110964   1.207   2.418   5.301
 3355SOL    HW210965   1.256   2.459   5.451
 3356SOL     OW10966   3.229   0.528   5.144
 3356SOL    HW110967   3.249   0.530   5.242
 3356SOL    HW210968   3.303   0.573   5.094
 3357SOL     OW10969   2.928   3.628   4.422
 3357SOL    HW110970   2.886   3.549   4.467
 3357SOL    HW210971   2.943   3.700   4.490
 3358SOL     OW10972   6.641   1.978   1.731
 3358SOL    HW110973   6.710   1.907   1.751
 3358SOL    HW210974   6.683   2.068   1.741
 3359SOL     OW10975   1.027   6.850   3.697
 3359SOL    HW110976   0.929   6.829   3.694
 3359SOL    HW210977   1.075   6.794   3.630
 3360SOL     OW10978   1.088   5.438   4.716
 3360SOL    HW110979   1.067   5.348   4.677
 3360SOL    HW210980   1.171   5.431   4.771
 3361SOL     OW10981   0.507   0.365   4.613
 3361SOL    HW110982   0.540   0.284   4.564
 3361SOL    HW210983   0.412   0.383   4.587
 3362SOL     OW10984   3.242   0.955   5.445
 3362SOL    HW110985   3.209   0.978   5.354
 3362SOL    HW210986   3.334   0.991   5.458
 3363SOL     OW10987   4.903   3.549   0.710
 3363SOL    HW110988   4.880   3.519   0.803
 3363SOL    HW210989   4.915   3.648   0.709
 3364SOL     OW10990   1.799   2.880   1.130
 3364SOL    HW110991   1.781   2.832   1.216
 3364SOL    HW210992   1.713   2.910   1.089
 3365SOL     OW10993   0.252   3.016   2.540
 3365SOL    HW110994   0.260   2.917   2.549
 3365SOL    HW210995   0.254   3.042   2.444
 3366SOL     OW10996   5.658   3.602   3.424
 3366SOL    HW110997   5.603   3.561   3.352
 3366SOL    HW210998   5.749   3.561   3.425
 3367SOL     OW10999   2.967   3.437   3.723
 3367SOL    HW111000   2.891   3.379   3.752
 3367SOL    HW211001   2.972   3.518   3.782
 3368SOL     OW11002   1.098   1.071   3.475
 3368SOL    HW111003   1.154   1.154   3.479
 3368SOL    HW211004   1.003   1.095   3.457
 3369SOL     OW11005   5.810   2.665   0.446
 3369SOL    HW111006   5.875   2.736   0.418
 3369SOL    HW211007   5.717   2.695   0.423
 3370SOL     OW11008   0.641   5.910   3.446
 3370SOL    HW111009   0.649   5.980   3.375
 3370SOL    HW211010   0.571   5.843   3.418
 3371SOL     OW11011   2.985   2.963   1.293
 3371SOL    HW111012   3.040   3.004   1.365
 3371SOL    HW211013   2.993   2.863   1.298
 3372SOL     OW11014   5.228   3.070   3.358
 3372SOL    HW111015   5.201   2.984   3.316
 3372SOL    HW211016   5.230   3.142   3.289
 3373SOL     OW11017   0.691   4.592   1.009
 3373SOL    HW111018   0.718   4.548   0.923
 3373SOL    HW211019   0.761   4.657   1.037
 3374SOL     OW11020   1.248   5.532   4.255
 3374SOL    HW111021   1.188   5.457   4.230
 3374SOL    HW211022   1.309   5.503   4.329
 3375SOL     OW11023   6.815   6.903   5.560
 3375SOL    HW111024   6.880   6.897   5.636
 3375SOL    HW211025   6.767   6.990   5.564
 3376SOL     OW11026   3.664   4.191   4.808
 3376SOL    HW111027   3.602   4.183   4.886
 3376SOL    HW211028   3.695   4.286   4.800
 3377SOL     OW11029   6.700   5.725   4.482
 3377SOL    HW111030   6.661   5.633   4.488
 3377SOL    HW211031   6.664   5.782   4.556
 3378SOL     OW11032   1.122   6.053   0.181
 3378SOL    HW111033   1.053   5.986   0.153
 3378SOL    HW211034   1.213   6.019   0.155
 3379SOL     OW11035   5.465   4.866   4.150
 3379SOL    HW111036   5.397   4.838   4.217
 3379SOL    HW211037   5.546   4.809   4.158
 3380SOL     OW11038   1.400   4.415   2.123
 3380SOL    HW111039   1.410   4.500   2.174
 3380SOL    HW211040   1.305   4.386   2.125
 3381SOL     OW11041   3.116   4.396   6.650
 3381SOL    HW111042   3.190   4.458   6.679
 3381SOL    HW211043   3.152   4.333   6.581
 3382SOL     OW11044   0.416   3.669   6.548
 3382SOL    HW111045   0.350   3.682   6.475
 3382SOL    HW211046   0.443   3.758   6.585
 3383SOL     OW11047   3.996   6.294   0.215
 3383SOL    HW111048   3.968   6.258   0.126
 3383SOL    HW211049   4.096   6.290   0.222
 3384SOL     OW11050   3.972   2.651   6.592
 3384SOL    HW111051   4.000   2.671   6.686
 3384SOL    HW211052   3.879   2.614   6.592
 3385SOL     OW11053   5.904   1.982   4.499
 3385SOL    HW111054   5.895   1.957   4.402
 3385SOL    HW211055   5.922   1.900   4.553
 3386SOL     OW11056   7.024   4.954   5.222
 3386SOL    HW111057   0.014   5.012   5.301
 3386SOL    HW211058   0.021   4.859   5.245
 3387SOL     OW11059   6.165   0.589   2.771
 3387SOL    HW111060   6.258   0.552   2.780
 3387SOL    HW211061   6.100   0.523   2.809
 3388SOL     OW11062   1.097   3.820   0.694
 3388SOL    HW111063   1.189   3.824   0.733
 3388SOL    HW211064   1.067   3.913   0.671
 3389SOL     OW11065   6.082   5.106   5.621
 3389SOL    HW111066   6.088   5.206   5.623
 3389SOL    HW211067   6.095   5.073   5.528
 3390SOL     OW11068   2.918   4.458   1.013
 3390SOL    HW111069   2.848   4.452   0.942
 3390SOL    HW211070   2.881   4.508   1.091
 3391SOL     OW11071   5.170   3.794   5.654
 3391SOL    HW111072   5.172   3.784   5.754
 3391SOL    HW211073   5.193   3.888   5.630
 3392SOL     OW11074   4.813   5.831   5.639
 3392SOL    HW111075   4.851   5.792   5.556
 3392SOL    HW211076   4.714   5.826   5.636
 3393SOL     OW11077   3.081   1.086   0.485
 3393SOL    HW111078   3.103   1.007   0.427
 3393SOL    HW211079   3.151   1.096   0.555
 3394SOL     OW11080   2.966   5.814   1.908
 3394SOL    HW111081   3.031   5.781   1.840
 3394SOL    HW211082   3.008   5.888   1.962
 3395SOL     OW11083   1.682   5.784   3.035
 3395SOL    HW111084   1.612   5.738   3.089
 3395SOL    HW211085   1.652   5.791   2.940
 3396SOL     OW11086   3.853   6.964   3.954
 3396SOL    HW111087   3.754   6.954   3.943
 3396SOL    HW211088   3.872   7.011   4.040
 3397SOL     OW11089   2.914   6.166   2.108
 3397SOL    HW111090   2.915   6.218   2.022
 3397SOL    HW211091   2.892   6.071   2.089
 3398SOL     OW11092   6.583   0.359   0.632
 3398SOL    HW111093   6.545   0.266   0.629
 3398SOL    HW211094   6.521   0.421   0.584
 3399SOL     OW11095   6.603   6.440   2.119
 3399SOL    HW111096   6.620   6.523   2.065
 3399SOL    HW211097   6.691   6.404   2.153
 3400SOL     OW11098   3.629   3.640   5.506
 3400SOL    HW111099   3.706   3.667   5.562
 3400SOL    HW211100   3.660   3.583   5.430
 3401SOL     OW11101   6.835   3.660   3.823
 3401SOL    HW111102   6.862   3.708   3.740
 3401SOL    HW211103   6.838   3.561   3.807
 3402SOL     OW11104   6.318   3.704   0.272
 3402SOL    HW111105   6.253   3.766   0.314
 3402SOL    HW211106   6.363   3.649   0.343
 3403SOL     OW11107   5.783   0.080   3.602
 3403SOL    HW111108   5.695   0.124   3.589
 3403SOL    HW211109   5.855   0.150   3.610
 3404SOL     OW11110   5.301   4.819   2.588
 3404SOL    HW111111   5.354   4.762   2.650
 3404SOL    HW211112   5.260   4.762   2.517
 3405SOL     OW11113   4.308   6.909   1.147
 3405SOL    HW111114   4.294   6.921   1.048
 3405SOL    HW211115   4.398   6.870   1.163
 3406SOL     OW11116   4.550   5.228   0.860
 3406SOL    HW111117   4.569   5.155   0.794
 3406SOL    HW211118   4.570   5.195   0.953
 3407SOL     OW11119   2.227   1.753   0.842
 3407SOL    HW111120   2.219   1.763   0.743
 3407SOL    HW211121   2.248   1.842   0.883
 3408SOL     OW11122   3.062   6.972   4.262
 3408SOL    HW111123   2.972   6.954   4.222
 3408SOL    HW211124   3.092   0.038   4.236
 3409SOL     OW11125   4.520   2.302   6.812
 3409SOL    HW111126   4.473   2.298   6.724
 3409SOL    HW211127   4.582   2.381   6.813
 3410SOL     OW11128   6.171   1.527   2.430
 3410SOL    HW111129   6.130   1.543   2.341
 3410SOL    HW211130   6.235   1.451   2.425
 3411SOL     OW11131   5.698   3.624   6.438
 3411SOL    HW111132   5.727   3.631   6.343
 3411SOL    HW211133   5.669   3.531   6.458
 3412SOL     OW11134   5.252   3.698   3.251
 3412SOL    HW111135   5.223   3.725   3.343
 3412SOL    HW211136   5.201   3.616   3.223
 3413SOL     OW11137   1.174   2.584   0.778
 3413SOL    HW111138   1.148   2.681   0.783
 3413SOL    HW211139   1.267   2.573   0.814
 3414SOL     OW11140   3.717   3.316   1.986
 3414SOL    HW111141   3.681   3.273   2.068
 3414SOL    HW211142   3.813   3.340   1.999
 3415SOL     OW11143   2.930   0.618   6.596
 3415SOL    HW111144   2.981   0.604   6.511
 3415SOL    HW211145   2.955   0.549   6.663
 3416SOL     OW11146   5.302   6.176   6.493
 3416SOL    HW111147   5.310   6.126   6.407
 3416SOL    HW211148   5.271   6.114   6.565
 3417SOL     OW11149   6.220   0.692   2.031
 3417SOL    HW111150   6.166   0.608   2.021
 3417SOL    HW211151   6.221   0.720   2.126
 3418SOL     OW11152   4.231   5.348   1.181
 3418SOL    HW111153   4.243   5.251   1.157
 3418SOL    HW211154   4.305   5.376   1.243
 3419SOL     OW11155   3.057   4.707   5.325
 3419SOL    HW111156   3.009   4.642   5.265
 3419SOL    HW211157   3.029   4.691   5.420
 3420SOL     OW11158   5.265   0.869   2.139
 3420SOL    HW111159   5.247   0.959   2.180
 3420SOL    HW211160   5.311   0.881   2.051
 3421SOL     OW11161   0.526   1.342   4.120
 3421SOL    HW111162   0.509   1.342   4.022
 3421SOL    HW211163   0.457   1.399   4.166
 3422SOL     OW11164   3.167   5.072   1.258
 3422SOL    HW111165   3.181   5.011   1.181
 3422SOL    HW211166   3.117   5.154   1.228
 3423SOL     OW11167   1.627   5.558   5.628
 3423SOL    HW111168   1.634   5.497   5.707
 3423SOL    HW211169   1.545   5.615   5.637
 3424SOL     OW11170   5.700   5.722   2.297
 3424SOL    HW111171   5.670   5.692   2.388
 3424SOL    HW211172   5.694   5.645   2.233
 3425SOL     OW11173   5.327   3.010   6.303
 3425SOL    HW111174   5.229   3.027   6.308
 3425SOL    HW211175   5.352   2.989   6.208
 3426SOL     OW11176   6.890   5.366   6.280
 3426SOL    HW111177   6.850   5.451   6.245
 3426SOL    HW211178   6.831   5.328   6.351
 3427SOL     OW11179   1.499   1.041   6.749
 3427SOL    HW111180   1.579   0.982   6.744
 3427SOL    HW211181   1.447   1.034   6.664
 3428SOL     OW11182   4.090   0.814   4.048
 3428SOL    HW111183   4.022   0.887   4.055
 3428SOL    HW211184   4.178   0.852   4.019
 3429SOL     OW11185   5.036   5.378   0.150
 3429SOL    HW111186   5.052   5.477   0.152
 3429SOL    HW211187   4.987   5.351   0.233
 3430SOL     OW11188   2.784   4.151   6.841
 3430SOL    HW111189   2.692   4.140   6.879
 3430SOL    HW211190   2.789   4.106   6.752
 3431SOL     OW11191   1.249   3.967   1.915
 3431SOL    HW111192   1.182   3.941   1.984
 3431SOL    HW211193   1.341   3.963   1.954
 3432SOL     OW11194   0.137   5.447   6.369
 3432SOL    HW111195   0.050   5.414   6.332
 3432SOL    HW211196   0.128   5.464   6.467
 3433SOL     OW11197   0.701   1.343   0.064
 3433SOL    HW111198   0.763   1.402   0.116
 3433SOL    HW211199   0.698   1.252   0.107
 3434SOL     OW11200   4.178   2.612   1.731
 3434SOL    HW111201   4.182   2.527   1.679
 3434SOL    HW211202   4.084   2.646   1.732
 3435SOL     OW11203   3.076   2.703   1.325
 3435SOL    HW111204   2.978   2.685   1.336
 3435SOL    HW211205   3.128   2.621   1.347
 3436SOL     OW11206   4.409   5.542   5.335
 3436SOL    HW111207   4.317   5.531   5.372
 3436SOL    HW211208   4.476   5.519   5.406
 3437SOL     OW11209   2.588   5.732   0.875
 3437SOL    HW111210   2.592   5.632   0.876
 3437SOL    HW211211   2.611   5.767   0.966
 3438SOL     OW11212   2.628   4.380   0.486
 3438SOL    HW111213   2.570   4.304   0.515
 3438SOL    HW211214   2.571   4.460   0.467
 3439SOL     OW11215   2.853   5.839   1.289
 3439SOL    HW111216   2.826   5.743   1.288
 3439SOL    HW211217   2.845   5.875   1.382
 3440SOL     OW11218   4.241   5.122   5.929
 3440SOL    HW111219   4.337   5.146   5.946
 3440SOL    HW211220   4.233   5.024   5.914
 3441SOL     OW11221   0.268   5.512   5.602
 3441SOL    HW111222   0.262   5.588   5.666
 3441SOL    HW211223   0.364   5.494   5.580
 3442SOL     OW11224   1.929   1.972   0.799
 3442SOL    HW111225   2.008   2.025   0.769
 3442SOL    HW211226   1.878   1.940   0.720
 3443SOL     OW11227   6.696   5.650   2.716
 3443SOL    HW111228   6.654   5.628   2.804
 3443SOL    HW211229   6.639   5.715   2.667
 3444SOL     OW11230   1.248   3.630   6.103
 3444SOL    HW111231   1.222   3.717   6.060
 3444SOL    HW211232   1.282   3.647   6.195
 3445SOL     OW11233   5.961   4.889   4.528
 3445SOL    HW111234   6.010   4.872   4.614
 3445SOL    HW211235   6.011   4.845   4.453
 3446SOL     OW11236   5.175   1.490   0.166
 3446SOL    HW111237   5.269   1.520   0.181
 3446SOL    HW211238   5.125   1.560   0.115
 3447SOL     OW11239   4.853   1.586   5.877
 3447SOL    HW111240   4.784   1.523   5.912
 3447SOL    HW211241   4.889   1.551   5.791
 3448SOL     OW11242   0.610   5.168   4.570
 3448SOL    HW111243   0.513   5.187   4.585
 3448SOL    HW211244   0.646   5.233   4.502
 3449SOL     OW11245   1.240   4.302   4.631
 3449SOL    HW111246   1.235   4.380   4.569
 3449SOL    HW211247   1.219   4.218   4.581
 3450SOL     OW11248   2.092   6.011   3.444
 3450SOL    HW111249   2.057   6.103   3.460
 3450SOL    HW211250   2.077   5.986   3.348
 3451SOL     OW11251   2.559   1.826   1.118
 3451SOL    HW111252   2.481   1.766   1.105
 3451SOL    HW211253   2.528   1.915   1.153
 3452SOL     OW11254   4.442   1.031   5.346
 3452SOL    HW111255   4.487   1.071   5.266
 3452SOL    HW211256   4.412   0.938   5.325
 3453SOL     OW11257   4.408   6.813   5.582
 3453SOL    HW111258   4.412   6.762   5.668
 3453SOL    HW211259   4.494   6.801   5.533
 3454SOL     OW11260   1.357   3.057   4.037
 3454SOL    HW111261   1.438   3.110   4.063
 3454SOL    HW211262   1.275   3.111   4.055
 3455SOL     OW11263   1.441   3.975   6.135
 3455SOL    HW111264   1.446   4.072   6.156
 3455SOL    HW211265   1.489   3.956   6.050
 3456SOL     OW11266   4.540   5.503   2.728
 3456SOL    HW111267   4.568   5.436   2.659
 3456SOL    HW211268   4.518   5.590   2.684
 3457SOL     OW11269   3.868   3.818   0.356
 3457SOL    HW111270   3.775   3.810   0.320
 3457SOL    HW211271   3.933   3.786   0.287
 3458SOL     OW11272   4.048   1.880   1.125
 3458SOL    HW111273   4.014   1.900   1.217
 3458SOL    HW211274   4.096   1.960   1.090
 3459SOL     OW11275   6.554   0.571   3.025
 3459SOL    HW111276   6.645   0.598   2.994
 3459SOL    HW211277   6.556   0.475   3.055
 3460SOL     OW11278   4.705   1.634   4.924
 3460SOL    HW111279   4.661   1.551   4.890
 3460SOL    HW211280   4.643   1.681   4.986
 3461SOL     OW11281   4.574   4.448   4.097
 3461SOL    HW111282   4.514   4.451   4.018
 3461SOL    HW211283   4.622   4.360   4.100
 3462SOL     OW11284   1.429   4.312   6.884
 3462SOL    HW111285   1.358   4.242   6.874
 3462SOL    HW211286   1.390   4.395   6.923
 3463SOL     OW11287   6.312   3.486   6.761
 3463SOL    HW111288   6.214   3.484   6.745
 3463SOL    HW211289   6.331   3.526   6.850
 3464SOL     OW11290   7.014   5.259   4.374
 3464SOL    HW111291   0.080   5.238   4.409
 3464SOL    HW211292   6.947   5.252   4.447
 3465SOL     OW11293   0.613   3.064   1.087
 3465SOL    HW111294   0.573   3.152   1.114
 3465SOL    HW211295   0.611   3.002   1.165
 3466SOL     OW11296   5.713   4.290   3.346
 3466SOL    HW111297   5.644   4.256   3.409
 3466SOL    HW211298   5.772   4.214   3.317
 3467SOL     OW11299   2.285   1.744   6.067
 3467SOL    HW111300   2.300   1.816   6.134
 3467SOL    HW211301   2.216   1.681   6.102
 3468SOL     OW11302   5.416   4.958   2.024
 3468SOL    HW111303   5.511   4.955   2.055
 3468SOL    HW211304   5.399   5.044   1.976
 3469SOL     OW11305   5.688   3.804   0.936
 3469SOL    HW111306   5.734   3.832   1.020
 3469SOL    HW211307   5.616   3.869   0.913
 3470SOL     OW11308   6.446   5.994   6.738
 3470SOL    HW111309   6.357   5.948   6.740
 3470SOL    HW211310   6.444   6.073   6.800
 3471SOL     OW11311   4.035   6.888   4.278
 3471SOL    HW111312   3.943   6.852   4.265
 3471SOL    HW211313   4.101   6.812   4.278
 3472SOL     OW11314   3.533   1.104   4.516
 3472SOL    HW111315   3.456   1.164   4.491
 3472SOL    HW211316   3.618   1.142   4.479
 3473SOL     OW11317   5.117   6.765   3.699
 3473SOL    HW111318   5.084   6.690   3.756
 3473SOL    HW211319   5.184   6.819   3.749
 3474SOL     OW11320   5.587   5.187   0.354
 3474SOL    HW111321   5.606   5.098   0.396
 3474SOL    HW211322   5.514   5.233   0.405
 3475SOL     OW11323   2.250   5.780   5.134
 3475SOL    HW111324   2.195   5.708   5.091
 3475SOL    HW211325   2.220   5.869   5.101
 3476SOL     OW11326   2.818   1.939   3.424
 3476SOL    HW111327   2.822   1.953   3.523
 3476SOL    HW211328   2.909   1.914   3.391
 3477SOL     OW11329   4.709   5.357   2.527
 3477SOL    HW111330   4.768   5.295   2.579
 3477SOL    HW211331   4.750   5.448   2.523
 3478SOL     OW11332   3.375   4.857   0.144
 3478SOL    HW111333   3.437   4.868   0.222
 3478SOL    HW211334   3.388   4.766   0.105
 3479SOL     OW11335   1.221   0.569   0.333
 3479SOL    HW111336   1.265   0.479   0.326
 3479SOL    HW211337   1.158   0.570   0.410
 3480SOL     OW11338   1.267   6.404   4.250
 3480SOL    HW111339   1.298   6.346   4.175
 3480SOL    HW211340   1.336   6.473   4.270
 3481SOL     OW11341   2.256   4.389   0.471
 3481SOL    HW111342   2.329   4.333   0.510
 3481SOL    HW211343   2.215   4.445   0.544
 3482SOL     OW11344   0.048   2.305   1.767
 3482SOL    HW111345   0.148   2.310   1.765
 3482SOL    HW211346   0.011   2.393   1.798
 3483SOL     OW11347   4.358   1.635   1.370
 3483SOL    HW111348   4.425   1.660   1.440
 3483SOL    HW211349   4.302   1.559   1.403
 3484SOL     OW11350   3.373   3.968   3.800
 3484SOL    HW111351   3.290   3.997   3.752
 3484SOL    HW211352   3.389   4.028   3.878
 3485SOL     OW11353   6.438   2.365   3.813
 3485SOL    HW111354   6.344   2.353   3.781
 3485SOL    HW211355   6.463   2.290   3.874
 3486SOL     OW11356   6.253   1.771   2.570
 3486SOL    HW111357   6.227   1.701   2.504
 3486SOL    HW211358   6.353   1.777   2.575
 3487SOL     OW11359   1.660   6.397   1.232
 3487SOL    HW111360   1.675   6.432   1.140
 3487SOL    HW211361   1.746   6.362   1.268
 3488SOL     OW11362   6.471   3.321   5.427
 3488SOL    HW111363   6.515   3.407   5.400
 3488SOL    HW211364   6.495   3.249   5.362
 3489SOL     OW11365   2.872   5.472   6.916
 3489SOL    HW111366   2.867   5.524   7.001
 3489SOL    HW211367   2.859   5.533   6.838
 3490SOL     OW11368   5.776   3.406   0.488
 3490SOL    HW111369   5.697   3.456   0.522
 3490SOL    HW211370   5.753   3.309   0.478
 3491SOL     OW11371   5.897   2.537   5.095
 3491SOL    HW111372   5.852   2.601   5.033
 3491SOL    HW211373   5.909   2.580   5.185
 3492SOL     OW11374   0.374   4.187   6.377
 3492SOL    HW111375   0.405   4.248   6.451
 3492SOL    HW211376   0.312   4.118   6.415
 3493SOL     OW11377   0.141   5.192   0.983
 3493SOL    HW111378   0.142   5.105   0.935
 3493SOL    HW211379   0.059   5.244   0.956
 3494SOL     OW11380   3.002   0.472   0.727
 3494SOL    HW111381   2.936   0.519   0.785
 3494SOL    HW211382   3.042   0.536   0.662
 3495SOL     OW11383   5.887   4.435   5.724
 3495SOL    HW111384   5.789   4.427   5.709
 3495SOL    HW211385   5.934   4.357   5.681
 3496SOL     OW11386   0.616   6.320   1.573
 3496SOL    HW111387   0.560   6.245   1.608
 3496SOL    HW211388   0.679   6.285   1.504
 3497SOL     OW11389   2.860   0.529   4.795
 3497SOL    HW111390   2.956   0.505   4.811
 3497SOL    HW211391   2.817   0.459   4.738
 3498SOL     OW11392   1.557   1.913   0.470
 3498SOL    HW111393   1.583   1.837   0.411
 3498SOL    HW211394   1.458   1.928   0.464
 3499SOL     OW11395   6.818   3.983   2.904
 3499SOL    HW111396   6.733   3.978   2.851
 3499SOL    HW211397   6.890   3.930   2.858
 3500SOL     OW11398   6.614   2.274   0.507
 3500SOL    HW111399   6.536   2.218   0.478
 3500SOL    HW211400   6.695   2.247   0.454
 3501SOL     OW11401   6.798   5.254   3.375
 3501SOL    HW111402   6.708   5.230   3.338
 3501SOL    HW211403   6.869   5.228   3.309
 3502SOL     OW11404   1.058   6.584   1.063
 3502SOL    HW111405   1.110   6.669   1.049
 3502SOL    HW211406   1.071   6.524   0.984
 3503SOL     OW11407   2.730   0.888   3.644
 3503SOL    HW111408   2.731   0.808   3.703
 3503SOL    HW211409   2.780   0.962   3.687
 3504SOL     OW11410   2.178   2.874   2.483
 3504SOL    HW111411   2.114   2.898   2.410
 3504SOL    HW211412   2.193   2.954   2.542
 3505SOL     OW11413   4.179   6.409   4.682
 3505SOL    HW111414   4.122   6.393   4.763
 3505SOL    HW211415   4.226   6.497   4.693
 3506SOL     OW11416   7.009   3.725   2.798
 3506SOL    HW111417   0.066   3.769   2.762
 3506SOL    HW211418   6.943   3.714   2.724
 3507SOL     OW11419   6.708   0.169   5.362
 3507SOL    HW111420   6.782   0.222   5.404
 3507SOL    HW211421   6.622   0.188   5.410
 3508SOL     OW11422   0.511   4.626   6.829
 3508SOL    HW111423   0.601   4.594   6.801
 3508SOL    HW211424   0.461   4.661   6.750
 3509SOL     OW11425   4.221   6.624   6.627
 3509SOL    HW111426   4.166   6.703   6.601
 3509SOL    HW211427   4.162   6.554   6.666
 3510SOL     OW11428   2.155   1.405   2.488
 3510SOL    HW111429   2.245   1.446   2.472
 3510SOL    HW211430   2.084   1.468   2.456
 3511SOL     OW11431   1.325   0.766   4.147
 3511SOL    HW111432   1.416   0.792   4.113
 3511SOL    HW211433   1.281   0.705   4.082
 3512SOL     OW11434   3.009   3.394   1.879
 3512SOL    HW111435   3.101   3.361   1.901
 3512SOL    HW211436   2.942   3.327   1.912
 3513SOL     OW11437   7.025   5.226   0.718
 3513SOL    HW111438   6.929   5.205   0.702
 3513SOL    HW211439   0.057   5.155   0.677
 3514SOL     OW11440   3.738   5.904   3.492
 3514SOL    HW111441   3.675   5.973   3.455
 3514SOL    HW211442   3.702   5.872   3.580
 3515SOL     OW11443   3.781   5.717   4.438
 3515SOL    HW111444   3.722   5.654   4.387
 3515SOL    HW211445   3.863   5.668   4.469
 3516SOL     OW11446   1.186   1.423   0.583
 3516SOL    HW111447   1.234   1.468   0.508
 3516SOL    HW211448   1.230   1.335   0.602
 3517SOL     OW11449   0.267   0.537   6.908
 3517SOL    HW111450   0.308   0.576   6.990
 3517SOL    HW211451   0.168   0.548   6.911
 3518SOL     OW11452   3.994   3.782   6.246
 3518SOL    HW111453   4.059   3.752   6.175
 3518SOL    HW211454   4.036   3.770   6.336
 3519SOL     OW11455   4.113   6.922   0.227
 3519SOL    HW111456   4.161   6.992   0.281
 3519SOL    HW211457   4.162   6.835   0.234
 3520SOL     OW11458   4.230   5.048   1.137
 3520SOL    HW111459   4.186   4.965   1.100
 3520SOL    HW211460   4.326   5.049   1.111
 3521SOL     OW11461   6.975   1.786   5.425
 3521SOL    HW111462   0.026   1.843   5.452
 3521SOL    HW211463   6.998   1.689   5.437
 3522SOL     OW11464   2.117   0.233   1.156
 3522SOL    HW111465   2.107   0.186   1.068
 3522SOL    HW211466   2.165   0.320   1.141
 3523SOL     OW11467   2.296   4.266   4.904
 3523SOL    HW111468   2.281   4.183   4.957
 3523SOL    HW211469   2.386   4.264   4.861
 3524SOL     OW11470   2.511   1.685   3.903
 3524SOL    HW111471   2.540   1.704   3.809
 3524SOL    HW211472   2.551   1.599   3.934
 3525SOL     OW11473   2.169   3.277   3.879
 3525SOL    HW111474   2.264   3.267   3.910
 3525SOL    HW211475   2.158   3.231   3.791
 3526SOL     OW11476   3.604   6.200   3.654
 3526SOL    HW111477   3.608   6.108   3.694
 3526SOL    HW211478   3.637   6.196   3.560
 3527SOL     OW11479   6.847   4.120   6.209
 3527SOL    HW111480   6.792   4.108   6.291
 3527SOL    HW211481   6.829   4.045   6.145
 3528SOL     OW11482   0.964   6.478   3.943
 3528SOL    HW111483   0.985   6.397   3.998
 3528SOL    HW211484   0.999   6.465   3.850
 3529SOL     OW11485   3.457   6.341   0.436
 3529SOL    HW111486   3.545   6.306   0.467
 3529SOL    HW211487   3.390   6.334   0.511
 3530SOL     OW11488   1.598   5.633   2.197
 3530SOL    HW111489   1.573   5.608   2.103
 3530SOL    HW211490   1.665   5.568   2.232
 3531SOL     OW11491   5.632   4.215   6.851
 3531SOL    HW111492   5.625   4.125   6.895
 3531SOL    HW211493   5.699   4.211   6.778
 3532SOL     OW11494   2.761   6.722   6.592
 3532SOL    HW111495   2.729   6.634   6.557
 3532SOL    HW211496   2.841   6.708   6.650
 3533SOL     OW11497   1.184   1.680   3.393
 3533SOL    HW111498   1.216   1.770   3.424
 3533SOL    HW211499   1.161   1.623   3.472
 3534SOL     OW11500   4.652   6.561   4.207
 3534SOL    HW111501   4.667   6.592   4.113
 3534SOL    HW211502   4.740   6.541   4.250
 3535SOL     OW11503   4.209   4.730   0.040
 3535SOL    HW111504   4.178   4.719   0.135
 3535SOL    HW211505   4.304   4.761   0.039
 3536SOL     OW11506   1.971   3.014   2.338
 3536SOL    HW111507   2.005   3.003   2.244
 3536SOL    HW211508   1.878   2.979   2.343
 3537SOL     OW11509   3.419   5.325   2.011
 3537SOL    HW111510   3.475   5.295   1.934
 3537SOL    HW211511   3.336   5.369   1.976
 3538SOL     OW11512   3.097   0.636   3.454
 3538SOL    HW111513   3.184   0.624   3.407
 3538SOL    HW211514   3.076   0.553   3.506
 3539SOL     OW11515   5.331   5.724   5.838
 3539SOL    HW111516   5.371   5.721   5.929
 3539SOL    HW211517   5.312   5.631   5.806
 3540SOL     OW11518   5.139   4.028   0.175
 3540SOL    HW111519   5.163   4.089   0.251
 3540SOL    HW211520   5.135   4.080   0.090
 3541SOL     OW11521   0.703   2.908   2.350
 3541SOL    HW111522   0.787   2.962   2.348
 3541SOL    HW211523   0.639   2.943   2.281
 3542SOL     OW11524   5.767   1.228   6.952
 3542SOL    HW111525   5.762   1.142   6.900
 3542SOL    HW211526   5.861   1.242   6.983
 3543SOL     OW11527   0.088   2.827   4.842
 3543SOL    HW111528   0.122   2.873   4.924
 3543SOL    HW211529   0.127   2.735   4.837
 3544SOL     OW11530   4.011   4.898   6.083
 3544SOL    HW111531   4.060   4.812   6.100
 3544SOL    HW211532   3.952   4.918   6.161
 3545SOL     OW11533   2.893   6.618   1.329
 3545SOL    HW111534   2.890   6.521   1.304
 3545SOL    HW211535   2.938   6.669   1.256
 3546SOL     OW11536   0.626   4.734   1.367
 3546SOL    HW111537   0.573   4.804   1.318
 3546SOL    HW211538   0.580   4.713   1.454
 3547SOL     OW11539   1.735   3.682   4.354
 3547SOL    HW111540   1.664   3.683   4.283
 3547SOL    HW211541   1.803   3.613   4.331
 3548SOL     OW11542   6.386   0.172   5.536
 3548SOL    HW111543   6.362   0.110   5.461
 3548SOL    HW211544   6.404   0.119   5.619
 3549SOL     OW11545   1.862   0.303   6.453
 3549SOL    HW111546   1.917   0.367   6.508
 3549SOL    HW211547   1.815   0.239   6.514
 3550SOL     OW11548   6.331   2.419   4.894
 3550SOL    HW111549   6.298   2.384   4.981
 3550SOL    HW211550   6.321   2.348   4.824
 3551SOL     OW11551   6.351   1.270   5.213
 3551SOL    HW111552   6.397   1.294   5.127
 3551SOL    HW211553   6.412   1.290   5.290
 3552SOL     OW11554   6.274   0.895   3.744
 3552SOL    HW111555   6.206   0.892   3.671
 3552SOL    HW211556   6.257   0.975   3.803
 3553SOL     OW11557   5.563   6.202   6.641
 3553SOL    HW111558   5.466   6.180   6.631
 3553SOL    HW211559   5.582   6.230   6.735
 3554SOL     OW11560   6.169   3.951   6.580
 3554SOL    HW111561   6.070   3.957   6.594
 3554SOL    HW211562   6.189   3.886   6.507
 3555SOL     OW11563   3.453   1.128   5.462
 3555SOL    HW111564   3.473   1.105   5.557
 3555SOL    HW211565   3.519   1.081   5.402
 3556SOL     OW11566   5.365   1.324   0.915
 3556SOL    HW111567   5.315   1.239   0.899
 3556SOL    HW211568   5.365   1.345   1.013
 3557SOL     OW11569   4.703   0.293   1.196
 3557SOL    HW111570   4.638   0.233   1.150
 3557SOL    HW211571   4.789   0.245   1.212
 3558SOL     OW11572   4.243   5.743   3.186
 3558SOL    HW111573   4.190   5.708   3.109
 3558SOL    HW211574   4.334   5.703   3.185
 3559SOL     OW11575   4.582   6.131   6.577
 3559SOL    HW111576   4.596   6.211   6.634
 3559SOL    HW211577   4.485   6.122   6.553
 3560SOL     OW11578   1.840   5.920   4.434
 3560SOL    HW111579   1.788   6.005   4.436
 3560SOL    HW211580   1.802   5.859   4.364
 3561SOL     OW11581   4.060   2.847   6.379
 3561SOL    HW111582   3.999   2.917   6.415
 3561SOL    HW211583   4.063   2.769   6.441
 3562SOL     OW11584   2.759   0.974   0.364
 3562SOL    HW111585   2.790   0.881   0.340
 3562SOL    HW211586   2.759   0.984   0.464
 3563SOL     OW11587   6.221   1.652   6.333
 3563SOL    HW111588   6.138   1.700   6.363
 3563SOL    HW211589   6.301   1.710   6.352
 3564SOL     OW11590   5.783   2.895   2.966
 3564SOL    HW111591   5.784   2.808   2.916
 3564SOL    HW211592   5.835   2.885   3.051
 3565SOL     OW11593   4.901   6.251   4.679
 3565SOL    HW111594   4.942   6.226   4.766
 3565SOL    HW211595   4.865   6.169   4.634
 3566SOL     OW11596   0.701   1.075   4.855
 3566SOL    HW111597   0.636   1.078   4.931
 3566SOL    HW211598   0.717   0.980   4.829
 3567SOL     OW11599   1.041   4.335   6.544
 3567SOL    HW111600   1.074   4.285   6.464
 3567SOL    HW211601   1.118   4.377   6.592
 3568SOL     OW11602   2.356   4.441   5.598
 3568SOL    HW111603   2.436   4.477   5.551
 3568SOL    HW211604   2.359   4.341   5.599
 3569SOL     OW11605   0.463   0.255   3.512
 3569SOL    HW111606   0.417   0.187   3.569
 3569SOL    HW211607   0.497   0.330   3.569
 3570SOL     OW11608   0.485   1.880   4.881
 3570SOL    HW111609   0.541   1.883   4.965
 3570SOL    HW211610   0.476   1.972   4.845
 3571SOL     OW11611   6.685   5.512   4.785
 3571SOL    HW111612   6.626   5.525   4.706
 3571SOL    HW211613   6.781   5.522   4.758
 3572SOL     OW11614   5.492   6.622   5.855
 3572SOL    HW111615   5.525   6.687   5.924
 3572SOL    HW211616   5.564   6.604   5.789
 3573SOL     OW11617   0.352   2.827   1.701
 3573SOL    HW111618   0.366   2.766   1.779
 3573SOL    HW211619   0.371   2.777   1.616
 3574SOL     OW11620   0.162   3.726   0.034
 3574SOL    HW111621   0.173   3.702   6.963
 3574SOL    HW211622   0.252   3.738   0.075
 3575SOL     OW11623   6.745   0.589   2.609
 3575SOL    HW111624   6.828   0.593   2.554
 3575SOL    HW211625   6.714   0.682   2.629
 3576SOL     OW11626   0.356   0.797   0.734
 3576SOL    HW111627   0.404   0.870   0.782
 3576SOL    HW211628   0.349   0.716   0.793
 3577SOL     OW11629   2.428   4.660   0.606
 3577SOL    HW111630   2.473   4.651   0.517
 3577SOL    HW211631   2.340   4.613   0.604
 3578SOL     OW11632   3.336   4.725   1.713
 3578SOL    HW111633   3.419   4.734   1.768
 3578SOL    HW211634   3.305   4.816   1.685
 3579SOL     OW11635   2.569   2.998   6.626
 3579SOL    HW111636   2.609   2.908   6.612
 3579SOL    HW211637   2.570   3.020   6.724
 3580SOL     OW11638   5.753   1.524   2.345
 3580SOL    HW111639   5.741   1.436   2.299
 3580SOL    HW211640   5.763   1.596   2.276
 3581SOL     OW11641   6.959   1.422   3.003
 3581SOL    HW111642   6.970   1.370   2.918
 3581SOL    HW211643   6.906   1.368   3.068
 3582SOL     OW11644   0.940   0.670   5.527
 3582SOL    HW111645   0.912   0.702   5.436
 3582SOL    HW211646   0.963   0.573   5.522
 3583SOL     OW11647   1.373   6.823   2.080
 3583SOL    HW111648   1.392   6.768   1.999
 3583SOL    HW211649   1.297   6.783   2.131
 3584SOL     OW11650   5.069   0.418   4.696
 3584SOL    HW111651   5.000   0.348   4.673
 3584SOL    HW211652   5.113   0.393   4.782
 3585SOL     OW11653   2.352   4.639   3.417
 3585SOL    HW111654   2.451   4.644   3.430
 3585SOL    HW211655   2.313   4.576   3.484
 3586SOL     OW11656   1.132   1.189   0.135
 3586SOL    HW111657   1.132   1.284   0.104
 3586SOL    HW211658   1.195   1.136   0.079
 3587SOL     OW11659   3.553   6.637   5.343
 3587SOL    HW111660   3.565   6.611   5.247
 3587SOL    HW211661   3.558   6.556   5.401
 3588SOL     OW11662   2.694   2.582   5.329
 3588SOL    HW111663   2.682   2.682   5.328
 3588SOL    HW211664   2.646   2.541   5.252
 3589SOL     OW11665   2.841   6.054   4.638
 3589SOL    HW111666   2.911   6.097   4.695
 3589SOL    HW211667   2.848   5.955   4.646
 3590SOL     OW11668   1.070   5.995   6.906
 3590SOL    HW111669   1.027   5.964   6.991
 3590SOL    HW211670   1.169   5.991   6.916
 3591SOL     OW11671   5.056   1.508   4.880
 3591SOL    HW111672   5.016   1.446   4.813
 3591SOL    HW211673   5.020   1.487   4.971
 3592SOL     OW11674   5.540   1.746   2.222
 3592SOL    HW111675   5.542   1.841   2.252
 3592SOL    HW211676   5.572   1.740   2.128
 3593SOL     OW11677   0.340   5.073   4.183
 3593SOL    HW111678   0.279   5.084   4.262
 3593SOL    HW211679   0.425   5.030   4.212
 3594SOL     OW11680   4.420   1.187   4.730
 3594SOL    HW111681   4.414   1.107   4.790
 3594SOL    HW211682   4.379   1.266   4.775
 3595SOL     OW11683   2.168   6.639   6.377
 3595SOL    HW111684   2.200   6.610   6.467
 3595SOL    HW211685   2.247   6.649   6.316
 3596SOL     OW11686   6.601   3.643   2.801
 3596SOL    HW111687   6.563   3.645   2.708
 3596SOL    HW211688   6.620   3.549   2.828
 3597SOL     OW11689   4.358   0.379   4.109
 3597SOL    HW111690   4.295   0.304   4.086
 3597SOL    HW211691   4.343   0.455   4.046
 3598SOL     OW11692   1.944   6.835   0.169
 3598SOL    HW111693   2.006   6.905   0.133
 3598SOL    HW211694   1.858   6.837   0.117
 3599SOL     OW11695   0.300   2.237   3.894
 3599SOL    HW111696   0.236   2.193   3.831
 3599SOL    HW211697   0.376   2.277   3.843
 3600SOL     OW11698   6.547   6.861   1.134
 3600SOL    HW111699   6.575   6.938   1.191
 3600SOL    HW211700   6.512   6.788   1.193
 3601SOL     OW11701   6.920   3.605   5.836
 3601SOL    HW111702   6.931   3.580   5.932
 3601SOL    HW211703   6.857   3.683   5.829
 3602SOL     OW11704   3.324   2.720   0.816
 3602SOL    HW111705   3.351   2.680   0.903
 3602SOL    HW211706   3.226   2.737   0.815
 3603SOL     OW11707   3.949   4.898   5.026
 3603SOL    HW111708   4.041   4.925   4.998
 3603SOL    HW211709   3.955   4.845   5.111
 3604SOL     OW11710   5.400   4.543   3.420
 3604SOL    HW111711   5.424   4.488   3.499
 3604SOL    HW211712   5.344   4.621   3.448
 3605SOL     OW11713   5.378   1.617   6.451
 3605SOL    HW111714   5.336   1.623   6.361
 3605SOL    HW211715   5.424   1.529   6.461
 3606SOL     OW11716   1.791   3.418   2.527
 3606SOL    HW111717   1.781   3.338   2.467
 3606SOL    HW211718   1.885   3.451   2.523
 3607SOL     OW11719   4.158   6.609   5.399
 3607SOL    HW111720   4.109   6.684   5.354
 3607SOL    HW211721   4.222   6.567   5.334
 3608SOL     OW11722   6.962   3.398   2.919
 3608SOL    HW111723   6.997   3.492   2.921
 3608SOL    HW211724   0.012   3.335   2.902
 3609SOL     OW11725   0.186   0.922   3.922
 3609SOL    HW111726   0.201   1.021   3.916
 3609SOL    HW211727   0.087   0.905   3.925
 3610SOL     OW11728   1.685   4.977   5.509
 3610SOL    HW111729   1.679   4.882   5.476
 3610SOL    HW211730   1.641   5.038   5.443
 3611SOL     OW11731   4.949   4.507   6.153
 3611SOL    HW111732   5.031   4.547   6.195
 3611SOL    HW211733   4.875   4.573   6.156
 3612SOL     OW11734   2.311   5.681   1.206
 3612SOL    HW111735   2.338   5.769   1.246
 3612SOL    HW211736   2.342   5.677   1.111
 3613SOL     OW11737   5.635   4.845   6.053
 3613SOL    HW111738   5.584   4.796   5.982
 3613SOL    HW211739   5.728   4.808   6.059
 3614SOL     OW11740   3.768   3.255   4.935
 3614SOL    HW111741   3.679   3.296   4.914
 3614SOL    HW211742   3.805   3.210   4.854
 3615SOL     OW11743   5.987   6.448   6.783
 3615SOL    HW111744   5.919   6.512   6.747
 3615SOL    HW211745   5.942   6.379   6.839
 3616SOL     OW11746   6.564   1.478   4.362
 3616SOL    HW111747   6.517   1.390   4.359
 3616SOL    HW211748   6.521   1.541   4.296
 3617SOL     OW11749   0.198   0.346   0.956
 3617SOL    HW111750   0.223   0.283   0.882
 3617SOL    HW211751   0.149   0.297   1.027
 3618SOL     OW11752   4.039   5.697   6.115
 3618SOL    HW111753   4.066   5.620   6.172
 3618SOL    HW211754   3.966   5.748   6.160
 3619SOL     OW11755   4.930   3.632   3.968
 3619SOL    HW111756   4.909   3.656   4.063
 3619SOL    HW211757   5.018   3.584   3.964
 3620SOL     OW11758   5.817   1.737   5.276
 3620SOL    HW111759   5.727   1.778   5.285
 3620SOL    HW211760   5.809   1.638   5.278
 3621SOL     OW11761   1.854   2.578   6.862
 3621SOL    HW111762   1.855   2.541   6.769
 3621SOL    HW211763   1.846   2.504   6.928
 3622SOL     OW11764   1.353   3.998   0.877
 3622SOL    HW111765   1.357   3.970   0.973
 3622SOL    HW211766   1.445   3.999   0.838
 3623SOL     OW11767   6.618   4.866   4.844
 3623SOL    HW111768   6.628   4.774   4.805
 3623SOL    HW211769   6.704   4.893   4.887
 3624SOL     OW11770   1.767   0.166   2.144
 3624SOL    HW111771   1.698   0.094   2.146
 3624SOL    HW211772   1.855   0.129   2.173
 3625SOL     OW11773   1.554   2.135   5.295
 3625SOL    HW111774   1.590   2.136   5.388
 3625SOL    HW211775   1.590   2.214   5.244
 3626SOL     OW11776   1.959   3.353   5.774
 3626SOL    HW111777   1.894   3.375   5.700
 3626SOL    HW211778   1.961   3.429   5.840
 3627SOL     OW11779   4.137   3.628   4.523
 3627SOL    HW111780   4.155   3.541   4.477
 3627SOL    HW211781   4.127   3.700   4.456
 3628SOL     OW11782   3.225   5.634   3.649
 3628SOL    HW111783   3.207   5.730   3.670
 3628SOL    HW211784   3.233   5.582   3.733
 3629SOL     OW11785   5.794   3.591   4.950
 3629SOL    HW111786   5.885   3.561   4.976
 3629SOL    HW211787   5.735   3.512   4.936
 3630SOL     OW11788   5.951   1.762   4.662
 3630SOL    HW111789   6.014   1.811   4.722
 3630SOL    HW211790   5.993   1.677   4.630
 3631SOL     OW11791   1.908   0.603   4.311
 3631SOL    HW111792   1.881   0.646   4.225
 3631SOL    HW211793   1.977   0.533   4.294
 3632SOL     OW11794   5.055   6.541   5.975
 3632SOL    HW111795   5.086   6.459   5.926
 3632SOL    HW211796   5.127   6.571   6.037
 3633SOL     OW11797   0.752   2.750   5.692
 3633SOL    HW111798   0.732   2.784   5.784
 3633SOL    HW211799   0.734   2.651   5.688
 3634SOL     OW11800   2.629   4.824   6.633
 3634SOL    HW111801   2.571   4.743   6.626
 3634SOL    HW211802   2.571   4.905   6.638
 3635SOL     OW11803   1.955   1.771   4.321
 3635SOL    HW111804   1.968   1.703   4.248
 3635SOL    HW211805   1.941   1.861   4.281
 3636SOL     OW11806   0.782   6.851   1.625
 3636SOL    HW111807   0.837   6.770   1.607
 3636SOL    HW211808   0.689   6.824   1.649
 3637SOL     OW11809   5.436   1.564   2.389
 3637SOL    HW111810   5.477   1.636   2.332
 3637SOL    HW211811   5.356   1.601   2.437
 3638SOL     OW11812   0.024   4.843   3.051
 3638SOL    HW111813   0.007   4.913   2.981
 3638SOL    HW211814   0.082   4.772   3.013
 3639SOL     OW11815   2.666   6.187   6.785
 3639SOL    HW111816   2.728   6.238   6.725
 3639SOL    HW211817   2.696   6.092   6.791
 3640SOL     OW11818   2.321   6.611   2.701
 3640SOL    HW111819   2.298   6.641   2.793
 3640SOL    HW211820   2.325   6.511   2.699
 3641SOL     OW11821   2.021   1.210   5.244
 3641SOL    HW111822   2.082   1.285   5.268
 3641SOL    HW211823   2.004   1.154   5.325
 3642SOL     OW11824   6.213   0.091   2.615
 3642SOL    HW111825   6.250   0.155   2.682
 3642SOL    HW211826   6.269   0.008   2.613
 3643SOL     OW11827   4.040   6.759   3.899
 3643SOL    HW111828   3.967   6.823   3.918
 3643SOL    HW211829   4.055   6.700   3.978
 3644SOL     OW11830   5.838   0.474   1.837
 3644SOL    HW111831   5.749   0.517   1.847
 3644SOL    HW211832   5.891   0.522   1.767
 3645SOL     OW11833   4.557   5.438   3.925
 3645SOL    HW111834   4.633   5.467   3.982
 3645SOL    HW211835   4.557   5.339   3.916
 3646SOL     OW11836   0.796   5.325   5.158
 3646SOL    HW111837   0.737   5.389   5.109
 3646SOL    HW211838   0.860   5.283   5.094
 3647SOL     OW11839   3.209   3.057   0.777
 3647SOL    HW111840   3.182   3.050   0.873
 3647SOL    HW211841   3.171   2.981   0.725
 3648SOL     OW11842   2.859   6.381   3.545
 3648SOL    HW111843   2.766   6.352   3.525
 3648SOL    HW211844   2.858   6.445   3.622
 3649SOL     OW11845   3.356   2.892   3.149
 3649SOL    HW111846   3.262   2.903   3.180
 3649SOL    HW211847   3.412   2.856   3.223
 3650SOL     OW11848   5.427   6.273   1.621
 3650SOL    HW111849   5.506   6.212   1.614
 3650SOL    HW211850   5.454   6.366   1.595
 3651SOL     OW11851   1.737   5.385   1.902
 3651SOL    HW111852   1.783   5.411   1.817
 3651SOL    HW211853   1.781   5.305   1.941
 3652SOL     OW11854   4.246   6.292   3.959
 3652SOL    HW111855   4.198   6.261   3.877
 3652SOL    HW211856   4.253   6.216   4.024
 3653SOL     OW11857   0.656   3.488   3.373
 3653SOL    HW111858   0.674   3.395   3.403
 3653SOL    HW211859   0.571   3.490   3.320
 3654SOL     OW11860   2.075   6.792   2.051
 3654SOL    HW111861   2.114   6.766   2.140
 3654SOL    HW211862   2.141   6.847   2.001
 3655SOL     OW11863   6.268   1.091   3.937
 3655SOL    HW111864   6.330   1.158   3.895
 3655SOL    HW211865   6.243   1.123   4.029
 3656SOL     OW11866   1.844   1.900   3.067
 3656SOL    HW111867   1.892   1.812   3.059
 3656SOL    HW211868   1.861   1.938   3.158
 3657SOL     OW11869   5.719   5.136   1.339
 3657SOL    HW111870   5.703   5.223   1.386
 3657SOL    HW211871   5.697   5.061   1.401
 3658SOL     OW11872   2.963   4.392   5.592
 3658SOL    HW111873   2.873   4.392   5.549
 3658SOL    HW211874   3.006   4.482   5.579
 3659SOL     OW11875   1.339   3.698   6.354
 3659SOL    HW111876   1.314   3.788   6.389
 3659SOL    HW211877   1.378   3.642   6.428
 3660SOL     OW11878   5.014   4.168   0.856
 3660SOL    HW111879   4.970   4.136   0.940
 3660SOL    HW211880   4.973   4.254   0.828
 3661SOL     OW11881   5.770   1.223   1.925
 3661SOL    HW111882   5.808   1.255   1.838
 3661SOL    HW211883   5.763   1.123   1.923
 3662SOL     OW11884   1.520   6.532   4.101
 3662SOL    HW111885   1.593   6.495   4.159
 3662SOL    HW211886   1.559   6.576   4.021
 3663SOL     OW11887   2.449   2.434   6.026
 3663SOL    HW111888   2.534   2.479   5.999
 3663SOL    HW211889   2.376   2.502   6.032
 3664SOL     OW11890   3.900   0.454   2.293
 3664SOL    HW111891   3.888   0.502   2.380
 3664SOL    HW211892   3.884   0.517   2.217
 3665SOL     OW11893   2.487   1.365   5.564
 3665SOL    HW111894   2.508   1.447   5.512
 3665SOL    HW211895   2.523   1.374   5.657
 3666SOL     OW11896   0.868   4.628   3.165
 3666SOL    HW111897   0.803   4.666   3.231
 3666SOL    HW211898   0.818   4.572   3.098
 3667SOL     OW11899   6.974   0.933   6.968
 3667SOL    HW111900   6.915   1.009   6.994
 3667SOL    HW211901   6.975   0.865   0.016
 3668SOL     OW11902   2.119   6.911   1.598
 3668SOL    HW111903   2.137   7.002   1.635
 3668SOL    HW211904   2.180   6.895   1.520
 3669SOL     OW11905   5.276   1.568   4.122
 3669SOL    HW111906   5.370   1.534   4.133
 3669SOL    HW211907   5.261   1.595   4.027
 3670SOL     OW11908   3.254   4.869   6.023
 3670SOL    HW111909   3.287   4.951   5.977
 3670SOL    HW211910   3.155   4.861   6.009
 3671SOL     OW11911   1.971   1.359   3.182
 3671SOL    HW111912   1.991   1.446   3.226
 3671SOL    HW211913   2.002   1.284   3.241
 3672SOL     OW11914   6.650   6.344   0.310
 3672SOL    HW111915   6.733   6.395   0.287
 3672SOL    HW211916   6.619   6.370   0.402
 3673SOL     OW11917   4.223   0.091   6.424
 3673SOL    HW111918   4.162   0.166   6.398
 3673SOL    HW211919   4.272   0.059   6.343
 3674SOL     OW11920   0.943   6.280   0.906
 3674SOL    HW111921   0.967   6.352   0.841
 3674SOL    HW211922   0.854   6.300   0.947
 3675SOL     OW11923   2.144   2.213   4.304
 3675SOL    HW111924   2.190   2.250   4.385
 3675SOL    HW211925   2.157   2.275   4.227
 3676SOL     OW11926   1.279   5.277   2.418
 3676SOL    HW111927   1.212   5.207   2.396
 3676SOL    HW211928   1.240   5.342   2.483
 3677SOL     OW11929   6.123   0.867   3.516
 3677SOL    HW111930   6.036   0.820   3.524
 3677SOL    HW211931   6.130   0.909   3.425
 3678SOL     OW11932   0.653   2.579   4.070
 3678SOL    HW111933   0.677   2.531   4.154
 3678SOL    HW211934   0.585   2.650   4.091
 3679SOL     OW11935   6.267   1.512   1.842
 3679SOL    HW111936   6.282   1.414   1.853
 3679SOL    HW211937   6.176   1.536   1.874
 3680SOL     OW11938   6.194   4.436   4.714
 3680SOL    HW111939   6.276   4.404   4.668
 3680SOL    HW211940   6.213   4.450   4.811
 3681SOL     OW11941   5.338   0.538   5.380
 3681SOL    HW111942   5.248   0.500   5.403
 3681SOL    HW211943   5.326   0.626   5.334
 3682SOL     OW11944   6.897   1.759   6.922
 3682SOL    HW111945   6.987   1.788   6.892
 3682SOL    HW211946   6.901   1.666   6.958
 3683SOL     OW11947   5.159   6.492   3.455
 3683SOL    HW111948   5.073   6.541   3.473
 3683SOL    HW211949   5.234   6.558   3.450
 3684SOL     OW11950   2.386   4.095   1.774
 3684SOL    HW111951   2.314   4.110   1.706
 3684SOL    HW211952   2.345   4.096   1.866
 3685SOL     OW11953   5.627   6.043   5.410
 3685SOL    HW111954   5.675   5.963   5.374
 3685SOL    HW211955   5.535   6.016   5.437
 3686SOL     OW11956   0.254   4.066   0.438
 3686SOL    HW111957   0.171   4.038   0.486
 3686SOL    HW211958   0.281   4.157   0.469
 3687SOL     OW11959   4.110   0.902   0.641
 3687SOL    HW111960   4.052   0.954   0.704
 3687SOL    HW211961   4.184   0.961   0.608
 3688SOL     OW11962   0.211   3.036   0.116
 3688SOL    HW111963   0.217   3.079   0.025
 3688SOL    HW211964   0.162   2.950   0.109
 3689SOL     OW11965   1.919   6.236   3.694
 3689SOL    HW111966   1.928   6.138   3.676
 3689SOL    HW211967   1.909   6.251   3.792
 3690SOL     OW11968   4.853   4.799   5.638
 3690SOL    HW111969   4.924   4.831   5.576
 3690SOL    HW211970   4.895   4.746   5.712
 3691SOL     OW11971   3.365   3.300   6.367
 3691SOL    HW111972   3.394   3.332   6.277
 3691SOL    HW211973   3.266   3.313   6.377
 3692SOL     OW11974   6.937   0.336   5.457
 3692SOL    HW111975   6.919   0.418   5.402
 3692SOL    HW211976   0.005   0.304   5.441
 3693SOL     OW11977   1.508   1.338   3.581
 3693SOL    HW111978   1.554   1.311   3.666
 3693SOL    HW211979   1.441   1.409   3.600
 3694SOL     OW11980   1.546   5.027   3.862
 3694SOL    HW111981   1.495   4.973   3.929
 3694SOL    HW211982   1.568   5.116   3.902
 3695SOL     OW11983   2.072   2.622   0.537
 3695SOL    HW111984   2.053   2.642   0.633
 3695SOL    HW211985   2.089   2.707   0.487
 3696SOL     OW11986   3.078   6.031   5.642
 3696SOL    HW111987   3.093   5.994   5.734
 3696SOL    HW211988   3.071   5.956   5.577
 3697SOL     OW11989   5.423   1.012   3.206
 3697SOL    HW111990   5.483   1.028   3.285
 3697SOL    HW211991   5.331   1.045   3.228
 3698SOL     OW11992   3.001   6.910   6.043
 3698SOL    HW111993   2.992   6.814   6.018
 3698SOL    HW211994   3.070   6.919   6.115
 3699SOL     OW11995   0.929   5.342   2.240
 3699SOL    HW111996   1.016   5.360   2.194
 3699SOL    HW211997   0.935   5.372   2.336
 3700SOL     OW11998   6.280   0.593   3.723
 3700SOL    HW111999   6.311   0.687   3.713
 3700SOL    HW212000   6.253   0.576   3.818
 3701SOL     OW12001   4.162   1.428   3.749
 3701SOL    HW112002   4.244   1.372   3.737
 3701SOL    HW212003   4.082   1.370   3.757
 3702SOL     OW12004   4.522   1.439   6.598
 3702SOL    HW112005   4.457   1.367   6.574
 3702SOL    HW212006   4.490   1.526   6.560
 3703SOL     OW12007   3.841   4.787   0.948
 3703SOL    HW112008   3.929   4.760   0.987
 3703SOL    HW212009   3.782   4.825   1.020
 3704SOL     OW12010   3.124   6.444   1.153
 3704SOL    HW112011   3.068   6.513   1.107
 3704SOL    HW212012   3.217   6.480   1.166
 3705SOL     OW12013   6.880   0.825   4.411
 3705SOL    HW112014   6.926   0.874   4.337
 3705SOL    HW212015   6.810   0.765   4.373
 3706SOL     OW12016   2.695   2.097   3.248
 3706SOL    HW112017   2.706   2.060   3.340
 3706SOL    HW212018   2.684   2.196   3.254
 3707SOL     OW12019   4.345   2.382   5.491
 3707SOL    HW112020   4.443   2.377   5.510
 3707SOL    HW212021   4.295   2.386   5.577
 3708SOL     OW12022   6.586   0.372   0.188
 3708SOL    HW112023   6.522   0.302   0.218
 3708SOL    HW212024   6.647   0.396   0.263
 3709SOL     OW12025   6.966   6.440   6.645
 3709SOL    HW112026   6.989   6.502   6.720
 3709SOL    HW212027   6.956   6.492   6.561
 3710SOL     OW12028   0.602   4.993   6.256
 3710SOL    HW112029   0.642   5.070   6.206
 3710SOL    HW212030   0.575   4.922   6.191
 3711SOL     OW12031   6.778   5.242   2.001
 3711SOL    HW112032   6.766   5.340   1.987
 3711SOL    HW212033   6.692   5.201   2.031
 3712SOL     OW12034   1.289   6.633   6.093
 3712SOL    HW112035   1.232   6.558   6.059
 3712SOL    HW212036   1.243   6.679   6.169
 3713SOL     OW12037   3.640   5.113   6.142
 3713SOL    HW112038   3.722   5.063   6.169
 3713SOL    HW212039   3.662   5.179   6.071
 3714SOL     OW12040   4.659   2.055   5.120
 3714SOL    HW112041   4.599   2.000   5.178
 3714SOL    HW212042   4.694   1.999   5.046
 3715SOL     OW12043   4.755   4.091   3.528
 3715SOL    HW112044   4.848   4.119   3.552
 3715SOL    HW212045   4.726   4.137   3.445
 3716SOL     OW12046   1.019   1.206   4.599
 3716SOL    HW112047   0.977   1.121   4.633
 3716SOL    HW212048   1.118   1.196   4.601
 3717SOL     OW12049   5.946   0.630   6.879
 3717SOL    HW112050   5.854   0.610   6.913
 3717SOL    HW212051   6.002   0.548   6.884
 3718SOL     OW12052   0.845   6.181   6.155
 3718SOL    HW112053   0.821   6.134   6.070
 3718SOL    HW212054   0.802   6.272   6.156
 3719SOL     OW12055   3.560   4.225   0.461
 3719SOL    HW112056   3.640   4.171   0.489
 3719SOL    HW212057   3.491   4.221   0.534
 3720SOL     OW12058   0.016   1.197   6.203
 3720SOL    HW112059   6.967   1.134   6.179
 3720SOL    HW212060   7.003   1.277   6.248
 3721SOL     OW12061   5.182   3.282   0.217
 3721SOL    HW112062   5.178   3.311   0.121
 3721SOL    HW212063   5.110   3.329   0.269
 3722SOL     OW12064   4.234   6.001   1.121
 3722SOL    HW112065   4.237   6.068   1.195
 3722SOL    HW212066   4.139   5.975   1.103
 3723SOL     OW12067   4.432   1.171   0.672
 3723SOL    HW112068   4.486   1.248   0.637
 3723SOL    HW212069   4.400   1.192   0.765
 3724SOL     OW12070   0.854   4.177   6.299
 3724SOL    HW112071   0.768   4.187   6.249
 3724SOL    HW212072   0.842   4.110   6.373
 3725SOL     OW12073   5.174   6.252   1.501
 3725SOL    HW112074   5.248   6.257   1.568
 3725SOL    HW212075   5.171   6.337   1.448
 3726SOL     OW12076   6.269   3.306   1.711
 3726SOL    HW112077   6.288   3.375   1.782
 3726SOL    HW212078   6.178   3.323   1.672
 3727SOL     OW12079   2.805   2.876   5.661
 3727SOL    HW112080   2.812   2.892   5.760
 3727SOL    HW212081   2.883   2.822   5.630
 3728SOL     OW12082   0.715   4.009   6.472
 3728SOL    HW112083   0.726   4.028   6.569
 3728SOL    HW212084   0.632   3.954   6.458
 3729SOL     OW12085   0.955   3.489   3.593
 3729SOL    HW112086   0.922   3.400   3.562
 3729SOL    HW212087   0.884   3.533   3.649
 3730SOL     OW12088   2.403   0.206   1.591
 3730SOL    HW112089   2.470   0.281   1.593
 3730SOL    HW212090   2.389   0.177   1.496
 3731SOL     OW12091   2.580   6.085   0.535
 3731SOL    HW112092   2.593   6.062   0.439
 3731SOL    HW212093   2.656   6.049   0.589
 3732SOL     OW12094   2.107   3.643   4.304
 3732SOL    HW112095   2.114   3.622   4.206
 3732SOL    HW212096   2.094   3.559   4.356
 3733SOL     OW12097   3.235   2.954   1.641
 3733SOL    HW112098   3.280   3.042   1.630
 3733SOL    HW212099   3.140   2.968   1.669
 3734SOL     OW12100   4.149   1.604   3.229
 3734SOL    HW112101   4.199   1.653   3.301
 3734SOL    HW212102   4.213   1.562   3.166
 3735SOL     OW12103   4.031   2.255   1.898
 3735SOL    HW112104   4.016   2.157   1.911
 3735SOL    HW212105   3.987   2.306   1.973
 3736SOL     OW12106   4.795   0.913   6.226
 3736SOL    HW112107   4.797   1.012   6.244
 3736SOL    HW212108   4.855   0.867   6.291
 3737SOL     OW12109   2.928   0.215   3.759
 3737SOL    HW112110   2.885   0.215   3.849
 3737SOL    HW212111   3.026   0.200   3.769
 3738SOL     OW12112   0.300   0.697   4.645
 3738SOL    HW112113   0.230   0.626   4.652
 3738SOL    HW212114   0.346   0.708   4.733
 3739SOL     OW12115   0.224   3.282   0.769
 3739SOL    HW112116   0.134   3.242   0.752
 3739SOL    HW212117   0.288   3.210   0.797
 3740SOL     OW12118   5.759   6.710   6.921
 3740SOL    HW112119   5.801   6.695   7.011
 3740SOL    HW212120   5.661   6.726   6.931
 3741SOL     OW12121   3.383   0.929   0.078
 3741SOL    HW112122   3.393   0.980   0.163
 3741SOL    HW212123   3.413   0.834   0.092
 3742SOL     OW12124   3.618   3.405   6.154
 3742SOL    HW112125   3.674   3.479   6.191
 3742SOL    HW212126   3.643   3.389   6.058
 3743SOL     OW12127   0.777   5.814   5.842
 3743SOL    HW112128   0.856   5.777   5.892
 3743SOL    HW212129   0.699   5.754   5.853
 3744SOL     OW12130   6.345   4.617   3.087
 3744SOL    HW112131   6.337   4.623   3.187
 3744SOL    HW212132   6.389   4.531   3.062
 3745SOL     OW12133   5.278   4.829   1.213
 3745SOL    HW112134   5.211   4.840   1.140
 3745SOL    HW212135   5.277   4.910   1.271
 3746SOL     OW12136   4.068   1.452   1.340
 3746SOL    HW112137   4.074   1.504   1.255
 3746SOL    HW212138   3.975   1.417   1.351
 3747SOL     OW12139   2.682   6.865   1.154
 3747SOL    HW112140   2.776   6.889   1.131
 3747SOL    HW212141   2.656   6.781   1.107
 3748SOL     OW12142   5.859   0.605   1.577
 3748SOL    HW112143   5.794   0.602   1.501
 3748SOL    HW212144   5.891   0.699   1.590
 3749SOL     OW12145   0.705   0.655   3.810
 3749SOL    HW112146   0.675   0.742   3.771
 3749SOL    HW212147   0.655   0.638   3.895
 3750SOL     OW12148   0.727   3.957   6.806
 3750SOL    HW112149   0.688   3.889   6.868
 3750SOL    HW212150   0.688   4.047   6.826
 3751SOL     OW12151   1.927   5.228   2.157
 3751SOL    HW112152   1.873   5.182   2.086
 3751SOL    HW212153   1.900   5.194   2.247
 3752SOL     OW12154   5.413   5.343   6.426
 3752SOL    HW112155   5.331   5.305   6.467
 3752SOL    HW212156   5.415   5.321   6.328
 3753SOL     OW12157   0.228   1.243   3.598
 3753SOL    HW112158   0.228   1.201   3.689
 3753SOL    HW212159   0.292   1.193   3.539
 3754SOL     OW12160   3.866   1.665   1.420
 3754SOL    HW112161   3.860   1.745   1.481
 3754SOL    HW212162   3.818   1.685   1.335
 3755SOL     OW12163   2.824   5.658   3.854
 3755SOL    HW112164   2.842   5.686   3.948
 3755SOL    HW212165   2.866   5.723   3.791
 3756SOL     OW12166   1.394   6.337   0.649
 3756SOL    HW112167   1.341   6.284   0.715
 3756SOL    HW212168   1.436   6.415   0.695
 3757SOL     OW12169   0.811   5.380   0.280
 3757SOL    HW112170   0.755   5.445   0.332
 3757SOL    HW212171   0.833   5.302   0.337
 3758SOL     OW12172   0.499   6.069   4.228
 3758SOL    HW112173   0.519   5.972   4.240
 3758SOL    HW212174   0.495   6.090   4.130
 3759SOL     OW12175   4.629   0.569   3.977
 3759SOL    HW112176   4.530   0.558   3.977
 3759SOL    HW212177   4.664   0.559   3.884
 3760SOL     OW12178   0.707   1.163   3.200
 3760SOL    HW112179   0.630   1.226   3.189
 3760SOL    HW212180   0.680   1.072   3.168
 3761SOL     OW12181   4.451   1.388   4.989
 3761SOL    HW112182   4.435   1.471   5.043
 3761SOL    HW212183   4.384   1.383   4.915
 3762SOL     OW12184   7.006   2.228   3.428
 3762SOL    HW112185   6.996   2.323   3.457
 3762SOL    HW212186   6.944   2.210   3.352
 3763SOL     OW12187   0.958   6.877   6.716
 3763SOL    HW112188   1.018   6.949   6.679
 3763SOL    HW212189   0.869   6.917   6.739
 3764SOL     OW12190   3.683   1.527   2.525
 3764SOL    HW112191   3.683   1.621   2.490
 3764SOL    HW212192   3.688   1.529   2.625
 3765SOL     OW12193   5.846   3.995   2.361
 3765SOL    HW112194   5.881   3.962   2.273
 3765SOL    HW212195   5.769   3.938   2.390
 3766SOL     OW12196   2.094   2.996   2.106
 3766SOL    HW112197   2.103   3.083   2.057
 3766SOL    HW212198   2.092   2.921   2.041
 3767SOL     OW12199   1.597   6.270   5.869
 3767SOL    HW112200   1.693   6.243   5.881
 3767SOL    HW212201   1.593   6.356   5.818
 3768SOL     OW12202   2.075   6.920   3.806
 3768SOL    HW112203   2.150   6.874   3.854
 3768SOL    HW212204   2.023   6.976   3.871
 3769SOL     OW12205   5.227   4.924   5.692
 3769SOL    HW112206   5.277   5.007   5.718
 3769SOL    HW212207   5.152   4.908   5.756
 3770SOL     OW12208   2.836   6.513   0.891
 3770SOL    HW112209   2.876   6.599   0.860
 3770SOL    HW212210   2.811   6.458   0.812
 3771SOL     OW12211   6.554   6.277   6.002
 3771SOL    HW112212   6.615   6.317   6.069
 3771SOL    HW212213   6.460   6.281   6.036
 3772SOL     OW12214   3.378   5.615   1.928
 3772SOL    HW112215   3.333   5.525   1.933
 3772SOL    HW212216   3.377   5.657   2.018
 3773SOL     OW12217   5.149   4.215   6.998
 3773SOL    HW112218   5.086   4.286   0.005
 3773SOL    HW212219   5.163   4.225   6.900
 3774SOL     OW12220   0.048   4.616   0.682
 3774SOL    HW112221   0.063   4.631   0.780
 3774SOL    HW212222   7.018   4.691   0.645
 3775SOL     OW12223   5.490   0.009   5.025
 3775SOL    HW112224   5.508   6.937   5.038
 3775SOL    HW212225   5.570   0.062   5.056
 3776SOL     OW12226   4.351   2.826   6.880
 3776SOL    HW112227   4.294   2.875   6.813
 3776SOL    HW212228   4.300   2.815   6.965
 3777SOL     OW12229   3.231   5.111   3.422
 3777SOL    HW112230   3.293   5.054   3.477
 3777SOL    HW212231   3.234   5.205   3.456
 3778SOL     OW12232   2.965   5.775   6.736
 3778SOL    HW112233   2.986   5.820   6.649
 3778SOL    HW212234   3.032   5.703   6.754
 3779SOL     OW12235   0.090   4.889   5.860
 3779SOL    HW112236   0.138   4.867   5.945
 3779SOL    HW212237   0.155   4.924   5.793
 3780SOL     OW12238   6.001   2.351   1.757
 3780SOL    HW112239   5.949   2.345   1.672
 3780SOL    HW212240   6.097   2.328   1.739
 3781SOL     OW12241   1.400   6.849   6.415
 3781SOL    HW112242   1.500   6.849   6.424
 3781SOL    HW212243   1.375   6.877   6.322
 3782SOL     OW12244   3.692   5.285   6.760
 3782SOL    HW112245   3.706   5.374   6.803
 3782SOL    HW212246   3.742   5.283   6.673
 3783SOL     OW12247   4.589   5.115   5.162
 3783SOL    HW112248   4.565   5.161   5.076
 3783SOL    HW212249   4.514   5.054   5.189
 3784SOL     OW12250   5.536   3.683   4.788
 3784SOL    HW112251   5.485   3.761   4.753
 3784SOL    HW212252   5.493   3.651   4.873
 3785SOL     OW12253   0.800   3.283   2.574
 3785SOL    HW112254   0.776   3.347   2.647
 3785SOL    HW212255   0.789   3.190   2.607
 3786SOL     OW12256   2.950   2.762   6.031
 3786SOL    HW112257   2.910   2.847   5.997
 3786SOL    HW212258   2.922   2.686   5.971
 3787SOL     OW12259   4.799   6.385   4.905
 3787SOL    HW112260   4.703   6.359   4.894
 3787SOL    HW212261   4.851   6.358   4.824
 3788SOL     OW12262   5.530   3.218   6.359
 3788SOL    HW112263   5.604   3.205   6.293
 3788SOL    HW212264   5.464   3.144   6.349
 3789SOL     OW12265   2.032   4.257   0.915
 3789SOL    HW112266   2.087   4.178   0.944
 3789SOL    HW212267   2.070   4.341   0.953
 3790SOL     OW12268   2.198   0.131   1.734
 3790SOL    HW112269   2.280   0.172   1.695
 3790SOL    HW212270   2.133   0.204   1.756
 3791SOL     OW12271   5.091   0.510   4.087
 3791SOL    HW112272   5.120   0.550   4.000
 3791SOL    HW212273   4.997   0.477   4.079
 3792SOL     OW12274   6.310   0.408   3.093
 3792SOL    HW112275   6.281   0.495   3.131
 3792SOL    HW212276   6.386   0.372   3.148
 3793SOL     OW12277   5.077   3.271   6.979
 3793SOL    HW112278   5.145   3.324   6.929
 3793SOL    HW212279   5.072   3.179   6.940
 3794SOL     OW12280   1.488   5.217   5.691
 3794SOL    HW112281   1.573   5.189   5.734
 3794SOL    HW212282   1.501   5.224   5.592
 3795SOL     OW12283   3.278   6.215   0.590
 3795SOL    HW112284   3.344   6.192   0.662
 3795SOL    HW212285   3.210   6.278   0.626
 3796SOL     OW12286   5.273   0.992   0.134
 3796SOL    HW112287   5.316   1.054   0.199
 3796SOL    HW212288   5.181   0.970   0.165
 3797SOL     OW12289   6.794   2.255   1.133
 3797SOL    HW112290   6.741   2.288   1.211
 3797SOL    HW212291   6.732   2.215   1.066
 3798SOL     OW12292   0.349   4.268   4.067
 3798SOL    HW112293   0.445   4.298   4.071
 3798SOL    HW212294   0.296   4.334   4.014
 3799SOL     OW12295   6.678   1.908   2.513
 3799SOL    HW112296   6.685   1.993   2.460
 3799SOL    HW212297   6.622   1.842   2.462
 3800SOL     OW12298   5.269   3.756   2.399
 3800SOL    HW112299   5.185   3.713   2.366
 3800SOL    HW212300   5.296   3.830   2.337
 3801SOL     OW12301   5.637   1.649   1.102
 3801SOL    HW112302   5.569   1.613   1.038
 3801SOL    HW212303   5.615   1.618   1.195
 3802SOL     OW12304   6.425   3.703   3.269
 3802SOL    HW112305   6.410   3.781   3.209
 3802SOL    HW212306   6.340   3.651   3.278
 3803SOL     OW12307   3.695   4.145   6.282
 3803SOL    HW112308   3.628   4.199   6.332
 3803SOL    HW212309   3.688   4.165   6.184
 3804SOL     OW12310   3.083   6.092   2.826
 3804SOL    HW112311   3.038   6.051   2.746
 3804SOL    HW212312   3.084   6.026   2.901
 3805SOL     OW12313   2.709   1.937   6.757
 3805SOL    HW112314   2.780   1.894   6.701
 3805SOL    HW212315   2.715   1.901   6.851
 3806SOL     OW12316   1.792   3.517   2.157
 3806SOL    HW112317   1.884   3.555   2.155
 3806SOL    HW212318   1.726   3.589   2.138
 3807SOL     OW12319   0.260   3.877   3.927
 3807SOL    HW112320   0.271   3.875   3.828
 3807SOL    HW212321   0.338   3.924   3.968
 3808SOL     OW12322   2.820   6.496   5.643
 3808SOL    HW112323   2.846   6.407   5.605
 3808SOL    HW212324   2.747   6.536   5.588
 3809SOL     OW12325   5.172   1.333   1.394
 3809SOL    HW112326   5.249   1.335   1.458
 3809SOL    HW212327   5.176   1.249   1.340
 3810SOL     OW12328   4.748   2.195   3.814
 3810SOL    HW112329   4.826   2.209   3.875
 3810SOL    HW212330   4.756   2.106   3.770
 3811SOL     OW12331   6.847   5.768   5.159
 3811SOL    HW112332   6.909   5.690   5.148
 3811SOL    HW212333   6.892   5.851   5.126
 3812SOL     OW12334   4.230   5.720   7.016
 3812SOL    HW112335   4.177   5.759   0.066
 3812SOL    HW212336   4.190   5.751   6.929
 3813SOL     OW12337   6.920   3.282   6.619
 3813SOL    HW112338   6.844   3.318   6.673
 3813SOL    HW212339   6.890   3.199   6.571
 3814SOL     OW12340   6.418   0.597   5.222
 3814SOL    HW112341   6.448   0.563   5.311
 3814SOL    HW212342   6.319   0.612   5.224
 3815SOL     OW12343   5.102   2.081   5.270
 3815SOL    HW112344   5.097   2.090   5.170
 3815SOL    HW212345   5.184   2.127   5.303
 3816SOL     OW12346   6.872   6.511   1.415
 3816SOL    HW112347   6.969   6.516   1.390
 3816SOL    HW212348   6.830   6.601   1.405
 3817SOL     OW12349   3.779   3.733   2.772
 3817SOL    HW112350   3.777   3.811   2.710
 3817SOL    HW212351   3.744   3.760   2.862
 3818SOL     OW12352   4.565   5.633   2.313
 3818SOL    HW112353   4.659   5.642   2.345
 3818SOL    HW212354   4.505   5.608   2.389
 3819SOL     OW12355   6.506   3.356   3.025
 3819SOL    HW112356   6.558   3.355   3.110
 3819SOL    HW212357   6.422   3.302   3.036
 3820SOL     OW12358   2.838   6.369   6.125
 3820SOL    HW112359   2.931   6.379   6.089
 3820SOL    HW212360   2.841   6.340   6.220
 3821SOL     OW12361   1.782   6.684   1.409
 3821SOL    HW112362   1.877   6.703   1.385
 3821SOL    HW212363   1.772   6.586   1.427
 3822SOL     OW12364   5.724   6.966   1.537
 3822SOL    HW112365   5.752   0.036   1.537
 3822SOL    HW212366   5.663   6.949   1.614
 3823SOL     OW12367   5.450   5.820   4.652
 3823SOL    HW112368   5.395   5.829   4.569
 3823SOL    HW212369   5.491   5.909   4.674
 3824SOL     OW12370   1.801   2.528   0.794
 3824SOL    HW112371   1.879   2.559   0.848
 3824SOL    HW212372   1.751   2.608   0.759
 3825SOL     OW12373   7.016   4.599   5.717
 3825SOL    HW112374   6.975   4.668   5.777
 3825SOL    HW212375   7.011   4.509   5.762
 3826SOL     OW12376   4.926   4.175   3.944
 3826SOL    HW112377   4.944   4.256   3.888
 3826SOL    HW212378   4.963   4.094   3.897
 3827SOL     OW12379   0.459   1.454   0.011
 3827SOL    HW112380   0.556   1.431   0.005
 3827SOL    HW212381   0.410   1.383   0.061
 3828SOL     OW12382   3.026   3.621   5.408
 3828SOL    HW112383   2.984   3.601   5.319
 3828SOL    HW212384   2.970   3.581   5.481
 3829SOL     OW12385   6.754   2.985   1.302
 3829SOL    HW112386   6.684   2.987   1.231
 3829SOL    HW212387   6.762   2.892   1.338
 3830SOL     OW12388   5.316   6.719   3.515
 3830SOL    HW112389   5.247   6.767   3.569
 3830SOL    HW212390   5.378   6.785   3.473
 3831SOL     OW12391   5.179   2.753   3.836
 3831SOL    HW112392   5.241   2.674   3.838
 3831SOL    HW212393   5.101   2.732   3.777
 3832SOL     OW12394   6.589   1.370   4.027
 3832SOL    HW112395   6.557   1.340   3.937
 3832SOL    HW212396   6.543   1.316   4.098
 3833SOL     OW12397   2.055   2.921   6.223
 3833SOL    HW112398   1.975   2.884   6.176
 3833SOL    HW212399   2.043   3.019   6.236
 3834SOL     OW12400   4.815   4.604   0.781
 3834SOL    HW112401   4.783   4.618   0.875
 3834SOL    HW212402   4.812   4.692   0.732
 3835SOL     OW12403   4.629   5.227   4.243
 3835SOL    HW112404   4.677   5.141   4.227
 3835SOL    HW212405   4.556   5.238   4.175
 3836SOL     OW12406   0.047   0.125   4.738
 3836SOL    HW112407   0.011   0.213   4.710
 3836SOL    HW212408   7.018   0.089   4.814
 3837SOL     OW12409   5.197   4.070   5.580
 3837SOL    HW112410   5.122   4.112   5.531
 3837SOL    HW212411   5.265   4.139   5.603
 3838SOL     OW12412   0.057   1.726   3.940
 3838SOL    HW112413   0.073   1.724   3.842
 3838SOL    HW212414   0.122   1.787   3.984
 3839SOL     OW12415   4.195   1.681   3.697
 3839SOL    HW112416   4.166   1.588   3.718
 3839SOL    HW212417   4.295   1.685   3.694
 3840SOL     OW12418   4.087   1.220   6.377
 3840SOL    HW112419   4.008   1.170   6.415
 3840SOL    HW212420   4.059   1.313   6.355
 3841SOL     OW12421   5.621   4.295   2.712
 3841SOL    HW112422   5.533   4.343   2.712
 3841SOL    HW212423   5.631   4.246   2.799
 3842SOL     OW12424   1.518   3.705   5.202
 3842SOL    HW112425   1.475   3.708   5.292
 3842SOL    HW212426   1.549   3.797   5.176
 3843SOL     OW12427   5.698   2.265   6.676
 3843SOL    HW112428   5.745   2.245   6.590
 3843SOL    HW212429   5.606   2.226   6.674
 3844SOL     OW12430   6.146   6.371   0.404
 3844SOL    HW112431   6.110   6.288   0.446
 3844SOL    HW212432   6.218   6.409   0.461
 3845SOL     OW12433   2.152   5.122   6.797
 3845SOL    HW112434   2.177   5.121   6.894
 3845SOL    HW212435   2.064   5.077   6.785
 3846SOL     OW12436   6.653   3.254   2.559
 3846SOL    HW112437   6.667   3.291   2.651
 3846SOL    HW212438   6.555   3.245   2.541
 3847SOL     OW12439   0.949   0.939   6.842
 3847SOL    HW112440   0.988   0.851   6.816
 3847SOL    HW212441   0.896   0.976   6.765
 3848SOL     OW12442   6.393   4.808   2.465
 3848SOL    HW112443   6.488   4.837   2.452
 3848SOL    HW212444   6.352   4.785   2.377
 3849SOL     OW12445   0.017   2.829   5.423
 3849SOL    HW112446   6.998   2.754   5.471
 3849SOL    HW212447   0.075   2.793   5.350
 3850SOL     OW12448   3.647   3.094   1.497
 3850SOL    HW112449   3.560   3.126   1.533
 3850SOL    HW212450   3.714   3.091   1.571
 3851SOL     OW12451   0.189   5.517   2.392
 3851SOL    HW112452   0.161   5.612   2.383
 3851SOL    HW212453   0.111   5.461   2.418
 3852SOL     OW12454   3.010   1.231   5.414
 3852SOL    HW112455   3.096   1.267   5.378
 3852SOL    HW212456   2.933   1.278   5.370
 3853SOL     OW12457   2.311   1.223   3.075
 3853SOL    HW112458   2.375   1.293   3.107
 3853SOL    HW212459   2.350   1.178   2.994
 3854SOL     OW12460   0.397   1.661   1.568
 3854SOL    HW112461   0.484   1.649   1.616
 3854SOL    HW212462   0.330   1.702   1.630
 3855SOL     OW12463   2.880   6.078   6.623
 3855SOL    HW112464   2.938   6.145   6.669
 3855SOL    HW212465   2.934   5.998   6.597
 3856SOL     OW12466   6.711   2.657   6.485
 3856SOL    HW112467   6.718   2.668   6.584
 3856SOL    HW212468   6.750   2.736   6.440
 3857SOL     OW12469   1.018   0.334   6.048
 3857SOL    HW112470   0.958   0.410   6.022
 3857SOL    HW212471   1.107   0.369   6.076
 3858SOL     OW12472   3.954   1.212   5.195
 3858SOL    HW112473   3.941   1.127   5.145
 3858SOL    HW212474   4.040   1.208   5.245
 3859SOL     OW12475   5.519   0.204   2.130
 3859SOL    HW112476   5.599   0.211   2.071
 3859SOL    HW212477   5.497   0.108   2.146
 3860SOL     OW12478   1.666   6.542   4.488
 3860SOL    HW112479   1.568   6.541   4.505
 3860SOL    HW212480   1.715   6.568   4.571
 3861SOL     OW12481   2.992   5.795   2.447
 3861SOL    HW112482   3.042   5.867   2.400
 3861SOL    HW212483   3.053   5.748   2.511
 3862SOL     OW12484   1.623   0.568   4.155
 3862SOL    HW112485   1.640   0.638   4.085
 3862SOL    HW212486   1.709   0.522   4.178
 3863SOL     OW12487   4.293   0.401   1.066
 3863SOL    HW112488   4.283   0.306   1.037
 3863SOL    HW212489   4.202   0.440   1.084
 3864SOL     OW12490   1.011   6.867   4.378
 3864SOL    HW112491   1.031   6.798   4.309
 3864SOL    HW212492   1.075   6.944   4.369
 3865SOL     OW12493   5.086   1.009   0.683
 3865SOL    HW112494   5.152   0.934   0.678
 3865SOL    HW212495   4.994   0.970   0.690
 3866SOL     OW12496   3.626   0.802   6.759
 3866SOL    HW112497   3.647   0.750   6.842
 3866SOL    HW212498   3.528   0.824   6.758
 3867SOL     OW12499   6.122   3.525   2.267
 3867SOL    HW112500   6.174   3.465   2.207
 3867SOL    HW212501   6.131   3.494   2.361
 3868SOL     OW12502   3.755   0.216   0.249
 3868SOL    HW112503   3.799   0.306   0.256
 3868SOL    HW212504   3.735   0.182   0.341
 3869SOL     OW12505   3.573   1.143   4.080
 3869SOL    HW112506   3.611   1.087   4.154
 3869SOL    HW212507   3.598   1.239   4.095
 3870SOL     OW12508   6.973   1.386   5.570
 3870SOL    HW112509   6.927   1.378   5.658
 3870SOL    HW212510   0.046   1.389   5.585
 3871SOL     OW12511   3.164   5.196   3.764
 3871SOL    HW112512   3.154   5.159   3.857
 3871SOL    HW212513   3.074   5.211   3.724
 3872SOL     OW12514   2.941   3.985   5.381
 3872SOL    HW112515   2.899   3.926   5.312
 3872SOL    HW212516   2.869   4.031   5.433
 3873SOL     OW12517   4.864   1.844   6.708
 3873SOL    HW112518   4.942   1.887   6.753
 3873SOL    HW212519   4.785   1.905   6.712
 3874SOL     OW12520   2.110   1.438   1.119
 3874SOL    HW112521   2.209   1.431   1.125
 3874SOL    HW212522   2.076   1.502   1.188
 3875SOL     OW12523   1.131   1.198   6.695
 3875SOL    HW112524   1.198   1.209   6.769
 3875SOL    HW212525   1.084   1.110   6.705
 3876SOL     OW12526   3.682   5.367   2.435
 3876SOL    HW112527   3.584   5.347   2.434
 3876SOL    HW212528   3.734   5.282   2.427
 3877SOL     OW12529   1.004   1.574   5.424
 3877SOL    HW112530   0.920   1.553   5.473
 3877SOL    HW212531   1.018   1.673   5.422
 3878SOL     OW12532   4.658   1.444   4.743
 3878SOL    HW112533   4.656   1.514   4.672
 3878SOL    HW212534   4.586   1.377   4.726
 3879SOL     OW12535   5.304   5.401   6.793
 3879SOL    HW112536   5.298   5.373   6.698
 3879SOL    HW212537   5.343   5.493   6.798
 3880SOL     OW12538   4.943   4.746   4.224
 3880SOL    HW112539   4.851   4.710   4.207
 3880SOL    HW212540   4.979   4.707   4.309
 3881SOL     OW12541   1.480   3.026   0.173
 3881SOL    HW112542   1.459   2.929   0.179
 3881SOL    HW212543   1.578   3.040   0.189
 3882SOL     OW12544   0.413   1.756   5.604
 3882SOL    HW112545   0.489   1.734   5.544
 3882SOL    HW212546   0.447   1.774   5.697
 3883SOL     OW12547   4.513   6.019   4.159
 3883SOL    HW112548   4.437   6.026   4.095
 3883SOL    HW212549   4.480   6.038   4.252
 3884SOL     OW12550   0.163   3.282   2.079
 3884SOL    HW112551   0.228   3.358   2.081
 3884SOL    HW212552   0.125   3.268   2.171
 3885SOL     OW12553   4.266   5.458   1.946
 3885SOL    HW112554   4.195   5.528   1.936
 3885SOL    HW212555   4.340   5.493   2.003
 3886SOL     OW12556   3.004   5.602   6.438
 3886SOL    HW112557   3.045   5.593   6.529
 3886SOL    HW212558   3.076   5.604   6.369
 3887SOL     OW12559   2.097   5.607   2.224
 3887SOL    HW112560   2.022   5.588   2.161
 3887SOL    HW212561   2.133   5.521   2.261
 3888SOL     OW12562   5.264   5.115   3.623
 3888SOL    HW112563   5.337   5.050   3.603
 3888SOL    HW212564   5.200   5.075   3.688
 3889SOL     OW12565   5.774   4.132   0.262
 3889SOL    HW112566   5.809   4.082   0.183
 3889SOL    HW212567   5.844   4.195   0.296
 3890SOL     OW12568   5.502   3.991   3.805
 3890SOL    HW112569   5.467   3.979   3.712
 3890SOL    HW212570   5.602   3.995   3.803
 3891SOL     OW12571   4.807   5.188   3.843
 3891SOL    HW112572   4.822   5.148   3.753
 3891SOL    HW212573   4.714   5.169   3.874
 3892SOL     OW12574   6.692   2.219   1.805
 3892SOL    HW112575   6.724   2.308   1.773
 3892SOL    HW212576   6.655   2.228   1.897
 3893SOL     OW12577   4.035   3.146   3.732
 3893SOL    HW112578   3.945   3.139   3.690
 3893SOL    HW212579   4.054   3.061   3.782
 3894SOL     OW12580   4.434   1.061   6.162
 3894SOL    HW112581   4.449   0.973   6.206
 3894SOL    HW212582   4.484   1.063   6.075
 3895SOL     OW12583   0.498   0.482   4.276
 3895SOL    HW112584   0.475   0.384   4.277
 3895SOL    HW212585   0.425   0.534   4.319
 3896SOL     OW12586   2.078   1.287   6.244
 3896SOL    HW112587   2.094   1.307   6.340
 3896SOL    HW212588   2.166   1.269   6.199
 3897SOL     OW12589   3.223   6.116   1.050
 3897SOL    HW112590   3.301   6.060   1.077
 3897SOL    HW212591   3.139   6.073   1.081
 3898SOL     OW12592   3.715   3.092   1.249
 3898SOL    HW112593   3.682   3.091   1.343
 3898SOL    HW212594   3.727   2.998   1.217
 3899SOL     OW12595   2.856   0.100   5.724
 3899SOL    HW112596   2.877   0.006   5.697
 3899SOL    HW212597   2.804   0.144   5.651
 3900SOL     OW12598   4.462   4.789   2.863
 3900SOL    HW112599   4.532   4.766   2.795
 3900SOL    HW212600   4.395   4.850   2.821
 3901SOL     OW12601   2.721   1.243   7.002
 3901SOL    HW112602   2.751   1.202   6.916
 3901SOL    HW212603   2.788   1.224   0.048
 3902SOL     OW12604   5.125   2.729   2.708
 3902SOL    HW112605   5.135   2.814   2.656
 3902SOL    HW212606   5.199   2.667   2.684
 3903SOL     OW12607   3.641   4.582   6.883
 3903SOL    HW112608   3.660   4.565   6.980
 3903SOL    HW212609   3.603   4.499   6.842
 3904SOL     OW12610   2.020   6.637   0.725
 3904SOL    HW112611   1.937   6.585   0.706
 3904SOL    HW212612   2.098   6.574   0.729
 3905SOL     OW12613   0.148   6.510   5.296
 3905SOL    HW112614   0.138   6.582   5.227
 3905SOL    HW212615   0.224   6.451   5.271
 3906SOL     OW12616   7.010   6.008   5.427
 3906SOL    HW112617   0.013   5.913   5.442
 3906SOL    HW212618   0.059   6.070   5.450
 3907SOL     OW12619   5.447   2.433   3.925
 3907SOL    HW112620   5.492   2.399   4.007
 3907SOL    HW212621   5.511   2.490   3.873
 3908SOL     OW12622   2.727   4.048   5.958
 3908SOL    HW112623   2.712   3.951   5.937
 3908SOL    HW212624   2.818   4.076   5.926
 3909SOL     OW12625   5.259   5.728   3.689
 3909SOL    HW112626   5.290   5.645   3.735
 3909SOL    HW212627   5.189   5.705   3.622
 3910SOL     OW12628   3.839   3.642   2.347
 3910SOL    HW112629   3.924   3.652   2.297
 3910SOL    HW212630   3.828   3.547   2.377
 3911SOL     OW12631   5.905   2.181   5.900
 3911SOL    HW112632   5.899   2.082   5.914
 3911SOL    HW212633   5.861   2.228   5.976
 3912SOL     OW12634   5.361   2.859   6.058
 3912SOL    HW112635   5.361   2.900   5.967
 3912SOL    HW212636   5.284   2.795   6.065
 3913SOL     OW12637   1.459   6.972   1.678
 3913SOL    HW112638   1.530   6.984   1.748
 3913SOL    HW212639   1.445   0.034   1.631
 3914SOL     OW12640   3.000   5.630   5.121
 3914SOL    HW112641   2.932   5.620   5.193
 3914SOL    HW212642   3.048   5.543   5.108
 3915SOL     OW12643   6.305   5.726   1.730
 3915SOL    HW112644   6.319   5.759   1.824
 3915SOL    HW212645   6.274   5.802   1.673
 3916SOL     OW12646   0.177   0.177   3.494
 3916SOL    HW112647   0.220   0.103   3.547
 3916SOL    HW212648   0.244   0.250   3.478
 3917SOL     OW12649   2.822   6.982   6.522
 3917SOL    HW112650   2.784   7.006   6.432
 3917SOL    HW212651   2.786   6.893   6.550
 3918SOL     OW12652   5.866   3.605   6.886
 3918SOL    HW112653   5.768   3.623   6.892
 3918SOL    HW212654   5.914   3.689   6.863
 3919SOL     OW12655   3.067   6.307   0.904
 3919SOL    HW112656   3.002   6.362   0.956
 3919SOL    HW212657   3.126   6.257   0.967
 3920SOL     OW12658   2.341   0.646   0.074
 3920SOL    HW112659   2.252   0.603   0.091
 3920SOL    HW212660   2.344   0.679   7.005
 3921SOL     OW12661   0.966   3.491   0.952
 3921SOL    HW112662   0.981   3.537   0.865
 3921SOL    HW212663   0.945   3.559   1.022
 3922SOL     OW12664   1.025   5.462   1.388
 3922SOL    HW112665   1.086   5.410   1.449
 3922SOL    HW212666   0.950   5.500   1.441
 3923SOL     OW12667   6.966   6.212   1.018
 3923SOL    HW112668   6.962   6.132   1.078
 3923SOL    HW212669   0.023   6.264   1.039
 3924SOL     OW12670   6.393   4.852   4.679
 3924SOL    HW112671   6.300   4.841   4.713
 3924SOL    HW212672   6.446   4.907   4.744
 3925SOL     OW12673   1.393   5.037   1.453
 3925SOL    HW112674   1.307   5.086   1.435
 3925SOL    HW212675   1.374   4.939   1.460
 3926SOL     OW12676   3.310   5.299   3.127
 3926SOL    HW112677   3.335   5.276   3.033
 3926SOL    HW212678   3.381   5.355   3.168
 3927SOL     OW12679   2.255   3.845   6.417
 3927SOL    HW112680   2.318   3.854   6.494
 3927SOL    HW212681   2.204   3.759   6.425
 3928SOL     OW12682   6.359   6.722   6.383
 3928SOL    HW112683   6.412   6.727   6.299
 3928SOL    HW212684   6.355   6.627   6.414
 3929SOL     OW12685   1.110   1.610   4.733
 3929SOL    HW112686   1.115   1.648   4.641
 3929SOL    HW212687   1.183   1.543   4.747
 3930SOL     OW12688   2.834   1.693   3.997
 3930SOL    HW112689   2.819   1.689   4.095
 3930SOL    HW212690   2.796   1.778   3.960
 3931SOL     OW12691   4.230   0.153   1.928
 3931SOL    HW112692   4.194   0.242   1.899
 3931SOL    HW212693   4.156   0.086   1.932
 3932SOL     OW12694   1.861   2.984   3.409
 3932SOL    HW112695   1.944   2.980   3.464
 3932SOL    HW212696   1.886   3.002   3.313
 3933SOL     OW12697   1.804   1.246   6.164
 3933SOL    HW112698   1.902   1.249   6.181
 3933SOL    HW212699   1.761   1.181   6.227
 3934SOL     OW12700   5.156   5.987   0.020
 3934SOL    HW112701   5.253   6.009   0.032
 3934SOL    HW212702   5.115   6.053   6.982
 3935SOL     OW12703   5.083   6.802   1.646
 3935SOL    HW112704   5.008   6.738   1.657
 3935SOL    HW212705   5.147   6.793   1.722
 3936SOL     OW12706   0.562   4.386   2.333
 3936SOL    HW112707   0.498   4.361   2.406
 3936SOL    HW212708   0.605   4.303   2.299
 3937SOL     OW12709   0.274   1.970   2.218
 3937SOL    HW112710   0.190   1.991   2.268
 3937SOL    HW212711   0.308   2.053   2.174
 3938SOL     OW12712   6.736   3.084   3.417
 3938SOL    HW112713   6.688   3.051   3.336
 3938SOL    HW212714   6.674   3.140   3.472
 3939SOL     OW12715   1.862   1.756   1.759
 3939SOL    HW112716   1.818   1.756   1.669
 3939SOL    HW212717   1.942   1.696   1.757
 3940SOL     OW12718   4.359   4.460   0.998
 3940SOL    HW112719   4.370   4.558   1.012
 3940SOL    HW212720   4.407   4.410   1.071
 3941SOL     OW12721   5.206   3.572   0.110
 3941SOL    HW112722   5.267   3.650   0.098
 3941SOL    HW212723   5.203   3.546   0.206
 3942SOL     OW12724   6.487   0.075   0.686
 3942SOL    HW112725   6.550   0.010   0.644
 3942SOL    HW212726   6.423   0.025   0.746
 3943SOL     OW12727   6.908   3.089   5.098
 3943SOL    HW112728   7.007   3.088   5.083
 3943SOL    HW212729   6.890   3.092   5.197
 3944SOL     OW12730   5.332   1.505   5.034
 3944SOL    HW112731   5.420   1.462   5.054
 3944SOL    HW212732   5.302   1.478   4.942
 3945SOL     OW12733   0.099   0.134   1.164
 3945SOL    HW112734   0.157   0.065   1.121
 3945SOL    HW212735   0.089   0.114   1.261
 3946SOL     OW12736   3.832   5.552   3.161
 3946SOL    HW112737   3.806   5.473   3.106
 3946SOL    HW212738   3.786   5.549   3.249
 3947SOL     OW12739   6.911   3.899   6.034
 3947SOL    HW112740   6.839   3.939   5.977
 3947SOL    HW212741   6.875   3.819   6.081
 3948SOL     OW12742   6.590   3.529   0.953
 3948SOL    HW112743   6.526   3.570   1.019
 3948SOL    HW212744   6.629   3.601   0.896
 3949SOL     OW12745   5.384   6.480   3.143
 3949SOL    HW112746   5.306   6.529   3.104
 3949SOL    HW212747   5.469   6.529   3.123
 3950SOL     OW12748   1.783   6.460   0.683
 3950SOL    HW112749   1.808   6.409   0.601
 3950SOL    HW212750   1.719   6.532   0.659
 3951SOL     OW12751   5.703   5.931   1.775
 3951SOL    HW112752   5.688   5.983   1.859
 3951SOL    HW212753   5.694   5.833   1.793
 3952SOL     OW12754   5.788   1.741   6.315
 3952SOL    HW112755   5.695   1.770   6.340
 3952SOL    HW212756   5.807   1.652   6.356
 3953SOL     OW12757   2.920   3.544   2.811
 3953SOL    HW112758   2.850   3.598   2.859
 3953SOL    HW212759   2.929   3.577   2.718
 3954SOL     OW12760   4.080   4.685   5.679
 3954SOL    HW112761   4.051   4.619   5.748
 3954SOL    HW212762   4.019   4.764   5.681
 3955SOL     OW12763   3.662   1.579   5.081
 3955SOL    HW112764   3.654   1.620   4.990
 3955SOL    HW212765   3.628   1.644   5.149
 3956SOL     OW12766   1.982   1.630   0.932
 3956SOL    HW112767   2.023   1.559   0.988
 3956SOL    HW212768   2.054   1.680   0.883
 3957SOL     OW12769   3.744   0.926   3.827
 3957SOL    HW112770   3.740   0.902   3.923
 3957SOL    HW212771   3.728   1.024   3.816
 3958SOL     OW12772   5.603   6.501   6.261
 3958SOL    HW112773   5.626   6.464   6.351
 3958SOL    HW212774   5.686   6.525   6.212
 3959SOL     OW12775   5.325   5.277   6.176
 3959SOL    HW112776   5.382   5.271   6.094
 3959SOL    HW212777   5.230   5.254   6.152
 3960SOL     OW12778   5.971   2.320   4.809
 3960SOL    HW112779   5.930   2.229   4.813
 3960SOL    HW212780   5.981   2.356   4.902
 3961SOL     OW12781   5.081   6.678   4.231
 3961SOL    HW112782   5.076   6.755   4.294
 3961SOL    HW212783   5.008   6.685   4.163
 3962SOL     OW12784   6.229   4.996   5.010
 3962SOL    HW112785   6.303   4.989   5.076
 3962SOL    HW212786   6.163   4.922   5.025
 3963SOL     OW12787   4.215   6.944   2.414
 3963SOL    HW112788   4.314   6.960   2.414
 3963SOL    HW212789   4.189   6.898   2.329
 3964SOL     OW12790   5.319   2.983   3.857
 3964SOL    HW112791   5.274   2.894   3.846
 3964SOL    HW212792   5.301   3.039   3.776
 3965SOL     OW12793   5.130   4.217   4.435
 3965SOL    HW112794   5.090   4.308   4.444
 3965SOL    HW212795   5.230   4.224   4.436
 3966SOL     OW12796   2.469   6.695   6.332
 3966SOL    HW112797   2.561   6.718   6.302
 3966SOL    HW212798   2.473   6.621   6.399
 3967SOL     OW12799   1.558   4.005   3.996
 3967SOL    HW112800   1.522   3.969   3.910
 3967SOL    HW212801   1.609   4.089   3.978
 3968SOL     OW12802   3.584   0.312   0.739
 3968SOL    HW112803   3.595   0.340   0.834
 3968SOL    HW212804   3.487   0.308   0.716
 3969SOL     OW12805   0.216   4.783   3.310
 3969SOL    HW112806   0.160   4.857   3.348
 3969SOL    HW212807   0.194   4.698   3.357
 3970SOL     OW12808   4.441   5.929   1.768
 3970SOL    HW112809   4.508   5.927   1.842
 3970SOL    HW212810   4.367   5.864   1.787
 3971SOL     OW12811   1.743   5.968   3.604
 3971SOL    HW112812   1.678   5.903   3.564
 3971SOL    HW212813   1.827   5.920   3.629
 3972SOL     OW12814   1.480   3.490   0.166
 3972SOL    HW112815   1.387   3.468   0.138
 3972SOL    HW212816   1.539   3.495   0.086
 3973SOL     OW12817   1.634   4.692   0.569
 3973SOL    HW112818   1.536   4.687   0.588
 3973SOL    HW212819   1.678   4.751   0.637
 3974SOL     OW12820   2.885   0.633   5.356
 3974SOL    HW112821   2.863   0.731   5.358
 3974SOL    HW212822   2.873   0.598   5.263
 3975SOL     OW12823   6.221   3.081   0.010
 3975SOL    HW112824   6.153   3.051   6.969
 3975SOL    HW212825   6.217   3.181   0.020
 3976SOL     OW12826   1.910   3.948   2.939
 3976SOL    HW112827   1.815   3.918   2.932
 3976SOL    HW212828   1.942   3.982   2.851
 3977SOL     OW12829   0.787   2.929   0.095
 3977SOL    HW112830   0.800   2.970   0.185
 3977SOL    HW212831   0.732   2.846   0.104
 3978SOL     OW12832   6.060   4.427   4.130
 3978SOL    HW112833   6.073   4.472   4.218
 3978SOL    HW212834   6.101   4.483   4.058
 3979SOL     OW12835   4.421   5.890   6.014
 3979SOL    HW112836   4.406   5.803   5.967
 3979SOL    HW212837   4.429   5.874   6.113
 3980SOL     OW12838   5.591   5.207   6.011
 3980SOL    HW112839   5.645   5.185   5.929
 3980SOL    HW212840   5.625   5.153   6.088
 3981SOL     OW12841   4.701   5.537   7.019
 3981SOL    HW112842   4.617   5.520   6.968
 3981SOL    HW212843   4.729   5.632   7.006
 3982SOL     OW12844   2.634   6.071   3.023
 3982SOL    HW112845   2.710   6.137   3.018
 3982SOL    HW212846   2.630   6.032   3.115
 3983SOL     OW12847   3.354   5.893   4.411
 3983SOL    HW112848   3.362   5.889   4.311
 3983SOL    HW212849   3.445   5.896   4.452
 3984SOL     OW12850   6.789   3.135   3.093
 3984SOL    HW112851   6.869   3.189   3.117
 3984SOL    HW212852   6.788   3.119   2.994
 3985SOL     OW12853   4.153   5.229   6.373
 3985SOL    HW112854   4.199   5.141   6.383
 3985SOL    HW212855   4.222   5.302   6.370
 3986SOL     OW12856   5.330   0.749   2.569
 3986SOL    HW112857   5.413   0.743   2.624
 3986SOL    HW212858   5.254   0.776   2.628
 3987SOL     OW12859   3.736   5.198   5.660
 3987SOL    HW112860   3.734   5.159   5.568
 3987SOL    HW212861   3.762   5.127   5.726
 3988SOL     OW12862   4.787   5.839   0.823
 3988SOL    HW112863   4.699   5.830   0.777
 3988SOL    HW212864   4.857   5.867   0.757
 3989SOL     OW12865   6.400   2.741   1.164
 3989SOL    HW112866   6.452   2.664   1.129
 3989SOL    HW212867   6.308   2.739   1.124
 3990SOL     OW12868   7.014   1.685   1.981
 3990SOL    HW112869   7.002   1.777   2.019
 3990SOL    HW212870   6.953   1.622   2.029
 3991SOL     OW12871   5.778   1.479   3.114
 3991SOL    HW112872   5.839   1.557   3.131
 3991SOL    HW212873   5.743   1.484   3.021
 3992SOL     OW12874   4.384   1.815   1.615
 3992SOL    HW112875   4.298   1.764   1.612
 3992SOL    HW212876   4.459   1.756   1.584
 3993SOL     OW12877   0.817   3.471   1.435
 3993SOL    HW112878   0.740   3.530   1.411
 3993SOL    HW212879   0.805   3.381   1.392
 3994SOL     OW12880   2.241   5.483   4.364
 3994SOL    HW112881   2.202   5.394   4.388
 3994SOL    HW212882   2.317   5.469   4.300
 3995SOL     OW12883   1.950   2.472   4.452
 3995SOL    HW112884   1.882   2.534   4.491
 3995SOL    HW212885   1.946   2.383   4.498
 3996SOL     OW12886   0.376   5.775   4.670
 3996SOL    HW112887   0.345   5.808   4.581
 3996SOL    HW212888   0.467   5.810   4.688
 3997SOL     OW12889   2.801   1.230   3.463
 3997SOL    HW112890   2.885   1.225   3.517
 3997SOL    HW212891   2.722   1.216   3.523
 3998SOL     OW12892   4.606   2.622   2.717
 3998SOL    HW112893   4.588   2.576   2.804
 3998SOL    HW212894   4.704   2.620   2.698
 3999SOL     OW12895   4.603   1.394   4.328
 3999SOL    HW112896   4.557   1.474   4.288
 3999SOL    HW212897   4.537   1.340   4.380
 4000SOL     OW12898   3.717   6.047   4.334
 4000SOL    HW112899   3.701   5.983   4.409
 4000SOL    HW212900   3.807   6.088   4.343
 4001SOL     OW12901   0.816   1.682   4.309
 4001SOL    HW112902   0.791   1.588   4.283
 4001SOL    HW212903   0.785   1.700   4.402
 4002SOL     OW12904   1.901   4.273   1.244
 4002SOL    HW112905   1.942   4.334   1.176
 4002SOL    HW212906   1.857   4.196   1.199
 4003SOL     OW12907   4.140   2.090   5.091
 4003SOL    HW112908   4.204   2.135   5.030
 4003SOL    HW212909   4.102   2.157   5.155
 4004SOL     OW12910   6.816   1.673   6.054
 4004SOL    HW112911   6.840   1.676   6.151
 4004SOL    HW212912   6.866   1.599   6.009
 4005SOL     OW12913   6.449   4.309   4.684
 4005SOL    HW112914   6.499   4.223   4.678
 4005SOL    HW212915   6.514   4.385   4.681
 4006SOL     OW12916   3.480   6.515   3.038
 4006SOL    HW112917   3.485   6.436   2.977
 4006SOL    HW212918   3.496   6.485   3.132
 4007SOL     OW12919   0.447   1.468   5.654
 4007SOL    HW112920   0.475   1.507   5.566
 4007SOL    HW212921   0.404   1.539   5.710
 4008SOL     OW12922   3.213   1.535   5.479
 4008SOL    HW112923   3.220   1.442   5.442
 4008SOL    HW212924   3.251   1.538   5.571
 4009SOL     OW12925   3.460   3.974   2.917
 4009SOL    HW112926   3.501   3.884   2.932
 4009SOL    HW212927   3.368   3.963   2.881
 4010SOL     OW12928   1.094   3.244   0.360
 4010SOL    HW112929   1.060   3.213   0.449
 4010SOL    HW212930   1.108   3.343   0.362
 4011SOL     OW12931   0.150   2.206   0.906
 4011SOL    HW112932   0.247   2.193   0.886
 4011SOL    HW212933   0.107   2.117   0.921
 4012SOL     OW12934   5.640   3.283   3.118
 4012SOL    HW112935   5.675   3.201   3.163
 4012SOL    HW212936   5.541   3.278   3.111
 4013SOL     OW12937   5.060   2.711   2.977
 4013SOL    HW112938   5.080   2.710   2.879
 4013SOL    HW212939   4.965   2.686   2.992
 4014SOL     OW12940   5.452   5.231   2.170
 4014SOL    HW112941   5.356   5.202   2.164
 4014SOL    HW212942   5.474   5.253   2.265
 4015SOL     OW12943   4.932   3.548   6.890
 4015SOL    HW112944   4.968   3.486   6.959
 4015SOL    HW212945   5.007   3.581   6.832
 4016SOL     OW12946   2.891   6.038   4.366
 4016SOL    HW112947   2.966   5.972   4.353
 4016SOL    HW212948   2.875   6.050   4.464
 4017SOL     OW12949   5.843   6.534   6.110
 4017SOL    HW112950   5.890   6.617   6.141
 4017SOL    HW212951   5.867   6.516   6.015
 4018SOL     OW12952   2.187   0.413   6.859
 4018SOL    HW112953   2.276   0.448   6.829
 4018SOL    HW212954   2.163   0.332   6.806
 4019SOL     OW12955   5.321   5.963   3.792
 4019SOL    HW112956   5.398   5.916   3.835
 4019SOL    HW212957   5.253   5.896   3.762
 4020SOL     OW12958   5.383   1.855   4.763
 4020SOL    HW112959   5.337   1.939   4.789
 4020SOL    HW212960   5.460   1.876   4.702
 4021SOL     OW12961   5.391   4.030   0.013
 4021SOL    HW112962   5.386   4.049   0.111
 4021SOL    HW212963   5.304   4.052   6.995
 4022SOL     OW12964   5.691   1.077   0.729
 4022SOL    HW112965   5.651   1.072   0.821
 4022SOL    HW212966   5.641   1.145   0.676
 4023SOL     OW12967   6.496   6.233   5.711
 4023SOL    HW112968   6.555   6.282   5.776
 4023SOL    HW212969   6.551   6.165   5.662
 4024SOL     OW12970   4.576   4.322   5.162
 4024SOL    HW112971   4.527   4.261   5.223
 4024SOL    HW212972   4.515   4.394   5.130
 4025SOL     OW12973   0.747   3.931   4.237
 4025SOL    HW112974   0.791   3.850   4.199
 4025SOL    HW212975   0.772   4.012   4.183
 4026SOL     OW12976   5.759   0.682   5.521
 4026SOL    HW112977   5.685   0.616   5.505
 4026SOL    HW212978   5.773   0.737   5.439
 4027SOL     OW12979   3.042   5.280   2.607
 4027SOL    HW112980   3.072   5.186   2.591
 4027SOL    HW212981   2.983   5.309   2.531
 4028SOL     OW12982   1.829   5.444   3.014
 4028SOL    HW112983   1.879   5.521   3.054
 4028SOL    HW212984   1.754   5.418   3.075
 4029SOL     OW12985   1.945   3.969   3.229
 4029SOL    HW112986   1.923   3.872   3.243
 4029SOL    HW212987   1.934   3.992   3.133
 4030SOL     OW12988   2.165   1.374   6.487
 4030SOL    HW112989   2.145   1.456   6.434
 4030SOL    HW212990   2.158   1.395   6.585
 4031SOL     OW12991   6.875   6.156   4.196
 4031SOL    HW112992   6.871   6.068   4.244
 4031SOL    HW212993   6.969   6.174   4.167
 4032SOL     OW12994   3.273   6.847   4.770
 4032SOL    HW112995   3.218   6.834   4.853
 4032SOL    HW212996   3.241   6.929   4.722
 4033SOL     OW12997   3.757   3.657   6.202
 4033SOL    HW112998   3.835   3.719   6.213
 4033SOL    HW212999   3.713   3.674   6.114
 4034SOL     OW13000   5.843   3.252   4.878
 4034SOL    HW113001   5.874   3.163   4.910
 4034SOL    HW213002   5.918   3.318   4.883
 4035SOL     OW13003   6.856   6.499   1.867
 4035SOL    HW113004   6.823   6.408   1.841
 4035SOL    HW213005   6.923   6.490   1.941
 4036SOL     OW13006   5.953   5.794   1.476
 4036SOL    HW113007   6.039   5.776   1.429
 4036SOL    HW213008   5.970   5.811   1.573
 4037SOL     OW13009   0.683   3.648   6.463
 4037SOL    HW113010   0.722   3.641   6.555
 4037SOL    HW213011   0.583   3.649   6.470
 4038SOL     OW13012   6.129   5.274   3.517
 4038SOL    HW113013   6.043   5.289   3.467
 4038SOL    HW213014   6.109   5.254   3.612
 4039SOL     OW13015   2.450   5.399   1.007
 4039SOL    HW113016   2.454   5.440   1.099
 4039SOL    HW213017   2.515   5.323   1.002
 4040SOL     OW13018   3.135   6.697   6.969
 4040SOL    HW113019   3.135   6.779   6.912
 4040SOL    HW213020   3.185   6.715   0.029
 4041SOL     OW13021   0.730   6.107   3.255
 4041SOL    HW113022   0.797   6.146   3.319
 4041SOL    HW213023   0.775   6.037   3.199
 4042SOL     OW13024   5.705   6.190   1.921
 4042SOL    HW113025   5.801   6.161   1.927
 4042SOL    HW213026   5.700   6.281   1.880
 4043SOL     OW13027   6.797   3.338   0.893
 4043SOL    HW113028   6.881   3.338   0.949
 4043SOL    HW213029   6.733   3.407   0.929
 4044SOL     OW13030   5.967   5.018   2.446
 4044SOL    HW113031   5.927   5.047   2.359
 4044SOL    HW213032   5.922   5.066   2.521
 4045SOL     OW13033   2.630   4.657   5.827
 4045SOL    HW113034   2.581   4.646   5.740
 4045SOL    HW213035   2.584   4.603   5.898
 4046SOL     OW13036   0.449   3.341   0.476
 4046SOL    HW113037   0.520   3.352   0.545
 4046SOL    HW213038   0.426   3.244   0.468
 4047SOL     OW13039   2.968   3.283   3.281
 4047SOL    HW113040   2.951   3.211   3.214
 4047SOL    HW213041   2.975   3.243   3.373
 4048SOL     OW13042   4.684   2.338   0.357
 4048SOL    HW113043   4.610   2.281   0.395
 4048SOL    HW213044   4.645   2.408   0.298
 4049SOL     OW13045   6.787   6.702   6.690
 4049SOL    HW113046   6.876   6.680   6.731
 4049SOL    HW213047   6.715   6.686   6.758
 4050SOL     OW13048   2.558   0.738   2.794
 4050SOL    HW113049   2.576   0.643   2.819
 4050SOL    HW213050   2.632   0.796   2.826
 4051SOL     OW13051   2.526   3.289   0.768
 4051SOL    HW113052   2.466   3.321   0.841
 4051SOL    HW213053   2.526   3.356   0.693
 4052SOL     OW13054   1.665   0.099   1.122
 4052SOL    HW113055   1.684   0.003   1.145
 4052SOL    HW213056   1.680   0.112   1.024
 4053SOL     OW13057   2.913   5.392   2.383
 4053SOL    HW113058   3.007   5.417   2.406
 4053SOL    HW213059   2.871   5.465   2.329
 4054SOL     OW13060   5.392   1.537   6.899
 4054SOL    HW113061   5.365   1.630   6.926
 4054SOL    HW213062   5.338   1.509   6.820
 4055SOL     OW13063   4.814   3.772   0.337
 4055SOL    HW113064   4.854   3.787   0.247
 4055SOL    HW213065   4.742   3.702   0.331
 4056SOL     OW13066   4.402   3.216   6.619
 4056SOL    HW113067   4.388   3.145   6.550
 4056SOL    HW213068   4.500   3.225   6.638
 4057SOL     OW13069   6.013   2.610   0.728
 4057SOL    HW113070   6.011   2.556   0.812
 4057SOL    HW213071   6.063   2.559   0.658
 4058SOL     OW13072   0.963   3.165   3.847
 4058SOL    HW113073   1.034   3.098   3.870
 4058SOL    HW213074   0.910   3.188   3.929
 4059SOL     OW13075   0.070   1.958   4.701
 4059SOL    HW113076   0.093   1.994   4.791
 4059SOL    HW213077   0.007   1.881   4.710
 4060SOL     OW13078   2.734   6.725   5.470
 4060SOL    HW113079   2.812   6.693   5.417
 4060SOL    HW213080   2.665   6.763   5.409
 4061SOL     OW13081   2.386   2.822   1.361
 4061SOL    HW113082   2.311   2.884   1.388
 4061SOL    HW213083   2.472   2.855   1.400
 4062SOL     OW13084   2.861   0.069   2.962
 4062SOL    HW113085   2.788   0.020   3.009
 4062SOL    HW213086   2.929   0.100   3.029
 4063SOL     OW13087   3.376   5.972   6.133
 4063SOL    HW113088   3.422   5.895   6.176
 4063SOL    HW213089   3.342   6.035   6.204
 4064SOL     OW13090   6.453   6.859   4.721
 4064SOL    HW113091   6.401   6.864   4.806
 4064SOL    HW213092   6.391   6.836   4.646
 4065SOL     OW13093   1.395   4.225   5.614
 4065SOL    HW113094   1.476   4.261   5.661
 4065SOL    HW213095   1.361   4.146   5.665
 4066SOL     OW13096   4.631   5.465   1.892
 4066SOL    HW113097   4.633   5.365   1.894
 4066SOL    HW213098   4.714   5.501   1.934
 4067SOL     OW13099   5.846   0.591   1.128
 4067SOL    HW113100   5.915   0.631   1.188
 4067SOL    HW213101   5.890   0.532   1.061
 4068SOL     OW13102   5.053   0.678   4.596
 4068SOL    HW113103   5.090   0.654   4.506
 4068SOL    HW213104   5.060   0.599   4.657
 4069SOL     OW13105   6.637   6.376   0.583
 4069SOL    HW113106   6.658   6.361   0.680
 4069SOL    HW213107   6.648   6.290   0.533
 4070SOL     OW13108   6.449   3.664   2.582
 4070SOL    HW113109   6.374   3.599   2.591
 4070SOL    HW213110   6.472   3.675   2.485
 4071SOL     OW13111   2.561   0.033   4.725
 4071SOL    HW113112   2.631   7.013   4.779
 4071SOL    HW213113   2.597   0.120   4.690
 4072SOL     OW13114   0.693   0.509   4.449
 4072SOL    HW113115   0.671   0.439   4.517
 4072SOL    HW213116   0.615   0.523   4.388
 4073SOL     OW13117   2.645   4.642   2.146
 4073SOL    HW113118   2.587   4.563   2.126
 4073SOL    HW213119   2.723   4.642   2.084
 4074SOL     OW13120   0.249   2.954   0.863
 4074SOL    HW113121   0.277   2.880   0.925
 4074SOL    HW213122   0.326   3.015   0.846
 4075SOL     OW13123   6.438   0.467   3.525
 4075SOL    HW113124   6.531   0.431   3.528
 4075SOL    HW213125   6.417   0.510   3.613
 4076SOL     OW13126   1.486   3.309   3.248
 4076SOL    HW113127   1.417   3.269   3.308
 4076SOL    HW213128   1.538   3.236   3.203
 4077SOL     OW13129   3.382   0.943   1.069
 4077SOL    HW113130   3.421   0.905   1.152
 4077SOL    HW213131   3.444   1.011   1.030
 4078SOL     OW13132   4.834   5.023   3.015
 4078SOL    HW113133   4.793   4.935   2.995
 4078SOL    HW213134   4.923   5.009   3.059
 4079SOL     OW13135   4.714   0.913   3.622
 4079SOL    HW113136   4.756   0.912   3.713
 4079SOL    HW213137   4.771   0.968   3.560
 4080SOL     OW13138   3.095   4.056   4.689
 4080SOL    HW113139   3.054   4.145   4.709
 4080SOL    HW213140   3.194   4.065   4.691
 4081SOL     OW13141   2.441   0.218   0.004
 4081SOL    HW113142   2.486   0.293   6.982
 4081SOL    HW213143   2.496   0.135   7.022
 4082SOL     OW13144   1.551   1.449   5.607
 4082SOL    HW113145   1.647   1.447   5.580
 4082SOL    HW213146   1.513   1.539   5.587
 4083SOL     OW13147   6.240   5.038   2.516
 4083SOL    HW113148   6.296   4.955   2.527
 4083SOL    HW213149   6.155   5.014   2.470
 4084SOL     OW13150   4.330   6.577   2.484
 4084SOL    HW113151   4.422   6.610   2.460
 4084SOL    HW213152   4.306   6.610   2.575
 4085SOL     OW13153   1.819   4.076   2.610
 4085SOL    HW113154   1.852   4.165   2.582
 4085SOL    HW213155   1.740   4.087   2.671
 4086SOL     OW13156   5.413   5.196   5.064
 4086SOL    HW113157   5.440   5.222   4.971
 4086SOL    HW213158   5.318   5.224   5.080
 4087SOL     OW13159   1.579   0.809   1.681
 4087SOL    HW113160   1.647   0.849   1.620
 4087SOL    HW213161   1.521   0.745   1.630
 4088SOL     OW13162   0.134   2.160   5.660
 4088SOL    HW113163   0.142   2.066   5.625
 4088SOL    HW213164   0.116   2.157   5.759
 4089SOL     OW13165   7.004   6.823   2.839
 4089SOL    HW113166   6.905   6.805   2.837
 4089SOL    HW213167   7.019   6.922   2.846
 4090SOL     OW13168   3.491   2.565   5.354
 4090SOL    HW113169   3.578   2.560   5.304
 4090SOL    HW213170   3.449   2.474   5.358
 4091SOL     OW13171   3.966   6.492   2.877
 4091SOL    HW113172   3.903   6.440   2.934
 4091SOL    HW213173   3.917   6.570   2.837
 4092SOL     OW13174   5.023   1.729   6.155
 4092SOL    HW113175   4.975   1.678   6.226
 4092SOL    HW213176   5.106   1.769   6.193
 4093SOL     OW13177   5.902   4.210   2.133
 4093SOL    HW113178   5.837   4.182   2.204
 4093SOL    HW213179   5.867   4.182   2.044
 4094SOL     OW13180   6.352   6.476   0.540
 4094SOL    HW113181   6.312   6.547   0.599
 4094SOL    HW213182   6.450   6.471   0.556
 4095SOL     OW13183   1.250   4.949   0.477
 4095SOL    HW113184   1.248   4.924   0.574
 4095SOL    HW213185   1.339   4.924   0.438
 4096SOL     OW13186   0.642   6.319   5.853
 4096SOL    HW113187   0.709   6.248   5.877
 4096SOL    HW213188   0.686   6.386   5.793
 4097SOL     OW13189   1.326   4.030   5.782
 4097SOL    HW113190   1.415   4.007   5.822
 4097SOL    HW213191   1.272   4.082   5.848
 4098SOL     OW13192   1.432   6.133   1.821
 4098SOL    HW113193   1.517   6.163   1.863
 4098SOL    HW213194   1.400   6.203   1.757
 4099SOL     OW13195   0.082   2.447   5.855
 4099SOL    HW113196   0.169   2.408   5.824
 4099SOL    HW213197   0.016   2.374   5.869
 4100SOL     OW13198   2.339   0.776   3.822
 4100SOL    HW113199   2.391   0.727   3.753
 4100SOL    HW213200   2.345   0.874   3.805
 4101SOL     OW13201   6.099   6.273   6.103
 4101SOL    HW113202   6.022   6.303   6.158
 4101SOL    HW213203   6.080   6.287   6.006
 4102SOL     OW13204   2.576   5.190   0.651
 4102SOL    HW113205   2.476   5.195   0.659
 4102SOL    HW213206   2.607   5.102   0.687
 4103SOL     OW13207   2.486   5.062   3.092
 4103SOL    HW113208   2.422   5.126   3.051
 4103SOL    HW213209   2.559   5.112   3.140
 4104SOL     OW13210   2.723   5.662   5.859
 4104SOL    HW113211   2.774   5.727   5.803
 4104SOL    HW213212   2.686   5.589   5.801
 4105SOL     OW13213   3.562   0.209   1.655
 4105SOL    HW113214   3.531   0.180   1.564
 4105SOL    HW213215   3.566   0.130   1.715
 4106SOL     OW13216   1.743   6.692   3.289
 4106SOL    HW113217   1.824   6.633   3.283
 4106SOL    HW213218   1.726   6.736   3.201
 4107SOL     OW13219   2.370   1.947   0.598
 4107SOL    HW113220   2.358   2.040   0.562
 4107SOL    HW213221   2.291   1.891   0.573
 4108SOL     OW13222   0.514   5.703   5.009
 4108SOL    HW113223   0.605   5.723   4.972
 4108SOL    HW213224   0.454   5.781   4.993
 4109SOL     OW13225   4.991   0.414   5.136
 4109SOL    HW113226   4.976   0.512   5.123
 4109SOL    HW213227   5.068   0.384   5.080
 4110SOL     OW13228   4.927   2.360   0.239
 4110SOL    HW113229   4.838   2.375   0.282
 4110SOL    HW213230   4.976   2.286   0.286
 4111SOL     OW13231   6.634   4.835   3.505
 4111SOL    HW113232   6.633   4.854   3.407
 4111SOL    HW213233   6.727   4.808   3.531
 4112SOL     OW13234   4.141   5.880   5.929
 4112SOL    HW113235   4.230   5.899   5.973
 4112SOL    HW213236   4.097   5.804   5.976
 4113SOL     OW13237   5.068   6.279   5.822
 4113SOL    HW113238   4.987   6.222   5.810
 4113SOL    HW213239   5.122   6.245   5.899
 4114SOL     OW13240   6.528   1.645   3.366
 4114SOL    HW113241   6.600   1.609   3.424
 4114SOL    HW213242   6.491   1.729   3.407
 4115SOL     OW13243   4.353   6.614   4.768
 4115SOL    HW113244   4.414   6.536   4.755
 4115SOL    HW213245   4.386   6.691   4.713
 4116SOL     OW13246   6.482   4.174   3.706
 4116SOL    HW113247   6.477   4.198   3.803
 4116SOL    HW213248   6.572   4.198   3.671
 4117SOL     OW13249   0.291   2.729   2.784
 4117SOL    HW113250   0.209   2.696   2.738
 4117SOL    HW213251   0.372   2.698   2.734
 4118SOL     OW13252   0.885   0.663   2.191
 4118SOL    HW113253   0.879   0.712   2.278
 4118SOL    HW213254   0.963   0.601   2.192
 4119SOL     OW13255   6.449   0.906   4.680
 4119SOL    HW113256   6.481   0.991   4.639
 4119SOL    HW213257   6.453   0.914   4.780
 4120SOL     OW13258   1.370   0.809   6.604
 4120SOL    HW113259   1.351   0.783   6.509
 4120SOL    HW213260   1.287   0.799   6.658
 4121SOL     OW13261   6.519   0.449   1.317
 4121SOL    HW113262   6.569   0.449   1.230
 4121SOL    HW213263   6.464   0.365   1.324
 4122SOL     OW13264   1.433   4.511   3.849
 4122SOL    HW113265   1.476   4.421   3.841
 4122SOL    HW213266   1.374   4.513   3.930
 4123SOL     OW13267   5.673   4.572   2.129
 4123SOL    HW113268   5.726   4.543   2.208
 4123SOL    HW213269   5.655   4.670   2.134
 4124SOL     OW13270   5.984   6.586   0.299
 4124SOL    HW113271   6.045   6.640   0.240
 4124SOL    HW213272   6.030   6.502   0.327
 4125SOL     OW13273   0.277   2.476   0.055
 4125SOL    HW113274   0.311   2.398   0.003
 4125SOL    HW213275   0.306   2.468   0.150
 4126SOL     OW13276   1.736   4.170   3.589
 4126SOL    HW113277   1.788   4.095   3.631
 4126SOL    HW213278   1.681   4.134   3.513
 4127SOL     OW13279   4.699   2.778   4.508
 4127SOL    HW113280   4.751   2.861   4.527
 4127SOL    HW213281   4.664   2.781   4.415
 4128SOL     OW13282   5.860   2.723   6.230
 4128SOL    HW113283   5.806   2.660   6.174
 4128SOL    HW213284   5.951   2.732   6.191
 4129SOL     OW13285   3.185   0.061   2.129
 4129SOL    HW113286   3.119   0.024   2.194
 4129SOL    HW213287   3.239   7.012   2.089
 4130SOL     OW13288   5.006   1.238   0.140
 4130SOL    HW113289   4.969   1.177   0.210
 4130SOL    HW213290   5.055   1.313   0.184
 4131SOL     OW13291   5.180   6.385   3.790
 4131SOL    HW113292   5.203   6.352   3.882
 4131SOL    HW213293   5.265   6.408   3.742
 4132SOL     OW13294   6.638   3.688   2.322
 4132SOL    HW113295   6.719   3.697   2.381
 4132SOL    HW213296   6.650   3.611   2.261
 4133SOL     OW13297   5.530   6.374   3.387
 4133SOL    HW113298   5.595   6.319   3.335
 4133SOL    HW213299   5.465   6.417   3.324
 4134SOL     OW13300   1.536   2.537   1.216
 4134SOL    HW113301   1.620   2.482   1.208
 4134SOL    HW213302   1.479   2.522   1.135
 4135SOL     OW13303   5.966   1.099   0.680
 4135SOL    HW113304   5.877   1.065   0.710
 4135SOL    HW213305   5.954   1.156   0.598
 4136SOL     OW13306   0.557   4.741   0.299
 4136SOL    HW113307   0.587   4.648   0.279
 4136SOL    HW213308   0.486   4.739   0.369
 4137SOL     OW13309   0.189   2.317   5.440
 4137SOL    HW113310   0.149   2.242   5.492
 4137SOL    HW213311   0.119   2.361   5.385
 4138SOL     OW13312   5.988   6.464   6.341
 4138SOL    HW113313   6.007   6.552   6.297
 4138SOL    HW213314   5.898   6.431   6.311
 4139SOL     OW13315   1.561   3.995   2.328
 4139SOL    HW113316   1.572   4.057   2.249
 4139SOL    HW213317   1.651   3.967   2.360
 4140SOL     OW13318   2.362   6.690   0.433
 4140SOL    HW113319   2.448   6.662   0.475
 4140SOL    HW213320   2.299   6.612   0.432
 4141SOL     OW13321   4.996   0.438   6.134
 4141SOL    HW113322   5.015   0.537   6.136
 4141SOL    HW213323   4.962   0.410   6.224
 4142SOL     OW13324   0.051   6.828   1.528
 4142SOL    HW113325   0.118   6.897   1.501
 4142SOL    HW213326   0.095   6.739   1.534
 4143SOL     OW13327   6.356   3.390   6.371
 4143SOL    HW113328   6.331   3.484   6.348
 4143SOL    HW213329   6.338   3.373   6.468
 4144SOL     OW13330   5.219   0.714   1.778
 4144SOL    HW113331   5.184   0.628   1.815
 4144SOL    HW213332   5.142   0.774   1.756
 4145SOL     OW13333   4.627   1.115   1.434
 4145SOL    HW113334   4.531   1.137   1.419
 4145SOL    HW213335   4.683   1.153   1.360
 4146SOL     OW13336   3.273   1.211   2.316
 4146SOL    HW113337   3.250   1.203   2.219
 4146SOL    HW213338   3.326   1.295   2.331
 4147SOL     OW13339   4.760   3.855   6.679
 4147SOL    HW113340   4.683   3.826   6.624
 4147SOL    HW213341   4.842   3.862   6.622
 4148SOL     OW13342   3.431   1.014   6.044
 4148SOL    HW113343   3.356   1.016   5.978
 4148SOL    HW213344   3.428   0.928   6.095
 4149SOL     OW13345   1.469   2.708   0.117
 4149SOL    HW113346   1.561   2.720   0.080
 4149SOL    HW213347   1.402   2.726   0.046
 4150SOL     OW13348   0.034   1.404   1.126
 4150SOL    HW113349   6.979   1.349   1.148
 4150SOL    HW213350   0.036   1.486   1.184
 4151SOL     OW13351   2.658   5.285   4.709
 4151SOL    HW113352   2.716   5.365   4.723
 4151SOL    HW213353   2.566   5.305   4.743
 4152SOL     OW13354   2.675   3.932   1.560
 4152SOL    HW113355   2.710   3.980   1.640
 4152SOL    HW213356   2.598   3.983   1.521
 4153SOL     OW13357   6.425   6.204   0.936
 4153SOL    HW113358   6.339   6.189   0.984
 4153SOL    HW213359   6.437   6.302   0.919
 4154SOL     OW13360   0.177   6.493   3.943
 4154SOL    HW113361   0.238   6.452   3.876
 4154SOL    HW213362   0.228   6.515   4.026
 4155SOL     OW13363   5.695   1.799   1.992
 4155SOL    HW113364   5.624   1.818   1.925
 4155SOL    HW213365   5.726   1.704   1.981
 4156SOL     OW13366   1.059   5.346   5.777
 4156SOL    HW113367   0.999   5.421   5.750
 4156SOL    HW213368   1.153   5.380   5.782
 4157SOL     OW13369   4.848   6.237   0.286
 4157SOL    HW113370   4.819   6.142   0.296
 4157SOL    HW213371   4.836   6.266   0.191
 4158SOL     OW13372   6.183   1.342   6.704
 4158SOL    HW113373   6.138   1.415   6.653
 4158SOL    HW213374   6.139   1.255   6.683
 4159SOL     OW13375   3.075   0.737   4.857
 4159SOL    HW113376   3.025   0.766   4.939
 4159SOL    HW213377   3.027   0.769   4.775
 4160SOL     OW13378   1.453   6.922   6.110
 4160SOL    HW113379   1.489   7.015   6.109
 4160SOL    HW213380   1.526   6.858   6.088
 4161SOL     OW13381   3.515   3.354   4.964
 4161SOL    HW113382   3.440   3.318   5.020
 4161SOL    HW213383   3.496   3.449   4.941
 4162SOL     OW13384   4.299   6.223   1.289
 4162SOL    HW113385   4.276   6.229   1.386
 4162SOL    HW213386   4.389   6.264   1.273
 4163SOL     OW13387   3.521   5.945   1.030
 4163SOL    HW113388   3.616   5.974   1.035
 4163SOL    HW213389   3.494   5.905   1.118
 4164SOL     OW13390   5.653   1.462   0.159
 4164SOL    HW113391   5.679   1.477   0.064
 4164SOL    HW213392   5.631   1.365   0.172
 4165SOL     OW13393   3.527   2.152   4.235
 4165SOL    HW113394   3.483   2.111   4.314
 4165SOL    HW213395   3.624   2.167   4.254
 4166SOL     OW13396   5.609   2.019   2.740
 4166SOL    HW113397   5.657   1.976   2.665
 4166SOL    HW213398   5.531   1.963   2.767
 4167SOL     OW13399   3.855   6.572   4.635
 4167SOL    HW113400   3.873   6.535   4.726
 4167SOL    HW213401   3.837   6.671   4.642
 4168SOL     OW13402   5.216   3.918   6.716
 4168SOL    HW113403   5.160   3.835   6.718
 4168SOL    HW213404   5.163   3.994   6.680
 4169SOL     OW13405   4.963   3.874   6.494
 4169SOL    HW113406   4.933   3.969   6.480
 4169SOL    HW213407   5.046   3.857   6.440
 4170SOL     OW13408   1.007   2.790   5.255
 4170SOL    HW113409   0.922   2.835   5.280
 4170SOL    HW213410   0.990   2.694   5.236
 4171SOL     OW13411   0.244   1.277   6.042
 4171SOL    HW113412   0.283   1.188   6.019
 4171SOL    HW213413   0.162   1.263   6.098
 4172SOL     OW13414   3.193   2.780   0.227
 4172SOL    HW113415   3.131   2.825   0.163
 4172SOL    HW213416   3.214   2.841   0.303
 4173SOL     OW13417   5.386   1.371   6.146
 4173SOL    HW113418   5.368   1.469   6.151
 4173SOL    HW213419   5.478   1.353   6.182
 4174SOL     OW13420   2.703   6.726   3.551
 4174SOL    HW113421   2.708   6.806   3.611
 4174SOL    HW213422   2.776   6.732   3.483
 4175SOL     OW13423   1.126   4.150   6.346
 4175SOL    HW113424   1.135   4.056   6.380
 4175SOL    HW213425   1.041   4.159   6.294
 4176SOL     OW13426   4.173   6.670   4.965
 4176SOL    HW113427   4.237   6.686   4.890
 4176SOL    HW213428   4.109   6.598   4.939
 4177SOL     OW13429   4.434   6.491   3.925
 4177SOL    HW113430   4.378   6.422   3.971
 4177SOL    HW213431   4.375   6.551   3.870
 4178SOL     OW13432   3.487   6.722   1.177
 4178SOL    HW113433   3.579   6.750   1.149
 4178SOL    HW213434   3.426   6.801   1.178
 4179SOL     OW13435   4.230   1.805   0.168
 4179SOL    HW113436   4.285   1.723   0.183
 4179SOL    HW213437   4.134   1.780   0.163
 4180SOL     OW13438   3.820   4.149   0.266
 4180SOL    HW113439   3.888   4.195   0.209
 4180SOL    HW213440   3.742   4.122   0.210
 4181SOL     OW13441   5.655   6.370   5.589
 4181SOL    HW113442   5.603   6.293   5.625
 4181SOL    HW213443   5.738   6.337   5.545
 4182SOL     OW13444   6.690   5.259   5.345
 4182SOL    HW113445   6.757   5.189   5.320
 4182SOL    HW213446   6.597   5.223   5.333
 4183SOL     OW13447   5.078   2.644   6.842
 4183SOL    HW113448   5.000   2.636   6.779
 4183SOL    HW213449   5.093   2.557   6.887
 4184SOL     OW13450   3.393   5.705   3.131
 4184SOL    HW113451   3.311   5.723   3.185
 4184SOL    HW213452   3.366   5.680   3.037
 4185SOL     OW13453   4.566   4.500   3.273
 4185SOL    HW113454   4.493   4.496   3.204
 4185SOL    HW213455   4.564   4.590   3.316
 4186SOL     OW13456   1.403   5.644   0.579
 4186SOL    HW113457   1.348   5.575   0.628
 4186SOL    HW213458   1.418   5.613   0.485
 4187SOL     OW13459   1.893   4.160   6.751
 4187SOL    HW113460   1.929   4.124   6.665
 4187SOL    HW213461   1.797   4.136   6.760
 4188SOL     OW13462   5.281   0.995   6.341
 4188SOL    HW113463   5.360   0.948   6.301
 4188SOL    HW213464   5.202   0.934   6.340
 4189SOL     OW13465   4.416   5.861   3.589
 4189SOL    HW113466   4.487   5.887   3.655
 4189SOL    HW213467   4.399   5.938   3.527
 4190SOL     OW13468   6.158   5.704   1.326
 4190SOL    HW113469   6.156   5.765   1.247
 4190SOL    HW213470   6.252   5.676   1.344
 4191SOL     OW13471   4.580   2.756   5.722
 4191SOL    HW113472   4.623   2.673   5.756
 4191SOL    HW213473   4.650   2.824   5.702
 4192SOL     OW13474   2.053   3.591   6.465
 4192SOL    HW113475   2.000   3.675   6.478
 4192SOL    HW213476   1.990   3.515   6.446
 4193SOL     OW13477   5.662   6.939   1.260
 4193SOL    HW113478   5.585   6.922   1.199
 4193SOL    HW213479   5.629   6.959   1.352
 4194SOL     OW13480   5.293   0.257   6.647
 4194SOL    HW113481   5.203   0.241   6.687
 4194SOL    HW213482   5.329   0.171   6.610
 4195SOL     OW13483   2.319   6.198   0.841
 4195SOL    HW113484   2.327   6.117   0.783
 4195SOL    HW213485   2.285   6.172   0.931
 4196SOL     OW13486   6.937   3.050   3.737
 4196SOL    HW113487   6.927   3.066   3.639
 4196SOL    HW213488   0.006   3.067   3.764
 4197SOL     OW13489   4.298   0.559   0.399
 4197SOL    HW113490   4.253   0.595   0.317
 4197SOL    HW213491   4.253   0.596   0.481
 4198SOL     OW13492   6.213   2.342   1.574
 4198SOL    HW113493   6.188   2.423   1.521
 4198SOL    HW213494   6.236   2.267   1.512
 4199SOL     OW13495   1.139   3.661   6.695
 4199SOL    HW113496   1.088   3.732   6.743
 4199SOL    HW213497   1.236   3.670   6.716
 4200SOL     OW13498   5.771   1.459   2.839
 4200SOL    HW113499   5.713   1.412   2.772
 4200SOL    HW213500   5.862   1.474   2.798
 4201SOL     OW13501   4.675   0.057   5.185
 4201SOL    HW113502   4.744   0.057   5.258
 4201SOL    HW213503   4.632   0.147   5.180
 4202SOL     OW13504   4.511   4.190   1.547
 4202SOL    HW113505   4.503   4.214   1.643
 4202SOL    HW213506   4.562   4.262   1.499
 4203SOL     OW13507   6.745   3.872   4.534
 4203SOL    HW113508   6.817   3.834   4.477
 4203SOL    HW213509   6.697   3.944   4.483
 4204SOL     OW13510   2.574   4.077   5.712
 4204SOL    HW113511   2.602   4.069   5.808
 4204SOL    HW213512   2.505   4.150   5.704
 4205SOL     OW13513   5.695   5.951   5.744
 4205SOL    HW113514   5.637   6.009   5.687
 4205SOL    HW213515   5.791   5.966   5.721
 4206SOL     OW13516   2.563   2.526   5.083
 4206SOL    HW113517   2.508   2.609   5.087
 4206SOL    HW213518   2.561   2.489   4.990
 4207SOL     OW13519   1.923   2.642   1.282
 4207SOL    HW113520   1.878   2.665   1.369
 4207SOL    HW213521   1.968   2.553   1.292
 4208SOL     OW13522   1.876   2.263   3.161
 4208SOL    HW113523   1.951   2.198   3.167
 4208SOL    HW213524   1.884   2.316   3.077
 4209SOL     OW13525   6.275   5.423   2.425
 4209SOL    HW113526   6.206   5.410   2.496
 4209SOL    HW213527   6.251   5.503   2.370
 4210SOL     OW13528   3.126   5.330   5.511
 4210SOL    HW113529   3.210   5.276   5.507
 4210SOL    HW213530   3.148   5.426   5.528
 4211SOL     OW13531   4.693   2.531   5.838
 4211SOL    HW113532   4.654   2.462   5.899
 4211SOL    HW213533   4.793   2.522   5.836
 4212SOL     OW13534   0.752   2.424   2.898
 4212SOL    HW113535   0.799   2.484   2.833
 4212SOL    HW213536   0.670   2.387   2.855
 4213SOL     OW13537   3.205   0.779   3.684
 4213SOL    HW113538   3.170   0.732   3.603
 4213SOL    HW213539   3.214   0.876   3.666
 4214SOL     OW13540   6.272   6.263   4.084
 4214SOL    HW113541   6.189   6.222   4.123
 4214SOL    HW213542   6.330   6.296   4.158
 4215SOL     OW13543   5.391   0.244   5.377
 4215SOL    HW113544   5.377   0.332   5.422
 4215SOL    HW213545   5.450   0.256   5.297
 4216SOL     OW13546   1.941   5.562   2.459
 4216SOL    HW113547   2.017   5.623   2.434
 4216SOL    HW213548   1.893   5.533   2.376
 4217SOL     OW13549   0.404   0.269   2.994
 4217SOL    HW113550   0.397   0.307   3.086
 4217SOL    HW213551   0.404   0.169   3.000
 4218SOL     OW13552   2.858   0.820   1.606
 4218SOL    HW113553   2.828   0.803   1.513
 4218SOL    HW213554   2.781   0.852   1.661
 4219SOL     OW13555   3.141   5.659   2.626
 4219SOL    HW113556   3.205   5.586   2.653
 4219SOL    HW213557   3.077   5.676   2.700
 4220SOL     OW13558   5.839   1.871   1.419
 4220SOL    HW113559   5.895   1.798   1.381
 4220SOL    HW213560   5.742   1.846   1.412
 4221SOL     OW13561   0.770   6.732   1.104
 4221SOL    HW113562   0.717   6.665   1.157
 4221SOL    HW213563   0.867   6.720   1.123
 4222SOL     OW13564   4.946   3.570   4.260
 4222SOL    HW113565   4.945   3.553   4.359
 4222SOL    HW213566   4.908   3.491   4.212
 4223SOL     OW13567   3.514   4.137   3.135
 4223SOL    HW113568   3.488   4.103   3.044
 4223SOL    HW213569   3.574   4.070   3.179
 4224SOL     OW13570   4.721   4.252   4.701
 4224SOL    HW113571   4.637   4.305   4.691
 4224SOL    HW213572   4.768   4.280   4.785
 4225SOL     OW13573   0.890   1.519   6.096
 4225SOL    HW113574   0.929   1.500   6.006
 4225SOL    HW213575   0.919   1.610   6.127
 4226SOL     OW13576   5.404   4.711   4.410
 4226SOL    HW113577   5.501   4.697   4.388
 4226SOL    HW213578   5.396   4.775   4.487
 4227SOL     OW13579   5.405   5.495   1.049
 4227SOL    HW113580   5.503   5.488   1.034
 4227SOL    HW213581   5.368   5.572   0.997
 4228SOL     OW13582   1.911   4.007   3.700
 4228SOL    HW113583   2.007   4.019   3.675
 4228SOL    HW213584   1.905   3.971   3.793
 4229SOL     OW13585   6.240   6.167   5.608
 4229SOL    HW113586   6.332   6.206   5.606
 4229SOL    HW213587   6.242   6.080   5.658
 4230SOL     OW13588   0.432   1.119   2.475
 4230SOL    HW113589   0.468   1.077   2.392
 4230SOL    HW213590   0.502   1.179   2.514
 4231SOL     OW13591   0.397   0.527   5.848
 4231SOL    HW113592   0.482   0.573   5.822
 4231SOL    HW213593   0.404   0.430   5.824
 4232SOL     OW13594   1.572   4.671   2.582
 4232SOL    HW113595   1.650   4.610   2.594
 4232SOL    HW213596   1.524   4.682   2.669
 4233SOL     OW13597   4.336   5.545   2.477
 4233SOL    HW113598   4.320   5.633   2.522
 4233SOL    HW213599   4.248   5.505   2.452
 4234SOL     OW13600   3.536   5.208   6.401
 4234SOL    HW113601   3.510   5.153   6.321
 4234SOL    HW213602   3.509   5.160   6.484
 4235SOL     OW13603   6.882   6.359   6.994
 4235SOL    HW113604   6.813   6.376   6.923
 4235SOL    HW213605   6.853   6.403   0.054
 4236SOL     OW13606   6.997   4.934   3.323
 4236SOL    HW113607   7.016   5.032   3.327
 4236SOL    HW213608   7.022   4.899   3.233
 4237SOL     OW13609   6.424   4.731   3.978
 4237SOL    HW113610   6.455   4.811   3.926
 4237SOL    HW213611   6.379   4.666   3.917
 4238SOL     OW13612   2.138   5.555   2.780
 4238SOL    HW113613   2.163   5.602   2.695
 4238SOL    HW213614   2.115   5.460   2.759
 4239SOL     OW13615   4.155   1.062   3.212
 4239SOL    HW113616   4.074   1.036   3.265
 4239SOL    HW213617   4.186   1.153   3.241
 4240SOL     OW13618   4.749   6.707   1.835
 4240SOL    HW113619   4.698   6.713   1.749
 4240SOL    HW213620   4.830   6.651   1.822
 4241SOL     OW13621   0.333   4.507   6.980
 4241SOL    HW113622   0.383   4.577   6.931
 4241SOL    HW213623   0.247   4.487   6.932
 4242SOL     OW13624   3.800   2.102   2.701
 4242SOL    HW113625   3.858   2.130   2.776
 4242SOL    HW213626   3.723   2.048   2.736
 4243SOL     OW13627   3.267   2.017   2.804
 4243SOL    HW113628   3.204   1.949   2.767
 4243SOL    HW213629   3.361   1.992   2.781
 4244SOL     OW13630   2.952   3.546   5.130
 4244SOL    HW113631   2.998   3.460   5.110
 4244SOL    HW213632   2.857   3.529   5.156
 4245SOL     OW13633   6.583   1.294   5.412
 4245SOL    HW113634   6.581   1.322   5.509
 4245SOL    HW213635   6.635   1.362   5.360
 4246SOL     OW13636   1.053   4.704   5.938
 4246SOL    HW113637   0.998   4.682   6.019
 4246SOL    HW213638   1.126   4.767   5.964
 4247SOL     OW13639   0.063   4.691   5.293
 4247SOL    HW113640   0.042   4.605   5.339
 4247SOL    HW213641   0.141   4.678   5.231
 4248SOL     OW13642   2.223   3.734   6.965
 4248SOL    HW113643   2.251   3.678   6.887
 4248SOL    HW213644   2.183   3.820   6.932
 4249SOL     OW13645   5.125   3.301   6.183
 4249SOL    HW113646   5.093   3.287   6.089
 4249SOL    HW213647   5.071   3.244   6.245
 4250SOL     OW13648   6.836   4.401   3.779
 4250SOL    HW113649   6.935   4.396   3.793
 4250SOL    HW213650   6.806   4.325   3.723
 4251SOL     OW13651   6.143   4.923   6.136
 4251SOL    HW113652   6.107   5.013   6.109
 4251SOL    HW213653   6.243   4.929   6.145
 4252SOL     OW13654   6.698   4.906   5.184
 4252SOL    HW113655   6.747   4.952   5.110
 4252SOL    HW213656   6.763   4.876   5.253
 4253SOL     OW13657   3.169   0.020   3.090
 4253SOL    HW113658   3.214   6.986   3.024
 4253SOL    HW213659   3.181   0.115   3.063
 4254SOL     OW13660   3.309   2.971   2.550
 4254SOL    HW113661   3.308   3.048   2.485
 4254SOL    HW213662   3.395   2.921   2.540
 4255SOL     OW13663   0.453   2.210   4.185
 4255SOL    HW113664   0.392   2.238   4.110
 4255SOL    HW213665   0.535   2.168   4.146
 4256SOL     OW13666   1.383   1.007   2.134
 4256SOL    HW113667   1.413   0.946   2.207
 4256SOL    HW213668   1.406   0.968   2.045
 4257SOL     OW13669   4.434   2.260   5.205
 4257SOL    HW113670   4.406   2.228   5.114
 4257SOL    HW213671   4.501   2.333   5.196
 4258SOL     OW13672   5.222   5.619   2.120
 4258SOL    HW113673   5.134   5.665   2.135
 4258SOL    HW213674   5.287   5.649   2.190
 4259SOL     OW13675   2.674   2.982   1.744
 4259SOL    HW113676   2.754   2.980   1.684
 4259SOL    HW213677   2.643   2.889   1.762
 4260SOL     OW13678   3.786   6.372   4.842
 4260SOL    HW113679   3.826   6.303   4.781
 4260SOL    HW213680   3.686   6.368   4.835
 4261SOL     OW13681   1.023   1.435   3.134
 4261SOL    HW113682   1.054   1.518   3.087
 4261SOL    HW213683   1.095   1.366   3.129
 4262SOL     OW13684   0.731   6.712   5.235
 4262SOL    HW113685   0.631   6.709   5.237
 4262SOL    HW213686   0.761   6.760   5.153
 4263SOL     OW13687   4.656   5.178   6.728
 4263SOL    HW113688   4.571   5.227   6.715
 4263SOL    HW213689   4.696   5.202   6.817
 4264SOL     OW13690   1.435   0.279   1.245
 4264SOL    HW113691   1.338   0.267   1.222
 4264SOL    HW213692   1.489   0.217   1.188
 4265SOL     OW13693   1.808   1.419   0.603
 4265SOL    HW113694   1.793   1.509   0.645
 4265SOL    HW213695   1.730   1.395   0.546
 4266SOL     OW13696   3.116   4.729   0.589
 4266SOL    HW113697   3.022   4.697   0.592
 4266SOL    HW213698   3.127   4.794   0.513
 4267SOL     OW13699   1.773   3.684   5.512
 4267SOL    HW113700   1.857   3.727   5.544
 4267SOL    HW213701   1.792   3.590   5.484
 4268SOL     OW13702   1.045   1.349   0.992
 4268SOL    HW113703   0.979   1.316   1.059
 4268SOL    HW213704   1.010   1.434   0.950
 4269SOL     OW13705   2.784   3.640   0.528
 4269SOL    HW113706   2.779   3.686   0.440
 4269SOL    HW213707   2.842   3.559   0.520
 4270SOL     OW13708   3.701   2.955   0.025
 4270SOL    HW113709   3.664   2.923   6.963
 4270SOL    HW213710   3.629   2.999   0.078
 4271SOL     OW13711   1.675   0.490   1.516
 4271SOL    HW113712   1.628   0.506   1.603
 4271SOL    HW213713   1.625   0.536   1.443
 4272SOL     OW13714   1.163   4.309   3.816
 4272SOL    HW113715   1.248   4.359   3.836
 4272SOL    HW213716   1.085   4.363   3.847
 4273SOL     OW13717   6.096   6.689   3.486
 4273SOL    HW113718   6.087   6.680   3.387
 4273SOL    HW213719   6.025   6.751   3.520
 4274SOL     OW13720   2.488   0.369   3.642
 4274SOL    HW113721   2.422   0.423   3.695
 4274SOL    HW213722   2.573   0.420   3.632
 4275SOL     OW13723   1.003   0.408   5.602
 4275SOL    HW113724   0.924   0.408   5.664
 4275SOL    HW213725   1.086   0.388   5.654
 4276SOL     OW13726   1.898   3.656   3.252
 4276SOL    HW113727   1.833   3.590   3.289
 4276SOL    HW213728   1.899   3.649   3.152
 4277SOL     OW13729   0.901   5.431   5.398
 4277SOL    HW113730   0.873   5.375   5.320
 4277SOL    HW213731   0.986   5.478   5.377
 4278SOL     OW13732   1.247   6.123   6.499
 4278SOL    HW113733   1.183   6.128   6.575
 4278SOL    HW213734   1.323   6.185   6.515
 4279SOL     OW13735   3.334   5.962   2.989
 4279SOL    HW113736   3.423   5.949   3.032
 4279SOL    HW213737   3.339   5.931   2.894
 4280SOL     OW13738   4.927   2.694   3.697
 4280SOL    HW113739   4.874   2.614   3.722
 4280SOL    HW213740   4.896   2.729   3.608
 4281SOL     OW13741   1.587   3.958   5.119
 4281SOL    HW113742   1.607   4.024   5.047
 4281SOL    HW213743   1.653   3.967   5.193
 4282SOL     OW13744   0.792   1.513   0.243
 4282SOL    HW113745   0.698   1.527   0.275
 4282SOL    HW213746   0.825   1.597   0.200
 4283SOL     OW13747   2.919   1.139   4.233
 4283SOL    HW113748   3.007   1.092   4.240
 4283SOL    HW213749   2.899   1.184   4.321
 4284SOL     OW13750   6.983   2.333   2.828
 4284SOL    HW113751   6.888   2.357   2.851
 4284SOL    HW213752   7.015   2.262   2.890
 4285SOL     OW13753   0.883   6.296   4.287
 4285SOL    HW113754   0.917   6.273   4.196
 4285SOL    HW213755   0.955   6.283   4.355
 4286SOL     OW13756   4.545   5.624   6.416
 4286SOL    HW113757   4.555   5.629   6.317
 4286SOL    HW213758   4.625   5.666   6.459
 4287SOL     OW13759   3.940   5.375   5.709
 4287SOL    HW113760   3.916   5.459   5.758
 4287SOL    HW213761   3.882   5.300   5.741
 4288SOL     OW13762   1.517   6.131   3.706
 4288SOL    HW113763   1.600   6.090   3.668
 4288SOL    HW213764   1.537   6.225   3.735
 4289SOL     OW13765   0.131   4.223   6.800
 4289SOL    HW113766   0.172   4.193   6.886
 4289SOL    HW213767   0.088   4.312   6.814
 4290SOL     OW13768   1.593   1.798   2.968
 4290SOL    HW113769   1.540   1.802   3.053
 4290SOL    HW213770   1.679   1.848   2.978
 4291SOL     OW13771   0.103   4.207   1.600
 4291SOL    HW113772   0.171   4.236   1.533
 4291SOL    HW213773   0.138   4.129   1.651
 4292SOL     OW13774   5.727   5.396   5.152
 4292SOL    HW113775   5.660   5.376   5.224
 4292SOL    HW213776   5.784   5.474   5.180
 4293SOL     OW13777   0.456   1.991   0.369
 4293SOL    HW113778   0.457   2.008   0.467
 4293SOL    HW213779   0.361   1.985   0.338
 4294SOL     OW13780   4.730   2.087   6.016
 4294SOL    HW113781   4.802   2.139   6.061
 4294SOL    HW213782   4.765   1.996   5.992
 4295SOL     OW13783   3.649   5.733   5.720
 4295SOL    HW113784   3.615   5.649   5.678
 4295SOL    HW213785   3.739   5.715   5.761
 4296SOL     OW13786   2.345   1.148   2.378
 4296SOL    HW113787   2.373   1.242   2.395
 4296SOL    HW213788   2.290   1.115   2.455
 4297SOL     OW13789   5.857   0.328   0.675
 4297SOL    HW113790   5.896   0.238   0.695
 4297SOL    HW213791   5.928   0.386   0.635
 4298SOL     OW13792   1.458   4.445   1.862
 4298SOL    HW113793   1.442   4.430   1.960
 4298SOL    HW213794   1.384   4.499   1.824
 4299SOL     OW13795   1.247   5.906   5.132
 4299SOL    HW113796   1.166   5.956   5.103
 4299SOL    HW213797   1.329   5.961   5.114
 4300SOL     OW13798   6.079   6.952   5.569
 4300SOL    HW113799   6.049   7.013   5.496
 4300SOL    HW213800   6.087   6.859   5.532
 4301SOL     OW13801   3.143   1.397   1.003
 4301SOL    HW113802   3.118   1.319   1.060
 4301SOL    HW213803   3.077   1.471   1.016
 4302SOL     OW13804   0.887   0.410   6.430
 4302SOL    HW113805   0.854   0.503   6.421
 4302SOL    HW213806   0.834   0.362   6.499
 4303SOL     OW13807   0.572   4.062   1.732
 4303SOL    HW113808   0.485   4.087   1.774
 4303SOL    HW213809   0.624   4.004   1.796
 4304SOL     OW13810   3.011   3.586   5.807
 4304SOL    HW113811   3.014   3.684   5.826
 4304SOL    HW213812   3.097   3.558   5.763
 4305SOL     OW13813   0.272   1.498   4.908
 4305SOL    HW113814   0.364   1.530   4.886
 4305SOL    HW213815   0.210   1.519   4.832
 4306SOL     OW13816   6.417   5.326   5.527
 4306SOL    HW113817   6.411   5.298   5.431
 4306SOL    HW213818   6.510   5.313   5.560
 4307SOL     OW13819   5.846   3.705   0.714
 4307SOL    HW113820   5.935   3.750   0.707
 4307SOL    HW213821   5.806   3.723   0.803
 4308SOL     OW13822   3.278   0.164   5.070
 4308SOL    HW113823   3.233   0.176   4.981
 4308SOL    HW213824   3.357   0.225   5.075
 4309SOL     OW13825   1.202   6.742   1.644
 4309SOL    HW113826   1.300   6.747   1.664
 4309SOL    HW213827   1.152   6.718   1.727
 4310SOL     OW13828   1.830   6.739   2.830
 4310SOL    HW113829   1.758   6.752   2.761
 4310SOL    HW213830   1.850   6.642   2.839
 4311SOL     OW13831   0.965   4.943   4.435
 4311SOL    HW113832   0.885   4.885   4.452
 4311SOL    HW213833   0.934   5.038   4.423
 4312SOL     OW13834   1.252   5.684   2.242
 4312SOL    HW113835   1.318   5.641   2.304
 4312SOL    HW213836   1.222   5.770   2.281
 4313SOL     OW13837   5.057   1.532   1.252
 4313SOL    HW113838   5.099   1.465   1.314
 4313SOL    HW213839   5.026   1.486   1.169
 4314SOL     OW13840   6.016   3.539   1.068
 4314SOL    HW113841   5.964   3.547   1.153
 4314SOL    HW213842   5.977   3.466   1.012
 4315SOL     OW13843   2.077   1.077   2.917
 4315SOL    HW113844   2.003   1.085   2.850
 4315SOL    HW213845   2.108   1.168   2.943
 4316SOL     OW13846   0.296   1.412   2.585
 4316SOL    HW113847   0.376   1.387   2.641
 4316SOL    HW213848   0.220   1.351   2.607
 4317SOL     OW13849   4.607   0.523   3.055
 4317SOL    HW113850   4.574   0.504   2.963
 4317SOL    HW213851   4.694   0.573   3.050
 4318SOL     OW13852   6.860   2.166   5.004
 4318SOL    HW113853   6.773   2.180   4.956
 4318SOL    HW213854   6.852   2.087   5.065
 4319SOL     OW13855   3.710   2.580   6.566
 4319SOL    HW113856   3.631   2.610   6.619
 4319SOL    HW213857   3.703   2.482   6.548
 4320SOL     OW13858   6.665   6.612   3.481
 4320SOL    HW113859   6.673   6.560   3.396
 4320SOL    HW213860   6.591   6.573   3.536
 4321SOL     OW13861   0.473   0.643   4.873
 4321SOL    HW113862   0.484   0.545   4.857
 4321SOL    HW213863   0.517   0.668   4.959
 4322SOL     OW13864   6.441   1.060   0.911
 4322SOL    HW113865   6.487   0.971   0.914
 4322SOL    HW213866   6.365   1.061   0.976
 4323SOL     OW13867   6.964   2.093   3.862
 4323SOL    HW113868   6.911   2.169   3.825
 4323SOL    HW213869   6.903   2.027   3.905
 4324SOL     OW13870   5.955   2.640   5.412
 4324SOL    HW113871   5.948   2.734   5.379
 4324SOL    HW213872   5.950   2.639   5.512
 4325SOL     OW13873   1.761   2.804   6.961
 4325SOL    HW113874   1.815   2.728   6.924
 4325SOL    HW213875   1.689   2.828   6.896
 4326SOL     OW13876   6.583   2.237   4.946
 4326SOL    HW113877   6.564   2.333   4.966
 4326SOL    HW213878   6.612   2.228   4.851
 4327SOL     OW13879   4.854   0.956   2.992
 4327SOL    HW113880   4.823   0.996   3.078
 4327SOL    HW213881   4.934   1.007   2.958
 4328SOL     OW13882   6.148   4.798   0.275
 4328SOL    HW113883   6.136   4.754   0.185
 4328SOL    HW213884   6.066   4.782   0.331
 4329SOL     OW13885   4.975   1.613   6.648
 4329SOL    HW113886   4.920   1.691   6.678
 4329SOL    HW213887   5.063   1.646   6.615
 4330SOL     OW13888   0.789   1.014   6.339
 4330SOL    HW113889   0.820   1.108   6.327
 4330SOL    HW213890   0.856   0.963   6.393
 4331SOL     OW13891   4.954   2.749   6.285
 4331SOL    HW113892   5.033   2.692   6.307
 4331SOL    HW213893   4.909   2.714   6.203
 4332SOL     OW13894   6.285   4.549   1.750
 4332SOL    HW113895   6.263   4.573   1.655
 4332SOL    HW213896   6.204   4.512   1.794
 4333SOL     OW13897   6.282   1.208   4.731
 4333SOL    HW113898   6.367   1.253   4.706
 4333SOL    HW213899   6.220   1.207   4.652
 4334SOL     OW13900   4.127   0.546   1.904
 4334SOL    HW113901   4.103   0.471   1.841
 4334SOL    HW213902   4.070   0.625   1.883
 4335SOL     OW13903   3.677   4.376   5.890
 4335SOL    HW113904   3.706   4.314   5.817
 4335SOL    HW213905   3.672   4.326   5.976
 4336SOL     OW13906   1.212   0.042   6.134
 4336SOL    HW113907   1.191   0.065   6.038
 4336SOL    HW213908   1.268   6.985   6.137
 4337SOL     OW13909   1.043   5.471   6.348
 4337SOL    HW113910   1.026   5.446   6.253
 4337SOL    HW213911   0.994   5.556   6.369
 4338SOL     OW13912   5.591   6.629   3.087
 4338SOL    HW113913   5.537   6.713   3.076
 4338SOL    HW213914   5.688   6.650   3.077
 4339SOL     OW13915   6.379   0.751   0.058
 4339SOL    HW113916   6.358   0.837   0.105
 4339SOL    HW213917   6.468   0.757   0.013
 4340SOL     OW13918   4.678   3.652   1.671
 4340SOL    HW113919   4.684   3.719   1.745
 4340SOL    HW213920   4.754   3.587   1.679
 4341SOL     OW13921   0.957   3.196   0.619
 4341SOL    HW113922   0.887   3.266   0.634
 4341SOL    HW213923   1.045   3.231   0.651
 4342SOL     OW13924   0.420   2.355   2.538
 4342SOL    HW113925   0.332   2.386   2.502
 4342SOL    HW213926   0.467   2.300   2.469
 4343SOL     OW13927   3.390   2.576   1.051
 4343SOL    HW113928   3.338   2.494   1.029
 4343SOL    HW213929   3.442   2.561   1.135
 4344SOL     OW13930   2.425   3.104   1.690
 4344SOL    HW113931   2.517   3.065   1.698
 4344SOL    HW213932   2.358   3.034   1.713
 4345SOL     OW13933   3.168   1.060   5.926
 4345SOL    HW113934   3.119   0.976   5.900
 4345SOL    HW213935   3.167   1.124   5.849
 4346SOL     OW13936   0.284   3.996   1.019
 4346SOL    HW113937   0.325   4.038   1.100
 4346SOL    HW213938   0.210   4.053   0.985
 4347SOL     OW13939   5.181   5.967   2.501
 4347SOL    HW113940   5.190   5.987   2.598
 4347SOL    HW213941   5.094   6.004   2.467
 4348SOL     OW13942   1.416   3.744   0.312
 4348SOL    HW113943   1.442   3.734   0.408
 4348SOL    HW213944   1.451   3.665   0.261
 4349SOL     OW13945   6.687   1.013   1.562
 4349SOL    HW113946   6.636   0.972   1.486
 4349SOL    HW213947   6.715   1.106   1.537
 4350SOL     OW13948   3.869   0.594   2.879
 4350SOL    HW113949   3.804   0.520   2.891
 4350SOL    HW213950   3.933   0.572   2.806
 4351SOL     OW13951   3.439   0.161   0.041
 4351SOL    HW113952   3.391   0.096   0.100
 4351SOL    HW213953   3.538   0.153   0.056
 4352SOL     OW13954   6.437   1.893   1.879
 4352SOL    HW113955   6.374   1.958   1.836
 4352SOL    HW213956   6.528   1.906   1.841
 4353SOL     OW13957   3.347   5.625   0.851
 4353SOL    HW113958   3.359   5.698   0.918
 4353SOL    HW213959   3.349   5.664   0.759
 4354SOL     OW13960   3.091   0.961   1.608
 4354SOL    HW113961   3.175   0.913   1.582
 4354SOL    HW213962   3.013   0.898   1.600
 4355SOL     OW13963   4.769   6.914   6.765
 4355SOL    HW113964   4.768   7.013   6.757
 4355SOL    HW213965   4.700   6.875   6.703
 4356SOL     OW13966   3.433   3.708   1.056
 4356SOL    HW113967   3.350   3.758   1.080
 4356SOL    HW213968   3.417   3.610   1.069
 4357SOL     OW13969   6.014   0.533   0.523
 4357SOL    HW113970   6.061   0.509   0.438
 4357SOL    HW213971   6.030   0.630   0.543
 4358SOL     OW13972   6.252   0.549   1.244
 4358SOL    HW113973   6.269   0.455   1.214
 4358SOL    HW213974   6.327   0.578   1.304
 4359SOL     OW13975   0.570   3.877   4.436
 4359SOL    HW113976   0.636   3.892   4.363
 4359SOL    HW213977   0.574   3.782   4.466
 4360SOL     OW13978   2.350   3.413   0.933
 4360SOL    HW113979   2.258   3.443   0.906
 4360SOL    HW213980   2.351   3.393   1.031
 4361SOL     OW13981   5.436   2.314   2.696
 4361SOL    HW113982   5.430   2.259   2.613
 4361SOL    HW213983   5.500   2.273   2.760
 4362SOL     OW13984   4.773   4.170   2.670
 4362SOL    HW113985   4.757   4.208   2.761
 4362SOL    HW213986   4.825   4.235   2.615
 4363SOL     OW13987   5.002   0.536   6.548
 4363SOL    HW113988   4.973   0.465   6.612
 4363SOL    HW213989   5.005   0.498   6.456
 4364SOL     OW13990   3.982   3.633   4.822
 4364SOL    HW113991   4.050   3.701   4.793
 4364SOL    HW213992   4.004   3.544   4.782
 4365SOL     OW13993   4.639   2.083   0.108
 4365SOL    HW113994   4.625   2.012   0.177
 4365SOL    HW213995   4.737   2.098   0.095
 4366SOL     OW13996   4.417   5.142   0.501
 4366SOL    HW113997   4.322   5.129   0.475
 4366SOL    HW213998   4.422   5.173   0.596
 4367SOL     OW13999   6.467   6.783   0.878
 4367SOL    HW114000   6.436   6.689   0.891
 4367SOL    HW214001   6.487   6.824   0.966
 4368SOL     OW14002   4.149   5.325   2.182
 4368SOL    HW114003   4.056   5.289   2.184
 4368SOL    HW214004   4.174   5.347   2.088
 4369SOL     OW14005   3.185   5.416   1.921
 4369SOL    HW114006   3.158   5.429   1.826
 4369SOL    HW214007   3.123   5.350   1.964
 4370SOL     OW14008   5.254   4.372   1.609
 4370SOL    HW114009   5.319   4.362   1.685
 4370SOL    HW214010   5.243   4.284   1.563
 4371SOL     OW14011   1.366   1.642   2.058
 4371SOL    HW114012   1.426   1.640   2.139
 4371SOL    HW214013   1.295   1.710   2.072
 4372SOL     OW14014   5.260   6.904   3.906
 4372SOL    HW114015   5.184   6.960   3.939
 4372SOL    HW214016   5.296   6.848   3.980
 4373SOL     OW14017   0.249   1.615   5.425
 4373SOL    HW114018   0.285   1.559   5.349
 4373SOL    HW214019   0.323   1.638   5.487
 4374SOL     OW14020   3.443   1.311   0.150
 4374SOL    HW114021   3.376   1.280   0.217
 4374SOL    HW214022   3.533   1.275   0.174
 4375SOL     OW14023   3.581   5.488   4.317
 4375SOL    HW114024   3.639   5.407   4.319
 4375SOL    HW214025   3.522   5.488   4.398
 4376SOL     OW14026   0.003   2.769   3.583
 4376SOL    HW114027   6.977   2.750   3.500
 4376SOL    HW214028   0.033   2.865   3.583
 4377SOL     OW14029   6.954   4.617   6.099
 4377SOL    HW114030   6.910   4.531   6.125
 4377SOL    HW214031   6.903   4.660   6.025
 4378SOL     OW14032   3.215   2.144   3.859
 4378SOL    HW114033   3.223   2.044   3.861
 4378SOL    HW214034   3.258   2.183   3.939
 4379SOL     OW14035   3.794   1.659   6.386
 4379SOL    HW114036   3.749   1.616   6.307
 4379SOL    HW214037   3.825   1.750   6.360
 4380SOL     OW14038   0.107   2.378   3.140
 4380SOL    HW114039   0.194   2.352   3.182
 4380SOL    HW214040   0.067   2.299   3.094
 4381SOL     OW14041   1.266   4.933   6.889
 4381SOL    HW114042   1.190   4.938   6.953
 4381SOL    HW214043   1.256   5.004   6.819
 4382SOL     OW14044   1.168   4.647   4.534
 4382SOL    HW114045   1.216   4.731   4.511
 4382SOL    HW214046   1.114   4.661   4.617
 4383SOL     OW14047   0.396   4.782   0.612
 4383SOL    HW114048   0.409   4.688   0.643
 4383SOL    HW214049   0.317   4.786   0.551
 4384SOL     OW14050   4.906   6.617   3.529
 4384SOL    HW114051   4.909   6.577   3.620
 4384SOL    HW214052   4.811   6.620   3.497
 4385SOL     OW14053   4.552   0.519   5.374
 4385SOL    HW114054   4.645   0.503   5.406
 4385SOL    HW214055   4.488   0.505   5.450
 4386SOL     OW14056   2.160   3.308   4.249
 4386SOL    HW114057   2.081   3.266   4.204
 4386SOL    HW214058   2.139   3.320   4.347
 4387SOL     OW14059   5.097   2.403   1.335
 4387SOL    HW114060   5.141   2.457   1.263
 4387SOL    HW214061   5.096   2.456   1.420
 4388SOL     OW14062   5.595   3.414   0.796
 4388SOL    HW114063   5.575   3.501   0.750
 4388SOL    HW214064   5.573   3.338   0.734
 4389SOL     OW14065   2.713   1.523   6.971
 4389SOL    HW114066   2.729   1.432   7.010
 4389SOL    HW214067   2.618   1.529   6.940
 4390SOL     OW14068   6.940   1.477   0.859
 4390SOL    HW114069   7.015   1.511   0.801
 4390SOL    HW214070   6.962   1.494   0.955
 4391SOL     OW14071   0.367   6.001   1.530
 4391SOL    HW114072   0.390   5.905   1.546
 4391SOL    HW214073   0.406   6.031   1.444
 4392SOL     OW14074   1.673   2.761   6.419
 4392SOL    HW114075   1.689   2.852   6.382
 4392SOL    HW214076   1.757   2.726   6.461
 4393SOL     OW14077   6.302   0.372   2.324
 4393SOL    HW114078   6.254   0.433   2.387
 4393SOL    HW214079   6.251   0.287   2.315
 4394SOL     OW14080   6.850   0.627   3.015
 4394SOL    HW114081   6.872   0.550   2.955
 4394SOL    HW214082   6.886   0.711   2.976
 4395SOL     OW14083   1.214   3.618   1.648
 4395SOL    HW114084   1.143   3.681   1.678
 4395SOL    HW214085   1.285   3.668   1.600
 4396SOL     OW14086   2.545   1.569   2.675
 4396SOL    HW114087   2.468   1.533   2.728
 4396SOL    HW214088   2.625   1.578   2.735
 4397SOL     OW14089   3.562   0.620   4.965
 4397SOL    HW114090   3.633   0.632   5.034
 4397SOL    HW214091   3.478   0.665   4.996
 4398SOL     OW14092   2.198   3.253   6.053
 4398SOL    HW114093   2.111   3.226   6.092
 4398SOL    HW214094   2.205   3.353   6.052
 4399SOL     OW14095   2.876   5.936   1.574
 4399SOL    HW114096   2.971   5.947   1.601
 4399SOL    HW214097   2.851   5.839   1.577
 4400SOL     OW14098   1.489   6.050   5.117
 4400SOL    HW114099   1.573   6.100   5.134
 4400SOL    HW214100   1.452   6.077   5.028
 4401SOL     OW14101   2.723   6.942   6.151
 4401SOL    HW114102   2.712   6.843   6.161
 4401SOL    HW214103   2.808   6.962   6.103
 4402SOL     OW14104   1.304   0.841   2.799
 4402SOL    HW114105   1.225   0.822   2.858
 4402SOL    HW214106   1.273   0.872   2.710
 4403SOL     OW14107   6.528   6.006   3.249
 4403SOL    HW114108   6.503   6.085   3.304
 4403SOL    HW214109   6.449   5.976   3.196
 4404SOL     OW14110   0.492   6.697   5.040
 4404SOL    HW114111   0.414   6.636   5.053
 4404SOL    HW214112   0.564   6.650   4.989
 4405SOL     OW14113   1.155   5.058   2.695
 4405SOL    HW114114   1.140   5.024   2.602
 4405SOL    HW214115   1.119   5.151   2.702
 4406SOL     OW14116   6.180   4.535   2.500
 4406SOL    HW114117   6.274   4.533   2.536
 4406SOL    HW214118   6.151   4.630   2.490
 4407SOL     OW14119   5.471   6.892   1.071
 4407SOL    HW114120   5.480   6.793   1.085
 4407SOL    HW214121   5.403   6.910   0.999
 4408SOL     OW14122   4.826   0.498   0.854
 4408SOL    HW114123   4.818   0.532   0.948
 4408SOL    HW214124   4.738   0.463   0.823
 4409SOL     OW14125   3.526   0.747   3.782
 4409SOL    HW114126   3.459   0.732   3.710
 4409SOL    HW214127   3.502   0.829   3.833
 4410SOL     OW14128   0.907   0.250   1.379
 4410SOL    HW114129   0.885   0.153   1.384
 4410SOL    HW214130   0.899   0.281   1.285
 4411SOL     OW14131   4.458   4.831   4.831
 4411SOL    HW114132   4.518   4.808   4.908
 4411SOL    HW214133   4.452   4.752   4.769
 4412SOL     OW14134   4.203   6.178   1.561
 4412SOL    HW114135   4.167   6.085   1.568
 4412SOL    HW214136   4.271   6.193   1.633
 4413SOL     OW14137   5.555   6.416   4.359
 4413SOL    HW114138   5.603   6.487   4.306
 4413SOL    HW214139   5.470   6.391   4.312
 4414SOL     OW14140   5.863   4.185   1.072
 4414SOL    HW114141   5.837   4.183   0.976
 4414SOL    HW214142   5.843   4.096   1.114
 4415SOL     OW14143   1.730   3.870   1.208
 4415SOL    HW114144   1.829   3.853   1.214
 4415SOL    HW214145   1.712   3.932   1.132
 4416SOL     OW14146   4.859   3.246   4.467
 4416SOL    HW114147   4.936   3.217   4.411
 4416SOL    HW214148   4.774   3.234   4.415
 4417SOL     OW14149   0.653   4.087   2.286
 4417SOL    HW114150   0.702   4.014   2.237
 4417SOL    HW214151   0.678   4.085   2.382
 4418SOL     OW14152   6.724   1.504   5.279
 4418SOL    HW114153   6.817   1.496   5.315
 4418SOL    HW214154   6.678   1.581   5.322
 4419SOL     OW14155   6.368   6.458   6.439
 4419SOL    HW114156   6.431   6.487   6.512
 4419SOL    HW214157   6.280   6.435   6.480
 4420SOL     OW14158   3.699   1.309   0.644
 4420SOL    HW114159   3.792   1.284   0.618
 4420SOL    HW214160   3.699   1.398   0.690
 4421SOL     OW14161   2.830   3.032   0.192
 4421SOL    HW114162   2.821   2.961   0.262
 4421SOL    HW214163   2.745   3.084   0.185
 4422SOL     OW14164   1.068   3.097   6.231
 4422SOL    HW114165   1.051   3.193   6.212
 4422SOL    HW214166   1.022   3.072   6.316
 4423SOL     OW14167   5.414   4.184   4.424
 4423SOL    HW114168   5.459   4.243   4.492
 4423SOL    HW214169   5.482   4.124   4.383
 4424SOL     OW14170   3.926   5.909   2.966
 4424SOL    HW114171   3.914   5.939   2.872
 4424SOL    HW214172   3.963   5.817   2.967
 4425SOL     OW14173   0.411   6.032   1.229
 4425SOL    HW114174   0.418   5.968   1.153
 4425SOL    HW214175   0.318   6.030   1.266
 4426SOL     OW14176   0.714   1.013   4.354
 4426SOL    HW114177   0.660   1.072   4.414
 4426SOL    HW214178   0.662   0.994   4.270
 4427SOL     OW14179   3.409   5.934   1.825
 4427SOL    HW114180   3.461   5.891   1.751
 4427SOL    HW214181   3.422   5.882   1.910
 4428SOL     OW14182   6.346   6.748   3.674
 4428SOL    HW114183   6.343   6.689   3.755
 4428SOL    HW214184   6.262   6.735   3.620
 4429SOL     OW14185   2.735   5.849   2.853
 4429SOL    HW114186   2.714   5.913   2.927
 4429SOL    HW214187   2.759   5.901   2.771
 4430SOL     OW14188   6.156   4.042   4.436
 4430SOL    HW114189   6.229   3.979   4.407
 4430SOL    HW214190   6.069   3.993   4.440
 4431SOL     OW14191   4.000   6.843   4.821
 4431SOL    HW114192   4.035   6.935   4.838
 4431SOL    HW214193   4.060   6.776   4.865
 4432SOL     OW14194   1.517   3.632   6.548
 4432SOL    HW114195   1.488   3.707   6.608
 4432SOL    HW214196   1.460   3.552   6.565
 4433SOL     OW14197   0.699   0.393   4.905
 4433SOL    HW114198   0.757   0.424   4.829
 4433SOL    HW214199   0.729   0.436   4.990
 4434SOL     OW14200   6.333   0.976   2.371
 4434SOL    HW114201   6.317   0.953   2.467
 4434SOL    HW214202   6.429   0.998   2.357
 4435SOL     OW14203   2.407   4.632   1.262
 4435SOL    HW114204   2.456   4.614   1.347
 4435SOL    HW214205   2.415   4.553   1.202
 4436SOL     OW14206   4.887   2.219   1.590
 4436SOL    HW114207   4.907   2.142   1.652
 4436SOL    HW214208   4.956   2.291   1.603
 4437SOL     OW14209   6.698   5.102   6.450
 4437SOL    HW114210   6.702   5.015   6.400
 4437SOL    HW214211   6.646   5.089   6.535
 4438SOL     OW14212   4.235   1.393   4.796
 4438SOL    HW114213   4.231   1.493   4.796
 4438SOL    HW214214   4.146   1.356   4.824
 4439SOL     OW14215   2.794   4.822   1.815
 4439SOL    HW114216   2.885   4.852   1.787
 4439SOL    HW214217   2.803   4.742   1.875
 4440SOL     OW14218   1.944   5.378   5.589
 4440SOL    HW114219   1.923   5.450   5.656
 4440SOL    HW214220   1.924   5.411   5.497
 4441SOL     OW14221   6.379   1.329   0.644
 4441SOL    HW114222   6.358   1.347   0.548
 4441SOL    HW214223   6.378   1.230   0.660
 4442SOL     OW14224   1.569   4.759   1.153
 4442SOL    HW114225   1.490   4.820   1.164
 4442SOL    HW214226   1.648   4.798   1.200
 4443SOL     OW14227   1.149   6.255   4.886
 4443SOL    HW114228   1.201   6.169   4.881
 4443SOL    HW214229   1.070   6.243   4.945
 4444SOL     OW14230   4.912   6.119   6.874
 4444SOL    HW114231   4.885   6.037   6.824
 4444SOL    HW214232   4.969   6.177   6.815
 4445SOL     OW14233   2.044   3.589   0.569
 4445SOL    HW114234   2.107   3.576   0.646
 4445SOL    HW214235   1.963   3.532   0.583
 4446SOL     OW14236   5.316   2.332   1.739
 4446SOL    HW114237   5.395   2.386   1.767
 4446SOL    HW214238   5.233   2.369   1.782
 4447SOL     OW14239   4.824   6.226   5.218
 4447SOL    HW114240   4.855   6.134   5.242
 4447SOL    HW214241   4.876   6.294   5.270
 4448SOL     OW14242   3.082   6.564   2.729
 4448SOL    HW114243   3.109   6.639   2.670
 4448SOL    HW214244   3.120   6.478   2.694
 4449SOL     OW14245   4.029   1.772   5.850
 4449SOL    HW114246   3.932   1.796   5.853
 4449SOL    HW214247   4.052   1.738   5.760
 4450SOL     OW14248   1.925   6.249   0.756
 4450SOL    HW114249   1.856   6.182   0.786
 4450SOL    HW214250   1.883   6.339   0.752
 4451SOL     OW14251   4.951   5.935   3.832
 4451SOL    HW114252   4.873   5.950   3.892
 4451SOL    HW214253   4.968   6.017   3.777
 4452SOL     OW14254   5.072   4.517   3.431
 4452SOL    HW114255   5.103   4.444   3.370
 4452SOL    HW214256   5.076   4.486   3.525
 4453SOL     OW14257   0.334   5.670   1.297
 4453SOL    HW114258   0.408   5.676   1.230
 4453SOL    HW214259   0.246   5.676   1.251
 4454SOL     OW14260   0.439   0.902   0.396
 4454SOL    HW114261   0.349   0.924   0.357
 4454SOL    HW214262   0.429   0.888   0.495
 4455SOL     OW14263   0.953   0.482   4.404
 4455SOL    HW114264   0.858   0.498   4.431
 4455SOL    HW214265   0.961   0.487   4.304
 4456SOL     OW14266   1.528   5.821   4.109
 4456SOL    HW114267   1.442   5.794   4.066
 4456SOL    HW214268   1.596   5.840   4.037
 4457SOL     OW14269   1.266   1.888   4.396
 4457SOL    HW114270   1.318   1.886   4.482
 4457SOL    HW214271   1.232   1.981   4.381
 4458SOL     OW14272   1.959   2.008   5.981
 4458SOL    HW114273   2.043   1.971   5.939
 4458SOL    HW214274   1.977   2.032   6.076
 4459SOL     OW14275   0.739   4.408   3.013
 4459SOL    HW114276   0.701   4.359   3.091
 4459SOL    HW214277   0.827   4.368   2.988
 4460SOL     OW14278   0.203   2.793   5.169
 4460SOL    HW114279   0.301   2.812   5.181
 4460SOL    HW214280   0.153   2.880   5.171
 4461SOL     OW14281   1.985   0.373   0.708
 4461SOL    HW114282   2.069   0.325   0.683
 4461SOL    HW214283   1.907   0.314   0.690
 4462SOL     OW14284   0.316   4.609   2.349
 4462SOL    HW114285   0.243   4.644   2.290
 4462SOL    HW214286   0.313   4.509   2.349
 4463SOL     OW14287   5.768   2.306   7.019
 4463SOL    HW114288   5.776   2.377   6.948
 4463SOL    HW214289   5.850   2.308   0.051
 4464SOL     OW14290   0.624   3.773   1.089
 4464SOL    HW114291   0.617   3.864   1.131
 4464SOL    HW214292   0.573   3.772   1.003
 4465SOL     OW14293   4.454   4.881   1.416
 4465SOL    HW114294   4.406   4.884   1.503
 4465SOL    HW214295   4.553   4.887   1.432
 4466SOL     OW14296   0.694   3.049   2.673
 4466SOL    HW114297   0.621   3.074   2.736
 4466SOL    HW214298   0.664   2.973   2.615
 4467SOL     OW14299   5.130   5.006   1.617
 4467SOL    HW114300   5.052   5.069   1.611
 4467SOL    HW214301   5.212   5.051   1.584
 4468SOL     OW14302   1.711   3.414   0.032
 4468SOL    HW114303   1.698   3.330   7.005
 4468SOL    HW214304   1.790   3.464   7.021
 4469SOL     OW14305   1.866   5.832   2.029
 4469SOL    HW114306   1.767   5.833   2.015
 4469SOL    HW214307   1.890   5.901   2.098
 4470SOL     OW14308   0.907   0.141   3.150
 4470SOL    HW114309   0.852   0.211   3.197
 4470SOL    HW214310   0.989   0.184   3.112
 4471SOL     OW14311   1.069   0.743   6.703
 4471SOL    HW114312   1.128   0.666   6.725
 4471SOL    HW214313   0.977   0.710   6.682
 4472SOL     OW14314   1.775   2.949   0.575
 4472SOL    HW114315   1.702   3.011   0.602
 4472SOL    HW214316   1.863   2.996   0.585
 4473SOL     OW14317   0.406   2.540   4.802
 4473SOL    HW114318   0.414   2.615   4.867
 4473SOL    HW214319   0.455   2.460   4.837
 4474SOL     OW14320   2.454   6.467   1.143
 4474SOL    HW114321   2.506   6.544   1.106
 4474SOL    HW214322   2.475   6.384   1.091
 4475SOL     OW14323   0.766   3.418   0.605
 4475SOL    HW114324   0.794   3.498   0.660
 4475SOL    HW214325   0.806   3.426   0.514
 4476SOL     OW14326   4.853   0.551   3.556
 4476SOL    HW114327   4.847   0.536   3.457
 4476SOL    HW214328   4.866   0.463   3.603
 4477SOL     OW14329   6.790   1.476   4.857
 4477SOL    HW114330   6.803   1.450   4.762
 4477SOL    HW214331   6.829   1.405   4.916
 4478SOL     OW14332   1.077   0.425   2.488
 4478SOL    HW114333   1.115   0.402   2.578
 4478SOL    HW214334   1.085   0.347   2.427
 4479SOL     OW14335   2.599   3.185   0.130
 4479SOL    HW114336   2.530   3.256   0.112
 4479SOL    HW214337   2.552   3.099   0.152
 4480SOL     OW14338   6.583   0.289   3.065
 4480SOL    HW114339   6.552   0.194   3.062
 4480SOL    HW214340   6.681   0.291   3.088
 4481SOL     OW14341   2.392   3.762   5.832
 4481SOL    HW114342   2.356   3.842   5.879
 4481SOL    HW214343   2.473   3.788   5.779
 4482SOL     OW14344   2.526   0.108   1.179
 4482SOL    HW114345   2.611   0.085   1.227
 4482SOL    HW214346   2.450   0.110   1.244
 4483SOL     OW14347   0.767   3.077   0.791
 4483SOL    HW114348   0.767   3.108   0.886
 4483SOL    HW214349   0.806   3.148   0.733
 4484SOL     OW14350   3.898   0.044   1.123
 4484SOL    HW114351   3.828   0.113   1.138
 4484SOL    HW214352   3.987   0.080   1.150
 4485SOL     OW14353   0.444   2.757   4.960
 4485SOL    HW114354   0.461   2.762   5.058
 4485SOL    HW214355   0.460   2.846   4.918
 4486SOL     OW14356   5.215   4.699   3.715
 4486SOL    HW114357   5.292   4.719   3.654
 4486SOL    HW214358   5.138   4.759   3.693
 4487SOL     OW14359   0.423   2.668   6.312
 4487SOL    HW114360   0.417   2.751   6.368
 4487SOL    HW214361   0.519   2.642   6.302
 4488SOL     OW14362   5.413   4.872   3.519
 4488SOL    HW114363   5.400   4.929   3.439
 4488SOL    HW214364   5.495   4.900   3.568
 4489SOL     OW14365   3.558   6.358   6.349
 4489SOL    HW114366   3.538   6.454   6.369
 4489SOL    HW214367   3.590   6.349   6.255
 4490SOL     OW14368   5.169   1.918   2.329
 4490SOL    HW114369   5.143   1.979   2.403
 4490SOL    HW214370   5.263   1.937   2.301
 4491SOL     OW14371   0.147   4.014   3.159
 4491SOL    HW114372   0.132   3.919   3.187
 4491SOL    HW214373   0.068   4.069   3.185
 4492SOL     OW14374   6.849   1.471   2.095
 4492SOL    HW114375   6.836   1.418   2.011
 4492SOL    HW214376   6.920   1.428   2.151
 4493SOL     OW14377   5.482   1.354   6.520
 4493SOL    HW114378   5.385   1.336   6.536
 4493SOL    HW214379   5.528   1.269   6.495
 4494SOL     OW14380   1.441   1.632   2.330
 4494SOL    HW114381   1.357   1.610   2.380
 4494SOL    HW214382   1.520   1.617   2.389
 4495SOL     OW14383   3.779   6.427   1.208
 4495SOL    HW114384   3.698   6.367   1.209
 4495SOL    HW214385   3.861   6.372   1.225
 4496SOL     OW14386   2.062   5.156   5.669
 4496SOL    HW114387   2.158   5.171   5.646
 4496SOL    HW214388   2.006   5.230   5.631
 4497SOL     OW14389   4.129   6.890   5.225
 4497SOL    HW114390   4.147   6.814   5.163
 4497SOL    HW214391   4.032   6.889   5.251
 4498SOL     OW14392   2.026   4.723   4.387
 4498SOL    HW114393   2.066   4.756   4.472
 4498SOL    HW214394   1.985   4.633   4.401
 4499SOL     OW14395   5.865   2.016   2.033
 4499SOL    HW114396   5.851   2.029   1.935
 4499SOL    HW214397   5.815   1.934   2.063
 4500SOL     OW14398   3.284   6.760   0.152
 4500SOL    HW114399   3.241   6.738   0.240
 4500SOL    HW214400   3.353   6.690   0.130
 4501SOL     OW14401   5.705   0.296   2.861
 4501SOL    HW114402   5.712   0.341   2.772
 4501SOL    HW214403   5.796   0.272   2.894
 4502SOL     OW14404   1.029   4.242   0.015
 4502SOL    HW114405   0.978   4.244   6.955
 4502SOL    HW214406   1.125   4.222   7.022
 4503SOL     OW14407   3.771   1.328   2.844
 4503SOL    HW114408   3.820   1.299   2.761
 4503SOL    HW214409   3.830   1.315   2.923
 4504SOL     OW14410   1.149   2.485   3.898
 4504SOL    HW114411   1.150   2.542   3.980
 4504SOL    HW214412   1.056   2.451   3.882
 4505SOL     OW14413   6.836   3.445   3.462
 4505SOL    HW114414   6.784   3.429   3.378
 4505SOL    HW214415   6.932   3.462   3.439
 4506SOL     OW14416   4.314   3.997   6.987
 4506SOL    HW114417   4.316   3.997   0.062
 4506SOL    HW214418   4.302   3.903   6.954
 4507SOL     OW14419   6.202   2.306   3.142
 4507SOL    HW114420   6.144   2.379   3.105
 4507SOL    HW214421   6.164   2.274   3.229
 4508SOL     OW14422   5.799   4.961   0.133
 4508SOL    HW114423   5.856   4.920   0.062
 4508SOL    HW214424   5.703   4.958   0.105
 4509SOL     OW14425   4.621   1.886   3.011
 4509SOL    HW114426   4.526   1.864   2.987
 4509SOL    HW214427   4.683   1.823   2.965
 4510SOL     OW14428   4.831   1.971   3.708
 4510SOL    HW114429   4.928   1.988   3.689
 4510SOL    HW214430   4.823   1.914   3.790
 4511SOL     OW14431   0.883   4.340   6.826
 4511SOL    HW114432   0.919   4.326   6.734
 4511SOL    HW214433   0.859   4.437   6.839
 4512SOL     OW14434   2.749   3.786   5.936
 4512SOL    HW114435   2.702   3.743   6.013
 4512SOL    HW214436   2.844   3.754   5.932
 4513SOL     OW14437   0.673   1.507   1.356
 4513SOL    HW114438   0.644   1.548   1.442
 4513SOL    HW214439   0.596   1.460   1.313
 4514SOL     OW14440   4.483   4.458   6.391
 4514SOL    HW114441   4.535   4.532   6.435
 4514SOL    HW214442   4.435   4.405   6.461
 4515SOL     OW14443   4.393   0.093   5.667
 4515SOL    HW114444   4.331   0.047   5.603
 4515SOL    HW214445   4.453   0.154   5.616
 4516SOL     OW14446   3.543   1.696   5.310
 4516SOL    HW114447   3.447   1.724   5.319
 4516SOL    HW214448   3.581   1.678   5.401
 4517SOL     OW14449   3.513   0.213   4.114
 4517SOL    HW114450   3.463   0.226   4.199
 4517SOL    HW214451   3.565   0.128   4.118
 4518SOL     OW14452   6.665   6.911   0.589
 4518SOL    HW114453   6.754   6.868   0.569
 4518SOL    HW214454   6.592   6.852   0.555
 4519SOL     OW14455   5.205   0.045   6.294
 4519SOL    HW114456   5.302   0.055   6.317
 4519SOL    HW214457   5.187   0.086   6.204
 4520SOL     OW14458   4.454   5.196   4.608
 4520SOL    HW114459   4.392   5.148   4.545
 4520SOL    HW214460   4.421   5.289   4.622
 4521SOL     OW14461   4.529   2.540   4.449
 4521SOL    HW114462   4.507   2.540   4.351
 4521SOL    HW214463   4.594   2.613   4.468
 4522SOL     OW14464   5.393   4.110   3.281
 4522SOL    HW114465   5.486   4.108   3.319
 4522SOL    HW214466   5.396   4.084   3.185
 4523SOL     OW14467   0.437   2.945   6.914
 4523SOL    HW114468   0.391   3.032   6.927
 4523SOL    HW214469   0.370   2.875   6.891
 4524SOL     OW14470   2.145   3.719   1.917
 4524SOL    HW114471   2.173   3.623   1.911
 4524SOL    HW214472   2.161   3.765   1.830
 4525SOL     OW14473   3.522   1.694   5.865
 4525SOL    HW114474   3.578   1.695   5.948
 4525SOL    HW214475   3.487   1.786   5.848
 4526SOL     OW14476   0.721   6.723   5.504
 4526SOL    HW114477   0.804   6.768   5.538
 4526SOL    HW214478   0.726   6.716   5.405
 4527SOL     OW14479   0.874   2.531   2.303
 4527SOL    HW114480   0.908   2.610   2.354
 4527SOL    HW214481   0.940   2.456   2.310
 4528SOL     OW14482   5.467   2.173   4.551
 4528SOL    HW114483   5.450   2.267   4.582
 4528SOL    HW214484   5.554   2.141   4.589
 4529SOL     OW14485   1.659   2.684   3.667
 4529SOL    HW114486   1.619   2.758   3.721
 4529SOL    HW214487   1.715   2.626   3.727
 4530SOL     OW14488   3.970   4.515   5.862
 4530SOL    HW114489   3.871   4.504   5.847
 4530SOL    HW214490   3.986   4.574   5.941
 4531SOL     OW14491   1.606   6.747   5.294
 4531SOL    HW114492   1.607   6.756   5.195
 4531SOL    HW214493   1.515   6.771   5.329
 4532SOL     OW14494   5.732   0.978   2.318
 4532SOL    HW114495   5.789   0.925   2.380
 4532SOL    HW214496   5.643   0.933   2.305
 4533SOL     OW14497   2.712   5.591   1.285
 4533SOL    HW114498   2.748   5.582   1.192
 4533SOL    HW214499   2.621   5.548   1.289
 4534SOL     OW14500   5.726   1.585   4.548
 4534SOL    HW114501   5.652   1.520   4.565
 4534SOL    HW214502   5.801   1.568   4.612
 4535SOL     OW14503   1.814   7.009   0.401
 4535SOL    HW114504   1.908   0.019   0.396
 4535SOL    HW214505   1.802   6.937   0.334
 4536SOL     OW14506   3.751   0.320   5.473
 4536SOL    HW114507   3.763   0.407   5.520
 4536SOL    HW214508   3.807   0.250   5.518
 4537SOL     OW14509   3.247   3.710   3.567
 4537SOL    HW114510   3.173   3.777   3.575
 4537SOL    HW214511   3.316   3.744   3.503
 4538SOL     OW14512   1.329   2.920   0.508
 4538SOL    HW114513   1.286   2.844   0.460
 4538SOL    HW214514   1.342   2.997   0.444
 4539SOL     OW14515   0.759   4.765   4.933
 4539SOL    HW114516   0.726   4.859   4.936
 4539SOL    HW214517   0.853   4.763   4.897
 4540SOL     OW14518   1.797   1.870   0.582
 4540SOL    HW114519   1.867   1.856   0.511
 4540SOL    HW214520   1.707   1.878   0.538
 4541SOL     OW14521   4.391   3.029   0.141
 4541SOL    HW114522   4.374   3.089   0.219
 4541SOL    HW214523   4.346   3.065   0.060
 4542SOL     OW14524   7.007   1.676   0.309
 4542SOL    HW114525   0.029   1.627   0.237
 4542SOL    HW214526   6.930   1.727   0.270
 4543SOL     OW14527   3.956   0.973   1.136
 4543SOL    HW114528   3.937   0.893   1.078
 4543SOL    HW214529   4.040   0.958   1.187
 4544SOL     OW14530   4.739   5.974   0.378
 4544SOL    HW114531   4.692   5.886   0.391
 4544SOL    HW214532   4.824   5.959   0.327
 4545SOL     OW14533   3.182   3.282   5.376
 4545SOL    HW114534   3.116   3.207   5.364
 4545SOL    HW214535   3.152   3.339   5.453
 4546SOL     OW14536   4.845   6.630   5.637
 4546SOL    HW114537   4.847   6.729   5.625
 4546SOL    HW214538   4.808   6.608   5.727
 4547SOL     OW14539   6.704   0.962   0.209
 4547SOL    HW114540   6.628   1.022   0.235
 4547SOL    HW214541   6.724   0.899   0.284
 4548SOL     OW14542   3.057   1.465   1.893
 4548SOL    HW114543   3.116   1.545   1.897
 4548SOL    HW214544   3.093   1.399   1.826
 4549SOL     OW14545   6.899   4.788   3.572
 4549SOL    HW114546   6.923   4.850   3.498
 4549SOL    HW214547   6.967   4.714   3.578
 4550SOL     OW14548   2.576   5.564   6.871
 4550SOL    HW114549   2.585   5.607   6.961
 4550SOL    HW214550   2.632   5.614   6.804
 4551SOL     OW14551   3.614   2.977   5.778
 4551SOL    HW114552   3.703   2.959   5.820
 4551SOL    HW214553   3.619   3.059   5.722
 4552SOL     OW14554   5.040   0.273   6.702
 4552SOL    HW114555   5.004   0.196   6.649
 4552SOL    HW214556   5.006   0.269   6.796
 4553SOL     OW14557   0.160   0.007   0.606
 4553SOL    HW114558   0.161   0.106   0.619
 4553SOL    HW214559   0.093   6.991   0.668
 4554SOL     OW14560   5.793   6.513   2.777
 4554SOL    HW114561   5.747   6.455   2.710
 4554SOL    HW214562   5.755   6.605   2.772
 4555SOL     OW14563   0.000   0.055   3.325
 4555SOL    HW114564   0.063   0.084   3.397
 4555SOL    HW214565   0.042   7.005   3.273
 4556SOL     OW14566   5.215   4.267   5.137
 4556SOL    HW114567   5.232   4.269   5.039
 4556SOL    HW214568   5.117   4.278   5.154
 4557SOL     OW14569   6.970   5.446   4.807
 4557SOL    HW114570   0.029   5.474   4.763
 4557SOL    HW214571   6.982   5.446   4.906
 4558SOL     OW14572   0.790   4.343   3.676
 4558SOL    HW114573   0.871   4.340   3.616
 4558SOL    HW214574   0.718   4.285   3.638
 4559SOL     OW14575   6.930   3.741   4.377
 4559SOL    HW114576   6.928   3.646   4.343
 4559SOL    HW214577   7.012   3.787   4.344
 4560SOL     OW14578   6.716   3.888   3.594
 4560SOL    HW114579   6.635   3.831   3.577
 4560SOL    HW214580   6.765   3.902   3.508
 4561SOL     OW14581   5.259   3.352   4.273
 4561SOL    HW114582   5.322   3.286   4.314
 4561SOL    HW214583   5.263   3.438   4.325
 4562SOL     OW14584   4.817   1.278   1.270
 4562SOL    HW114585   4.863   1.315   1.190
 4562SOL    HW214586   4.872   1.294   1.352
 4563SOL     OW14587   0.872   3.967   2.171
 4563SOL    HW114588   0.958   4.012   2.194
 4563SOL    HW214589   0.889   3.899   2.099
 4564SOL     OW14590   2.081   3.548   2.159
 4564SOL    HW114591   2.088   3.458   2.203
 4564SOL    HW214592   2.129   3.546   2.071
 4565SOL     OW14593   2.108   6.387   5.272
 4565SOL    HW114594   2.138   6.473   5.229
 4565SOL    HW214595   2.042   6.408   5.344
 4566SOL     OW14596   6.919   4.930   2.663
 4566SOL    HW114597   6.954   5.002   2.604
 4566SOL    HW214598   6.840   4.887   2.620
 4567SOL     OW14599   1.276   0.151   0.091
 4567SOL    HW114600   1.176   0.142   0.095
 4567SOL    HW214601   1.305   0.152   7.020
 4568SOL     OW14602   0.060   4.292   3.790
 4568SOL    HW114603   0.105   4.274   3.703
 4568SOL    HW214604   0.125   4.337   3.852
 4569SOL     OW14605   0.091   2.455   3.564
 4569SOL    HW114606   0.043   2.533   3.604
 4569SOL    HW214607   0.188   2.478   3.551
 4570SOL     OW14608   5.067   5.992   1.567
 4570SOL    HW114609   5.113   6.079   1.583
 4570SOL    HW214610   4.980   5.990   1.618
 4571SOL     OW14611   2.050   2.472   5.295
 4571SOL    HW114612   1.967   2.456   5.349
 4571SOL    HW214613   2.071   2.391   5.241
 4572SOL     OW14614   4.889   3.401   1.837
 4572SOL    HW114615   4.934   3.458   1.768
 4572SOL    HW214616   4.813   3.351   1.794
 4573SOL     OW14617   1.897   5.092   1.278
 4573SOL    HW114618   1.835   5.168   1.297
 4573SOL    HW214619   1.850   5.006   1.298
 4574SOL     OW14620   5.097   0.461   1.856
 4574SOL    HW114621   5.189   0.451   1.894
 4574SOL    HW214622   5.033   0.407   1.910
 4575SOL     OW14623   0.322   1.789   5.138
 4575SOL    HW114624   0.342   1.709   5.195
 4575SOL    HW214625   0.374   1.783   5.053
 4576SOL     OW14626   2.853   3.719   6.799
 4576SOL    HW114627   2.755   3.707   6.780
 4576SOL    HW214628   2.902   3.733   6.713
 4577SOL     OW14629   0.455   1.909   1.886
 4577SOL    HW114630   0.375   1.853   1.863
 4577SOL    HW214631   0.478   1.966   1.807
 4578SOL     OW14632   1.747   0.800   2.968
 4578SOL    HW114633   1.693   0.819   3.050
 4578SOL    HW214634   1.821   0.737   2.989
 4579SOL     OW14635   4.410   0.855   2.875
 4579SOL    HW114636   4.451   0.938   2.914
 4579SOL    HW214637   4.380   0.794   2.948
 4580SOL     OW14638   0.878   0.300   1.646
 4580SOL    HW114639   0.881   0.400   1.648
 4580SOL    HW214640   0.866   0.269   1.552
 4581SOL     OW14641   3.171   0.584   1.608
 4581SOL    HW114642   3.125   0.626   1.686
 4581SOL    HW214643   3.122   0.607   1.524
 4582SOL     OW14644   5.662   1.038   4.429
 4582SOL    HW114645   5.697   0.959   4.378
 4582SOL    HW214646   5.562   1.037   4.426
 4583SOL     OW14647   2.101   6.058   6.841
 4583SOL    HW114648   2.050   5.993   6.896
 4583SOL    HW214649   2.199   6.043   6.854
 4584SOL     OW14650   6.772   1.006   4.726
 4584SOL    HW114651   6.763   1.044   4.818
 4584SOL    HW214652   6.868   0.980   4.710
 4585SOL     OW14653   0.804   2.627   2.704
 4585SOL    HW114654   0.859   2.677   2.638
 4585SOL    HW214655   0.708   2.652   2.693
 4586SOL     OW14656   6.931   4.966   5.622
 4586SOL    HW114657   6.905   4.894   5.558
 4586SOL    HW214658   0.003   4.962   5.640
 4587SOL     OW14659   4.359   3.075   6.384
 4587SOL    HW114660   4.310   3.134   6.319
 4587SOL    HW214661   4.320   2.983   6.381
 4588SOL     OW14662   2.204   4.694   6.467
 4588SOL    HW114663   2.266   4.773   6.474
 4588SOL    HW214664   2.145   4.706   6.387
 4589SOL     OW14665   4.876   6.012   2.192
 4589SOL    HW114666   4.806   5.974   2.132
 4589SOL    HW214667   4.838   6.089   2.243
 4590SOL     OW14668   2.163   4.872   1.909
 4590SOL    HW114669   2.223   4.946   1.942
 4590SOL    HW214670   2.152   4.880   1.810
 4591SOL     OW14671   2.213   1.666   5.140
 4591SOL    HW114672   2.298   1.626   5.107
 4591SOL    HW214673   2.221   1.686   5.238
 4592SOL     OW14674   2.680   2.360   3.207
 4592SOL    HW114675   2.691   2.361   3.108
 4592SOL    HW214676   2.768   2.337   3.250
 4593SOL     OW14677   1.445   5.756   4.553
 4593SOL    HW114678   1.351   5.727   4.536
 4593SOL    HW214679   1.467   5.835   4.497
 4594SOL     OW14680   1.220   6.125   3.700
 4594SOL    HW114681   1.318   6.129   3.679
 4594SOL    HW214682   1.206   6.087   3.791
 4595SOL     OW14683   5.710   1.894   6.898
 4595SOL    HW114684   5.689   1.890   6.995
 4595SOL    HW214685   5.791   1.952   6.884
 4596SOL     OW14686   0.658   1.807   2.774
 4596SOL    HW114687   0.567   1.845   2.794
 4596SOL    HW214688   0.659   1.771   2.681
 4597SOL     OW14689   1.606   5.078   0.580
 4597SOL    HW114690   1.609   5.175   0.604
 4597SOL    HW214691   1.585   5.068   0.483
 4598SOL     OW14692   0.381   2.411   0.284
 4598SOL    HW114693   0.432   2.348   0.226
 4598SOL    HW214694   0.446   2.474   0.329
 4599SOL     OW14695   2.893   6.735   3.367
 4599SOL    HW114696   2.924   6.646   3.334
 4599SOL    HW214697   2.963   6.804   3.349
 4600SOL     OW14698   0.386   6.774   5.704
 4600SOL    HW114699   0.389   6.719   5.788
 4600SOL    HW214700   0.476   6.771   5.660
 4601SOL     OW14701   1.968   0.977   5.129
 4601SOL    HW114702   1.986   1.066   5.170
 4601SOL    HW214703   1.875   0.976   5.092
 4602SOL     OW14704   4.192   0.495   6.153
 4602SOL    HW114705   4.173   0.593   6.161
 4602SOL    HW214706   4.252   0.478   6.075
 4603SOL     OW14707   4.535   6.766   0.884
 4603SOL    HW114708   4.569   6.695   0.823
 4603SOL    HW214709   4.580   6.853   0.862
 4604SOL     OW14710   0.541   6.443   3.435
 4604SOL    HW114711   0.481   6.509   3.389
 4604SOL    HW214712   0.634   6.454   3.401
 4605SOL     OW14713   4.792   1.622   1.927
 4605SOL    HW114714   4.821   1.716   1.942
 4605SOL    HW214715   4.866   1.559   1.950
 4606SOL     OW14716   0.222   0.371   4.479
 4606SOL    HW114717   0.160   0.320   4.420
 4606SOL    HW214718   0.179   0.385   4.569
 4607SOL     OW14719   2.697   1.798   0.862
 4607SOL    HW114720   2.641   1.814   0.944
 4607SOL    HW214721   2.768   1.867   0.856
 4608SOL     OW14722   0.578   1.996   5.686
 4608SOL    HW114723   0.606   1.966   5.595
 4608SOL    HW214724   0.503   2.062   5.679
 4609SOL     OW14725   6.048   5.159   6.052
 4609SOL    HW114726   5.966   5.112   6.020
 4609SOL    HW214727   6.023   5.233   6.115
 4610SOL     OW14728   4.988   4.053   6.220
 4610SOL    HW114729   5.035   3.967   6.243
 4610SOL    HW214730   5.056   4.123   6.200
 4611SOL     OW14731   0.204   0.304   6.324
 4611SOL    HW114732   0.219   0.357   6.240
 4611SOL    HW214733   0.280   0.240   6.336
 4612SOL     OW14734   1.529   0.669   2.795
 4612SOL    HW114735   1.613   0.722   2.804
 4612SOL    HW214736   1.450   0.727   2.815
 4613SOL     OW14737   1.690   5.147   3.297
 4613SOL    HW114738   1.789   5.138   3.296
 4613SOL    HW214739   1.650   5.076   3.355
 4614SOL     OW14740   6.631   4.989   2.530
 4614SOL    HW114741   6.691   4.918   2.493
 4614SOL    HW214742   6.635   4.989   2.630
 4615SOL     OW14743   0.795   4.571   6.926
 4615SOL    HW114744   0.775   4.561   7.024
 4615SOL    HW214745   0.850   4.653   6.912
 4616SOL     OW14746   1.708   4.256   6.486
 4616SOL    HW114747   1.748   4.275   6.397
 4616SOL    HW214748   1.660   4.337   6.520
 4617SOL     OW14749   0.694   4.398   4.439
 4617SOL    HW114750   0.712   4.381   4.342
 4617SOL    HW214751   0.772   4.369   4.494
 4618SOL     OW14752   1.990   4.028   5.152
 4618SOL    HW114753   1.922   3.985   5.092
 4618SOL    HW214754   2.079   3.986   5.138
 4619SOL     OW14755   4.706   5.931   7.017
 4619SOL    HW114756   4.798   5.892   7.021
 4619SOL    HW214757   4.645   5.879   0.052
 4620SOL     OW14758   1.179   4.270   1.972
 4620SOL    HW114759   1.224   4.303   1.889
 4620SOL    HW214760   1.082   4.254   1.954
 4621SOL     OW14761   3.193   0.325   2.803
 4621SOL    HW114762   3.107   0.350   2.846
 4621SOL    HW214763   3.227   0.239   2.843
 4622SOL     OW14764   6.154   0.027   0.496
 4622SOL    HW114765   6.089   0.053   0.567
 4622SOL    HW214766   6.167   6.953   0.497
 4623SOL     OW14767   2.895   4.858   2.738
 4623SOL    HW114768   2.840   4.774   2.733
 4623SOL    HW214769   2.847   4.932   2.691
 4624SOL     OW14770   5.601   1.784   0.580
 4624SOL    HW114771   5.605   1.875   0.538
 4624SOL    HW214772   5.675   1.727   0.544
 4625SOL     OW14773   0.568   6.484   1.839
 4625SOL    HW114774   0.544   6.433   1.756
 4625SOL    HW214775   0.667   6.488   1.848
 4626SOL     OW14776   4.071   3.852   1.995
 4626SOL    HW114777   4.131   3.926   2.026
 4626SOL    HW214778   3.977   3.884   1.991
 4627SOL     OW14779   5.426   6.672   4.664
 4627SOL    HW114780   5.400   6.604   4.733
 4627SOL    HW214781   5.344   6.724   4.638
 4628SOL     OW14782   6.625   4.219   2.769
 4628SOL    HW114783   6.638   4.236   2.672
 4628SOL    HW214784   6.581   4.131   2.783
 4629SOL     OW14785   1.519   5.684   1.260
 4629SOL    HW114786   1.536   5.655   1.165
 4629SOL    HW214787   1.569   5.624   1.322
 4630SOL     OW14788   1.873   3.529   1.322
 4630SOL    HW114789   1.948   3.463   1.319
 4630SOL    HW214790   1.835   3.532   1.415
 4631SOL     OW14791   6.123   1.848   1.925
 4631SOL    HW114792   6.151   1.914   1.856
 4631SOL    HW214793   6.096   1.762   1.880
 4632SOL     OW14794   2.869   4.841   3.720
 4632SOL    HW114795   2.957   4.852   3.675
 4632SOL    HW214796   2.882   4.841   3.820
 4633SOL     OW14797   5.428   3.670   3.856
 4633SOL    HW114798   5.430   3.582   3.903
 4633SOL    HW214799   5.519   3.691   3.821
 4634SOL     OW14800   3.742   2.854   5.151
 4634SOL    HW114801   3.691   2.822   5.072
 4634SOL    HW214802   3.722   2.950   5.167
 4635SOL     OW14803   4.336   0.396   2.287
 4635SOL    HW114804   4.270   0.323   2.268
 4635SOL    HW214805   4.344   0.409   2.386
 4636SOL     OW14806   1.364   5.891   6.765
 4636SOL    HW114807   1.442   5.833   6.788
 4636SOL    HW214808   1.290   5.835   6.728
 4637SOL     OW14809   1.903   2.719   3.130
 4637SOL    HW114810   1.992   2.674   3.124
 4637SOL    HW214811   1.850   2.679   3.204
 4638SOL     OW14812   4.093   4.140   6.948
 4638SOL    HW114813   4.057   4.093   6.868
 4638SOL    HW214814   4.181   4.100   6.973
 4639SOL     OW14815   3.920   2.724   1.732
 4639SOL    HW114816   3.852   2.655   1.756
 4639SOL    HW214817   3.899   2.762   1.642
 4640SOL     OW14818   0.037   2.212   0.542
 4640SOL    HW114819   6.981   2.176   0.496
 4640SOL    HW214820   0.012   2.288   0.601
 4641SOL     OW14821   1.147   5.899   4.744
 4641SOL    HW114822   1.058   5.926   4.708
 4641SOL    HW214823   1.179   5.817   4.696
 4642SOL     OW14824   5.742   1.475   6.579
 4642SOL    HW114825   5.746   1.560   6.632
 4642SOL    HW214826   5.649   1.438   6.583
 4643SOL     OW14827   0.710   2.121   0.172
 4643SOL    HW114828   0.711   2.026   0.141
 4643SOL    HW214829   0.669   2.126   0.263
 4644SOL     OW14830   1.224   1.593   1.022
 4644SOL    HW114831   1.179   1.664   1.076
 4644SOL    HW214832   1.188   1.503   1.049
 4645SOL     OW14833   5.361   2.550   5.832
 4645SOL    HW114834   5.359   2.620   5.760
 4645SOL    HW214835   5.318   2.586   5.915
 4646SOL     OW14836   1.328   3.892   2.253
 4646SOL    HW114837   1.427   3.906   2.247
 4646SOL    HW214838   1.305   3.849   2.340
 4647SOL     OW14839   2.145   6.272   2.488
 4647SOL    HW114840   2.092   6.335   2.432
 4647SOL    HW214841   2.230   6.248   2.440
 4648SOL     OW14842   2.730   1.034   4.059
 4648SOL    HW114843   2.808   1.054   4.118
 4648SOL    HW214844   2.659   0.986   4.111
 4649SOL     OW14845   4.713   3.243   0.810
 4649SOL    HW114846   4.727   3.257   0.712
 4649SOL    HW214847   4.722   3.331   0.858
 4650SOL     OW14848   3.810   5.223   0.839
 4650SOL    HW114849   3.856   5.307   0.813
 4650SOL    HW214850   3.875   5.147   0.838
 4651SOL     OW14851   1.393   3.209   6.971
 4651SOL    HW114852   1.390   3.194   0.044
 4651SOL    HW214853   1.487   3.199   6.938
 4652SOL     OW14854   0.135   0.188   5.458
 4652SOL    HW114855   0.115   0.110   5.399
 4652SOL    HW214856   0.234   0.192   5.475
 4653SOL     OW14857   0.726   6.428   0.665
 4653SOL    HW114858   0.769   6.372   0.595
 4653SOL    HW214859   0.791   6.497   0.698
 4654SOL     OW14860   0.913   1.337   5.190
 4654SOL    HW114861   0.981   1.347   5.117
 4654SOL    HW214862   0.939   1.393   5.268
 4655SOL     OW14863   5.642   5.174   3.041
 4655SOL    HW114864   5.567   5.174   2.974
 4655SOL    HW214865   5.678   5.081   3.050
 4656SOL     OW14866   5.968   0.866   1.625
 4656SOL    HW114867   5.954   0.950   1.678
 4656SOL    HW214868   6.053   0.822   1.653
 4657SOL     OW14869   3.531   1.924   2.467
 4657SOL    HW114870   3.523   1.897   2.371
 4657SOL    HW214871   3.482   2.011   2.481
 4658SOL     OW14872   1.491   1.332   0.464
 4658SOL    HW114873   1.479   1.410   0.526
 4658SOL    HW214874   1.462   1.358   0.372
 4659SOL     OW14875   2.282   4.767   0.937
 4659SOL    HW114876   2.217   4.803   0.870
 4659SOL    HW214877   2.259   4.803   1.027
 4660SOL     OW14878   0.232   5.181   4.444
 4660SOL    HW114879   0.267   5.252   4.504
 4660SOL    HW214880   0.238   5.092   4.489
 4661SOL     OW14881   0.823   1.024   6.050
 4661SOL    HW114882   0.814   1.019   6.150
 4661SOL    HW214883   0.911   1.065   6.027
 4662SOL     OW14884   2.881   0.372   5.860
 4662SOL    HW114885   2.815   0.302   5.888
 4662SOL    HW214886   2.892   0.371   5.761
 4663SOL     OW14887   0.479   0.449   1.227
 4663SOL    HW114888   0.386   0.486   1.234
 4663SOL    HW214889   0.495   0.384   1.301
 4664SOL     OW14890   6.052   6.315   5.006
 4664SOL    HW114891   6.023   6.387   4.944
 4664SOL    HW214892   6.084   6.236   4.953
 4665SOL     OW14893   0.222   1.183   3.113
 4665SOL    HW114894   0.153   1.114   3.092
 4665SOL    HW214895   0.178   1.263   3.155
 4666SOL     OW14896   1.525   2.395   6.101
 4666SOL    HW114897   1.494   2.486   6.125
 4666SOL    HW214898   1.589   2.400   6.024
 4667SOL     OW14899   6.542   2.507   1.096
 4667SOL    HW114900   6.523   2.479   1.190
 4667SOL    HW214901   6.637   2.539   1.090
 4668SOL     OW14902   4.520   1.556   5.444
 4668SOL    HW114903   4.561   1.537   5.355
 4668SOL    HW214904   4.588   1.598   5.504
 4669SOL     OW14905   5.396   6.428   6.466
 4669SOL    HW114906   5.370   6.334   6.487
 4669SOL    HW214907   5.366   6.452   6.374
 4670SOL     OW14908   0.839   3.050   0.335
 4670SOL    HW114909   0.746   3.031   0.367
 4670SOL    HW214910   0.905   3.017   0.402
 4671SOL     OW14911   6.950   1.976   1.759
 4671SOL    HW114912   6.888   1.974   1.838
 4671SOL    HW214913   6.980   2.070   1.742
 4672SOL     OW14914   3.982   3.051   0.968
 4672SOL    HW114915   4.063   3.049   0.910
 4672SOL    HW214916   3.901   3.029   0.913
 4673SOL     OW14917   5.180   1.139   0.930
 4673SOL    HW114918   5.165   1.135   0.831
 4673SOL    HW214919   5.120   1.073   0.975
 4674SOL     OW14920   0.795   3.348   0.311
 4674SOL    HW114921   0.713   3.364   0.256
 4674SOL    HW214922   0.820   3.251   0.306
 4675SOL     OW14923   2.099   6.160   0.565
 4675SOL    HW114924   2.028   6.177   0.633
 4675SOL    HW214925   2.180   6.215   0.586
 4676SOL     OW14926   1.011   5.660   4.976
 4676SOL    HW114927   1.052   5.571   4.956
 4676SOL    HW214928   1.082   5.725   5.002
 4677SOL     OW14929   4.378   0.060   6.662
 4677SOL    HW114930   4.331   0.120   6.726
 4677SOL    HW214931   4.336   0.067   6.572
 4678SOL     OW14932   2.505   4.598   0.345
 4678SOL    HW114933   2.433   4.601   0.276
 4678SOL    HW214934   2.564   4.679   0.335
 4679SOL     OW14935   2.158   0.036   5.323
 4679SOL    HW114936   2.108   0.103   5.379
 4679SOL    HW214937   2.094   7.019   5.259
 4680SOL     OW14938   1.270   5.339   6.085
 4680SOL    HW114939   1.178   5.350   6.047
 4680SOL    HW214940   1.267   5.275   6.162
 4681SOL     OW14941   6.665   6.094   4.945
 4681SOL    HW114942   6.580   6.147   4.956
 4681SOL    HW214943   6.643   5.997   4.942
 4682SOL     OW14944   3.236   0.703   0.931
 4682SOL    HW114945   3.152   0.668   0.890
 4682SOL    HW214946   3.217   0.791   0.974
 4683SOL     OW14947   0.700   4.997   3.707
 4683SOL    HW114948   0.747   5.079   3.738
 4683SOL    HW214949   0.763   4.940   3.654
 4684SOL     OW14950   2.199   1.389   5.116
 4684SOL    HW114951   2.119   1.449   5.109
 4684SOL    HW214952   2.216   1.367   5.212
 4685SOL     OW14953   5.277   4.391   3.889
 4685SOL    HW114954   5.270   4.319   3.958
 4685SOL    HW214955   5.243   4.477   3.926
 4686SOL     OW14956   5.181   5.559   6.229
 4686SOL    HW114957   5.096   5.531   6.184
 4686SOL    HW214958   5.246   5.484   6.226
 4687SOL     OW14959   4.808   0.675   4.679
 4687SOL    HW114960   4.902   0.672   4.646
 4687SOL    HW214961   4.766   0.585   4.667
 4688SOL     OW14962   6.845   0.899   1.114
 4688SOL    HW114963   6.849   0.999   1.109
 4688SOL    HW214964   6.934   0.864   1.143
 4689SOL     OW14965   1.834   5.426   4.103
 4689SOL    HW114966   1.878   5.504   4.058
 4689SOL    HW214967   1.738   5.446   4.119
 4690SOL     OW14968   2.550   1.769   0.460
 4690SOL    HW114969   2.605   1.729   0.533
 4690SOL    HW214970   2.496   1.845   0.497
 4691SOL     OW14971   3.405   4.614   0.071
 4691SOL    HW114972   3.318   4.568   0.048
 4691SOL    HW214973   3.479   4.548   0.065
 4692SOL     OW14974   1.306   5.081   3.308
 4692SOL    HW114975   1.324   5.169   3.265
 4692SOL    HW214976   1.374   5.064   3.379
 4693SOL     OW14977   0.658   1.911   2.088
 4693SOL    HW114978   0.713   1.858   2.023
 4693SOL    HW214979   0.575   1.944   2.043
 4694SOL     OW14980   1.706   1.077   5.125
 4694SOL    HW114981   1.625   1.034   5.165
 4694SOL    HW214982   1.682   1.168   5.091
 4695SOL     OW14983   3.137   3.669   3.162
 4695SOL    HW114984   3.126   3.653   3.064
 4695SOL    HW214985   3.052   3.646   3.209
 4696SOL     OW14986   6.887   2.794   0.555
 4696SOL    HW114987   6.908   2.738   0.475
 4696SOL    HW214988   6.972   2.822   0.599
 4697SOL     OW14989   0.887   5.711   6.439
 4697SOL    HW114990   0.826   5.654   6.494
 4697SOL    HW214991   0.833   5.774   6.384
 4698SOL     OW14992   5.431   3.334   2.522
 4698SOL    HW114993   5.373   3.411   2.548
 4698SOL    HW214994   5.449   3.337   2.424
 4699SOL     OW14995   6.895   0.125   3.704
 4699SOL    HW114996   6.943   0.195   3.651
 4699SOL    HW214997   6.922   0.035   3.671
 4700SOL     OW14998   4.925   6.931   5.984
 4700SOL    HW114999   4.904   7.007   5.922
 4700SOL    HW215000   5.022   6.907   5.976
 4701SOL     OW15001   2.217   0.758   6.597
 4701SOL    HW115002   2.224   0.855   6.575
 4701SOL    HW215003   2.195   0.747   6.694
 4702SOL     OW15004   3.331   2.821   1.193
 4702SOL    HW115005   3.375   2.745   1.145
 4702SOL    HW215006   3.254   2.785   1.246
 4703SOL     OW15007   0.719   6.501   2.152
 4703SOL    HW115008   0.685   6.529   2.063
 4703SOL    HW215009   0.818   6.511   2.155
 4704SOL     OW15010   4.664   6.555   6.506
 4704SOL    HW115011   4.584   6.506   6.540
 4704SOL    HW215012   4.664   6.648   6.541
 4705SOL     OW15013   3.573   2.814   4.934
 4705SOL    HW115014   3.515   2.790   4.856
 4705SOL    HW215015   3.517   2.856   5.006
 4706SOL     OW15016   5.881   3.472   0.110
 4706SOL    HW115017   5.829   3.526   0.175
 4706SOL    HW215018   5.896   3.525   0.027
 4707SOL     OW15019   2.670   4.821   0.428
 4707SOL    HW115020   2.658   4.842   0.525
 4707SOL    HW215021   2.667   4.907   0.375
 4708SOL     OW15022   1.688   3.006   2.334
 4708SOL    HW115023   1.644   3.060   2.406
 4708SOL    HW215024   1.636   3.013   2.249
 4709SOL     OW15025   2.849   4.079   0.621
 4709SOL    HW115026   2.825   4.102   0.527
 4709SOL    HW215027   2.943   4.107   0.640
 4710SOL     OW15028   5.028   2.946   1.445
 4710SOL    HW115029   5.069   3.032   1.415
 4710SOL    HW215030   4.999   2.954   1.540
 4711SOL     OW15031   2.882   0.146   3.455
 4711SOL    HW115032   2.787   0.120   3.471
 4711SOL    HW215033   2.932   0.141   3.542
 4712SOL     OW15034   1.663   3.937   6.990
 4712SOL    HW115035   1.676   3.997   6.911
 4712SOL    HW215036   1.740   3.874   6.996
 4713SOL     OW15037   0.760   5.572   0.969
 4713SOL    HW115038   0.828   5.612   0.907
 4713SOL    HW215039   0.796   5.488   1.009
 4714SOL     OW15040   3.905   2.367   1.124
 4714SOL    HW115041   3.980   2.301   1.118
 4714SOL    HW215042   3.897   2.401   1.218
 4715SOL     OW15043   4.906   3.762   4.824
 4715SOL    HW115044   4.841   3.833   4.798
 4715SOL    HW215045   4.873   3.715   4.906
 4716SOL     OW15046   2.027   5.545   6.409
 4716SOL    HW115047   1.981   5.607   6.473
 4716SOL    HW215048   2.075   5.474   6.460
 4717SOL     OW15049   2.404   5.344   4.774
 4717SOL    HW115050   2.311   5.314   4.752
 4717SOL    HW215051   2.416   5.346   4.874
 4718SOL     OW15052   4.968   0.168   0.269
 4718SOL    HW115053   5.065   0.182   0.290
 4718SOL    HW215054   4.951   0.071   0.256
 4719SOL     OW15055   4.490   3.432   1.633
 4719SOL    HW115056   4.500   3.384   1.721
 4719SOL    HW215057   4.570   3.491   1.618
 4720SOL     OW15058   1.970   1.669   3.013
 4720SOL    HW115059   2.047   1.717   2.970
 4720SOL    HW215060   1.953   1.584   2.964
 4721SOL     OW15061   1.743   1.090   1.762
 4721SOL    HW115062   1.733   1.168   1.700
 4721SOL    HW215063   1.716   1.117   1.854
 4722SOL     OW15064   2.774   1.056   3.139
 4722SOL    HW115065   2.842   1.121   3.173
 4722SOL    HW215066   2.768   0.979   3.202
 4723SOL     OW15067   2.936   0.183   5.430
 4723SOL    HW115068   3.025   0.161   5.470
 4723SOL    HW215069   2.905   0.271   5.465
 4724SOL     OW15070   4.660   5.651   1.086
 4724SOL    HW115071   4.640   5.692   1.175
 4724SOL    HW215072   4.755   5.669   1.061
 4725SOL     OW15073   6.118   5.344   2.993
 4725SOL    HW115074   6.125   5.271   2.926
 4725SOL    HW215075   6.027   5.345   3.033
 4726SOL     OW15076   0.217   6.695   4.462
 4726SOL    HW115077   0.219   6.793   4.482
 4726SOL    HW215078   0.245   6.644   4.544
 4727SOL     OW15079   5.617   6.649   2.027
 4727SOL    HW115080   5.562   6.707   1.967
 4727SOL    HW215081   5.557   6.601   2.091
 4728SOL     OW15082   6.547   0.151   6.686
 4728SOL    HW115083   6.599   0.076   6.646
 4728SOL    HW215084   6.573   0.237   6.642
 4729SOL     OW15085   3.127   0.943   1.015
 4729SOL    HW115086   3.225   0.959   1.023
 4729SOL    HW215087   3.081   1.029   0.992
 4730SOL     OW15088   1.954   0.604   5.960
 4730SOL    HW115089   1.924   0.511   5.984
 4730SOL    HW215090   1.881   0.669   5.982
 4731SOL     OW15091   4.753   1.200   5.620
 4731SOL    HW115092   4.670   1.145   5.617
 4731SOL    HW215093   4.832   1.142   5.604
 4732SOL     OW15094   0.876   6.688   7.008
 4732SOL    HW115095   0.814   6.727   6.940
 4732SOL    HW215096   0.967   6.678   6.968
 4733SOL     OW15097   5.883   4.060   3.542
 4733SOL    HW115098   5.977   4.091   3.556
 4733SOL    HW215099   5.821   4.138   3.553
 4734SOL     OW15100   6.557   3.754   5.572
 4734SOL    HW115101   6.460   3.762   5.595
 4734SOL    HW215102   6.570   3.776   5.475
 4735SOL     OW15103   0.629   4.252   3.218
 4735SOL    HW115104   0.667   4.209   3.300
 4735SOL    HW215105   0.580   4.183   3.165
 4736SOL     OW15106   1.896   6.829   2.513
 4736SOL    HW115107   1.821   6.780   2.557
 4736SOL    HW215108   1.900   6.922   2.548
 4737SOL     OW15109   3.289   5.138   2.275
 4737SOL    HW115110   3.199   5.179   2.259
 4737SOL    HW215111   3.329   5.110   2.187
 4738SOL     OW15112   1.318   0.055   3.005
 4738SOL    HW115113   1.405   0.066   3.053
 4738SOL    HW215114   1.318   0.112   2.923
 4739SOL     OW15115   3.942   0.149   1.420
 4739SOL    HW115116   3.908   0.171   1.511
 4739SOL    HW215117   3.872   0.170   1.352
 4740SOL     OW15118   0.640   1.601   3.998
 4740SOL    HW115119   0.623   1.617   4.095
 4740SOL    HW215120   0.737   1.581   3.985
 4741SOL     OW15121   3.911   3.568   3.349
 4741SOL    HW115122   3.975   3.523   3.411
 4741SOL    HW215123   3.888   3.659   3.386
 4742SOL     OW15124   5.270   1.330   2.387
 4742SOL    HW115125   5.340   1.394   2.356
 4742SOL    HW215126   5.270   1.327   2.487
 4743SOL     OW15127   1.015   5.319   0.884
 4743SOL    HW115128   1.102   5.271   0.897
 4743SOL    HW215129   0.973   5.337   0.972
 4744SOL     OW15130   1.871   5.438   1.661
 4744SOL    HW115131   1.946   5.374   1.650
 4744SOL    HW215132   1.842   5.472   1.571
 4745SOL     OW15133   1.752   3.077   0.231
 4745SOL    HW115134   1.800   3.104   0.315
 4745SOL    HW215135   1.811   3.018   0.176
 4746SOL     OW15136   5.744   5.547   4.501
 4746SOL    HW115137   5.687   5.568   4.581
 4746SOL    HW215138   5.806   5.473   4.524
 4747SOL     OW15139   4.083   0.550   1.089
 4747SOL    HW115140   4.029   0.510   1.014
 4747SOL    HW215141   4.028   0.553   1.172
 4748SOL     OW15142   2.081   6.751   3.251
 4748SOL    HW115143   2.035   6.662   3.258
 4748SOL    HW215144   2.036   6.806   3.181
 4749SOL     OW15145   2.292   1.099   0.697
 4749SOL    HW115146   2.246   1.122   0.783
 4749SOL    HW215147   2.368   1.161   0.682
 4750SOL     OW15148   4.868   3.591   6.510
 4750SOL    HW115149   4.769   3.580   6.518
 4750SOL    HW215150   4.889   3.664   6.445
 4751SOL     OW15151   4.344   1.282   2.702
 4751SOL    HW115152   4.363   1.378   2.686
 4751SOL    HW215153   4.376   1.228   2.624
 4752SOL     OW15154   5.756   0.379   6.957
 4752SOL    HW115155   5.819   0.307   6.929
 4752SOL    HW215156   5.668   0.366   6.911
 4753SOL     OW15157   2.846   5.650   5.346
 4753SOL    HW115158   2.776   5.601   5.294
 4753SOL    HW215159   2.820   5.746   5.354
 4754SOL     OW15160   5.509   4.816   0.337
 4754SOL    HW115161   5.575   4.858   0.399
 4754SOL    HW215162   5.517   4.717   0.340
 4755SOL     OW15163   0.309   1.121   1.458
 4755SOL    HW115164   0.325   1.218   1.479
 4755SOL    HW215165   0.242   1.114   1.384
 4756SOL     OW15166   0.187   3.867   5.184
 4756SOL    HW115167   0.197   3.767   5.185
 4756SOL    HW215168   0.165   3.897   5.091
 4757SOL     OW15169   2.362   2.992   1.137
 4757SOL    HW115170   2.371   2.959   1.043
 4757SOL    HW215171   2.381   2.918   1.201
 4758SOL     OW15172   2.007   4.856   2.171
 4758SOL    HW115173   2.086   4.899   2.215
 4758SOL    HW215174   2.016   4.864   2.072
 4759SOL     OW15175   0.529   6.755   2.606
 4759SOL    HW115176   0.462   6.809   2.658
 4759SOL    HW215177   0.524   6.781   2.509
 4760SOL     OW15178   1.162   6.731   2.213
 4760SOL    HW115179   1.086   6.794   2.198
 4760SOL    HW215180   1.166   6.705   2.309
 4761SOL     OW15181   4.430   6.365   2.268
 4761SOL    HW115182   4.459   6.298   2.337
 4761SOL    HW215183   4.391   6.444   2.314
 4762SOL     OW15184   1.055   1.080   2.417
 4762SOL    HW115185   0.978   1.025   2.450
 4762SOL    HW215186   1.066   1.066   2.319
 4763SOL     OW15187   5.362   5.053   1.413
 4763SOL    HW115188   5.460   5.074   1.420
 4763SOL    HW215189   5.330   5.076   1.321
 4764SOL     OW15190   4.818   2.953   6.699
 4764SOL    HW115191   4.732   2.957   6.749
 4764SOL    HW215192   4.842   2.858   6.681
 4765SOL     OW15193   3.747   1.290   5.841
 4765SOL    HW115194   3.809   1.286   5.919
 4765SOL    HW215195   3.725   1.196   5.812
 4766SOL     OW15196   1.201   0.674   3.915
 4766SOL    HW115197   1.114   0.710   3.949
 4766SOL    HW215198   1.205   0.685   3.816
 4767SOL     OW15199   2.621   4.571   3.345
 4767SOL    HW115200   2.670   4.607   3.265
 4767SOL    HW215201   2.553   4.505   3.315
 4768SOL     OW15202   4.664   1.946   6.266
 4768SOL    HW115203   4.610   1.943   6.350
 4768SOL    HW215204   4.629   2.018   6.206
 4769SOL     OW15205   2.892   3.122   0.569
 4769SOL    HW115206   2.923   3.215   0.548
 4769SOL    HW215207   2.796   3.112   0.542
 4770SOL     OW15208   6.791   1.893   3.902
 4770SOL    HW115209   6.723   1.833   3.860
 4770SOL    HW215210   6.850   1.839   3.963
 4771SOL     OW15211   3.096   0.821   4.533
 4771SOL    HW115212   3.084   0.905   4.586
 4771SOL    HW215213   3.161   0.837   4.458
 4772SOL     OW15214   2.592   4.967   2.881
 4772SOL    HW115215   2.549   4.983   2.970
 4772SOL    HW215216   2.686   5.001   2.882
 4773SOL     OW15217   2.933   5.361   4.129
 4773SOL    HW115218   2.966   5.449   4.096
 4773SOL    HW215219   2.938   5.294   4.056
 4774SOL     OW15220   1.104   4.856   0.274
 4774SOL    HW115221   1.169   4.888   0.344
 4774SOL    HW215222   1.013   4.851   0.314
 4775SOL     OW15223   5.772   4.903   4.353
 4775SOL    HW115224   5.813   4.980   4.304
 4775SOL    HW215225   5.833   4.874   4.426
 4776SOL     OW15226   6.516   1.589   4.816
 4776SOL    HW115227   6.614   1.603   4.830
 4776SOL    HW215228   6.482   1.658   4.752
 4777SOL     OW15229   1.582   6.384   3.774
 4777SOL    HW115230   1.661   6.419   3.722
 4777SOL    HW215231   1.572   6.437   3.859
 4778SOL     OW15232   1.684   6.915   0.765
 4778SOL    HW115233   1.693   6.873   0.855
 4778SOL    HW215234   1.715   7.010   0.770
 4779SOL     OW15235   4.919   1.506   4.564
 4779SOL    HW115236   5.004   1.558   4.560
 4779SOL    HW215237   4.843   1.564   4.533
 4780SOL     OW15238   5.145   2.851   4.929
 4780SOL    HW115239   5.056   2.807   4.943
 4780SOL    HW215240   5.131   2.944   4.893
 4781SOL     OW15241   2.354   5.315   2.117
 4781SOL    HW115242   2.362   5.412   2.094
 4781SOL    HW215243   2.306   5.306   2.205
 4782SOL     OW15244   1.124   6.665   3.465
 4782SOL    HW115245   1.183   6.593   3.503
 4782SOL    HW215246   1.176   6.720   3.400
 4783SOL     OW15247   0.637   4.205   6.840
 4783SOL    HW115248   0.581   4.224   6.921
 4783SOL    HW215249   0.701   4.280   6.825
 4784SOL     OW15250   5.974   2.779   0.189
 4784SOL    HW115251   6.029   2.710   0.237
 4784SOL    HW215252   5.881   2.745   0.178
 4785SOL     OW15253   6.969   0.972   4.196
 4785SOL    HW115254   0.008   1.044   4.218
 4785SOL    HW215255   6.882   1.013   4.167
 4786SOL     OW15256   1.708   5.894   0.090
 4786SOL    HW115257   1.720   5.993   0.098
 4786SOL    HW215258   1.647   5.861   0.162
 4787SOL     OW15259   4.843   1.041   4.832
 4787SOL    HW115260   4.937   1.006   4.830
 4787SOL    HW215261   4.844   1.137   4.859
 4788SOL     OW15262   6.598   6.226   1.319
 4788SOL    HW115263   6.674   6.160   1.320
 4788SOL    HW215264   6.623   6.303   1.261
 4789SOL     OW15265   6.385   1.368   2.359
 4789SOL    HW115266   6.373   1.318   2.273
 4789SOL    HW215267   6.459   1.434   2.350
 4790SOL     OW15268   0.437   2.676   5.708
 4790SOL    HW115269   0.404   2.688   5.801
 4790SOL    HW215270   0.369   2.626   5.654
 4791SOL     OW15271   0.824   0.667   6.689
 4791SOL    HW115272   0.738   0.704   6.655
 4791SOL    HW215273   0.808   0.618   6.775
 4792SOL     OW15274   0.629   3.638   1.350
 4792SOL    HW115275   0.561   3.652   1.422
 4792SOL    HW215276   0.608   3.697   1.272
 4793SOL     OW15277   0.768   3.049   5.190
 4793SOL    HW115278   0.825   3.131   5.198
 4793SOL    HW215279   0.782   3.008   5.099
 4794SOL     OW15280   5.300   0.857   6.696
 4794SOL    HW115281   5.349   0.811   6.623
 4794SOL    HW215282   5.363   0.915   6.747
 4795SOL     OW15283   6.745   0.198   6.868
 4795SOL    HW115284   6.740   0.112   6.919
 4795SOL    HW215285   6.671   0.202   6.801
 4796SOL     OW15286   5.759   0.821   6.016
 4796SOL    HW115287   5.751   0.765   5.934
 4796SOL    HW215288   5.733   0.766   6.096
 4797SOL     OW15289   3.034   4.670   5.590
 4797SOL    HW115290   3.128   4.701   5.604
 4797SOL    HW215291   2.981   4.685   5.673
 4798SOL     OW15292   3.505   5.909   0.160
 4798SOL    HW115293   3.508   5.813   0.186
 4798SOL    HW215294   3.571   5.926   0.086
 4799SOL     OW15295   4.464   4.073   1.132
 4799SOL    HW115296   4.472   4.109   1.039
 4799SOL    HW215297   4.549   4.089   1.182
 4800SOL     OW15298   0.909   5.170   0.454
 4800SOL    HW115299   0.889   5.080   0.415
 4800SOL    HW215300   1.006   5.190   0.444
 4801SOL     OW15301   4.984   3.516   3.673
 4801SOL    HW115302   5.079   3.545   3.682
 4801SOL    HW215303   4.928   3.595   3.647
 4802SOL     OW15304   6.834   0.842   5.244
 4802SOL    HW115305   6.749   0.894   5.257
 4802SOL    HW215306   6.834   0.764   5.307
 4803SOL     OW15307   5.302   3.530   5.663
 4803SOL    HW115308   5.351   3.514   5.749
 4803SOL    HW215309   5.340   3.471   5.592
 4804SOL     OW15310   5.382   3.249   0.896
 4804SOL    HW115311   5.424   3.331   0.858
 4804SOL    HW215312   5.412   3.169   0.844
 4805SOL     OW15313   5.922   0.644   6.520
 4805SOL    HW115314   5.847   0.711   6.519
 4805SOL    HW215315   5.948   0.626   6.615
 4806SOL     OW15316   1.631   2.992   3.700
 4806SOL    HW115317   1.562   3.036   3.643
 4806SOL    HW215318   1.713   2.972   3.646
 4807SOL     OW15319   1.161   3.856   0.357
 4807SOL    HW115320   1.146   3.909   0.274
 4807SOL    HW215321   1.246   3.803   0.348
 4808SOL     OW15322   3.158   6.668   2.972
 4808SOL    HW115323   3.136   6.624   2.885
 4808SOL    HW215324   3.251   6.645   2.999
 4809SOL     OW15325   2.509   4.149   0.321
 4809SOL    HW115326   2.508   4.226   0.257
 4809SOL    HW215327   2.492   4.064   0.271
 4810SOL     OW15328   1.972   4.941   5.051
 4810SOL    HW115329   1.973   4.863   5.113
 4810SOL    HW215330   2.014   5.020   5.095
 4811SOL     OW15331   3.133   3.192   4.728
 4811SOL    HW115332   3.092   3.178   4.638
 4811SOL    HW215333   3.091   3.272   4.771
 4812SOL     OW15334   2.563   6.840   1.726
 4812SOL    HW115335   2.550   6.850   1.627
 4812SOL    HW215336   2.559   6.743   1.750
 4813SOL     OW15337   1.143   2.678   4.618
 4813SOL    HW115338   1.230   2.727   4.624
 4813SOL    HW215339   1.131   2.642   4.525
 4814SOL     OW15340   4.733   1.162   0.940
 4814SOL    HW115341   4.743   1.076   0.990
 4814SOL    HW215342   4.659   1.216   0.980
 4815SOL     OW15343   6.647   4.503   2.893
 4815SOL    HW115344   6.689   4.459   2.972
 4815SOL    HW215345   6.578   4.442   2.853
 4816SOL     OW15346   2.307   0.771   2.672
 4816SOL    HW115347   2.394   0.753   2.718
 4816SOL    HW215348   2.323   0.823   2.588
 4817SOL     OW15349   4.042   3.203   0.414
 4817SOL    HW115350   3.959   3.217   0.361
 4817SOL    HW215351   4.030   3.126   0.476
 4818SOL     OW15352   4.782   6.557   5.293
 4818SOL    HW115353   4.702   6.500   5.273
 4818SOL    HW215354   4.845   6.553   5.215
 4819SOL     OW15355   3.327   0.818   0.502
 4819SOL    HW115356   3.365   0.735   0.462
 4819SOL    HW215357   3.401   0.873   0.541
 4820SOL     OW15358   0.410   5.006   1.597
 4820SOL    HW115359   0.400   5.055   1.684
 4820SOL    HW215360   0.320   4.985   1.560
 4821SOL     OW15361   6.794   6.221   1.709
 4821SOL    HW115362   6.890   6.223   1.682
 4821SOL    HW215363   6.745   6.295   1.663
 4822SOL     OW15364   0.220   3.965   1.692
 4822SOL    HW115365   0.309   3.961   1.737
 4822SOL    HW215366   0.223   3.911   1.608
 4823SOL     OW15367   0.272   2.185   2.824
 4823SOL    HW115368   0.246   2.186   2.728
 4823SOL    HW215369   0.279   2.279   2.858
 4824SOL     OW15370   4.638   1.887   2.503
 4824SOL    HW115371   4.657   1.826   2.427
 4824SOL    HW215372   4.656   1.982   2.476
 4825SOL     OW15373   2.089   3.493   4.921
 4825SOL    HW115374   2.093   3.491   5.021
 4825SOL    HW215375   2.001   3.458   4.890
 4826SOL     OW15376   0.420   6.636   0.364
 4826SOL    HW115377   0.426   6.537   0.347
 4826SOL    HW215378   0.502   6.681   0.328
 4827SOL     OW15379   5.121   0.975   6.908
 4827SOL    HW115380   5.174   0.964   6.992
 4827SOL    HW215381   5.178   0.949   6.830
 4828SOL     OW15382   6.057   2.893   6.568
 4828SOL    HW115383   6.132   2.932   6.622
 4828SOL    HW215384   6.089   2.812   6.520
 4829SOL     OW15385   2.692   0.586   5.782
 4829SOL    HW115386   2.766   0.519   5.794
 4829SOL    HW215387   2.689   0.646   5.862
 4830SOL     OW15388   4.715   4.524   4.483
 4830SOL    HW115389   4.694   4.499   4.577
 4830SOL    HW215390   4.631   4.520   4.428
 4831SOL     OW15391   6.330   2.233   6.408
 4831SOL    HW115392   6.354   2.326   6.379
 4831SOL    HW215393   6.337   2.171   6.330
 4832SOL     OW15394   1.529   2.669   6.632
 4832SOL    HW115395   1.525   2.570   6.650
 4832SOL    HW215396   1.575   2.685   6.545
 4833SOL     OW15397   6.619   2.892   2.851
 4833SOL    HW115398   6.564   2.912   2.770
 4833SOL    HW215399   6.715   2.880   2.824
 4834SOL     OW15400   5.715   0.902   2.620
 4834SOL    HW115401   5.674   0.893   2.711
 4834SOL    HW215402   5.694   0.992   2.583
 4835SOL     OW15403   2.096   1.551   6.091
 4835SOL    HW115404   2.020   1.608   6.058
 4835SOL    HW215405   2.073   1.455   6.079
 4836SOL     OW15406   6.010   4.555   3.407
 4836SOL    HW115407   6.044   4.492   3.478
 4836SOL    HW215408   5.910   4.554   3.406
 4837SOL     OW15409   0.164   4.965   1.481
 4837SOL    HW115410   0.082   5.004   1.439
 4837SOL    HW215411   0.173   4.869   1.453
 4838SOL     OW15412   2.709   6.277   2.744
 4838SOL    HW115413   2.770   6.340   2.792
 4838SOL    HW215414   2.657   6.223   2.811
 4839SOL     OW15415   0.712   6.871   6.241
 4839SOL    HW115416   0.656   6.945   6.203
 4839SOL    HW215417   0.804   6.906   6.261
 4840SOL     OW15418   6.730   5.587   5.960
 4840SOL    HW115419   6.648   5.548   6.002
 4840SOL    HW215420   6.743   5.680   5.992
 4841SOL     OW15421   1.848   5.555   1.381
 4841SOL    HW115422   1.823   5.637   1.328
 4841SOL    HW215423   1.946   5.537   1.370
 4842SOL     OW15424   3.316   6.664   0.620
 4842SOL    HW115425   3.349   6.751   0.656
 4842SOL    HW215426   3.382   6.592   0.643
 4843SOL     OW15427   1.736   3.902   0.330
 4843SOL    HW115428   1.790   3.848   0.265
 4843SOL    HW215429   1.683   3.970   0.281
 4844SOL     OW15430   0.330   1.197   4.921
 4844SOL    HW115431   0.266   1.125   4.893
 4844SOL    HW215432   0.279   1.280   4.944
 4845SOL     OW15433   5.734   6.810   3.329
 4845SOL    HW115434   5.753   6.757   3.246
 4845SOL    HW215435   5.638   6.838   3.329
 4846SOL     OW15436   6.461   4.538   5.684
 4846SOL    HW115437   6.497   4.631   5.698
 4846SOL    HW215438   6.536   4.477   5.658
 4847SOL     OW15439   4.951   3.277   4.716
 4847SOL    HW115440   4.928   3.274   4.618
 4847SOL    HW215441   5.027   3.214   4.734
 4848SOL     OW15442   3.136   3.557   1.124
 4848SOL    HW115443   3.136   3.601   1.214
 4848SOL    HW215444   3.088   3.615   1.058
 4849SOL     OW15445   2.188   6.151   6.432
 4849SOL    HW115446   2.229   6.075   6.482
 4849SOL    HW215447   2.250   6.229   6.433
 4850SOL     OW15448   3.368   6.850   2.690
 4850SOL    HW115449   3.465   6.875   2.689
 4850SOL    HW215450   3.313   6.927   2.722
 4851SOL     OW15451   5.596   1.220   5.412
 4851SOL    HW115452   5.496   1.219   5.420
 4851SOL    HW215453   5.636   1.250   5.498
 4852SOL     OW15454   1.310   1.932   1.594
 4852SOL    HW115455   1.278   1.844   1.560
 4852SOL    HW215456   1.400   1.952   1.557
 4853SOL     OW15457   3.518   0.842   1.335
 4853SOL    HW115458   3.609   0.801   1.335
 4853SOL    HW215459   3.456   0.787   1.391
 4854SOL     OW15460   4.063   6.944   5.725
 4854SOL    HW115461   4.151   6.904   5.753
 4854SOL    HW215462   3.989   6.901   5.777
 4855SOL     OW15463   0.508   2.607   2.650
 4855SOL    HW115464   0.526   2.657   2.564
 4855SOL    HW215465   0.496   2.510   2.630
 4856SOL     OW15466   0.294   4.876   2.763
 4856SOL    HW115467   0.258   4.833   2.846
 4856SOL    HW215468   0.345   4.809   2.710
 4857SOL     OW15469   0.319   0.926   5.369
 4857SOL    HW115470   0.287   0.924   5.463
 4857SOL    HW215471   0.241   0.932   5.307
 4858SOL     OW15472   1.476   0.500   3.591
 4858SOL    HW115473   1.394   0.556   3.577
 4858SOL    HW215474   1.522   0.529   3.675
 4859SOL     OW15475   3.402   6.667   6.134
 4859SOL    HW115476   3.331   6.599   6.113
 4859SOL    HW215477   3.486   6.644   6.084
 4860SOL     OW15478   3.251   5.293   0.259
 4860SOL    HW115479   3.168   5.236   0.259
 4860SOL    HW215480   3.323   5.246   0.310
 4861SOL     OW15481   4.015   4.188   6.199
 4861SOL    HW115482   3.957   4.251   6.252
 4861SOL    HW215483   4.037   4.108   6.256
 4862SOL     OW15484   2.307   6.946   0.509
 4862SOL    HW115485   2.324   6.848   0.498
 4862SOL    HW215486   2.380   6.987   0.563
 4863SOL     OW15487   5.460   3.788   6.064
 4863SOL    HW115488   5.444   3.834   6.151
 4863SOL    HW215489   5.386   3.811   6.001
 4864SOL     OW15490   3.308   1.217   4.168
 4864SOL    HW115491   3.256   1.264   4.097
 4864SOL    HW215492   3.397   1.188   4.131
 4865SOL     OW15493   1.219   6.429   5.152
 4865SOL    HW115494   1.211   6.364   5.228
 4865SOL    HW215495   1.212   6.379   5.065
 4866SOL     OW15496   6.886   4.301   5.806
 4866SOL    HW115497   6.867   4.256   5.719
 4866SOL    HW215498   6.950   4.246   5.858
 4867SOL     OW15499   3.839   0.758   3.215
 4867SOL    HW115500   3.829   0.778   3.118
 4867SOL    HW215501   3.880   0.836   3.262
 4868SOL     OW15502   0.570   5.680   1.152
 4868SOL    HW115503   0.636   5.639   1.090
 4868SOL    HW215504   0.612   5.694   1.242
 4869SOL     OW15505   0.135   1.565   0.745
 4869SOL    HW115506   0.199   1.615   0.803
 4869SOL    HW215507   0.086   1.630   0.687
 4870SOL     OW15508   0.608   6.901   1.289
 4870SOL    HW115509   0.594   6.865   1.196
 4870SOL    HW215510   0.702   6.933   1.299
 4871SOL     OW15511   0.506   1.975   3.851
 4871SOL    HW115512   0.457   1.933   3.927
 4871SOL    HW215513   0.450   1.971   3.768
 4872SOL     OW15514   5.813   0.020   3.172
 4872SOL    HW115515   5.889   0.084   3.155
 4872SOL    HW215516   5.841   6.980   3.242
 4873SOL     OW15517   0.117   5.879   3.751
 4873SOL    HW115518   0.058   5.816   3.700
 4873SOL    HW215519   0.069   5.967   3.761
 4874SOL     OW15520   6.058   4.582   2.164
 4874SOL    HW115521   6.100   4.631   2.241
 4874SOL    HW215522   6.033   4.490   2.193
 4875SOL     OW15523   6.545   6.697   4.151
 4875SOL    HW115524   6.601   6.738   4.224
 4875SOL    HW215525   6.503   6.613   4.185
 4876SOL     OW15526   6.609   1.466   2.226
 4876SOL    HW115527   6.698   1.455   2.181
 4876SOL    HW215528   6.548   1.519   2.167
 4877SOL     OW15529   0.311   1.693   0.025
 4877SOL    HW115530   0.359   1.615   7.010
 4877SOL    HW215531   0.224   1.706   7.003
 4878SOL     OW15532   5.797   4.468   4.080
 4878SOL    HW115533   5.891   4.447   4.051
 4878SOL    HW215534   5.751   4.521   4.009
 4879SOL     OW15535   5.890   0.594   3.059
 4879SOL    HW115536   5.905   0.529   3.134
 4879SOL    HW215537   5.975   0.642   3.038
 4880SOL     OW15538   0.045   2.794   6.433
 4880SOL    HW115539   0.083   2.734   6.363
 4880SOL    HW215540   0.120   2.830   6.489
 4881SOL     OW15541   6.898   3.736   2.060
 4881SOL    HW115542   6.807   3.713   2.094
 4881SOL    HW215543   6.918   3.682   1.979
 4882SOL     OW15544   5.109   2.303   4.644
 4882SOL    HW115545   5.162   2.347   4.571
 4882SOL    HW215546   5.106   2.205   4.627
 4883SOL     OW15547   0.127   4.107   6.198
 4883SOL    HW115548   0.157   4.070   6.286
 4883SOL    HW215549   0.030   4.088   6.185
 4884SOL     OW15550   1.872   2.099   2.195
 4884SOL    HW115551   1.874   2.029   2.123
 4884SOL    HW215552   1.777   2.121   2.217
 4885SOL     OW15553   1.072   5.687   6.851
 4885SOL    HW115554   1.068   5.762   6.917
 4885SOL    HW215555   1.111   5.721   6.765
 4886SOL     OW15556   3.077   0.980   2.393
 4886SOL    HW115557   3.116   1.069   2.371
 4886SOL    HW215558   3.003   0.958   2.329
 4887SOL     OW15559   4.887   5.600   0.437
 4887SOL    HW115560   4.825   5.572   0.363
 4887SOL    HW215561   4.861   5.553   0.522
 4888SOL     OW15562   4.503   0.038   2.681
 4888SOL    HW115563   4.550   0.074   2.600
 4888SOL    HW215564   4.488   0.111   2.747
 4889SOL     OW15565   5.647   3.691   3.716
 4889SOL    HW115566   5.714   3.760   3.688
 4889SOL    HW215567   5.616   3.641   3.636
 4890SOL     OW15568   6.293   2.275   4.638
 4890SOL    HW115569   6.203   2.233   4.628
 4890SOL    HW215570   6.319   2.320   4.553
 4891SOL     OW15571   2.041   5.328   0.483
 4891SOL    HW115572   2.020   5.252   0.545
 4891SOL    HW215573   1.982   5.405   0.504
 4892SOL     OW15574   4.987   5.034   1.971
 4892SOL    HW115575   4.888   5.024   1.981
 4892SOL    HW215576   5.007   5.098   1.896
 4893SOL     OW15577   1.959   2.364   1.376
 4893SOL    HW115578   1.940   2.380   1.473
 4893SOL    HW215579   2.043   2.310   1.368
 4894SOL     OW15580   5.109   6.326   0.355
 4894SOL    HW115581   5.151   6.296   0.269
 4894SOL    HW215582   5.023   6.277   0.368
 4895SOL     OW15583   6.263   3.280   5.086
 4895SOL    HW115584   6.340   3.343   5.098
 4895SOL    HW215585   6.290   3.205   5.025
 4896SOL     OW15586   2.548   5.069   4.787
 4896SOL    HW115587   2.577   5.059   4.883
 4896SOL    HW215588   2.601   5.141   4.743
 4897SOL     OW15589   2.208   1.911   5.869
 4897SOL    HW115590   2.228   1.852   5.947
 4897SOL    HW215591   2.289   1.919   5.811
 4898SOL     OW15592   4.166   2.293   3.589
 4898SOL    HW115593   4.165   2.194   3.604
 4898SOL    HW215594   4.260   2.323   3.572
 4899SOL     OW15595   6.563   6.734   1.392
 4899SOL    HW115596   6.657   6.746   1.358
 4899SOL    HW215597   6.563   6.743   1.492
 4900SOL     OW15598   3.634   5.628   6.208
 4900SOL    HW115599   3.675   5.583   6.288
 4900SOL    HW215600   3.624   5.561   6.134
 4901SOL     OW15601   2.112   0.737   6.884
 4901SOL    HW115602   2.115   0.651   6.935
 4901SOL    HW215603   2.174   0.804   6.926
 4902SOL     OW15604   2.033   0.245   5.450
 4902SOL    HW115605   2.055   0.322   5.391
 4902SOL    HW215606   1.941   0.258   5.489
 4903SOL     OW15607   4.959   3.913   2.315
 4903SOL    HW115608   4.896   3.942   2.242
 4903SOL    HW215609   4.978   3.815   2.305
 4904SOL     OW15610   2.315   0.638   1.838
 4904SOL    HW115611   2.302   0.678   1.929
 4904SOL    HW215612   2.227   0.631   1.793
 4905SOL     OW15613   2.342   1.532   2.174
 4905SOL    HW115614   2.279   1.455   2.187
 4905SOL    HW215615   2.289   1.615   2.158
 4906SOL     OW15616   5.142   3.071   4.733
 4906SOL    HW115617   5.122   3.028   4.645
 4906SOL    HW215618   5.240   3.084   4.742
 4907SOL     OW15619   4.028   2.818   0.638
 4907SOL    HW115620   4.092   2.888   0.606
 4907SOL    HW215621   4.078   2.733   0.654
 4908SOL     OW15622   2.518   6.355   6.094
 4908SOL    HW115623   2.611   6.340   6.129
 4908SOL    HW215624   2.454   6.299   6.147
 4909SOL     OW15625   4.842   5.974   4.603
 4909SOL    HW115626   4.823   5.909   4.529
 4909SOL    HW215627   4.817   5.933   4.690
 4910SOL     OW15628   4.509   1.831   6.714
 4910SOL    HW115629   4.485   1.855   6.808
 4910SOL    HW215630   4.591   1.774   6.715
 4911SOL     OW15631   6.751   4.359   3.175
 4911SOL    HW115632   6.849   4.371   3.188
 4911SOL    HW215633   6.702   4.405   3.249
 4912SOL     OW15634   5.867   3.022   4.168
 4912SOL    HW115635   5.909   2.985   4.250
 4912SOL    HW215636   5.909   3.110   4.145
 4913SOL     OW15637   0.914   3.803   5.817
 4913SOL    HW115638   0.853   3.860   5.761
 4913SOL    HW215639   0.957   3.734   5.759
 4914SOL     OW15640   3.319   6.933   4.014
 4914SOL    HW115641   3.247   6.924   4.084
 4914SOL    HW215642   3.321   6.851   3.958
 4915SOL     OW15643   4.586   5.538   5.132
 4915SOL    HW115644   4.506   5.519   5.188
 4915SOL    HW215645   4.556   5.570   5.042
 4916SOL     OW15646   5.561   2.718   3.587
 4916SOL    HW115647   5.586   2.807   3.623
 4916SOL    HW215648   5.471   2.692   3.621
 4917SOL     OW15649   4.952   6.755   6.911
 4917SOL    HW115650   5.031   6.815   6.926
 4917SOL    HW215651   4.884   6.803   6.856
 4918SOL     OW15652   4.983   6.178   3.706
 4918SOL    HW115653   5.071   6.220   3.727
 4918SOL    HW215654   4.918   6.198   3.779
 4919SOL     OW15655   4.316   3.966   1.731
 4919SOL    HW115656   4.357   3.944   1.643
 4919SOL    HW215657   4.354   4.051   1.766
 4920SOL     OW15658   6.413   0.991   5.777
 4920SOL    HW115659   6.451   0.969   5.867
 4920SOL    HW215660   6.314   1.005   5.786
 4921SOL     OW15661   6.531   0.190   2.174
 4921SOL    HW115662   6.516   0.259   2.246
 4921SOL    HW215663   6.520   0.099   2.213
 4922SOL     OW15664   3.892   0.352   6.254
 4922SOL    HW115665   3.955   0.284   6.215
 4922SOL    HW215666   3.815   0.304   6.298
 4923SOL     OW15667   4.115   1.400   1.904
 4923SOL    HW115668   4.063   1.480   1.934
 4923SOL    HW215669   4.062   1.350   1.836
 4924SOL     OW15670   2.927   1.615   5.462
 4924SOL    HW115671   3.026   1.600   5.462
 4924SOL    HW215672   2.882   1.546   5.405
 4925SOL     OW15673   5.238   0.157   3.997
 4925SOL    HW115674   5.139   0.166   4.003
 4925SOL    HW215675   5.271   0.100   4.072
 4926SOL     OW15676   4.787   2.646   1.868
 4926SOL    HW115677   4.848   2.660   1.790
 4926SOL    HW215678   4.695   2.677   1.845
 4927SOL     OW15679   2.334   1.517   0.431
 4927SOL    HW115680   2.403   1.486   0.365
 4927SOL    HW215681   2.243   1.495   0.397
 4928SOL     OW15682   0.540   1.646   0.871
 4928SOL    HW115683   0.494   1.566   0.833
 4928SOL    HW215684   0.573   1.704   0.797
 4929SOL     OW15685   6.262   0.289   4.850
 4929SOL    HW115686   6.202   0.361   4.887
 4929SOL    HW215687   6.323   0.256   4.922
 4930SOL     OW15688   4.808   5.813   2.697
 4930SOL    HW115689   4.845   5.904   2.715
 4930SOL    HW215690   4.873   5.743   2.728
 4931SOL     OW15691   4.965   6.905   1.258
 4931SOL    HW115692   4.894   6.878   1.322
 4931SOL    HW215693   4.953   7.001   1.233
 4932SOL     OW15694   3.112   3.921   3.306
 4932SOL    HW115695   3.096   3.825   3.285
 4932SOL    HW215696   3.108   3.975   3.222
 4933SOL     OW15697   1.786   0.218   5.195
 4933SOL    HW115698   1.857   0.281   5.226
 4933SOL    HW215699   1.824   0.157   5.125
 4934SOL     OW15700   2.317   0.196   3.267
 4934SOL    HW115701   2.409   0.210   3.304
 4934SOL    HW215702   2.252   0.252   3.318
 4935SOL     OW15703   6.081   0.199   4.418
 4935SOL    HW115704   5.983   0.183   4.424
 4935SOL    HW215705   6.127   0.114   4.394
 4936SOL     OW15706   5.025   3.410   0.503
 4936SOL    HW115707   5.026   3.311   0.512
 4936SOL    HW215708   4.978   3.450   0.582
 4937SOL     OW15709   3.785   2.626   5.304
 4937SOL    HW115710   3.851   2.670   5.364
 4937SOL    HW215711   3.751   2.692   5.237
 4938SOL     OW15712   3.078   4.547   0.219
 4938SOL    HW115713   2.994   4.587   0.255
 4938SOL    HW215714   3.111   4.476   0.282
 4939SOL     OW15715   4.953   3.620   6.247
 4939SOL    HW115716   4.908   3.533   6.227
 4939SOL    HW215717   5.051   3.604   6.262
 4940SOL     OW15718   1.588   5.493   3.470
 4940SOL    HW115719   1.617   5.588   3.482
 4940SOL    HW215720   1.649   5.447   3.406
 4941SOL     OW15721   6.324   0.536   0.782
 4941SOL    HW115722   6.298   0.439   0.784
 4941SOL    HW215723   6.340   0.568   0.875
 4942SOL     OW15724   5.393   2.704   5.628
 4942SOL    HW115725   5.415   2.668   5.538
 4942SOL    HW215726   5.314   2.766   5.622
 4943SOL     OW15727   5.975   3.322   1.372
 4943SOL    HW115728   5.945   3.413   1.344
 4943SOL    HW215729   5.899   3.273   1.415
 4944SOL     OW15730   1.655   3.112   2.082
 4944SOL    HW115731   1.576   3.173   2.078
 4944SOL    HW215732   1.715   3.130   2.004
 4945SOL     OW15733   0.077   5.947   4.195
 4945SOL    HW115734   0.143   5.952   4.120
 4945SOL    HW215735   0.024   5.862   4.187
 4946SOL     OW15736   0.581   4.592   1.885
 4946SOL    HW115737   0.525   4.549   1.955
 4946SOL    HW215738   0.523   4.625   1.811
 4947SOL     OW15739   5.728   0.521   0.452
 4947SOL    HW115740   5.822   0.494   0.476
 4947SOL    HW215741   5.729   0.613   0.415
 4948SOL     OW15742   2.812   1.693   1.988
 4948SOL    HW115743   2.764   1.754   2.050
 4948SOL    HW215744   2.851   1.617   2.039
 4949SOL     OW15745   5.568   2.375   5.844
 4949SOL    HW115746   5.658   2.398   5.805
 4949SOL    HW215747   5.501   2.444   5.817
 4950SOL     OW15748   3.265   5.314   4.069
 4950SOL    HW115749   3.356   5.305   4.029
 4950SOL    HW215750   3.260   5.261   4.153
 4951SOL     OW15751   4.490   2.572   3.866
 4951SOL    HW115752   4.537   2.649   3.908
 4951SOL    HW215753   4.528   2.555   3.775
 4952SOL     OW15754   6.368   4.950   4.187
 4952SOL    HW115755   6.276   4.966   4.154
 4952SOL    HW215756   6.413   4.880   4.131
 4953SOL     OW15757   1.117   4.542   2.175
 4953SOL    HW115758   1.062   4.459   2.181
 4953SOL    HW215759   1.098   4.601   2.253
 4954SOL     OW15760   6.844   6.531   6.023
 4954SOL    HW115761   6.941   6.513   6.040
 4954SOL    HW215762   6.795   6.534   6.110
 4955SOL     OW15763   1.576   0.348   2.106
 4955SOL    HW115764   1.603   0.444   2.100
 4955SOL    HW215765   1.658   0.290   2.103
 4956SOL     OW15766   5.996   6.598   3.248
 4956SOL    HW115767   6.036   6.517   3.204
 4956SOL    HW215768   5.920   6.570   3.306
 4957SOL     OW15769   0.866   5.209   4.390
 4957SOL    HW115770   0.943   5.269   4.365
 4957SOL    HW215771   0.780   5.256   4.369
 4958SOL     OW15772   6.995   6.920   6.902
 4958SOL    HW115773   0.021   6.944   6.985
 4958SOL    HW215774   6.902   6.892   6.927
 4959SOL     OW15775   1.262   1.971   0.493
 4959SOL    HW115776   1.199   1.894   0.482
 4959SOL    HW215777   1.314   1.960   0.577
 4960SOL     OW15778   3.331   6.766   5.473
 4960SOL    HW115779   3.257   6.797   5.414
 4960SOL    HW215780   3.390   6.703   5.422
 4961SOL     OW15781   4.930   0.196   5.333
 4961SOL    HW115782   4.867   0.223   5.405
 4961SOL    HW215783   4.930   0.264   5.260
 4962SOL     OW15784   6.458   2.347   2.429
 4962SOL    HW115785   6.435   2.357   2.526
 4962SOL    HW215786   6.381   2.304   2.382
 4963SOL     OW15787   1.259   4.342   1.465
 4963SOL    HW115788   1.243   4.278   1.540
 4963SOL    HW215789   1.184   4.409   1.462
 4964SOL     OW15790   3.192   0.366   3.113
 4964SOL    HW115791   3.288   0.342   3.098
 4964SOL    HW215792   3.187   0.451   3.166
 4965SOL     OW15793   0.322   5.804   5.650
 4965SOL    HW115794   0.377   5.875   5.604
 4965SOL    HW215795   0.319   5.822   5.748
 4966SOL     OW15796   5.103   5.893   5.372
 4966SOL    HW115797   5.061   5.804   5.387
 4966SOL    HW215798   5.152   5.892   5.284
 4967SOL     OW15799   5.648   0.961   0.118
 4967SOL    HW115800   5.715   0.994   0.051
 4967SOL    HW215801   5.566   0.931   0.070
 4968SOL     OW15802   5.693   4.071   6.458
 4968SOL    HW115803   5.723   4.076   6.363
 4968SOL    HW215804   5.767   4.106   6.517
 4969SOL     OW15805   1.231   0.753   1.358
 4969SOL    HW115806   1.135   0.731   1.375
 4969SOL    HW215807   1.250   0.748   1.260
 4970SOL     OW15808   2.031   2.072   6.542
 4970SOL    HW115809   2.100   2.000   6.536
 4970SOL    HW215810   2.049   2.129   6.623
 4971SOL     OW15811   6.364   5.503   3.774
 4971SOL    HW115812   6.457   5.477   3.750
 4971SOL    HW215813   6.338   5.586   3.726
 4972SOL     OW15814   1.787   2.308   4.754
 4972SOL    HW115815   1.706   2.341   4.804
 4972SOL    HW215816   1.758   2.271   4.665
 4973SOL     OW15817   4.955   5.524   3.084
 4973SOL    HW115818   4.888   5.515   3.010
 4973SOL    HW215819   5.002   5.612   3.076
 4974SOL     OW15820   3.905   6.580   6.322
 4974SOL    HW115821   3.870   6.643   6.252
 4974SOL    HW215822   4.004   6.593   6.332
 4975SOL     OW15823   3.919   6.068   6.699
 4975SOL    HW115824   3.838   6.085   6.754
 4975SOL    HW215825   3.943   6.151   6.648
 4976SOL     OW15826   2.382   1.505   4.935
 4976SOL    HW115827   2.424   1.431   4.882
 4976SOL    HW215828   2.323   1.466   5.006
 4977SOL     OW15829   4.150   3.591   1.931
 4977SOL    HW115830   4.193   3.556   1.848
 4977SOL    HW215831   4.128   3.688   1.919
 4978SOL     OW15832   6.355   3.638   6.254
 4978SOL    HW115833   6.447   3.662   6.284
 4978SOL    HW215834   6.353   3.624   6.156
 4979SOL     OW15835   1.500   2.190   3.742
 4979SOL    HW115836   1.505   2.090   3.730
 4979SOL    HW215837   1.414   2.213   3.788
 4980SOL     OW15838   2.443   4.770   2.754
 4980SOL    HW115839   2.500   4.829   2.811
 4980SOL    HW215840   2.418   4.818   2.671
 4981SOL     OW15841   5.257   5.873   5.159
 4981SOL    HW115842   5.309   5.801   5.204
 4981SOL    HW215843   5.310   5.909   5.081
 4982SOL     OW15844   2.702   0.858   6.940
 4982SOL    HW115845   2.692   0.905   0.002
 4982SOL    HW215846   2.615   0.860   6.891
 4983SOL     OW15847   6.958   2.217   4.135
 4983SOL    HW115848   6.953   2.133   4.189
 4983SOL    HW215849   6.884   2.219   4.069
 4984SOL     OW15850   4.799   5.076   3.603
 4984SOL    HW115851   4.841   5.166   3.591
 4984SOL    HW215852   4.721   5.067   3.542
 4985SOL     OW15853   5.967   3.698   1.544
 4985SOL    HW115854   5.966   3.767   1.616
 4985SOL    HW215855   5.973   3.742   1.455
 4986SOL     OW15856   4.156   4.847   3.722
 4986SOL    HW115857   4.119   4.938   3.740
 4986SOL    HW215858   4.117   4.811   3.637
 4987SOL     OW15859   1.027   2.743   0.013
 4987SOL    HW115860   0.958   2.676   7.010
 4987SOL    HW215861   0.982   2.819   0.060
 4988SOL     OW15862   2.573   1.993   5.003
 4988SOL    HW115863   2.652   2.006   5.063
 4988SOL    HW215864   2.494   2.039   5.043
 4989SOL     OW15865   0.331   0.770   1.241
 4989SOL    HW115866   0.305   0.681   1.278
 4989SOL    HW215867   0.383   0.821   1.309
 4990SOL     OW15868   2.053   2.177   0.164
 4990SOL    HW115869   2.151   2.164   0.157
 4990SOL    HW215870   2.019   2.131   0.246
 4991SOL     OW15871   2.520   1.688   5.907
 4991SOL    HW115872   2.435   1.700   5.957
 4991SOL    HW215873   2.593   1.742   5.950
 4992SOL     OW15874   4.024   7.023   4.525
 4992SOL    HW115875   4.023   6.964   4.444
 4992SOL    HW215876   4.112   0.045   4.530
 4993SOL     OW15877   1.582   6.678   5.020
 4993SOL    HW115878   1.516   6.603   5.012
 4993SOL    HW215879   1.603   6.714   4.929
 4994SOL     OW15880   0.315   5.759   3.613
 4994SOL    HW115881   0.294   5.661   3.622
 4994SOL    HW215882   0.237   5.812   3.647
 4995SOL     OW15883   5.470   2.791   5.169
 4995SOL    HW115884   5.373   2.782   5.144
 4995SOL    HW215885   5.487   2.740   5.253
 4996SOL     OW15886   0.628   1.865   4.221
 4996SOL    HW115887   0.704   1.803   4.240
 4996SOL    HW215888   0.541   1.821   4.241
 4997SOL     OW15889   0.120   2.151   3.690
 4997SOL    HW115890   0.063   2.118   3.765
 4997SOL    HW215891   0.067   2.212   3.631
 4998SOL     OW15892   1.440   5.758   5.917
 4998SOL    HW115893   1.451   5.743   5.819
 4998SOL    HW215894   1.460   5.853   5.939
 4999SOL     OW15895   5.736   5.065   0.786
 4999SOL    HW115896   5.749   4.979   0.834
 4999SOL    HW215897   5.686   5.129   0.844
 5000SOL     OW15898   6.158   5.578   3.955
 5000SOL    HW115899   6.069   5.602   3.916
 5000SOL    HW215900   6.211   5.526   3.888
 5001SOL     OW15901   4.941   3.472   5.322
 5001SOL    HW115902   5.038   3.471   5.348
 5001SOL    HW215903   4.892   3.403   5.374
 5002SOL     OW15904   1.562   2.274   1.759
 5002SOL    HW115905   1.636   2.276   1.826
 5002SOL    HW215906   1.595   2.314   1.673
 5003SOL     OW15907   6.534   5.485   4.513
 5003SOL    HW115908   6.471   5.488   4.590
 5003SOL    HW215909   6.573   5.393   4.505
 5004SOL     OW15910   2.365   4.420   5.935
 5004SOL    HW115911   2.419   4.337   5.951
 5004SOL    HW215912   2.353   4.434   5.837
 5005SOL     OW15913   5.220   2.347   0.152
 5005SOL    HW115914   5.289   2.417   0.138
 5005SOL    HW215915   5.228   2.310   0.244
 5006SOL     OW15916   4.211   5.012   1.887
 5006SOL    HW115917   4.289   5.022   1.950
 5006SOL    HW215918   4.126   5.009   1.940
 5007SOL     OW15919   4.187   1.288   4.523
 5007SOL    HW115920   4.221   1.195   4.534
 5007SOL    HW215921   4.150   1.321   4.610
 5008SOL     OW15922   6.056   1.939   4.141
 5008SOL    HW115923   5.972   1.983   4.172
 5008SOL    HW215924   6.112   2.004   4.091
 5009SOL     OW15925   2.654   6.507   2.083
 5009SOL    HW115926   2.572   6.551   2.120
 5009SOL    HW215927   2.654   6.410   2.109
 5010SOL     OW15928   3.236   3.565   6.013
 5010SOL    HW115929   3.303   3.637   6.030
 5010SOL    HW215930   3.283   3.480   5.989
 5011SOL     OW15931   1.462   1.747   4.260
 5011SOL    HW115932   1.379   1.794   4.291
 5011SOL    HW215933   1.541   1.807   4.272
 5012SOL     OW15934   6.204   2.536   6.864
 5012SOL    HW115935   6.183   2.625   6.903
 5012SOL    HW215936   6.287   2.542   6.808
 5013SOL     OW15937   4.942   1.424   5.126
 5013SOL    HW115938   4.892   1.366   5.190
 5013SOL    HW215939   5.031   1.448   5.166
 5014SOL     OW15940   0.213   4.526   6.478
 5014SOL    HW115941   0.148   4.583   6.427
 5014SOL    HW215942   0.289   4.582   6.509
 5015SOL     OW15943   4.968   1.953   4.123
 5015SOL    HW115944   5.061   1.936   4.158
 5015SOL    HW215945   4.902   1.901   4.178
 5016SOL     OW15946   2.608   5.765   1.806
 5016SOL    HW115947   2.642   5.720   1.889
 5016SOL    HW215948   2.659   5.850   1.791
 5017SOL     OW15949   7.011   2.235   1.512
 5017SOL    HW115950   6.952   2.299   1.463
 5017SOL    HW215951   0.002   2.269   1.605
 5018SOL     OW15952   6.359   5.374   4.036
 5018SOL    HW115953   6.302   5.424   4.102
 5018SOL    HW215954   6.388   5.436   3.964
 5019SOL     OW15955   2.921   5.427   4.681
 5019SOL    HW115956   2.943   5.513   4.729
 5019SOL    HW215957   2.931   5.350   4.745
 5020SOL     OW15958   4.355   5.112   7.000
 5020SOL    HW115959   4.266   5.125   6.957
 5020SOL    HW215960   4.369   5.181   0.045
 5021SOL     OW15961   2.430   4.753   5.625
 5021SOL    HW115962   2.371   4.810   5.568
 5021SOL    HW215963   2.440   4.663   5.584
 5022SOL     OW15964   1.600   3.156   6.570
 5022SOL    HW115965   1.668   3.097   6.614
 5022SOL    HW215966   1.634   3.250   6.568
 5023SOL     OW15967   6.471   3.576   3.853
 5023SOL    HW115968   6.537   3.539   3.788
 5023SOL    HW215969   6.515   3.591   3.941
 5024SOL     OW15970   4.775   3.910   5.246
 5024SOL    HW115971   4.716   3.940   5.321
 5024SOL    HW215972   4.737   3.941   5.159
 5025SOL     OW15973   5.601   0.528   5.335
 5025SOL    HW115974   5.617   0.437   5.297
 5025SOL    HW215975   5.502   0.543   5.343
 5026SOL     OW15976   1.089   5.754   2.713
 5026SOL    HW115977   0.998   5.792   2.700
 5026SOL    HW215978   1.143   5.768   2.630
 5027SOL     OW15979   1.087   5.433   3.653
 5027SOL    HW115980   1.168   5.414   3.596
 5027SOL    HW215981   1.014   5.369   3.629
 5028SOL     OW15982   1.134   6.438   2.682
 5028SOL    HW115983   1.044   6.469   2.652
 5028SOL    HW215984   1.147   6.343   2.653
 5029SOL     OW15985   5.830   0.625   4.758
 5029SOL    HW115986   5.853   0.532   4.730
 5029SOL    HW215987   5.747   0.655   4.710
 5030SOL     OW15988   1.201   6.061   0.440
 5030SOL    HW115989   1.133   6.126   0.474
 5030SOL    HW215990   1.190   6.051   0.341
 5031SOL     OW15991   5.265   0.610   0.038
 5031SOL    HW115992   5.205   0.543   0.081
 5031SOL    HW215993   5.236   0.625   6.969
 5032SOL     OW15994   1.761   5.410   2.292
 5032SOL    HW115995   1.683   5.350   2.278
 5032SOL    HW215996   1.839   5.378   2.238
 5033SOL     OW15997   0.893   4.266   4.580
 5033SOL    HW115998   0.873   4.290   4.675
 5033SOL    HW215999   0.907   4.167   4.573
 5034SOL     OW16000   0.840   2.624   6.053
 5034SOL    HW116001   0.831   2.719   6.082
 5034SOL    HW216002   0.903   2.618   5.976
 5035SOL     OW16003   6.745   5.140   0.688
 5035SOL    HW116004   6.749   5.087   0.772
 5035SOL    HW216005   6.676   5.102   0.627
 5036SOL     OW16006   1.292   1.501   2.776
 5036SOL    HW116007   1.226   1.543   2.838
 5036SOL    HW216008   1.384   1.511   2.813
 5037SOL     OW16009   5.441   4.064   1.172
 5037SOL    HW116010   5.346   4.056   1.201
 5037SOL    HW216011   5.501   4.034   1.247
 5038SOL     OW16012   3.144   5.652   5.930
 5038SOL    HW116013   3.242   5.636   5.943
 5038SOL    HW216014   3.128   5.686   5.837
 5039SOL     OW16015   0.993   2.781   3.575
 5039SOL    HW116016   0.894   2.766   3.565
 5039SOL    HW216017   1.009   2.850   3.646
 5040SOL     OW16018   2.198   3.550   6.723
 5040SOL    HW116019   2.281   3.547   6.667
 5040SOL    HW216020   2.120   3.520   6.668
 5041SOL     OW16021   0.371   5.977   0.387
 5041SOL    HW116022   0.445   6.009   0.328
 5041SOL    HW216023   0.343   5.885   0.359
 5042SOL     OW16024   5.943   1.439   6.358
 5042SOL    HW116025   5.858   1.400   6.394
 5042SOL    HW216026   6.009   1.366   6.342
 5043SOL     OW16027   5.759   6.305   3.927
 5043SOL    HW116028   5.741   6.206   3.927
 5043SOL    HW216029   5.742   6.341   3.835
 5044SOL     OW16030   6.394   4.294   1.923
 5044SOL    HW116031   6.373   4.206   1.879
 5044SOL    HW216032   6.362   4.369   1.865
 5045SOL     OW16033   4.774   3.009   5.700
 5045SOL    HW116034   4.782   3.106   5.678
 5045SOL    HW216035   4.824   2.990   5.784
 5046SOL     OW16036   3.812   2.913   5.932
 5046SOL    HW116037   3.789   2.819   5.960
 5046SOL    HW216038   3.798   2.974   6.010
 5047SOL     OW16039   0.406   2.160   2.026
 5047SOL    HW116040   0.458   2.244   2.008
 5047SOL    HW216041   0.411   2.099   1.947
 5048SOL     OW16042   6.079   4.022   0.868
 5048SOL    HW116043   6.083   4.024   0.968
 5048SOL    HW216044   5.999   4.074   0.837
 5049SOL     OW16045   0.670   0.759   1.313
 5049SOL    HW116046   0.685   0.715   1.224
 5049SOL    HW216047   0.689   0.693   1.386
 5050SOL     OW16048   1.827   3.811   0.555
 5050SOL    HW116049   1.918   3.770   0.542
 5050SOL    HW216050   1.796   3.849   0.468
 5051SOL     OW16051   2.281   3.978   5.970
 5051SOL    HW116052   2.329   3.948   6.052
 5051SOL    HW216053   2.216   4.050   5.994
 5052SOL     OW16054   6.105   3.146   1.175
 5052SOL    HW116055   6.078   3.064   1.124
 5052SOL    HW216056   6.031   3.173   1.236
 5053SOL     OW16057   1.115   3.801   1.260
 5053SOL    HW116058   1.057   3.783   1.180
 5053SOL    HW216059   1.085   3.744   1.336
 5054SOL     OW16060   3.670   5.848   5.045
 5054SOL    HW116061   3.698   5.889   5.132
 5054SOL    HW216062   3.694   5.751   5.044
 5055SOL     OW16063   0.414   0.770   3.987
 5055SOL    HW116064   0.475   0.839   3.947
 5055SOL    HW216065   0.321   0.786   3.956
 5056SOL     OW16066   2.899   1.494   6.305
 5056SOL    HW116067   2.986   1.513   6.351
 5056SOL    HW216068   2.917   1.452   6.216
 5057SOL     OW16069   0.688   3.530   2.148
 5057SOL    HW116070   0.764   3.493   2.095
 5057SOL    HW216071   0.722   3.598   2.212
 5058SOL     OW16072   3.908   1.970   0.272
 5058SOL    HW116073   3.912   1.916   0.188
 5058SOL    HW216074   3.885   1.910   0.349
 5059SOL     OW16075   6.081   2.783   2.571
 5059SOL    HW116076   6.013   2.854   2.552
 5059SOL    HW216077   6.107   2.787   2.667
 5060SOL     OW16078   6.730   2.845   5.378
 5060SOL    HW116079   6.631   2.851   5.393
 5060SOL    HW216080   6.761   2.923   5.325
 5061SOL     OW16081   4.025   2.751   6.091
 5061SOL    HW116082   4.048   2.800   6.175
 5061SOL    HW216083   4.095   2.770   6.021
 5062SOL     OW16084   5.804   1.297   3.599
 5062SOL    HW116085   5.824   1.393   3.618
 5062SOL    HW216086   5.755   1.289   3.513
 5063SOL     OW16087   0.780   1.086   0.454
 5063SOL    HW116088   0.742   1.094   0.361
 5063SOL    HW216089   0.833   1.168   0.476
 5064SOL     OW16090   6.284   4.878   0.502
 5064SOL    HW116091   6.221   4.902   0.576
 5064SOL    HW216092   6.235   4.826   0.432
 5065SOL     OW16093   1.480   2.112   2.494
 5065SOL    HW116094   1.498   2.117   2.592
 5065SOL    HW216095   1.395   2.161   2.473
 5066SOL     OW16096   1.174   5.039   4.216
 5066SOL    HW116097   1.107   5.071   4.149
 5066SOL    HW216098   1.165   4.940   4.229
 5067SOL     OW16099   4.706   2.905   1.025
 5067SOL    HW116100   4.757   2.898   0.938
 5067SOL    HW216101   4.762   2.868   1.099
 5068SOL     OW16102   2.023   6.716   1.286
 5068SOL    HW116103   1.982   6.658   1.216
 5068SOL    HW216104   2.053   6.803   1.245
 5069SOL     OW16105   4.010   4.620   6.106
 5069SOL    HW116106   3.914   4.632   6.130
 5069SOL    HW216107   4.062   4.593   6.188
 5070SOL     OW16108   0.480   3.483   6.793
 5070SOL    HW116109   0.464   3.551   6.722
 5070SOL    HW216110   0.531   3.525   6.869
 5071SOL     OW16111   1.666   6.442   2.669
 5071SOL    HW116112   1.652   6.343   2.675
 5071SOL    HW216113   1.593   6.489   2.718
 5072SOL     OW16114   0.224   2.119   2.549
 5072SOL    HW116115   0.291   2.180   2.506
 5072SOL    HW216116   0.251   2.024   2.533
 5073SOL     OW16117   1.981   1.487   4.183
 5073SOL    HW116118   2.080   1.476   4.195
 5073SOL    HW216119   1.941   1.400   4.155
 5074SOL     OW16120   3.994   2.023   1.391
 5074SOL    HW116121   4.043   2.110   1.380
 5074SOL    HW216122   4.018   1.983   1.479
 5075SOL     OW16123   6.029   2.357   6.748
 5075SOL    HW116124   6.078   2.418   6.811
 5075SOL    HW216125   6.060   2.263   6.762
 5076SOL     OW16126   0.302   1.531   6.078
 5076SOL    HW116127   0.297   1.436   6.046
 5076SOL    HW216128   0.367   1.537   6.154
 5077SOL     OW16129   0.506   4.328   4.625
 5077SOL    HW116130   0.521   4.229   4.630
 5077SOL    HW216131   0.573   4.369   4.563
 5078SOL     OW16132   6.219   1.543   3.044
 5078SOL    HW116133   6.192   1.452   3.077
 5078SOL    HW216134   6.200   1.549   2.946
 5079SOL     OW16135   1.660   3.764   5.738
 5079SOL    HW116136   1.699   3.762   5.646
 5079SOL    HW216137   1.602   3.684   5.752
 5080SOL     OW16138   6.202   5.865   6.690
 5080SOL    HW116139   6.103   5.862   6.682
 5080SOL    HW216140   6.241   5.779   6.657
 5081SOL     OW16141   3.312   4.668   5.666
 5081SOL    HW116142   3.294   4.581   5.620
 5081SOL    HW216143   3.301   4.656   5.765
 5082SOL     OW16144   5.825   6.931   2.417
 5082SOL    HW116145   5.916   6.916   2.456
 5082SOL    HW216146   5.835   6.957   2.320
 5083SOL     OW16147   0.430   0.356   3.261
 5083SOL    HW116148   0.356   0.418   3.285
 5083SOL    HW216149   0.443   0.290   3.335
 5084SOL     OW16150   3.861   5.630   5.901
 5084SOL    HW116151   3.918   5.612   5.981
 5084SOL    HW216152   3.765   5.624   5.925
 5085SOL     OW16153   1.088   4.045   6.681
 5085SOL    HW116154   1.017   4.107   6.651
 5085SOL    HW216155   1.047   3.966   6.726
 5086SOL     OW16156   0.950   4.324   2.247
 5086SOL    HW116157   0.976   4.229   2.229
 5086SOL    HW216158   0.897   4.359   2.169
 5087SOL     OW16159   6.544   5.338   1.695
 5087SOL    HW116160   6.622   5.392   1.726
 5087SOL    HW216161   6.574   5.247   1.667
 5088SOL     OW16162   4.012   4.775   2.272
 5088SOL    HW116163   3.929   4.741   2.318
 5088SOL    HW216164   4.088   4.775   2.337
 5089SOL     OW16165   5.134   6.066   5.984
 5089SOL    HW116166   5.194   6.062   6.064
 5089SOL    HW216167   5.040   6.083   6.014
 5090SOL     OW16168   2.230   6.656   4.313
 5090SOL    HW116169   2.308   6.713   4.285
 5090SOL    HW216170   2.219   6.662   4.413
 5091SOL     OW16171   6.592   5.738   5.755
 5091SOL    HW116172   6.653   5.693   5.820
 5091SOL    HW216173   6.537   5.806   5.803
 5092SOL     OW16174   3.934   3.066   4.823
 5092SOL    HW116175   3.884   3.029   4.745
 5092SOL    HW216176   3.972   2.990   4.877
 5093SOL     OW16177   3.387   2.126   3.409
 5093SOL    HW116178   3.475   2.096   3.445
 5093SOL    HW216179   3.400   2.165   3.318
 5094SOL     OW16180   2.445   5.372   5.071
 5094SOL    HW116181   2.363   5.426   5.092
 5094SOL    HW216182   2.467   5.312   5.148
 5095SOL     OW16183   6.152   2.142   2.939
 5095SOL    HW116184   6.148   2.180   2.846
 5095SOL    HW216185   6.169   2.216   3.004
 5096SOL     OW16186   5.688   2.769   5.634
 5096SOL    HW116187   5.742   2.728   5.707
 5096SOL    HW216188   5.595   2.733   5.637
 5097SOL     OW16189   0.938   0.113   5.699
 5097SOL    HW116190   0.878   0.133   5.776
 5097SOL    HW216191   1.018   0.063   5.731
 5098SOL     OW16192   2.700   2.060   1.283
 5098SOL    HW116193   2.729   2.022   1.196
 5098SOL    HW216194   2.780   2.082   1.339
 5099SOL     OW16195   1.930   5.579   1.977
 5099SOL    HW116196   1.886   5.668   1.980
 5099SOL    HW216197   1.863   5.510   1.951
 5100SOL     OW16198   6.436   3.610   1.191
 5100SOL    HW116199   6.423   3.548   1.268
 5100SOL    HW216200   6.347   3.642   1.159
 5101SOL     OW16201   4.018   2.063   5.587
 5101SOL    HW116202   3.949   2.000   5.622
 5101SOL    HW216203   4.108   2.021   5.595
 5102SOL     OW16204   5.212   4.532   5.286
 5102SOL    HW116205   5.165   4.444   5.283
 5102SOL    HW216206   5.299   4.525   5.236
 5103SOL     OW16207   0.615   0.389   5.523
 5103SOL    HW116208   0.669   0.389   5.439
 5103SOL    HW216209   0.666   0.434   5.596
 5104SOL     OW16210   3.745   3.465   3.899
 5104SOL    HW116211   3.798   3.457   3.814
 5104SOL    HW216212   3.805   3.449   3.977
 5105SOL     OW16213   4.371   3.174   6.922
 5105SOL    HW116214   4.435   3.123   6.863
 5105SOL    HW216215   4.326   3.245   6.868
 5106SOL     OW16216   4.333   0.719   1.151
 5106SOL    HW116217   4.308   0.799   1.205
 5106SOL    HW216218   4.253   0.660   1.139
 5107SOL     OW16219   6.386   4.933   6.231
 5107SOL    HW116220   6.423   4.860   6.287
 5107SOL    HW216221   6.435   5.018   6.251
 5108SOL     OW16222   4.034   4.220   1.168
 5108SOL    HW116223   4.116   4.166   1.184
 5108SOL    HW216224   4.054   4.294   1.104
 5109SOL     OW16225   2.101   2.291   2.174
 5109SOL    HW116226   2.014   2.254   2.205
 5109SOL    HW216227   2.152   2.328   2.252
 5110SOL     OW16228   3.406   6.158   4.816
 5110SOL    HW116229   3.391   6.257   4.805
 5110SOL    HW216230   3.369   6.110   4.736
 5111SOL     OW16231   2.585   5.685   6.462
 5111SOL    HW116232   2.671   5.671   6.413
 5111SOL    HW216233   2.529   5.752   6.414
 5112SOL     OW16234   1.188   4.447   2.698
 5112SOL    HW116235   1.114   4.445   2.630
 5112SOL    HW216236   1.227   4.355   2.706
 5113SOL     OW16237   2.394   4.402   1.113
 5113SOL    HW116238   2.413   4.304   1.125
 5113SOL    HW216239   2.454   4.439   1.042
 5114SOL     OW16240   4.632   4.919   1.821
 5114SOL    HW116241   4.660   4.873   1.905
 5114SOL    HW216242   4.545   4.882   1.789
 5115SOL     OW16243   1.370   4.221   0.196
 5115SOL    HW116244   1.423   4.143   0.227
 5115SOL    HW216245   1.393   4.241   0.101
 5116SOL     OW16246   0.121   6.726   5.576
 5116SOL    HW116247   0.088   6.820   5.577
 5116SOL    HW216248   0.212   6.723   5.618
 5117SOL     OW16249   0.132   4.072   4.073
 5117SOL    HW116250   0.204   4.141   4.081
 5117SOL    HW216251   0.167   3.992   4.024
 5118SOL     OW16252   4.456   4.864   0.032
 5118SOL    HW116253   4.431   4.954   7.023
 5118SOL    HW216254   4.555   4.850   0.021
 5119SOL     OW16255   5.239   1.742   0.762
 5119SOL    HW116256   5.156   1.796   0.743
 5119SOL    HW216257   5.319   1.801   0.755
 5120SOL     OW16258   6.121   6.374   6.551
 5120SOL    HW116259   6.102   6.421   6.637
 5120SOL    HW216260   6.079   6.425   6.476
 5121SOL     OW16261   2.095   3.294   0.097
 5121SOL    HW116262   2.094   3.377   0.153
 5121SOL    HW216263   2.001   3.265   0.079
 5122SOL     OW16264   4.876   5.351   3.546
 5122SOL    HW116265   4.808   5.418   3.515
 5122SOL    HW216266   4.906   5.375   3.638
 5123SOL     OW16267   4.348   2.080   1.524
 5123SOL    HW116268   4.370   1.990   1.562
 5123SOL    HW216269   4.389   2.151   1.581
 5124SOL     OW16270   0.548   5.793   4.286
 5124SOL    HW116271   0.463   5.742   4.271
 5124SOL    HW216272   0.586   5.769   4.375
 5125SOL     OW16273   5.281   2.531   3.730
 5125SOL    HW116274   5.320   2.486   3.810
 5125SOL    HW216275   5.332   2.506   3.649
 5126SOL     OW16276   2.562   0.821   2.048
 5126SOL    HW116277   2.512   0.892   2.099
 5126SOL    HW216278   2.568   0.738   2.104
 5127SOL     OW16279   2.409   6.691   0.789
 5127SOL    HW116280   2.347   6.612   0.784
 5127SOL    HW216281   2.369   6.760   0.849
 5128SOL     OW16282   4.519   0.435   2.104
 5128SOL    HW116283   4.462   0.431   2.186
 5128SOL    HW216284   4.512   0.526   2.064
 5129SOL     OW16285   6.189   5.587   0.137
 5129SOL    HW116286   6.118   5.547   0.080
 5129SOL    HW216287   6.278   5.578   0.092
 5130SOL     OW16288   6.165   5.070   2.091
 5130SOL    HW116289   6.207   5.132   2.158
 5130SOL    HW216290   6.069   5.054   2.117
 5131SOL     OW16291   2.650   1.889   2.101
 5131SOL    HW116292   2.681   1.965   2.044
 5131SOL    HW216293   2.570   1.918   2.154
 5132SOL     OW16294   2.337   6.136   5.604
 5132SOL    HW116295   2.333   6.150   5.505
 5132SOL    HW216296   2.427   6.100   5.630
 5133SOL     OW16297   3.594   6.123   5.005
 5133SOL    HW116298   3.629   6.029   5.006
 5133SOL    HW216299   3.529   6.133   4.929
 5134SOL     OW16300   0.948   3.110   6.846
 5134SOL    HW116301   0.940   3.032   6.784
 5134SOL    HW216302   0.942   3.077   6.940
 5135SOL     OW16303   6.258   2.077   3.811
 5135SOL    HW116304   6.213   2.164   3.794
 5135SOL    HW216305   6.278   2.032   3.724
 5136SOL     OW16306   3.630   2.129   6.496
 5136SOL    HW116307   3.552   2.074   6.467
 5136SOL    HW216308   3.638   2.126   6.596
 5137SOL     OW16309   4.152   3.435   0.137
 5137SOL    HW116310   4.163   3.492   0.218
 5137SOL    HW216311   4.086   3.362   0.156
 5138SOL     OW16312   2.578   2.859   6.120
 5138SOL    HW116313   2.532   2.806   6.049
 5138SOL    HW216314   2.510   2.908   6.175
 5139SOL     OW16315   0.626   6.838   4.132
 5139SOL    HW116316   0.665   6.912   4.187
 5139SOL    HW216317   0.694   6.765   4.122
 5140SOL     OW16318   3.624   3.199   2.212
 5140SOL    HW116319   3.601   3.102   2.197
 5140SOL    HW216320   3.584   3.229   2.298
 5141SOL     OW16321   0.991   3.598   5.644
 5141SOL    HW116322   0.999   3.527   5.713
 5141SOL    HW216323   0.922   3.571   5.576
 5142SOL     OW16324   5.333   3.731   1.921
 5142SOL    HW116325   5.300   3.647   1.964
 5142SOL    HW216326   5.269   3.761   1.851
 5143SOL     OW16327   0.262   4.851   6.081
 5143SOL    HW116328   0.282   4.936   6.033
 5143SOL    HW216329   0.340   4.824   6.137
 5144SOL     OW16330   1.900   1.405   5.109
 5144SOL    HW116331   1.917   1.306   5.116
 5144SOL    HW216332   1.852   1.424   5.024
 5145SOL     OW16333   3.696   5.429   6.416
 5145SOL    HW116334   3.689   5.329   6.419
 5145SOL    HW216335   3.624   5.469   6.473
 5146SOL     OW16336   3.420   5.375   1.355
 5146SOL    HW116337   3.490   5.439   1.387
 5146SOL    HW216338   3.427   5.363   1.256
 5147SOL     OW16339   0.553   4.782   6.089
 5147SOL    HW116340   0.592   4.804   5.999
 5147SOL    HW216341   0.510   4.692   6.086
 5148SOL     OW16342   6.930   0.582   1.761
 5148SOL    HW116343   6.857   0.540   1.707
 5148SOL    HW216344   7.007   0.603   1.701
 5149SOL     OW16345   0.009   0.849   5.775
 5149SOL    HW116346   7.024   0.948   5.775
 5149SOL    HW216347   0.068   0.822   5.699
 5150SOL     OW16348   2.737   5.091   5.722
 5150SOL    HW116349   2.796   5.167   5.692
 5150SOL    HW216350   2.726   5.025   5.648
 5151SOL     OW16351   4.527   0.586   6.114
 5151SOL    HW116352   4.566   0.670   6.078
 5151SOL    HW216353   4.498   0.527   6.039
 5152SOL     OW16354   6.919   4.668   6.491
 5152SOL    HW116355   6.999   4.727   6.479
 5152SOL    HW216356   6.905   4.614   6.408
 5153SOL     OW16357   2.821   3.262   1.172
 5153SOL    HW116358   2.815   3.177   1.225
 5153SOL    HW216359   2.819   3.340   1.234
 5154SOL     OW16360   0.775   4.707   5.219
 5154SOL    HW116361   0.791   4.614   5.251
 5154SOL    HW216362   0.806   4.715   5.124
 5155SOL     OW16363   4.115   0.897   1.806
 5155SOL    HW116364   4.201   0.875   1.759
 5155SOL    HW216365   4.135   0.942   1.893
 5156SOL     OW16366   5.428   3.349   5.502
 5156SOL    HW116367   5.396   3.265   5.546
 5156SOL    HW216368   5.528   3.350   5.500
 5157SOL     OW16369   6.364   2.197   3.388
 5157SOL    HW116370   6.388   2.186   3.291
 5157SOL    HW216371   6.414   2.275   3.426
 5158SOL     OW16372   3.439   0.196   1.989
 5158SOL    HW116373   3.430   0.219   2.086
 5158SOL    HW216374   3.439   0.280   1.935
 5159SOL     OW16375   1.869   3.210   5.016
 5159SOL    HW116376   1.843   3.182   4.923
 5159SOL    HW216377   1.969   3.209   5.024
 5160SOL     OW16378   2.791   2.332   3.623
 5160SOL    HW116379   2.708   2.376   3.660
 5160SOL    HW216380   2.859   2.325   3.696
 5161SOL     OW16381   1.665   3.174   6.891
 5161SOL    HW116382   1.759   3.161   6.922
 5161SOL    HW216383   1.623   3.085   6.873
 5162SOL     OW16384   6.635   5.869   4.682
 5162SOL    HW116385   6.536   5.861   4.689
 5162SOL    HW216386   6.676   5.852   4.771
 5163SOL     OW16387   6.095   4.103   0.229
 5163SOL    HW116388   6.033   4.106   0.150
 5163SOL    HW216389   6.138   4.193   0.241
 5164SOL     OW16390   6.899   6.440   4.752
 5164SOL    HW116391   6.822   6.479   4.701
 5164SOL    HW216392   6.983   6.490   4.730
 5165SOL     OW16393   5.620   4.348   5.650
 5165SOL    HW116394   5.662   4.319   5.564
 5165SOL    HW216395   5.524   4.370   5.635
 5166SOL     OW16396   0.339   0.002   2.952
 5166SOL    HW116397   0.287   6.953   2.994
 5166SOL    HW216398   0.429   6.995   2.925
 5167SOL     OW16399   1.994   0.419   5.241
 5167SOL    HW116400   2.061   0.433   5.168
 5167SOL    HW216401   1.968   0.508   5.279
 5168SOL     OW16402   3.260   2.002   2.281
 5168SOL    HW116403   3.354   1.993   2.248
 5168SOL    HW216404   3.202   2.036   2.207
 5169SOL     OW16405   3.933   5.191   6.567
 5169SOL    HW116406   3.995   5.226   6.497
 5169SOL    HW216407   3.925   5.091   6.557
 5170SOL     OW16408   4.239   5.369   4.153
 5170SOL    HW116409   4.296   5.287   4.148
 5170SOL    HW216410   4.213   5.397   4.060
 5171SOL     OW16411   2.668   4.745   5.216
 5171SOL    HW116412   2.703   4.687   5.142
 5171SOL    HW216413   2.594   4.696   5.264
 5172SOL     OW16414   1.683   3.965   6.493
 5172SOL    HW116415   1.586   3.948   6.474
 5172SOL    HW216416   1.700   4.064   6.490
 5173SOL     OW16417   0.174   2.197   4.293
 5173SOL    HW116418   0.103   2.232   4.233
 5173SOL    HW216419   0.257   2.180   4.240
 5174SOL     OW16420   3.075   4.863   6.846
 5174SOL    HW116421   3.086   4.865   6.945
 5174SOL    HW216422   2.981   4.887   6.822
 5175SOL     OW16423   1.026   5.414   6.942
 5175SOL    HW116424   0.965   5.350   6.896
 5175SOL    HW216425   1.023   5.503   6.896
 5176SOL     OW16426   5.662   3.247   6.760
 5176SOL    HW116427   5.585   3.184   6.771
 5176SOL    HW216428   5.667   3.277   6.665
 5177SOL     OW16429   4.653   4.679   6.522
 5177SOL    HW116430   4.744   4.643   6.545
 5177SOL    HW216431   4.612   4.720   6.604
 5178SOL     OW16432   3.422   4.659   0.426
 5178SOL    HW116433   3.348   4.651   0.360
 5178SOL    HW216434   3.454   4.754   0.429
 5179SOL     OW16435   2.901   6.240   5.563
 5179SOL    HW116436   2.968   6.176   5.602
 5179SOL    HW216437   2.828   6.188   5.519
 5180SOL     OW16438   4.776   1.658   6.995
 5180SOL    HW116439   4.699   1.680   0.029
 5180SOL    HW216440   4.747   1.658   6.900
 5181SOL     OW16441   3.219   6.451   2.456
 5181SOL    HW116442   3.144   6.453   2.390
 5181SOL    HW216443   3.248   6.544   2.477
 5182SOL     OW16444   4.904   3.948   1.054
 5182SOL    HW116445   4.902   3.851   1.079
 5182SOL    HW216446   4.831   3.997   1.103
 5183SOL     OW16447   3.471   0.492   3.957
 5183SOL    HW116448   3.521   0.534   3.881
 5183SOL    HW216449   3.529   0.490   4.038
 5184SOL     OW16450   0.887   1.806   2.897
 5184SOL    HW116451   0.888   1.883   2.960
 5184SOL    HW216452   0.804   1.810   2.841
 5185SOL     OW16453   3.664   0.045   1.955
 5185SOL    HW116454   3.578   0.095   1.965
 5185SOL    HW216455   3.721   0.059   2.036
 5186SOL     OW16456   5.629   3.948   6.939
 5186SOL    HW116457   5.610   3.903   6.852
 5186SOL    HW216458   5.543   3.965   6.988
 5187SOL     OW16459   5.350   3.822   4.514
 5187SOL    HW116460   5.297   3.756   4.461
 5187SOL    HW216461   5.290   3.874   4.575
 5188SOL     OW16462   7.019   1.132   3.524
 5188SOL    HW116463   0.080   1.183   3.526
 5188SOL    HW216464   6.989   1.121   3.429
 5189SOL     OW16465   4.918   5.292   5.889
 5189SOL    HW116466   4.961   5.371   5.845
 5189SOL    HW216467   4.906   5.311   5.986
 5190SOL     OW16468   2.256   2.110   2.862
 5190SOL    HW116469   2.309   2.195   2.855
 5190SOL    HW216470   2.204   2.097   2.778
 5191SOL     OW16471   5.509   1.093   2.071
 5191SOL    HW116472   5.447   1.143   2.011
 5191SOL    HW216473   5.573   1.039   2.015
 5192SOL     OW16474   6.975   4.425   1.582
 5192SOL    HW116475   6.881   4.406   1.610
 5192SOL    HW216476   0.011   4.357   1.622
 5193SOL     OW16477   3.762   5.159   2.790
 5193SOL    HW116478   3.737   5.087   2.726
 5193SOL    HW216479   3.718   5.245   2.764
 5194SOL     OW16480   4.798   0.904   0.209
 5194SOL    HW116481   4.746   0.898   0.294
 5194SOL    HW216482   4.770   0.985   0.158
 5195SOL     OW16483   0.554   5.781   5.269
 5195SOL    HW116484   0.472   5.836   5.259
 5195SOL    HW216485   0.571   5.729   5.186
 5196SOL     OW16486   1.100   3.133   3.549
 5196SOL    HW116487   1.128   3.135   3.645
 5196SOL    HW216488   1.000   3.146   3.544
 5197SOL     OW16489   3.709   5.943   5.297
 5197SOL    HW116490   3.614   5.914   5.307
 5197SOL    HW216491   3.760   5.919   5.380
 5198SOL     OW16492   4.358   0.727   5.614
 5198SOL    HW116493   4.428   0.798   5.606
 5198SOL    HW216494   4.269   0.766   5.592
 5199SOL     OW16495   0.574   6.383   2.343
 5199SOL    HW116496   0.642   6.421   2.281
 5199SOL    HW216497   0.526   6.457   2.390
 5200SOL     OW16498   5.749   6.617   5.701
 5200SOL    HW116499   5.712   6.562   5.626
 5200SOL    HW216500   5.779   6.706   5.665
 5201SOL     OW16501   0.012   3.816   5.526
 5201SOL    HW116502   0.053   3.861   5.605
 5201SOL    HW216503   0.084   3.776   5.469
 5202SOL     OW16504   3.931   2.270   5.939
 5202SOL    HW116505   3.832   2.265   5.926
 5202SOL    HW216506   3.966   2.180   5.964
 5203SOL     OW16507   0.833   0.540   5.986
 5203SOL    HW116508   0.792   0.601   6.054
 5203SOL    HW216509   0.916   0.581   5.948
 5204SOL     OW16510   2.331   0.491   2.357
 5204SOL    HW116511   2.427   0.510   2.334
 5204SOL    HW216512   2.308   0.398   2.327
 5205SOL     OW16513   6.600   6.937   1.661
 5205SOL    HW116514   6.573   7.005   1.728
 5205SOL    HW216515   6.645   6.860   1.707
 5206SOL     OW16516   1.237   5.266   4.970
 5206SOL    HW116517   1.272   5.180   5.007
 5206SOL    HW216518   1.277   5.342   5.020
 5207SOL     OW16519   4.816   1.258   4.571
 5207SOL    HW116520   4.751   1.260   4.647
 5207SOL    HW216521   4.870   1.341   4.571
 5208SOL     OW16522   6.706   1.549   0.103
 5208SOL    HW116523   6.769   1.479   0.136
 5208SOL    HW216524   6.730   1.638   0.144
 5209SOL     OW16525   5.453   5.915   2.447
 5209SOL    HW116526   5.354   5.910   2.443
 5209SOL    HW216527   5.483   5.921   2.542
 5210SOL     OW16528   6.289   4.350   1.535
 5210SOL    HW116529   6.228   4.296   1.592
 5210SOL    HW216530   6.277   4.447   1.555
 5211SOL     OW16531   4.879   2.981   4.629
 5211SOL    HW116532   4.965   2.954   4.587
 5211SOL    HW216533   4.894   3.060   4.689
 5212SOL     OW16534   6.343   3.602   7.016
 5212SOL    HW116535   6.259   3.554   0.016
 5212SOL    HW216536   6.376   3.654   0.069
 5213SOL     OW16537   3.607   3.320   4.339
 5213SOL    HW116538   3.667   3.357   4.410
 5213SOL    HW216539   3.524   3.284   4.381
 5214SOL     OW16540   6.254   2.653   5.496
 5214SOL    HW116541   6.162   2.685   5.477
 5214SOL    HW216542   6.280   2.680   5.589
 5215SOL     OW16543   0.345   4.672   4.874
 5215SOL    HW116544   0.347   4.769   4.848
 5215SOL    HW216545   0.280   4.623   4.816
 5216SOL     OW16546   6.689   4.397   0.435
 5216SOL    HW116547   6.677   4.299   0.421
 5216SOL    HW216548   6.770   4.414   0.491
 5217SOL     OW16549   3.260   0.768   2.424
 5217SOL    HW116550   3.182   0.820   2.391
 5217SOL    HW216551   3.288   0.803   2.514
 5218SOL     OW16552   5.961   0.042   0.706
 5218SOL    HW116553   5.926   6.978   0.679
 5218SOL    HW216554   5.983   0.040   0.804
 5219SOL     OW16555   4.308   2.239   4.952
 5219SOL    HW116556   4.267   2.322   4.989
 5219SOL    HW216557   4.345   2.257   4.861
 5220SOL     OW16558   1.875   3.917   4.388
 5220SOL    HW116559   1.822   3.833   4.381
 5220SOL    HW216560   1.967   3.895   4.423
 5221SOL     OW16561   4.034   6.191   0.706
 5221SOL    HW116562   4.104   6.125   0.736
 5221SOL    HW216563   3.954   6.142   0.672
 5222SOL     OW16564   5.849   3.287   2.482
 5222SOL    HW116565   5.835   3.269   2.385
 5222SOL    HW216566   5.788   3.229   2.536
 5223SOL     OW16567   6.777   1.885   0.501
 5223SOL    HW116568   6.840   1.817   0.465
 5223SOL    HW216569   6.706   1.840   0.554
 5224SOL     OW16570   1.938   1.627   4.684
 5224SOL    HW116571   1.905   1.690   4.755
 5224SOL    HW216572   1.868   1.617   4.614
 5225SOL     OW16573   6.758   2.016   6.045
 5225SOL    HW116574   6.843   2.003   6.097
 5225SOL    HW216575   6.708   1.930   6.040
 5226SOL     OW16576   0.455   0.199   4.274
 5226SOL    HW116577   0.516   0.173   4.348
 5226SOL    HW216578   0.382   0.132   4.265
 5227SOL     OW16579   2.337   2.489   6.706
 5227SOL    HW116580   2.413   2.550   6.729
 5227SOL    HW216581   2.265   2.540   6.659
 5228SOL     OW16582   0.718   2.284   5.482
 5228SOL    HW116583   0.683   2.324   5.567
 5228SOL    HW216584   0.643   2.274   5.417
 5229SOL     OW16585   3.776   1.576   0.223
 5229SOL    HW116586   3.818   1.485   0.224
 5229SOL    HW216587   3.715   1.585   0.302
 5230SOL     OW16588   6.622   0.640   1.931
 5230SOL    HW116589   6.694   0.638   2.000
 5230SOL    HW216590   6.631   0.560   1.872
 5231SOL     OW16591   6.604   4.124   1.704
 5231SOL    HW116592   6.701   4.102   1.714
 5231SOL    HW216593   6.553   4.082   1.779
 5232SOL     OW16594   1.697   1.751   6.333
 5232SOL    HW116595   1.645   1.832   6.361
 5232SOL    HW216596   1.737   1.767   6.243
 5233SOL     OW16597   2.171   6.993   3.556
 5233SOL    HW116598   2.264   0.000   3.566
 5233SOL    HW216599   2.121   7.006   3.641
 5234SOL     OW16600   3.829   2.144   6.290
 5234SOL    HW116601   3.876   2.231   6.299
 5234SOL    HW216602   3.778   2.124   6.374
 5235SOL     OW16603   2.616   2.911   1.432
 5235SOL    HW116604   2.692   2.866   1.479
 5235SOL    HW216605   2.638   3.007   1.417
 5236SOL     OW16606   3.077   5.041   1.925
 5236SOL    HW116607   3.062   5.059   1.828
 5236SOL    HW216608   3.071   4.942   1.942
 5237SOL     OW16609   1.227   1.009   1.437
 5237SOL    HW116610   1.311   1.044   1.395
 5237SOL    HW216611   1.205   0.919   1.400
 5238SOL     OW16612   6.229   0.618   3.254
 5238SOL    HW116613   6.173   0.699   3.272
 5238SOL    HW216614   6.218   0.553   3.330
 5239SOL     OW16615   2.536   4.077   6.984
 5239SOL    HW116616   2.521   4.045   6.890
 5239SOL    HW216617   2.490   4.015   0.022
 5240SOL     OW16618   1.781   3.949   5.337
 5240SOL    HW116619   1.881   3.957   5.331
 5240SOL    HW216620   1.757   3.860   5.376
 5241SOL     OW16621   2.201   5.333   3.485
 5241SOL    HW116622   2.190   5.310   3.388
 5241SOL    HW216623   2.281   5.285   3.521
 5242SOL     OW16624   3.978   6.017   5.721
 5242SOL    HW116625   4.016   6.087   5.661
 5242SOL    HW216626   4.051   5.974   5.773
 5243SOL     OW16627   1.937   5.237   4.252
 5243SOL    HW116628   1.915   5.308   4.185
 5243SOL    HW216629   1.880   5.156   4.234
 5244SOL     OW16630   5.260   0.530   6.590
 5244SOL    HW116631   5.173   0.552   6.546
 5244SOL    HW216632   5.264   0.432   6.610
 5245SOL     OW16633   3.096   3.682   1.397
 5245SOL    HW116634   3.193   3.665   1.411
 5245SOL    HW216635   3.056   3.720   1.481
 5246SOL     OW16636   6.259   2.460   5.817
 5246SOL    HW116637   6.195   2.485   5.890
 5246SOL    HW216638   6.289   2.542   5.769
 5247SOL     OW16639   4.886   0.897   5.280
 5247SOL    HW116640   4.924   0.988   5.295
 5247SOL    HW216641   4.844   0.893   5.189
 5248SOL     OW16642   4.271   1.029   2.146
 5248SOL    HW116643   4.196   0.963   2.143
 5248SOL    HW216644   4.352   0.985   2.185
 5249SOL     OW16645   0.023   5.724   1.966
 5249SOL    HW116646   7.022   5.657   2.035
 5249SOL    HW216647   0.105   5.693   1.918
 5250SOL     OW16648   0.964   5.181   0.070
 5250SOL    HW116649   0.996   5.267   0.028
 5250SOL    HW216650   1.008   5.170   0.159
 5251SOL     OW16651   1.372   4.238   6.414
 5251SOL    HW116652   1.282   4.207   6.385
 5251SOL    HW216653   1.426   4.263   6.333
 5252SOL     OW16654   4.071   6.373   3.293
 5252SOL    HW116655   3.989   6.429   3.301
 5252SOL    HW216656   4.080   6.315   3.375
 5253SOL     OW16657   0.545   6.227   4.715
 5253SOL    HW116658   0.556   6.208   4.618
 5253SOL    HW216659   0.618   6.288   4.746
 5254SOL     OW16660   4.132   6.264   2.222
 5254SOL    HW116661   4.041   6.300   2.242
 5254SOL    HW216662   4.201   6.331   2.251
 5255SOL     OW16663   0.491   1.579   6.267
 5255SOL    HW116664   0.546   1.639   6.208
 5255SOL    HW216665   0.541   1.495   6.285
 5256SOL     OW16666   4.417   1.545   2.680
 5256SOL    HW116667   4.493   1.610   2.671
 5256SOL    HW216668   4.334   1.584   2.641
 5257SOL     OW16669   5.587   1.187   0.256
 5257SOL    HW116670   5.601   1.108   0.196
 5257SOL    HW216671   5.510   1.168   0.317
 5258SOL     OW16672   5.845   1.897   5.521
 5258SOL    HW116673   5.862   1.818   5.463
 5258SOL    HW216674   5.793   1.868   5.602
 5259SOL     OW16675   4.415   6.045   4.416
 5259SOL    HW116676   4.482   5.980   4.452
 5259SOL    HW216677   4.368   6.090   4.492
 5260SOL     OW16678   1.427   6.574   1.953
 5260SOL    HW116679   1.409   6.478   1.973
 5260SOL    HW216680   1.505   6.581   1.891
 5261SOL     OW16681   6.532   4.159   6.901
 5261SOL    HW116682   6.532   4.086   6.834
 5261SOL    HW216683   6.531   4.120   6.993
 5262SOL     OW16684   2.311   2.128   2.071
 5262SOL    HW116685   2.251   2.207   2.084
 5262SOL    HW216686   2.256   2.046   2.053
 5263SOL     OW16687   0.243   6.455   2.236
 5263SOL    HW116688   0.321   6.491   2.184
 5263SOL    HW216689   0.236   6.503   2.323
 5264SOL     OW16690   6.166   2.632   2.165
 5264SOL    HW116691   6.125   2.542   2.148
 5264SOL    HW216692   6.216   2.631   2.251
 5265SOL     OW16693   0.892   6.014   5.648
 5265SOL    HW116694   0.847   6.068   5.577
 5265SOL    HW216695   0.824   5.954   5.691
 5266SOL     OW16696   0.636   0.122   6.188
 5266SOL    HW116697   0.716   0.177   6.211
 5266SOL    HW216698   0.637   0.101   6.090
 5267SOL     OW16699   5.891   1.144   4.834
 5267SOL    HW116700   5.980   1.184   4.856
 5267SOL    HW216701   5.904   1.059   4.783
 5268SOL     OW16702   5.531   0.272   6.054
 5268SOL    HW116703   5.450   0.331   6.058
 5268SOL    HW216704   5.595   0.310   5.987
 5269SOL     OW16705   1.389   0.510   4.428
 5269SOL    HW116706   1.368   0.584   4.492
 5269SOL    HW216707   1.465   0.538   4.369
 5270SOL     OW16708   1.385   1.705   0.139
 5270SOL    HW116709   1.404   1.640   0.066
 5270SOL    HW216710   1.447   1.783   0.133
 5271SOL     OW16711   1.494   5.964   6.516
 5271SOL    HW116712   1.487   5.994   6.421
 5271SOL    HW216713   1.403   5.959   6.557
 5272SOL     OW16714   4.236   0.210   5.858
 5272SOL    HW116715   4.292   0.153   5.799
 5272SOL    HW216716   4.161   0.251   5.804
 5273SOL     OW16717   2.186   1.705   3.726
 5273SOL    HW116718   2.236   1.790   3.711
 5273SOL    HW216719   2.162   1.696   3.822
 5274SOL     OW16720   6.393   4.976   0.782
 5274SOL    HW116721   6.410   4.998   0.686
 5274SOL    HW216722   6.309   5.021   0.812
 5275SOL     OW16723   5.452   0.729   6.506
 5275SOL    HW116724   5.478   0.707   6.412
 5275SOL    HW216725   5.402   0.652   6.546
 5276SOL     OW16726   3.031   6.240   1.589
 5276SOL    HW116727   2.935   6.222   1.611
 5276SOL    HW216728   3.045   6.227   1.491
 5277SOL     OW16729   1.408   3.199   1.769
 5277SOL    HW116730   1.371   3.281   1.724
 5277SOL    HW216731   1.433   3.221   1.863
 5278SOL     OW16732   3.998   3.952   3.684
 5278SOL    HW116733   3.903   3.945   3.714
 5278SOL    HW216734   4.057   3.909   3.753
 5279SOL     OW16735   1.346   6.799   3.245
 5279SOL    HW116736   1.386   6.799   3.337
 5279SOL    HW216737   1.288   6.880   3.234
 5280SOL     OW16738   4.091   0.429   3.739
 5280SOL    HW116739   4.001   0.399   3.706
 5280SOL    HW216740   4.125   0.502   3.681
 5281SOL     OW16741   7.012   3.024   3.439
 5281SOL    HW116742   0.023   2.982   3.357
 5281SOL    HW216743   6.918   3.056   3.422
 5282SOL     OW16744   5.163   2.843   1.022
 5282SOL    HW116745   5.238   2.780   1.043
 5282SOL    HW216746   5.148   2.845   0.923
 5283SOL     OW16747   5.120   5.246   5.071
 5283SOL    HW116748   5.114   5.273   5.167
 5283SOL    HW216749   5.043   5.187   5.047
 5284SOL     OW16750   5.553   2.696   4.317
 5284SOL    HW116751   5.566   2.686   4.219
 5284SOL    HW216752   5.542   2.792   4.340
 5285SOL     OW16753   4.184   5.983   2.747
 5285SOL    HW116754   4.115   6.049   2.777
 5285SOL    HW216755   4.275   6.016   2.771
 5286SOL     OW16756   1.902   4.587   2.219
 5286SOL    HW116757   1.981   4.643   2.193
 5286SOL    HW216758   1.877   4.605   2.314
 5287SOL     OW16759   0.545   0.352   2.776
 5287SOL    HW116760   0.644   0.360   2.776
 5287SOL    HW216761   0.513   0.328   2.868
 5288SOL     OW16762   3.597   0.409   1.008
 5288SOL    HW116763   3.679   0.446   1.052
 5288SOL    HW216764   3.564   0.331   1.060
 5289SOL     OW16765   1.654   6.978   1.862
 5289SOL    HW116766   1.691   0.036   1.820
 5289SOL    HW216767   1.729   6.924   1.899
 5290SOL     OW16768   5.987   6.855   6.818
 5290SOL    HW116769   5.908   6.812   6.863
 5290SOL    HW216770   6.004   6.808   6.731
 5291SOL     OW16771   1.297   5.573   0.005
 5291SOL    HW116772   1.382   5.571   6.977
 5291SOL    HW216773   1.219   5.565   6.969
 5292SOL     OW16774   5.580   1.545   1.429
 5292SOL    HW116775   5.519   1.483   1.479
 5292SOL    HW216776   5.675   1.516   1.442
 5293SOL     OW16777   2.217   1.372   4.126
 5293SOL    HW116778   2.302   1.392   4.077
 5293SOL    HW216779   2.172   1.294   4.085
 5294SOL     OW16780   3.715   1.939   6.915
 5294SOL    HW116781   3.746   1.865   6.854
 5294SOL    HW216782   3.712   1.906   7.009
 5295SOL     OW16783   0.356   1.763   3.111
 5295SOL    HW116784   0.290   1.706   3.063
 5295SOL    HW216785   0.449   1.730   3.092
 5296SOL     OW16786   0.220   3.086   6.355
 5296SOL    HW116787   0.262   3.007   6.400
 5296SOL    HW216788   0.231   3.077   6.256
 5297SOL     OW16789   0.809   1.849   1.843
 5297SOL    HW116790   0.882   1.854   1.775
 5297SOL    HW216791   0.755   1.934   1.840
 5298SOL     OW16792   1.089   3.773   2.097
 5298SOL    HW116793   1.075   3.675   2.086
 5298SOL    HW216794   1.180   3.790   2.136
 5299SOL     OW16795   4.073   0.337   0.096
 5299SOL    HW116796   4.136   0.269   0.135
 5299SOL    HW216797   4.071   0.327   7.022
 5300SOL     OW16798   6.987   4.789   4.599
 5300SOL    HW116799   6.926   4.728   4.649
 5300SOL    HW216800   6.953   4.803   4.507
 5301SOL     OW16801   5.390   7.009   6.627
 5301SOL    HW116802   5.344   6.922   6.611
 5301SOL    HW216803   5.451   7.001   6.706
 5302SOL     OW16804   0.324   3.672   2.825
 5302SOL    HW116805   0.312   3.644   2.920
 5302SOL    HW216806   0.314   3.593   2.765
 5303SOL     OW16807   2.463   4.494   2.459
 5303SOL    HW116808   2.509   4.484   2.371
 5303SOL    HW216809   2.506   4.568   2.511
 5304SOL     OW16810   4.666   1.680   5.638
 5304SOL    HW116811   4.661   1.669   5.737
 5304SOL    HW216812   4.732   1.752   5.615
 5305SOL     OW16813   4.040   1.601   4.782
 5305SOL    HW116814   4.005   1.608   4.689
 5305SOL    HW216815   4.010   1.681   4.834
 5306SOL     OW16816   2.663   7.016   3.153
 5306SOL    HW116817   2.671   6.976   3.245
 5306SOL    HW216818   2.567   0.013   3.135
 5307SOL     OW16819   4.907   6.531   6.730
 5307SOL    HW116820   4.813   6.561   6.714
 5307SOL    HW216821   4.939   6.570   6.817
 5308SOL     OW16822   6.659   1.519   1.338
 5308SOL    HW116823   6.748   1.527   1.293
 5308SOL    HW216824   6.653   1.585   1.413
 5309SOL     OW16825   3.681   3.696   5.896
 5309SOL    HW116826   3.650   3.609   5.857
 5309SOL    HW216827   3.608   3.764   5.887
 5310SOL     OW16828   5.143   2.523   0.397
 5310SOL    HW116829   5.094   2.610   0.407
 5310SOL    HW216830   5.092   2.464   0.335
 5311SOL     OW16831   6.655   5.886   0.308
 5311SOL    HW116832   6.656   5.933   0.220
 5311SOL    HW216833   6.655   5.787   0.293
 5312SOL     OW16834   0.743   3.887   1.542
 5312SOL    HW116835   0.698   3.961   1.592
 5312SOL    HW216836   0.680   3.809   1.536
 5313SOL     OW16837   0.506   6.126   6.690
 5313SOL    HW116838   0.586   6.090   6.737
 5313SOL    HW216839   0.439   6.053   6.677
 5314SOL     OW16840   3.948   4.539   0.721
 5314SOL    HW116841   3.857   4.579   0.729
 5314SOL    HW216842   3.940   4.442   0.698
 5315SOL     OW16843   5.674   1.155   2.531
 5315SOL    HW116844   5.630   1.244   2.547
 5315SOL    HW216845   5.712   1.152   2.439
 5316SOL     OW16846   5.327   5.125   4.586
 5316SOL    HW116847   5.340   5.028   4.565
 5316SOL    HW216848   5.233   5.140   4.617
 5317SOL     OW16849   0.284   4.841   1.095
 5317SOL    HW116850   0.364   4.886   1.134
 5317SOL    HW216851   0.258   4.887   1.009
 5318SOL     OW16852   6.391   2.635   3.736
 5318SOL    HW116853   6.439   2.571   3.796
 5318SOL    HW216854   6.427   2.727   3.748
 5319SOL     OW16855   2.871   6.456   2.859
 5319SOL    HW116856   2.803   6.526   2.883
 5319SOL    HW216857   2.950   6.500   2.816
 5320SOL     OW16858   6.170   2.103   6.931
 5320SOL    HW116859   6.261   2.124   6.896
 5320SOL    HW216860   6.177   2.042   7.010
 5321SOL     OW16861   3.203   5.223   6.954
 5321SOL    HW116862   3.109   5.210   6.984
 5321SOL    HW216863   3.265   5.205   0.005
 5322SOL     OW16864   3.210   6.058   0.359
 5322SOL    HW116865   3.237   6.086   0.267
 5322SOL    HW216866   3.215   6.137   0.421
 5323SOL     OW16867   6.525   3.042   0.641
 5323SOL    HW116868   6.568   2.955   0.617
 5323SOL    HW216869   6.565   3.077   0.726
 5324SOL     OW16870   4.055   3.664   2.635
 5324SOL    HW116871   3.958   3.661   2.613
 5324SOL    HW216872   4.075   3.599   2.709
 5325SOL     OW16873   3.124   0.173   5.789
 5325SOL    HW116874   3.029   0.144   5.800
 5325SOL    HW216875   3.136   0.264   5.829
 5326SOL     OW16876   6.019   0.926   4.185
 5326SOL    HW116877   5.923   0.900   4.176
 5326SOL    HW216878   6.068   0.859   4.241
 5327SOL     OW16879   6.354   6.871   4.044
 5327SOL    HW116880   6.414   6.801   4.082
 5327SOL    HW216881   6.401   6.918   3.968
 5328SOL     OW16882   2.589   5.079   6.194
 5328SOL    HW116883   2.664   5.111   6.251
 5328SOL    HW216884   2.625   5.049   6.105
 5329SOL     OW16885   0.123   6.659   6.308
 5329SOL    HW116886   0.025   6.666   6.329
 5329SOL    HW216887   0.175   6.708   6.377
 5330SOL     OW16888   4.897   4.121   0.318
 5330SOL    HW116889   4.831   4.177   0.269
 5330SOL    HW216890   4.966   4.087   0.255
 5331SOL     OW16891   6.124   1.038   6.911
 5331SOL    HW116892   6.095   1.111   6.972
 5331SOL    HW216893   6.119   1.070   6.816
 5332SOL     OW16894   6.525   3.391   7.002
 5332SOL    HW116895   6.446   3.447   0.003
 5332SOL    HW216896   6.582   3.442   6.937
 5333SOL     OW16897   0.162   0.107   4.227
 5333SOL    HW116898   0.134   0.026   4.175
 5333SOL    HW216899   0.163   0.084   4.325
 5334SOL     OW16900   3.009   5.887   0.932
 5334SOL    HW116901   2.974   5.947   1.004
 5334SOL    HW216902   3.076   5.824   0.971
 5335SOL     OW16903   0.095   5.442   1.840
 5335SOL    HW116904   0.137   5.468   1.927
 5335SOL    HW216905   0.050   5.353   1.849
 5336SOL     OW16906   1.110   3.005   5.425
 5336SOL    HW116907   1.079   2.926   5.372
 5336SOL    HW216908   1.031   3.063   5.446
 5337SOL     OW16909   6.210   2.254   0.909
 5337SOL    HW116910   6.189   2.236   1.005
 5337SOL    HW216911   6.290   2.314   0.903
 5338SOL     OW16912   6.921   3.071   1.677
 5338SOL    HW116913   6.867   3.122   1.610
 5338SOL    HW216914   6.985   3.011   1.629
 5339SOL     OW16915   4.998   4.004   2.948
 5339SOL    HW116916   5.008   3.925   3.008
 5339SOL    HW216917   4.973   3.973   2.856
 5340SOL     OW16918   5.757   3.908   1.180
 5340SOL    HW116919   5.712   3.847   1.246
 5340SOL    HW216920   5.854   3.913   1.201
 5341SOL     OW16921   4.731   5.370   3.218
 5341SOL    HW116922   4.811   5.419   3.182
 5341SOL    HW216923   4.721   5.390   3.315
 5342SOL     OW16924   5.962   5.114   4.693
 5342SOL    HW116925   5.906   5.043   4.651
 5342SOL    HW216926   5.915   5.151   4.773
 5343SOL     OW16927   3.444   3.900   0.096
 5343SOL    HW116928   3.354   3.885   0.135
 5343SOL    HW216929   3.506   3.828   0.126
 5344SOL     OW16930   5.997   1.780   7.019
 5344SOL    HW116931   5.938   1.722   6.962
 5344SOL    HW216932   6.091   1.774   6.986
 5345SOL     OW16933   3.864   0.861   6.639
 5345SOL    HW116934   3.779   0.859   6.691
 5345SOL    HW216935   3.891   0.768   6.615
 5346SOL     OW16936   2.419   5.908   3.262
 5346SOL    HW116937   2.365   5.875   3.185
 5346SOL    HW216938   2.419   5.839   3.334
 5347SOL     OW16939   5.899   2.212   5.091
 5347SOL    HW116940   5.908   2.308   5.118
 5347SOL    HW216941   5.870   2.157   5.169
 5348SOL     OW16942   4.982   2.692   5.312
 5348SOL    HW116943   4.918   2.758   5.352
 5348SOL    HW216944   4.963   2.601   5.348
 5349SOL     OW16945   0.907   3.762   0.418
 5349SOL    HW116946   0.847   3.833   0.454
 5349SOL    HW216947   1.001   3.796   0.415
 5350SOL     OW16948   1.303   0.212   6.342
 5350SOL    HW116949   1.236   0.275   6.382
 5350SOL    HW216950   1.283   0.202   6.244
 5351SOL     OW16951   0.917   5.838   3.523
 5351SOL    HW116952   0.822   5.869   3.518
 5351SOL    HW216953   0.941   5.821   3.619
 5352SOL     OW16954   0.491   2.758   5.974
 5352SOL    HW116955   0.556   2.687   6.000
 5352SOL    HW216956   0.540   2.842   5.951
 5353SOL     OW16957   2.148   6.444   3.002
 5353SOL    HW116958   2.093   6.429   2.920
 5353SOL    HW216959   2.199   6.529   2.994
 5354SOL     OW16960   3.135   5.999   1.686
 5354SOL    HW116961   3.132   6.092   1.649
 5354SOL    HW216962   3.180   6.001   1.776
 5355SOL     OW16963   5.039   4.059   5.870
 5355SOL    HW116964   5.016   4.055   5.773
 5355SOL    HW216965   5.047   4.154   5.899
 5356SOL     OW16966   6.836   6.979   1.530
 5356SOL    HW116967   6.902   6.906   1.548
 5356SOL    HW216968   6.743   6.945   1.549
 5357SOL     OW16969   6.135   3.456   2.533
 5357SOL    HW116970   6.216   3.449   2.592
 5357SOL    HW216971   6.054   3.470   2.590
 5358SOL     OW16972   5.678   6.815   6.431
 5358SOL    HW116973   5.608   6.750   6.461
 5358SOL    HW216974   5.721   6.781   6.347
 5359SOL     OW16975   3.491   1.959   0.176
 5359SOL    HW116976   3.547   1.878   0.161
 5359SOL    HW216977   3.510   1.996   0.267
 5360SOL     OW16978   5.500   5.799   3.110
 5360SOL    HW116979   5.449   5.864   3.167
 5360SOL    HW216980   5.559   5.743   3.168
 5361SOL     OW16981   1.443   4.241   2.703
 5361SOL    HW116982   1.524   4.264   2.756
 5361SOL    HW216983   1.435   4.305   2.626
 5362SOL     OW16984   5.681   1.796   4.022
 5362SOL    HW116985   5.650   1.830   4.110
 5362SOL    HW216986   5.769   1.750   4.033
 5363SOL     OW16987   6.630   4.916   5.991
 5363SOL    HW116988   6.548   4.859   5.986
 5363SOL    HW216989   6.605   5.009   6.017
 5364SOL     OW16990   4.954   2.814   1.223
 5364SOL    HW116991   4.989   2.846   1.311
 5364SOL    HW216992   5.027   2.818   1.155
 5365SOL     OW16993   3.345   3.304   6.018
 5365SOL    HW116994   3.361   3.206   6.008
 5365SOL    HW216995   3.432   3.352   6.028
 5366SOL     OW16996   6.982   4.735   3.900
 5366SOL    HW116997   7.012   4.812   3.958
 5366SOL    HW216998   6.896   4.698   3.936
 5367SOL     OW16999   6.045   5.868   0.775
 5367SOL    HW117000   6.084   5.816   0.698
 5367SOL    HW217001   5.983   5.938   0.740
 5368SOL     OW17002   0.070   5.768   5.507
 5368SOL    HW117003   0.110   5.727   5.425
 5368SOL    HW217004   0.129   5.749   5.586
 5369SOL     OW17005   3.348   0.405   2.595
 5369SOL    HW117006   3.408   0.328   2.574
 5369SOL    HW217007   3.299   0.388   2.680
 5370SOL     OW17008   2.593   2.201   0.415
 5370SOL    HW117009   2.493   2.210   0.417
 5370SOL    HW217010   2.624   2.203   0.320
 5371SOL     OW17011   6.254   4.908   3.347
 5371SOL    HW117012   6.259   4.911   3.247
 5371SOL    HW217013   6.294   4.992   3.384
 5372SOL     OW17014   0.298   0.994   4.174
 5372SOL    HW117015   0.389   0.958   4.156
 5372SOL    HW217016   0.237   0.972   4.097
 5373SOL     OW17017   3.781   7.006   0.539
 5373SOL    HW117018   3.755   6.919   0.495
 5373SOL    HW217019   3.741   7.010   0.630
 5374SOL     OW17020   1.699   3.579   1.090
 5374SOL    HW117021   1.670   3.673   1.106
 5374SOL    HW217022   1.740   3.542   1.174
 5375SOL     OW17023   2.930   5.115   4.746
 5375SOL    HW117024   2.931   5.017   4.765
 5375SOL    HW217025   2.836   5.145   4.727
 5376SOL     OW17026   0.021   6.792   2.556
 5376SOL    HW117027   0.014   6.770   2.653
 5376SOL    HW217028   0.042   6.890   2.546
 5377SOL     OW17029   0.639   2.679   1.583
 5377SOL    HW117030   0.702   2.645   1.653
 5377SOL    HW217031   0.691   2.715   1.506
 5378SOL     OW17032   4.642   0.230   3.979
 5378SOL    HW117033   4.718   0.249   4.042
 5378SOL    HW217034   4.566   0.291   3.999
 5379SOL     OW17035   3.283   2.189   4.124
 5379SOL    HW117036   3.208   2.166   4.187
 5379SOL    HW217037   3.370   2.169   4.168
 5380SOL     OW17038   4.675   0.043   1.450
 5380SOL    HW117039   4.582   0.063   1.420
 5380SOL    HW217040   4.720   0.129   1.476
 5381SOL     OW17041   2.729   1.923   2.832
 5381SOL    HW117042   2.781   1.907   2.916
 5381SOL    HW217043   2.789   1.909   2.753
 5382SOL     OW17044   4.774   0.479   2.619
 5382SOL    HW117045   4.759   0.541   2.542
 5382SOL    HW217046   4.706   0.496   2.690
 5383SOL     OW17047   2.511   4.206   5.312
 5383SOL    HW117048   2.494   4.130   5.250
 5383SOL    HW217049   2.495   4.292   5.264
 5384SOL     OW17050   5.613   6.314   5.948
 5384SOL    HW117051   5.603   6.405   5.908
 5384SOL    HW217052   5.621   6.322   6.047
 5385SOL     OW17053   3.550   3.784   0.698
 5385SOL    HW117054   3.507   3.702   0.736
 5385SOL    HW217055   3.498   3.816   0.619
 5386SOL     OW17056   4.165   4.927   3.263
 5386SOL    HW117057   4.261   4.944   3.241
 5386SOL    HW217058   4.129   5.004   3.316
 5387SOL     OW17059   0.634   2.446   5.234
 5387SOL    HW117060   0.535   2.452   5.222
 5387SOL    HW217061   0.668   2.530   5.275
 5388SOL     OW17062   6.526   6.859   3.485
 5388SOL    HW117063   6.566   6.768   3.481
 5388SOL    HW217064   6.453   6.861   3.554
 5389SOL     OW17065   6.021   1.528   4.546
 5389SOL    HW117066   5.999   1.430   4.541
 5389SOL    HW217067   6.117   1.539   4.570
 5390SOL     OW17068   5.501   2.952   2.960
 5390SOL    HW117069   5.448   2.869   2.945
 5390SOL    HW217070   5.599   2.930   2.959
 5391SOL     OW17071   4.612   3.308   1.117
 5391SOL    HW117072   4.658   3.223   1.143
 5391SOL    HW217073   4.550   3.336   1.190
 5392SOL     OW17074   5.286   0.831   3.779
 5392SOL    HW117075   5.375   0.874   3.767
 5392SOL    HW217076   5.262   0.830   3.876
 5393SOL     OW17077   4.863   3.429   2.757
 5393SOL    HW117078   4.905   3.465   2.841
 5393SOL    HW217079   4.786   3.488   2.732
 5394SOL     OW17080   0.662   2.805   3.080
 5394SOL    HW117081   0.704   2.881   3.128
 5394SOL    HW217082   0.732   2.741   3.050
 5395SOL     OW17083   0.843   0.729   1.689
 5395SOL    HW117084   0.749   0.730   1.655
 5395SOL    HW217085   0.845   0.766   1.782
 5396SOL     OW17086   3.760   2.150   0.671
 5396SOL    HW117087   3.844   2.148   0.726
 5396SOL    HW217088   3.741   2.244   0.643
 5397SOL     OW17089   0.745   6.521   3.135
 5397SOL    HW117090   0.779   6.534   3.228
 5397SOL    HW217091   0.784   6.591   3.075
 5398SOL     OW17092   5.290   2.318   3.298
 5398SOL    HW117093   5.266   2.245   3.235
 5398SOL    HW217094   5.235   2.399   3.278
 5399SOL     OW17095   2.802   2.505   0.239
 5399SOL    HW117096   2.839   2.514   0.147
 5399SOL    HW217097   2.842   2.425   0.284
 5400SOL     OW17098   4.847   2.898   0.798
 5400SOL    HW117099   4.781   2.918   0.725
 5400SOL    HW217100   4.909   2.976   0.808
 5401SOL     OW17101   5.170   4.317   1.281
 5401SOL    HW117102   5.189   4.294   1.185
 5401SOL    HW217103   5.181   4.415   1.295
 5402SOL     OW17104   2.176   5.635   1.851
 5402SOL    HW117105   2.100   5.580   1.886
 5402SOL    HW217106   2.150   5.732   1.853
 5403SOL     OW17107   6.331   2.554   5.249
 5403SOL    HW117108   6.303   2.586   5.339
 5403SOL    HW217109   6.327   2.630   5.184
 5404SOL     OW17110   4.735   6.504   0.312
 5404SOL    HW117111   4.727   6.406   0.330
 5404SOL    HW217112   4.828   6.534   0.332
 5405SOL     OW17113   6.282   5.231   5.946
 5405SOL    HW117114   6.298   5.185   5.858
 5405SOL    HW217115   6.195   5.201   5.984
 5406SOL     OW17116   1.786   1.469   5.461
 5406SOL    HW117117   1.882   1.494   5.452
 5406SOL    HW217118   1.728   1.547   5.440
 5407SOL     OW17119   1.901   1.748   2.719
 5407SOL    HW117120   1.886   1.771   2.623
 5407SOL    HW217121   1.962   1.815   2.761
 5408SOL     OW17122   2.317   2.790   4.344
 5408SOL    HW117123   2.400   2.751   4.304
 5408SOL    HW217124   2.290   2.738   4.424
 5409SOL     OW17125   0.183   4.537   3.461
 5409SOL    HW117126   0.270   4.500   3.494
 5409SOL    HW217127   0.122   4.553   3.538
 5410SOL     OW17128   5.998   1.269   0.060
 5410SOL    HW117129   6.012   1.215   0.143
 5410SOL    HW217130   5.997   1.367   0.084
 5411SOL     OW17131   2.940   6.266   1.855
 5411SOL    HW117132   2.911   6.354   1.819
 5411SOL    HW217133   2.997   6.219   1.788
 5412SOL     OW17134   2.361   2.249   5.841
 5412SOL    HW117135   2.375   2.304   5.923
 5412SOL    HW217136   2.397   2.157   5.856
 5413SOL     OW17137   0.010   5.405   5.565
 5413SOL    HW117138   6.989   5.406   5.653
 5413SOL    HW217139   0.105   5.433   5.577
 5414SOL     OW17140   5.952   5.918   5.583
 5414SOL    HW117141   5.980   5.967   5.500
 5414SOL    HW217142   5.944   5.821   5.563
 5415SOL     OW17143   2.063   0.595   0.566
 5415SOL    HW117144   2.135   0.552   0.511
 5415SOL    HW217145   2.021   0.527   0.626
 5416SOL     OW17146   4.363   4.873   6.201
 5416SOL    HW117147   4.384   4.921   6.116
 5416SOL    HW217148   4.440   4.882   6.264
 5417SOL     OW17149   5.429   0.610   1.361
 5417SOL    HW117150   5.354   0.590   1.424
 5417SOL    HW217151   5.449   0.529   1.306
 5418SOL     OW17152   0.239   2.523   5.617
 5418SOL    HW117153   0.160   2.567   5.575
 5418SOL    HW217154   0.261   2.440   5.567
 5419SOL     OW17155   4.244   2.450   5.763
 5419SOL    HW117156   4.196   2.490   5.841
 5419SOL    HW217157   4.280   2.360   5.789
 5420SOL     OW17158   1.486   1.737   1.414
 5420SOL    HW117159   1.504   1.707   1.320
 5420SOL    HW217160   1.430   1.668   1.460
 5421SOL     OW17161   4.001   5.696   1.049
 5421SOL    HW117162   3.917   5.693   0.995
 5421SOL    HW217163   4.063   5.624   1.017
 5422SOL     OW17164   2.521   6.770   3.277
 5422SOL    HW117165   2.589   6.700   3.300
 5422SOL    HW217166   2.433   6.746   3.318
 5423SOL     OW17167   4.174   6.636   2.762
 5423SOL    HW117168   4.235   6.675   2.832
 5423SOL    HW217169   4.100   6.586   2.807
 5424SOL     OW17170   3.901   3.505   5.781
 5424SOL    HW117171   3.926   3.447   5.859
 5424SOL    HW217172   3.914   3.454   5.696
 5425SOL     OW17173   2.112   5.507   4.871
 5425SOL    HW117174   2.098   5.425   4.816
 5425SOL    HW217175   2.055   5.581   4.834
 5426SOL     OW17176   1.941   4.045   0.077
 5426SOL    HW117177   1.842   4.044   0.094
 5426SOL    HW217178   1.965   4.129   0.028
 5427SOL     OW17179   4.683   1.623   0.488
 5427SOL    HW117180   4.634   1.698   0.531
 5427SOL    HW217181   4.782   1.637   0.499
 5428SOL     OW17182   4.807   5.622   2.481
 5428SOL    HW117183   4.820   5.667   2.569
 5428SOL    HW217184   4.896   5.607   2.438
 5429SOL     OW17185   2.624   6.359   3.413
 5429SOL    HW117186   2.574   6.280   3.377
 5429SOL    HW217187   2.611   6.437   3.352
 5430SOL     OW17188   0.685   3.478   5.310
 5430SOL    HW117189   0.630   3.503   5.390
 5430SOL    HW217190   0.625   3.470   5.230
 5431SOL     OW17191   5.629   4.563   0.624
 5431SOL    HW117192   5.537   4.601   0.629
 5431SOL    HW217193   5.626   4.472   0.583
 5432SOL     OW17194   2.046   5.488   5.873
 5432SOL    HW117195   2.101   5.433   5.810
 5432SOL    HW217196   2.083   5.479   5.966
 5433SOL     OW17197   2.644   6.957   1.415
 5433SOL    HW117198   2.657   6.935   1.318
 5433SOL    HW217199   2.695   0.014   1.438
 5434SOL     OW17200   5.495   5.995   4.269
 5434SOL    HW117201   5.410   5.948   4.290
 5434SOL    HW217202   5.563   5.928   4.237
 5435SOL     OW17203   0.465   3.008   0.219
 5435SOL    HW117204   0.372   3.024   0.186
 5435SOL    HW217205   0.530   3.048   0.155
 5436SOL     OW17206   1.067   4.539   0.930
 5436SOL    HW117207   1.098   4.534   1.025
 5436SOL    HW217208   0.997   4.470   0.914
 5437SOL     OW17209   2.934   6.667   5.851
 5437SOL    HW117210   2.926   6.626   5.760
 5437SOL    HW217211   2.876   6.617   5.915
 5438SOL     OW17212   5.034   6.871   3.010
 5438SOL    HW117213   4.955   6.821   2.975
 5438SOL    HW217214   5.003   6.945   3.070
 5439SOL     OW17215   1.360   3.522   2.099
 5439SOL    HW117216   1.287   3.520   2.168
 5439SOL    HW217217   1.439   3.570   2.137
 5440SOL     OW17218   5.454   6.209   3.151
 5440SOL    HW117219   5.551   6.234   3.157
 5440SOL    HW217220   5.399   6.291   3.133
 5441SOL     OW17221   5.601   0.270   5.213
 5441SOL    HW117222   5.605   0.281   5.114
 5441SOL    HW217223   5.644   0.185   5.240
 5442SOL     OW17224   2.710   6.171   0.065
 5442SOL    HW117225   2.804   6.161   0.098
 5442SOL    HW217226   2.705   6.142   6.995
 5443SOL     OW17227   5.986   1.603   3.429
 5443SOL    HW117228   5.959   1.525   3.372
 5443SOL    HW217229   5.937   1.599   3.516
 5444SOL     OW17230   1.830   1.583   6.645
 5444SOL    HW117231   1.860   1.620   6.557
 5444SOL    HW217232   1.880   1.628   6.718
 5445SOL     OW17233   6.276   6.481   5.108
 5445SOL    HW117234   6.283   6.448   5.202
 5445SOL    HW217235   6.190   6.448   5.068
 5446SOL     OW17236   2.439   3.921   0.171
 5446SOL    HW117237   2.437   3.896   0.268
 5446SOL    HW217238   2.355   3.969   0.147
 5447SOL     OW17239   5.477   2.532   1.543
 5447SOL    HW117240   5.544   2.565   1.610
 5447SOL    HW217241   5.402   2.598   1.537
 5448SOL     OW17242   5.902   5.531   1.137
 5448SOL    HW117243   5.911   5.549   1.235
 5448SOL    HW217244   5.897   5.617   1.088
 5449SOL     OW17245   1.934   0.067   2.587
 5449SOL    HW117246   1.969   0.155   2.552
 5449SOL    HW217247   1.852   0.084   2.642
 5450SOL     OW17248   4.279   4.611   1.753
 5450SOL    HW117249   4.186   4.637   1.780
 5450SOL    HW217250   4.278   4.517   1.718
 5451SOL     OW17251   0.977   5.581   3.433
 5451SOL    HW117252   1.021   5.548   3.516
 5451SOL    HW217253   0.942   5.673   3.447
 5452SOL     OW17254   2.150   3.695   3.375
 5452SOL    HW117255   2.064   3.679   3.326
 5452SOL    HW217256   2.189   3.782   3.346
 5453SOL     OW17257   5.962   5.782   4.426
 5453SOL    HW117258   5.922   5.690   4.426
 5453SOL    HW217259   5.923   5.835   4.351
 5454SOL     OW17260   6.695   3.918   1.867
 5454SOL    HW117261   6.726   3.998   1.919
 5454SOL    HW217262   6.619   3.874   1.916
 5455SOL     OW17263   2.152   2.522   2.870
 5455SOL    HW117264   2.138   2.474   2.956
 5455SOL    HW217265   2.216   2.598   2.884
 5456SOL     OW17266   5.157   2.976   0.145
 5456SOL    HW117267   5.117   2.928   0.067
 5456SOL    HW217268   5.096   3.050   0.174
 5457SOL     OW17269   5.584   1.318   0.631
 5457SOL    HW117270   5.638   1.346   0.711
 5457SOL    HW217271   5.563   1.399   0.576
 5458SOL     OW17272   6.429   4.499   5.964
 5458SOL    HW117273   6.513   4.547   5.991
 5458SOL    HW217274   6.414   4.511   5.866
 5459SOL     OW17275   2.209   3.613   5.702
 5459SOL    HW117276   2.226   3.515   5.688
 5459SOL    HW217277   2.281   3.651   5.761
 5460SOL     OW17278   6.624   1.176   1.203
 5460SOL    HW117279   6.614   1.216   1.113
 5460SOL    HW217280   6.610   1.246   1.273
 5461SOL     OW17281   5.806   0.498   6.297
 5461SOL    HW117282   5.854   0.508   6.385
 5461SOL    HW217283   5.872   0.500   6.222
 5462SOL     OW17284   5.520   4.891   0.072
 5462SOL    HW117285   5.500   4.858   0.164
 5462SOL    HW217286   5.470   4.976   0.055
 5463SOL     OW17287   2.827   4.648   0.265
 5463SOL    HW117288   2.787   4.616   0.179
 5463SOL    HW217289   2.765   4.713   0.309
 5464SOL     OW17290   2.264   5.548   4.003
 5464SOL    HW117291   2.190   5.599   4.047
 5464SOL    HW217292   2.343   5.545   4.064
 5465SOL     OW17293   0.728   1.367   4.860
 5465SOL    HW117294   0.779   1.407   4.784
 5465SOL    HW217295   0.737   1.267   4.857
 5466SOL     OW17296   5.055   2.489   4.838
 5466SOL    HW117297   5.001   2.569   4.811
 5466SOL    HW217298   5.060   2.425   4.761
 5467SOL     OW17299   4.944   4.284   3.604
 5467SOL    HW117300   4.875   4.306   3.673
 5467SOL    HW217301   4.932   4.343   3.525
 5468SOL     OW17302   0.244   2.331   1.283
 5468SOL    HW117303   0.238   2.250   1.341
 5468SOL    HW217304   0.160   2.340   1.229
 5469SOL     OW17305   4.650   1.048   3.185
 5469SOL    HW117306   4.587   1.067   3.110
 5469SOL    HW217307   4.622   0.963   3.231
 5470SOL     OW17308   2.665   4.600   3.595
 5470SOL    HW117309   2.658   4.566   3.502
 5470SOL    HW217310   2.753   4.646   3.608
 5471SOL     OW17311   5.403   0.393   3.932
 5471SOL    HW117312   5.365   0.304   3.958
 5471SOL    HW217313   5.333   0.445   3.883
 5472SOL     OW17314   2.783   3.995   0.138
 5472SOL    HW117315   2.692   3.998   0.096
 5472SOL    HW217316   2.852   3.983   0.067
 5473SOL     OW17317   3.086   4.790   2.005
 5473SOL    HW117318   3.005   4.731   2.007
 5473SOL    HW217319   3.143   4.770   2.084
 5474SOL     OW17320   0.750   5.376   1.852
 5474SOL    HW117321   0.776   5.280   1.866
 5474SOL    HW217322   0.801   5.434   1.916
 5475SOL     OW17323   0.583   0.904   5.684
 5475SOL    HW117324   0.505   0.874   5.738
 5475SOL    HW217325   0.567   0.997   5.650
 5476SOL     OW17326   2.890   1.260   4.486
 5476SOL    HW117327   2.799   1.250   4.528
 5476SOL    HW217328   2.928   1.349   4.512
 5477SOL     OW17329   2.209   3.970   3.249
 5477SOL    HW117330   2.249   3.969   3.158
 5477SOL    HW217331   2.110   3.971   3.243
 5478SOL     OW17332   6.523   3.032   5.870
 5478SOL    HW117333   6.589   3.107   5.866
 5478SOL    HW217334   6.555   2.961   5.933
 5479SOL     OW17335   5.599   3.907   4.566
 5479SOL    HW117336   5.503   3.883   4.580
 5479SOL    HW217337   5.611   3.946   4.475
 5480SOL     OW17338   1.912   2.628   6.281
 5480SOL    HW117339   1.986   2.695   6.290
 5480SOL    HW217340   1.827   2.676   6.257
 5481SOL     OW17341   3.474   1.198   0.527
 5481SOL    HW117342   3.546   1.257   0.564
 5481SOL    HW217343   3.394   1.202   0.586
 5482SOL     OW17344   5.274   4.737   2.208
 5482SOL    HW117345   5.328   4.817   2.234
 5482SOL    HW217346   5.191   4.766   2.161
 5483SOL     OW17347   5.826   1.654   0.533
 5483SOL    HW117348   5.819   1.581   0.466
 5483SOL    HW217349   5.897   1.632   0.600
 5484SOL     OW17350   5.903   0.190   5.890
 5484SOL    HW117351   5.907   0.177   5.989
 5484SOL    HW217352   5.901   0.101   5.845
 5485SOL     OW17353   2.824   1.118   3.807
 5485SOL    HW117354   2.779   1.081   3.888
 5485SOL    HW217355   2.920   1.089   3.806
 5486SOL     OW17356   6.994   0.595   3.890
 5486SOL    HW117357   6.994   0.695   3.898
 5486SOL    HW217358   0.048   0.558   3.937
 5487SOL     OW17359   4.002   5.459   1.315
 5487SOL    HW117360   4.084   5.404   1.299
 5487SOL    HW217361   3.989   5.522   1.239
 5488SOL     OW17362   4.773   0.585   6.305
 5488SOL    HW117363   4.731   0.548   6.223
 5488SOL    HW217364   4.713   0.655   6.345
 5489SOL     OW17365   6.487   4.083   2.429
 5489SOL    HW117366   6.490   4.183   2.430
 5489SOL    HW217367   6.456   4.050   2.518
 5490SOL     OW17368   2.938   0.829   6.787
 5490SOL    HW117369   2.940   0.749   6.727
 5490SOL    HW217370   2.858   0.824   6.847
 5491SOL     OW17371   6.259   6.765   1.364
 5491SOL    HW117372   6.195   6.787   1.438
 5491SOL    HW217373   6.353   6.775   1.397
 5492SOL     OW17374   1.609   1.684   4.889
 5492SOL    HW117375   1.664   1.767   4.885
 5492SOL    HW217376   1.670   1.604   4.887
 5493SOL     OW17377   4.013   0.842   0.088
 5493SOL    HW117378   4.080   0.917   0.088
 5493SOL    HW217379   3.921   0.879   0.077
 5494SOL     OW17380   5.286   3.543   2.629
 5494SOL    HW117381   5.269   3.629   2.579
 5494SOL    HW217382   5.244   3.549   2.720
 5495SOL     OW17383   3.380   3.308   4.709
 5495SOL    HW117384   3.449   3.296   4.781
 5495SOL    HW217385   3.301   3.249   4.728
 5496SOL     OW17386   4.577   5.044   2.311
 5496SOL    HW117387   4.518   5.036   2.231
 5496SOL    HW217388   4.565   5.134   2.353
 5497SOL     OW17389   5.330   0.091   7.025
 5497SOL    HW117390   5.272   0.144   0.061
 5497SOL    HW217391   5.273   0.048   6.954
 5498SOL     OW17392   3.949   1.040   4.133
 5498SOL    HW117393   3.982   1.016   4.225
 5498SOL    HW217394   3.921   1.136   4.133
 5499SOL     OW17395   0.170   0.534   4.946
 5499SOL    HW117396   0.226   0.559   5.025
 5499SOL    HW217397   0.121   0.614   4.913
 5500SOL     OW17398   2.239   6.473   0.752
 5500SOL    HW117399   2.262   6.466   0.655
 5500SOL    HW217400   2.242   6.383   0.794
 5501SOL     OW17401   2.429   1.022   2.154
 5501SOL    HW117402   2.428   1.095   2.086
 5501SOL    HW217403   2.415   1.060   2.245
 5502SOL     OW17404   5.607   4.533   0.332
 5502SOL    HW117405   5.628   4.456   0.392
 5502SOL    HW217406   5.664   4.528   0.250
 5503SOL     OW17407   6.683   0.708   3.816
 5503SOL    HW117408   6.734   0.671   3.894
 5503SOL    HW217409   6.678   0.808   3.824
 5504SOL     OW17410   2.399   2.383   4.829
 5504SOL    HW117411   2.398   2.292   4.870
 5504SOL    HW217412   2.311   2.400   4.783
 5505SOL     OW17413   3.444   4.941   0.672
 5505SOL    HW117414   3.510   4.910   0.603
 5505SOL    HW217415   3.395   4.863   0.709
 5506SOL     OW17416   1.112   6.742   4.881
 5506SOL    HW117417   1.064   6.684   4.815
 5506SOL    HW217418   1.147   6.823   4.834
 5507SOL     OW17419   2.711   5.430   4.942
 5507SOL    HW117420   2.772   5.435   5.021
 5507SOL    HW217421   2.625   5.387   4.969
 5508SOL     OW17422   2.395   0.907   5.395
 5508SOL    HW117423   2.315   0.967   5.384
 5508SOL    HW217424   2.454   0.943   5.467
 5509SOL     OW17425   7.015   0.459   5.732
 5509SOL    HW117426   0.026   0.437   5.822
 5509SOL    HW217427   6.995   0.374   5.682
 5510SOL     OW17428   0.848   0.373   5.358
 5510SOL    HW117429   0.933   0.384   5.409
 5510SOL    HW217430   0.834   0.275   5.339
 5511SOL     OW17431   0.014   2.358   1.080
 5511SOL    HW117432   0.052   2.287   1.020
 5511SOL    HW217433   6.943   2.338   1.099
 5512SOL     OW17434   6.448   6.833   0.444
 5512SOL    HW117435   6.508   6.764   0.403
 5512SOL    HW217436   6.447   6.915   0.386
 5513SOL     OW17437   2.570   5.786   4.445
 5513SOL    HW117438   2.519   5.716   4.495
 5513SOL    HW217439   2.656   5.805   4.493
 5514SOL     OW17440   5.389   5.496   3.382
 5514SOL    HW117441   5.376   5.487   3.283
 5514SOL    HW217442   5.309   5.459   3.429
 5515SOL     OW17443   0.687   4.082   3.442
 5515SOL    HW117444   0.635   4.040   3.516
 5515SOL    HW217445   0.693   4.018   3.365
 5516SOL     OW17446   2.008   2.684   0.264
 5516SOL    HW117447   1.925   2.660   0.314
 5516SOL    HW217448   2.035   2.607   0.206
 5517SOL     OW17449   2.921   0.785   2.250
 5517SOL    HW117450   2.858   0.773   2.173
 5517SOL    HW217451   2.871   0.774   2.336
 5518SOL     OW17452   5.798   3.461   5.922
 5518SOL    HW117453   5.731   3.510   5.867
 5518SOL    HW217454   5.773   3.364   5.925
 5519SOL     OW17455   5.732   4.630   2.505
 5519SOL    HW117456   5.709   4.632   2.602
 5519SOL    HW217457   5.688   4.708   2.459
 5520SOL     OW17458   1.435   2.824   1.213
 5520SOL    HW117459   1.455   2.891   1.285
 5520SOL    HW217460   1.508   2.756   1.209
 5521SOL     OW17461   5.602   4.421   6.501
 5521SOL    HW117462   5.568   4.514   6.516
 5521SOL    HW217463   5.640   4.414   6.409
 5522SOL     OW17464   1.727   3.081   1.746
 5522SOL    HW117465   1.632   3.106   1.729
 5522SOL    HW217466   1.731   2.985   1.774
 5523SOL     OW17467   2.600   6.591   1.782
 5523SOL    HW117468   2.668   6.566   1.713
 5523SOL    HW217469   2.596   6.520   1.852
 5524SOL     OW17470   6.024   6.734   5.945
 5524SOL    HW117471   6.018   6.657   5.882
 5524SOL    HW217472   5.935   6.778   5.954
 5525SOL     OW17473   6.498   6.447   3.320
 5525SOL    HW117474   6.490   6.366   3.378
 5525SOL    HW217475   6.549   6.424   3.237
 5526SOL     OW17476   5.671   3.187   4.680
 5526SOL    HW117477   5.710   3.105   4.639
 5526SOL    HW217478   5.736   3.225   4.747
 5527SOL     OW17479   2.816   3.403   0.240
 5527SOL    HW117480   2.755   3.323   0.247
 5527SOL    HW217481   2.774   3.471   0.180
 5528SOL     OW17482   6.459   2.974   2.647
 5528SOL    HW117483   6.495   2.981   2.555
 5528SOL    HW217484   6.383   3.038   2.659
 5529SOL     OW17485   1.554   0.755   4.332
 5529SOL    HW117486   1.591   0.693   4.263
 5529SOL    HW217487   1.550   0.848   4.295
 5530SOL     OW17488   6.744   3.014   6.661
 5530SOL    HW117489   6.724   2.971   6.749
 5530SOL    HW217490   6.660   3.052   6.623
 5531SOL     OW17491   2.969   3.390   0.458
 5531SOL    HW117492   2.933   3.383   0.365
 5531SOL    HW217493   3.065   3.419   0.455
 5532SOL     OW17494   2.655   2.443   1.725
 5532SOL    HW117495   2.575   2.397   1.764
 5532SOL    HW217496   2.737   2.415   1.776
 5533SOL     OW17497   2.923   0.646   0.954
 5533SOL    HW117498   2.833   0.610   0.930
 5533SOL    HW217499   2.913   0.737   0.995
 5534SOL     OW17500   0.567   3.251   5.074
 5534SOL    HW117501   0.628   3.195   5.130
 5534SOL    HW217502   0.472   3.235   5.102
 5535SOL     OW17503   4.982   4.456   3.835
 5535SOL    HW117504   5.001   4.477   3.930
 5535SOL    HW217505   5.057   4.488   3.777
 5536SOL     OW17506   2.407   1.290   4.578
 5536SOL    HW117507   2.381   1.194   4.578
 5536SOL    HW217508   2.328   1.346   4.604
 5537SOL     OW17509   3.718   1.184   3.721
 5537SOL    HW117510   3.679   1.125   3.650
 5537SOL    HW217511   3.717   1.279   3.690
 5538SOL     OW17512   4.767   2.480   2.316
 5538SOL    HW117513   4.696   2.461   2.383
 5538SOL    HW217514   4.771   2.578   2.297
 5539SOL     OW17515   1.504   0.584   6.202
 5539SOL    HW117516   1.546   0.525   6.271
 5539SOL    HW217517   1.571   0.605   6.130
 5540SOL     OW17518   5.104   6.951   5.191
 5540SOL    HW117519   5.036   7.000   5.245
 5540SOL    HW217520   5.194   6.964   5.232
 5541SOL     OW17521   4.165   2.963   5.660
 5541SOL    HW117522   4.192   2.873   5.693
 5541SOL    HW217523   4.246   3.022   5.654
 5542SOL     OW17524   4.961   4.319   6.405
 5542SOL    HW117525   4.874   4.270   6.408
 5542SOL    HW217526   4.968   4.370   6.319
 5543SOL     OW17527   0.617   0.575   6.404
 5543SOL    HW117528   0.606   0.512   6.481
 5543SOL    HW217529   0.530   0.583   6.355
 5544SOL     OW17530   3.443   5.190   0.419
 5544SOL    HW117531   3.480   5.278   0.449
 5544SOL    HW217532   3.371   5.162   0.482
 5545SOL     OW17533   5.663   1.784   3.091
 5545SOL    HW117534   5.611   1.829   3.163
 5545SOL    HW217535   5.750   1.752   3.128
 5546SOL     OW17536   0.651   6.178   4.457
 5546SOL    HW117537   0.566   6.138   4.425
 5546SOL    HW217538   0.729   6.129   4.418
 5547SOL     OW17539   5.038   1.302   4.336
 5547SOL    HW117540   5.102   1.374   4.361
 5547SOL    HW217541   4.947   1.324   4.373
 5548SOL     OW17542   0.880   3.298   5.237
 5548SOL    HW117543   0.795   3.349   5.253
 5548SOL    HW217544   0.951   3.361   5.205
 5549SOL     OW17545   4.276   2.940   0.389
 5549SOL    HW117546   4.321   2.884   0.320
 5549SOL    HW217547   4.251   3.028   0.349
 5550SOL     OW17548   2.955   3.798   1.607
 5550SOL    HW117549   2.888   3.844   1.549
 5550SOL    HW217550   2.958   3.844   1.696
 5551SOL     OW17551   1.422   4.348   2.436
 5551SOL    HW117552   1.417   4.275   2.368
 5551SOL    HW217553   1.428   4.436   2.389
 5552SOL     OW17554   0.805   0.785   0.187
 5552SOL    HW117555   0.846   0.862   0.140
 5552SOL    HW217556   0.868   0.707   0.186
 5553SOL     OW17557   5.790   6.017   0.886
 5553SOL    HW117558   5.713   6.076   0.908
 5553SOL    HW217559   5.848   6.061   0.817
 5554SOL     OW17560   6.596   2.680   1.535
 5554SOL    HW117561   6.530   2.754   1.521
 5554SOL    HW217562   6.684   2.719   1.564
 5555SOL     OW17563   1.353   4.876   2.363
 5555SOL    HW117564   1.444   4.855   2.400
 5555SOL    HW217565   1.293   4.798   2.376
 5556SOL     OW17566   6.805   1.731   4.947
 5556SOL    HW117567   6.717   1.771   4.973
 5556SOL    HW217568   6.795   1.632   4.938
 5557SOL     OW17569   3.534   6.980   3.130
 5557SOL    HW117570   3.525   6.950   3.225
 5557SOL    HW217571   3.448   7.022   3.100
 5558SOL     OW17572   3.976   3.459   6.193
 5558SOL    HW117573   3.900   3.523   6.205
 5558SOL    HW217574   4.063   3.508   6.203
 5559SOL     OW17575   3.570   0.480   2.849
 5559SOL    HW117576   3.623   0.437   2.776
 5559SOL    HW217577   3.485   0.428   2.863
 5560SOL     OW17578   6.970   5.692   3.616
 5560SOL    HW117579   7.013   5.680   3.526
 5560SOL    HW217580   6.968   5.604   3.663
 5561SOL     OW17581   3.442   0.584   3.579
 5561SOL    HW117582   3.529   0.564   3.534
 5561SOL    HW217583   3.373   0.605   3.510
 5562SOL     OW17584   4.748   3.351   0.561
 5562SOL    HW117585   4.710   3.394   0.480
 5562SOL    HW217586   4.807   3.417   0.609
 5563SOL     OW17587   2.209   4.323   2.062
 5563SOL    HW117588   2.140   4.383   2.020
 5563SOL    HW217589   2.237   4.253   1.996
 5564SOL     OW17590   4.525   0.016   6.364
 5564SOL    HW117591   4.612   7.009   6.325
 5564SOL    HW217592   4.456   0.017   6.292
 5565SOL     OW17593   3.640   1.508   6.224
 5565SOL    HW117594   3.649   1.551   6.134
 5565SOL    HW217595   3.572   1.435   6.221
 5566SOL     OW17596   1.633   5.441   5.373
 5566SOL    HW117597   1.612   5.484   5.461
 5566SOL    HW217598   1.560   5.377   5.350
 5567SOL     OW17599   0.990   5.005   6.563
 5567SOL    HW117600   0.901   4.981   6.602
 5567SOL    HW217601   0.981   5.087   6.507
 5568SOL     OW17602   5.209   5.380   1.981
 5568SOL    HW117603   5.279   5.438   2.022
 5568SOL    HW217604   5.171   5.426   1.900
 5569SOL     OW17605   2.060   1.975   2.713
 5569SOL    HW117606   1.976   2.006   2.759
 5569SOL    HW217607   2.076   2.031   2.632
 5570SOL     OW17608   6.758   4.051   1.340
 5570SOL    HW117609   6.717   4.107   1.413
 5570SOL    HW217610   6.685   4.014   1.283
 5571SOL     OW17611   7.010   4.430   6.601
 5571SOL    HW117612   6.972   4.516   6.566
 5571SOL    HW217613   0.079   4.421   6.568
 5572SOL     OW17614   1.188   4.485   5.366
 5572SOL    HW117615   1.114   4.517   5.307
 5572SOL    HW217616   1.270   4.469   5.312
 5573SOL     OW17617   3.435   4.969   3.541
 5573SOL    HW117618   3.461   4.946   3.635
 5573SOL    HW217619   3.488   4.914   3.477
 5574SOL     OW17620   0.880   1.293   6.278
 5574SOL    HW117621   0.822   1.365   6.238
 5574SOL    HW217622   0.974   1.305   6.246
 5575SOL     OW17623   0.096   0.538   2.259
 5575SOL    HW117624   0.138   0.464   2.206
 5575SOL    HW217625   0.129   0.626   2.226
 5576SOL     OW17626   1.680   4.845   3.711
 5576SOL    HW117627   1.642   4.919   3.766
 5576SOL    HW217628   1.611   4.775   3.697
 5577SOL     OW17629   2.865   2.437   6.232
 5577SOL    HW117630   2.936   2.401   6.293
 5577SOL    HW217631   2.777   2.397   6.257
 5578SOL     OW17632   3.750   4.115   3.966
 5578SOL    HW117633   3.785   4.192   3.912
 5578SOL    HW217634   3.753   4.032   3.910
 5579SOL     OW17635   5.971   2.965   1.657
 5579SOL    HW117636   5.882   2.924   1.639
 5579SOL    HW217637   6.034   2.941   1.584
 5580SOL     OW17638   5.427   2.358   6.077
 5580SOL    HW117639   5.434   2.444   6.126
 5580SOL    HW217640   5.476   2.364   5.990
 5581SOL     OW17641   1.153   1.365   6.165
 5581SOL    HW117642   1.192   1.409   6.246
 5581SOL    HW217643   1.183   1.413   6.083
 5582SOL     OW17644   2.918   2.317   5.966
 5582SOL    HW117645   2.869   2.232   5.944
 5582SOL    HW217646   2.904   2.339   6.063
 5583SOL     OW17647   6.037   6.433   0.793
 5583SOL    HW117648   5.981   6.514   0.812
 5583SOL    HW217649   6.018   6.363   0.862
 5584SOL     OW17650   1.086   3.411   5.100
 5584SOL    HW117651   1.162   3.474   5.089
 5584SOL    HW217652   1.119   3.324   5.136
 5585SOL     OW17653   5.900   5.044   1.022
 5585SOL    HW117654   5.877   5.138   1.047
 5585SOL    HW217655   5.923   4.992   1.104
 5586SOL     OW17656   0.894   6.037   1.724
 5586SOL    HW117657   0.958   6.002   1.655
 5586SOL    HW217658   0.905   5.984   1.808
 5587SOL     OW17659   5.987   0.542   5.483
 5587SOL    HW117660   5.954   0.448   5.493
 5587SOL    HW217661   5.913   0.606   5.502
 5588SOL     OW17662   2.921   0.156   0.755
 5588SOL    HW117663   2.857   0.152   0.831
 5588SOL    HW217664   2.963   0.247   0.751
 5589SOL     OW17665   0.240   4.100   5.602
 5589SOL    HW117666   0.211   4.179   5.657
 5589SOL    HW217667   0.272   4.132   5.513
 5590SOL     OW17668   5.893   5.211   3.388
 5590SOL    HW117669   5.827   5.228   3.462
 5590SOL    HW217670   5.867   5.129   3.338
 5591SOL     OW17671   5.402   1.564   2.711
 5591SOL    HW117672   5.333   1.619   2.663
 5591SOL    HW217673   5.470   1.625   2.753
 5592SOL     OW17674   0.217   5.325   4.094
 5592SOL    HW117675   0.246   5.241   4.140
 5592SOL    HW217676   0.123   5.315   4.062
 5593SOL     OW17677   1.761   3.975   0.763
 5593SOL    HW117678   1.779   3.923   0.679
 5593SOL    HW217679   1.797   4.068   0.753
 5594SOL     OW17680   6.196   0.996   5.963
 5594SOL    HW117681   6.100   1.022   5.951
 5594SOL    HW217682   6.226   1.022   6.055
 5595SOL     OW17683   0.178   1.984   0.661
 5595SOL    HW117684   0.144   2.072   0.628
 5595SOL    HW217685   0.131   1.961   0.747
 5596SOL     OW17686   4.282   6.014   3.182
 5596SOL    HW117687   4.254   6.027   3.277
 5596SOL    HW217688   4.260   5.921   3.154
 5597SOL     OW17689   5.220   3.513   2.079
 5597SOL    HW117690   5.237   3.445   2.008
 5597SOL    HW217691   5.128   3.550   2.069
 5598SOL     OW17692   3.651   0.511   4.180
 5598SOL    HW117693   3.699   0.449   4.242
 5598SOL    HW217694   3.717   0.573   4.138
 5599SOL     OW17695   0.872   1.348   3.354
 5599SOL    HW117696   0.956   1.355   3.300
 5599SOL    HW217697   0.799   1.310   3.297
 5600SOL     OW17698   2.641   2.839   5.386
 5600SOL    HW117699   2.594   2.910   5.333
 5600SOL    HW217700   2.731   2.872   5.414
 5601SOL     OW17701   1.963   0.712   6.473
 5601SOL    HW117702   1.986   0.615   6.481
 5601SOL    HW217703   2.047   0.766   6.465
 5602SOL     OW17704   1.767   1.006   6.993
 5602SOL    HW117705   1.778   0.921   0.019
 5602SOL    HW217706   1.828   1.005   6.913
 5603SOL     OW17707   6.446   3.482   5.066
 5603SOL    HW117708   6.431   3.552   4.996
 5603SOL    HW217709   6.544   3.464   5.074
 5604SOL     OW17710   5.006   0.784   6.399
 5604SOL    HW117711   5.006   0.699   6.451
 5604SOL    HW217712   5.007   0.862   6.462
 5605SOL     OW17713   0.755   1.650   6.378
 5605SOL    HW117714   0.843   1.696   6.391
 5605SOL    HW217715   0.761   1.556   6.409
 5606SOL     OW17716   5.673   6.957   2.949
 5606SOL    HW117717   5.733   6.996   3.019
 5606SOL    HW217718   5.584   6.936   2.989
 5607SOL     OW17719   5.074   0.724   1.144
 5607SOL    HW117720   5.105   0.697   1.235
 5607SOL    HW217721   5.024   0.648   1.103
 5608SOL     OW17722   3.498   6.435   4.805
 5608SOL    HW117723   3.436   6.468   4.876
 5608SOL    HW217724   3.488   6.492   4.723
 5609SOL     OW17725   1.386   6.511   4.952
 5609SOL    HW117726   1.347   6.512   5.044
 5609SOL    HW217727   1.317   6.538   4.886
 5610SOL     OW17728   4.619   0.350   6.798
 5610SOL    HW117729   4.521   0.358   6.781
 5610SOL    HW217730   4.670   0.392   6.723
 5611SOL     OW17731   1.517   4.238   4.408
 5611SOL    HW117732   1.446   4.224   4.477
 5611SOL    HW217733   1.586   4.300   4.443
 5612SOL     OW17734   3.293   6.404   4.534
 5612SOL    HW117735   3.370   6.344   4.554
 5612SOL    HW217736   3.326   6.499   4.529
 5613SOL     OW17737   2.974   5.019   2.198
 5613SOL    HW117738   2.946   4.927   2.225
 5613SOL    HW217739   2.971   5.026   2.098
 5614SOL     OW17740   5.020   1.996   4.572
 5614SOL    HW117741   5.089   1.971   4.504
 5614SOL    HW217742   4.954   1.921   4.581
 5615SOL     OW17743   0.984   1.578   1.927
 5615SOL    HW117744   1.045   1.657   1.921
 5615SOL    HW217745   0.977   1.534   1.838
 5616SOL     OW17746   2.366   6.619   4.918
 5616SOL    HW117747   2.465   6.632   4.927
 5616SOL    HW217748   2.345   6.589   4.825
 5617SOL     OW17749   0.591   1.181   5.994
 5617SOL    HW117750   0.680   1.139   6.011
 5617SOL    HW217751   0.600   1.250   5.922
 5618SOL     OW17752   6.354   4.732   3.533
 5618SOL    HW117753   6.450   4.757   3.545
 5618SOL    HW217754   6.306   4.805   3.487
 5619SOL     OW17755   2.246   3.639   5.312
 5619SOL    HW117756   2.284   3.689   5.390
 5619SOL    HW217757   2.207   3.703   5.246
 5620SOL     OW17758   5.097   1.879   6.874
 5620SOL    HW117759   5.063   1.820   6.948
 5620SOL    HW217760   5.170   1.832   6.825
 5621SOL     OW17761   2.513   1.593   6.682
 5621SOL    HW117762   2.592   1.537   6.656
 5621SOL    HW217763   2.502   1.667   6.616
 5622SOL     OW17764   5.729   0.326   5.630
 5622SOL    HW117765   5.819   0.295   5.597
 5622SOL    HW217766   5.740   0.370   5.719
 5623SOL     OW17767   7.003   6.129   6.947
 5623SOL    HW117768   6.954   6.216   6.950
 5623SOL    HW217769   6.940   6.056   6.919
 5624SOL     OW17770   0.997   4.421   2.520
 5624SOL    HW117771   1.008   4.442   2.423
 5624SOL    HW217772   0.906   4.448   2.551
 5625SOL     OW17773   6.603   1.765   5.316
 5625SOL    HW117774   6.577   1.729   5.227
 5625SOL    HW217775   6.554   1.850   5.334
 5626SOL     OW17776   5.723   0.033   5.245
 5626SOL    HW117777   5.780   0.019   5.164
 5626SOL    HW217778   5.746   6.992   5.315
 5627SOL     OW17779   1.578   0.551   1.257
 5627SOL    HW117780   1.659   0.530   1.203
 5627SOL    HW217781   1.519   0.470   1.261
 5628SOL     OW17782   1.751   1.624   4.483
 5628SOL    HW117783   1.830   1.656   4.432
 5628SOL    HW217784   1.678   1.692   4.477
 5629SOL     OW17785   3.818   3.205   3.509
 5629SOL    HW117786   3.797   3.135   3.577
 5629SOL    HW217787   3.735   3.224   3.455
 5630SOL     OW17788   6.501   3.873   0.722
 5630SOL    HW117789   6.587   3.860   0.772
 5630SOL    HW217790   6.438   3.926   0.778
 5631SOL     OW17791   5.746   1.208   6.228
 5631SOL    HW117792   5.752   1.265   6.146
 5631SOL    HW217793   5.828   1.152   6.236
 5632SOL     OW17794   3.293   2.240   0.468
 5632SOL    HW117795   3.267   2.330   0.433
 5632SOL    HW217796   3.241   2.220   0.551
 5633SOL     OW17797   6.957   2.608   5.551
 5633SOL    HW117798   6.868   2.580   5.516
 5633SOL    HW217799   6.950   2.623   5.650
 5634SOL     OW17800   4.583   6.386   5.216
 5634SOL    HW117801   4.629   6.301   5.191
 5634SOL    HW217802   4.486   6.368   5.230
 5635SOL     OW17803   3.260   1.424   6.040
 5635SOL    HW117804   3.204   1.341   6.046
 5635SOL    HW217805   3.352   1.400   6.008
 5636SOL     OW17806   4.460   6.990   4.350
 5636SOL    HW117807   4.558   7.010   4.355
 5636SOL    HW217808   4.446   6.913   4.288
 5637SOL     OW17809   5.855   6.723   3.056
 5637SOL    HW117810   5.926   6.697   3.121
 5637SOL    HW217811   5.897   6.761   2.974
 5638SOL     OW17812   0.249   3.679   6.807
 5638SOL    HW117813   0.288   3.718   6.724
 5638SOL    HW217814   0.230   3.582   6.793
 5639SOL     OW17815   4.347   6.850   6.769
 5639SOL    HW117816   4.349   6.927   6.705
 5639SOL    HW217817   4.303   6.771   6.725
 5640SOL     OW17818   1.423   6.812   3.532
 5640SOL    HW117819   1.393   6.899   3.570
 5640SOL    HW217820   1.523   6.804   3.540
 5641SOL     OW17821   6.882   5.234   4.649
 5641SOL    HW117822   6.903   5.312   4.708
 5641SOL    HW217823   6.952   5.163   4.662
 5642SOL     OW17824   1.690   1.150   0.317
 5642SOL    HW117825   1.648   1.089   0.249
 5642SOL    HW217826   1.619   1.190   0.374
 5643SOL     OW17827   5.470   2.095   6.378
 5643SOL    HW117828   5.425   2.109   6.289
 5643SOL    HW217829   5.470   1.997   6.400
 5644SOL     OW17830   2.877   0.438   5.546
 5644SOL    HW117831   2.880   0.514   5.481
 5644SOL    HW217832   2.781   0.415   5.566
 5645SOL     OW17833   5.588   3.539   4.222
 5645SOL    HW117834   5.498   3.573   4.193
 5645SOL    HW217835   5.603   3.567   4.317
 5646SOL     OW17836   0.477   4.072   2.568
 5646SOL    HW117837   0.576   4.060   2.557
 5646SOL    HW217838   0.431   4.048   2.482
 5647SOL     OW17839   4.899   6.053   2.777
 5647SOL    HW117840   4.914   6.111   2.697
 5647SOL    HW217841   4.824   6.091   2.831
 5648SOL     OW17842   5.815   6.528   3.455
 5648SOL    HW117843   5.730   6.503   3.409
 5648SOL    HW217844   5.805   6.619   3.497
 5649SOL     OW17845   0.358   0.239   5.118
 5649SOL    HW117846   0.268   0.282   5.122
 5649SOL    HW217847   0.390   0.236   5.023
 5650SOL     OW17848   0.192   3.542   6.226
 5650SOL    HW117849   0.291   3.530   6.226
 5650SOL    HW217850   0.162   3.568   6.318
 5651SOL     OW17851   2.604   1.441   1.191
 5651SOL    HW117852   2.537   1.412   1.260
 5651SOL    HW217853   2.560   1.503   1.126
 5652SOL     OW17854   0.522   6.158   2.817
 5652SOL    HW117855   0.583   6.238   2.816
 5652SOL    HW217856   0.433   6.183   2.781
 5653SOL     OW17857   6.946   0.851   2.869
 5653SOL    HW117858   0.000   0.824   2.815
 5653SOL    HW217859   6.864   0.848   2.812
 5654SOL     OW17860   3.469   6.069   5.576
 5654SOL    HW117861   3.434   6.082   5.668
 5654SOL    HW217862   3.567   6.091   5.574
 5655SOL     OW17863   5.692   3.475   4.689
 5655SOL    HW117864   5.624   3.531   4.736
 5655SOL    HW217865   5.659   3.380   4.684
 5656SOL     OW17866   0.402   4.095   1.251
 5656SOL    HW117867   0.491   4.051   1.258
 5656SOL    HW217868   0.373   4.127   1.341
 5657SOL     OW17869   5.877   6.020   5.060
 5657SOL    HW117870   5.958   6.007   5.002
 5657SOL    HW217871   5.890   5.969   5.146
 5658SOL     OW17872   2.868   2.572   5.835
 5658SOL    HW117873   2.892   2.493   5.891
 5658SOL    HW217874   2.810   2.543   5.760
 5659SOL     OW17875   2.243   4.413   6.499
 5659SOL    HW117876   2.226   4.507   6.527
 5659SOL    HW217877   2.169   4.382   6.438
 5660SOL     OW17878   3.826   0.396   4.369
 5660SOL    HW117879   3.909   0.371   4.320
 5660SOL    HW217880   3.849   0.425   4.462
 5661SOL     OW17881   0.760   5.415   5.899
 5661SOL    HW117882   0.674   5.442   5.941
 5661SOL    HW217883   0.773   5.465   5.813
 5662SOL     OW17884   2.685   6.202   0.996
 5662SOL    HW117885   2.636   6.246   0.920
 5662SOL    HW217886   2.776   6.174   0.965
 5663SOL     OW17887   3.230   2.157   6.432
 5663SOL    HW117888   3.265   2.249   6.451
 5663SOL    HW217889   3.131   2.156   6.445
 5664SOL     OW17890   5.460   5.281   4.772
 5664SOL    HW117891   5.551   5.323   4.771
 5664SOL    HW217892   5.450   5.222   4.692
 5665SOL     OW17893   1.883   0.737   0.947
 5665SOL    HW117894   1.887   0.757   0.849
 5665SOL    HW217895   1.975   0.744   0.986
 5666SOL     OW17896   5.982   2.998   4.710
 5666SOL    HW117897   5.890   2.982   4.674
 5666SOL    HW217898   6.034   3.056   4.647
 5667SOL     OW17899   2.702   4.645   3.902
 5667SOL    HW117900   2.689   4.622   3.805
 5667SOL    HW217901   2.613   4.642   3.949
 5668SOL     OW17902   4.441   4.519   3.882
 5668SOL    HW117903   4.458   4.528   3.784
 5668SOL    HW217904   4.351   4.556   3.903
 5669SOL     OW17905   6.007   3.758   5.719
 5669SOL    HW117906   5.963   3.826   5.777
 5669SOL    HW217907   5.972   3.765   5.626
 5670SOL     OW17908   1.190   2.830   4.324
 5670SOL    HW117909   1.193   2.763   4.249
 5670SOL    HW217910   1.283   2.850   4.354
 5671SOL     OW17911   6.203   5.854   2.650
 5671SOL    HW117912   6.218   5.945   2.687
 5671SOL    HW217913   6.243   5.848   2.558
 5672SOL     OW17914   5.405   3.140   4.756
 5672SOL    HW117915   5.496   3.146   4.716
 5672SOL    HW217916   5.409   3.089   4.842
 5673SOL     OW17917   0.207   1.916   0.246
 5673SOL    HW117918   0.257   1.864   0.177
 5673SOL    HW217919   0.150   1.984   0.201
 5674SOL     OW17920   2.745   5.351   5.500
 5674SOL    HW117921   2.658   5.369   5.545
 5674SOL    HW217922   2.816   5.337   5.569
 5675SOL     OW17923   3.206   2.371   1.060
 5675SOL    HW117924   3.118   2.389   1.104
 5675SOL    HW217925   3.248   2.290   1.101
 5676SOL     OW17926   3.726   1.170   1.671
 5676SOL    HW117927   3.632   1.197   1.651
 5676SOL    HW217928   3.742   1.076   1.641
 5677SOL     OW17929   1.174   1.460   6.419
 5677SOL    HW117930   1.247   1.435   6.483
 5677SOL    HW217931   1.086   1.450   6.464
 5678SOL     OW17932   4.015   1.990   1.992
 5678SOL    HW117933   4.088   1.928   2.020
 5678SOL    HW217934   3.931   1.938   1.975
 5679SOL     OW17935   0.500   3.607   5.962
 5679SOL    HW117936   0.419   3.663   5.946
 5679SOL    HW217937   0.481   3.512   5.935
 5680SOL     OW17938   0.580   5.429   4.931
 5680SOL    HW117939   0.521   5.505   4.960
 5680SOL    HW217940   0.653   5.465   4.873
 5681SOL     OW17941   1.335   3.584   3.287
 5681SOL    HW117942   1.354   3.486   3.278
 5681SOL    HW217943   1.283   3.601   3.370
 5682SOL     OW17944   2.021   4.840   0.777
 5682SOL    HW117945   1.930   4.871   0.804
 5682SOL    HW217946   2.014   4.749   0.736
 5683SOL     OW17947   0.006   6.925   5.742
 5683SOL    HW117948   7.008   7.022   5.751
 5683SOL    HW217949   0.044   6.892   5.828
 5684SOL     OW17950   1.590   2.974   5.001
 5684SOL    HW117951   1.628   3.057   5.042
 5684SOL    HW217952   1.614   2.970   4.904
 5685SOL     OW17953   1.837   1.929   2.007
 5685SOL    HW117954   1.851   1.869   1.928
 5685SOL    HW217955   1.756   1.899   2.058
 5686SOL     OW17956   5.968   5.652   5.578
 5686SOL    HW117957   6.043   5.615   5.524
 5686SOL    HW217958   5.917   5.578   5.620
 5687SOL     OW17959   1.379   0.063   6.553
 5687SOL    HW117960   1.372   0.122   6.472
 5687SOL    HW217961   1.379   6.993   6.526
 5688SOL     OW17962   1.477   2.224   2.971
 5688SOL    HW117963   1.381   2.248   2.983
 5688SOL    HW217964   1.526   2.238   3.058
 5689SOL     OW17965   6.759   1.807   0.777
 5689SOL    HW117966   6.665   1.842   0.781
 5689SOL    HW217967   6.810   1.858   0.707
 5690SOL     OW17968   3.037   5.161   0.200
 5690SOL    HW117969   2.994   5.184   0.113
 5690SOL    HW217970   2.979   5.095   0.249
 5691SOL     OW17971   4.936   3.137   3.703
 5691SOL    HW117972   4.917   3.228   3.739
 5691SOL    HW217973   4.904   3.132   3.608
 5692SOL     OW17974   6.647   5.111   1.573
 5692SOL    HW117975   6.710   5.046   1.616
 5692SOL    HW217976   6.666   5.116   1.475
 5693SOL     OW17977   3.298   1.273   2.839
 5693SOL    HW117978   3.388   1.232   2.829
 5693SOL    HW217979   3.228   1.204   2.819
 5694SOL     OW17980   0.280   6.998   1.073
 5694SOL    HW117981   0.268   6.964   0.980
 5694SOL    HW217982   0.367   0.020   1.081
 5695SOL     OW17983   2.064   1.177   2.012
 5695SOL    HW117984   2.080   1.263   2.061
 5695SOL    HW217985   2.069   1.101   2.076
 5696SOL     OW17986   0.014   0.626   3.531
 5696SOL    HW117987   0.005   0.716   3.573
 5696SOL    HW217988   6.977   0.619   3.454
 5697SOL     OW17989   5.957   2.068   0.670
 5697SOL    HW117990   6.023   2.103   0.603
 5697SOL    HW217991   5.973   1.970   0.683
 5698SOL     OW17992   3.117   2.135   3.242
 5698SOL    HW117993   3.095   2.043   3.274
 5698SOL    HW217994   3.071   2.152   3.154
 5699SOL     OW17995   2.446   2.487   2.579
 5699SOL    HW117996   2.435   2.574   2.530
 5699SOL    HW217997   2.500   2.424   2.524
 5700SOL     OW17998   5.465   6.949   2.117
 5700SOL    HW117999   5.441   6.911   2.028
 5700SOL    HW218000   5.464   6.877   2.186
 5701SOL     OW18001   1.741   0.169   0.642
 5701SOL    HW118002   1.727   0.090   0.583
 5701SOL    HW218003   1.669   0.237   0.624
 5702SOL     OW18004   1.178   6.697   5.142
 5702SOL    HW118005   1.226   6.609   5.152
 5702SOL    HW218006   1.163   6.715   5.045
 5703SOL     OW18007   1.310   2.778   6.454
 5703SOL    HW118008   1.363   2.743   6.531
 5703SOL    HW218009   1.330   2.875   6.440
 5704SOL     OW18010   4.009   5.622   4.509
 5704SOL    HW118011   4.077   5.578   4.450
 5704SOL    HW218012   4.056   5.678   4.578
 5705SOL     OW18013   5.420   1.002   4.754
 5705SOL    HW118014   5.358   1.001   4.675
 5705SOL    HW218015   5.514   0.989   4.722
 5706SOL     OW18016   5.398   1.458   1.172
 5706SOL    HW118017   5.349   1.435   1.256
 5706SOL    HW218018   5.384   1.555   1.150
 5707SOL     OW18019   5.582   5.711   1.402
 5707SOL    HW118020   5.488   5.676   1.398
 5707SOL    HW218021   5.635   5.659   1.469
 5708SOL     OW18022   5.127   6.453   2.144
 5708SOL    HW118023   5.138   6.361   2.182
 5708SOL    HW218024   5.061   6.504   2.199
 5709SOL     OW18025   0.294   2.633   1.870
 5709SOL    HW118026   0.388   2.637   1.904
 5709SOL    HW218027   0.233   2.676   1.937
 5710SOL     OW18028   5.495   1.576   0.861
 5710SOL    HW118029   5.418   1.526   0.902
 5710SOL    HW218030   5.461   1.643   0.796
 5711SOL     OW18031   4.522   1.237   2.227
 5711SOL    HW118032   4.528   1.167   2.156
 5711SOL    HW218033   4.580   1.315   2.203
 5712SOL     OW18034   6.648   6.038   6.556
 5712SOL    HW118035   6.671   5.957   6.502
 5712SOL    HW218036   6.572   6.017   6.618
 5713SOL     OW18037   1.047   1.720   0.398
 5713SOL    HW118038   1.006   1.799   0.352
 5713SOL    HW218039   0.997   1.700   0.482
 5714SOL     OW18040   5.685   0.296   0.919
 5714SOL    HW118041   5.698   0.203   0.954
 5714SOL    HW218042   5.705   0.298   0.821
 5715SOL     OW18043   0.187   6.210   1.338
 5715SOL    HW118044   0.137   6.173   1.260
 5715SOL    HW218045   0.262   6.268   1.305
 5716SOL     OW18046   0.341   4.920   5.366
 5716SOL    HW118047   0.287   4.838   5.343
 5716SOL    HW218048   0.437   4.902   5.349
 5717SOL     OW18049   0.131   5.725   3.225
 5717SOL    HW118050   0.061   5.795   3.240
 5717SOL    HW218051   0.193   5.756   3.152
 5718SOL     OW18052   0.784   4.011   0.442
 5718SOL    HW118053   0.812   4.088   0.499
 5718SOL    HW218054   0.687   3.992   0.457
 5719SOL     OW18055   3.216   3.343   0.781
 5719SOL    HW118056   3.143   3.354   0.848
 5719SOL    HW218057   3.229   3.246   0.760
 5720SOL     OW18058   2.856   4.654   6.435
 5720SOL    HW118059   2.923   4.718   6.474
 5720SOL    HW218060   2.903   4.571   6.405
 5721SOL     OW18061   1.013   2.927   0.529
 5721SOL    HW118062   1.108   2.899   0.518
 5721SOL    HW218063   1.008   3.005   0.592
 5722SOL     OW18064   1.503   0.262   5.958
 5722SOL    HW118065   1.594   0.265   5.999
 5722SOL    HW218066   1.510   0.227   5.865
 5723SOL     OW18067   4.215   3.570   0.380
 5723SOL    HW118068   4.290   3.617   0.427
 5723SOL    HW218069   4.133   3.574   0.437
 5724SOL     OW18070   6.506   1.814   6.125
 5724SOL    HW118071   6.547   1.809   6.217
 5724SOL    HW218072   6.443   1.737   6.113
 5725SOL     OW18073   0.310   4.264   4.350
 5725SOL    HW118074   0.301   4.256   4.251
 5725SOL    HW218075   0.255   4.340   4.383
 5726SOL     OW18076   3.977   4.913   1.986
 5726SOL    HW118077   3.998   4.859   2.067
 5726SOL    HW218078   3.946   4.853   1.913
 5727SOL     OW18079   1.228   3.189   5.902
 5727SOL    HW118080   1.155   3.219   5.963
 5727SOL    HW218081   1.228   3.246   5.820
 5728SOL     OW18082   2.663   6.310   4.445
 5728SOL    HW118083   2.722   6.362   4.507
 5728SOL    HW218084   2.638   6.223   4.488
 5729SOL     OW18085   2.951   1.923   4.877
 5729SOL    HW118086   2.879   1.896   4.941
 5729SOL    HW218087   2.934   2.016   4.845
 5730SOL     OW18088   6.447   4.198   5.003
 5730SOL    HW118089   6.451   4.191   4.903
 5730SOL    HW218090   6.447   4.294   5.030
 5731SOL     OW18091   0.248   6.518   2.619
 5731SOL    HW118092   0.207   6.584   2.556
 5731SOL    HW218093   0.251   6.557   2.711
 5732SOL     OW18094   5.411   0.737   3.101
 5732SOL    HW118095   5.494   0.682   3.088
 5732SOL    HW218096   5.434   0.822   3.148
 5733SOL     OW18097   2.884   1.231   4.955
 5733SOL    HW118098   2.945   1.293   5.005
 5733SOL    HW218099   2.847   1.280   4.875
 5734SOL     OW18100   2.012   6.521   4.177
 5734SOL    HW118101   1.998   6.446   4.242
 5734SOL    HW218102   2.100   6.566   4.196
 5735SOL     OW18103   2.465   1.214   1.337
 5735SOL    HW118104   2.496   1.186   1.246
 5735SOL    HW218105   2.374   1.177   1.354
 5736SOL     OW18106   1.767   5.073   1.013
 5736SOL    HW118107   1.782   5.123   1.099
 5736SOL    HW218108   1.810   4.983   1.019
 5737SOL     OW18109   6.260   3.984   6.962
 5737SOL    HW118110   6.317   3.997   6.881
 5737SOL    HW218111   6.317   3.955   0.013
 5738SOL     OW18112   0.376   5.439   4.333
 5738SOL    HW118113   0.344   5.458   4.426
 5738SOL    HW218114   0.304   5.461   4.267
 5739SOL     OW18115   0.628   2.583   0.796
 5739SOL    HW118116   0.705   2.615   0.740
 5739SOL    HW218117   0.594   2.659   0.852
 5740SOL     OW18118   4.157   5.111   0.360
 5740SOL    HW118119   4.207   5.037   0.316
 5740SOL    HW218120   4.104   5.161   0.292
 5741SOL     OW18121   0.218   2.701   2.376
 5741SOL    HW118122   0.141   2.753   2.339
 5741SOL    HW218123   0.289   2.690   2.306
 5742SOL     OW18124   0.658   5.187   3.197
 5742SOL    HW118125   0.696   5.268   3.241
 5742SOL    HW218126   0.721   5.155   3.125
 5743SOL     OW18127   0.519   0.085   5.300
 5743SOL    HW118128   0.465   0.142   5.238
 5743SOL    HW218129   0.501   0.112   5.395
 5744SOL     OW18130   6.201   0.091   1.807
 5744SOL    HW118131   6.162   0.003   1.832
 5744SOL    HW218132   6.236   0.137   1.889
 5745SOL     OW18133   6.871   3.503   2.398
 5745SOL    HW118134   6.830   3.415   2.421
 5745SOL    HW218135   6.862   3.519   2.300
 5746SOL     OW18136   6.941   3.650   6.147
 5746SOL    HW118137   0.011   3.626   6.158
 5746SOL    HW218138   6.887   3.607   6.219
 5747SOL     OW18139   6.977   6.174   3.741
 5747SOL    HW118140   6.915   6.252   3.749
 5747SOL    HW218141   0.040   6.204   3.708
 5748SOL     OW18142   1.331   0.754   4.550
 5748SOL    HW118143   1.368   0.767   4.642
 5748SOL    HW218144   1.385   0.806   4.484
 5749SOL     OW18145   0.634   0.873   3.197
 5749SOL    HW118146   0.664   0.796   3.254
 5749SOL    HW218147   0.536   0.889   3.211
 5750SOL     OW18148   5.155   6.419   2.558
 5750SOL    HW118149   5.092   6.495   2.544
 5750SOL    HW218150   5.156   6.360   2.477
 5751SOL     OW18151   1.004   2.025   6.995
 5751SOL    HW118152   1.055   1.941   6.975
 5751SOL    HW218153   0.986   2.031   0.067
 5752SOL     OW18154   1.730   1.032   6.351
 5752SOL    HW118155   1.765   1.098   6.417
 5752SOL    HW218156   1.630   1.034   6.351
 5753SOL     OW18157   4.027   1.388   7.022
 5753SOL    HW118158   4.020   1.478   6.980
 5753SOL    HW218159   4.037   1.318   6.951
 5754SOL     OW18160   6.462   5.724   0.644
 5754SOL    HW118161   6.541   5.785   0.642
 5754SOL    HW218162   6.429   5.715   0.738
 5755SOL     OW18163   3.319   3.792   1.892
 5755SOL    HW118164   3.286   3.699   1.910
 5755SOL    HW218165   3.261   3.858   1.938
 5756SOL     OW18166   6.448   0.302   3.932
 5756SOL    HW118167   6.458   0.249   4.016
 5756SOL    HW218168   6.438   0.239   3.855
 5757SOL     OW18169   6.448   6.474   1.711
 5757SOL    HW118170   6.377   6.434   1.653
 5757SOL    HW218171   6.535   6.473   1.661
 5758SOL     OW18172   3.486   0.663   5.329
 5758SOL    HW118173   3.480   0.567   5.302
 5758SOL    HW218174   3.405   0.687   5.384
 5759SOL     OW18175   1.062   1.265   5.799
 5759SOL    HW118176   1.156   1.276   5.765
 5759SOL    HW218177   1.063   1.211   5.884
 5760SOL     OW18178   6.668   6.038   1.543
 5760SOL    HW118179   6.700   6.093   1.620
 5760SOL    HW218180   6.633   5.950   1.576
 5761SOL     OW18181   4.291   0.605   4.316
 5761SOL    HW118182   4.261   0.618   4.221
 5761SOL    HW218183   4.273   0.689   4.368
 5762SOL     OW18184   5.113   6.585   1.129
 5762SOL    HW118185   5.063   6.577   1.215
 5762SOL    HW218186   5.122   6.494   1.087
 5763SOL     OW18187   3.403   1.047   0.330
 5763SOL    HW118188   3.434   1.121   0.390
 5763SOL    HW218189   3.356   0.977   0.385
 5764SOL     OW18190   3.463   2.540   6.937
 5764SOL    HW118191   3.440   2.633   6.965
 5764SOL    HW218192   3.428   2.524   6.845
 5765SOL     OW18193   6.520   5.192   6.256
 5765SOL    HW118194   6.552   5.217   6.165
 5765SOL    HW218195   6.599   5.167   6.313
 5766SOL     OW18196   2.236   1.711   2.945
 5766SOL    HW118197   2.306   1.780   2.925
 5766SOL    HW218198   2.268   1.621   2.916
 5767SOL     OW18199   5.435   6.155   0.368
 5767SOL    HW118200   5.490   6.101   0.304
 5767SOL    HW218201   5.491   6.182   0.446
 5768SOL     OW18202   6.036   6.638   1.650
 5768SOL    HW118203   6.105   6.636   1.723
 5768SOL    HW218204   6.059   6.570   1.581
 5769SOL     OW18205   0.180   4.651   2.948
 5769SOL    HW118206   0.242   4.642   3.026
 5769SOL    HW218207   0.132   4.565   2.934
 5770SOL     OW18208   4.740   2.186   1.337
 5770SOL    HW118209   4.759   2.268   1.283
 5770SOL    HW218210   4.780   2.196   1.428
 5771SOL     OW18211   1.276   0.453   1.642
 5771SOL    HW118212   1.282   0.509   1.725
 5771SOL    HW218213   1.332   0.372   1.652
 5772SOL     OW18214   6.177   5.081   5.356
 5772SOL    HW118215   6.126   5.122   5.280
 5772SOL    HW218216   6.275   5.086   5.338
 5773SOL     OW18217   5.118   6.583   4.815
 5773SOL    HW118218   5.207   6.608   4.852
 5773SOL    HW218219   5.076   6.513   4.874
 5774SOL     OW18220   1.700   4.790   2.189
 5774SOL    HW118221   1.684   4.817   2.284
 5774SOL    HW218222   1.787   4.741   2.182
 5775SOL     OW18223   0.826   0.774   0.901
 5775SOL    HW118224   0.795   0.846   0.840
 5775SOL    HW218225   0.926   0.771   0.901
 5776SOL     OW18226   5.113   1.102   5.767
 5776SOL    HW118227   5.145   1.046   5.690
 5776SOL    HW218228   5.154   1.193   5.762
 5777SOL     OW18229   5.656   6.622   4.560
 5777SOL    HW118230   5.562   6.637   4.588
 5777SOL    HW218231   5.672   6.525   4.546
 5778SOL     OW18232   2.598   6.762   3.881
 5778SOL    HW118233   2.566   6.689   3.821
 5778SOL    HW218234   2.582   6.736   3.976
 5779SOL     OW18235   3.903   6.822   2.072
 5779SOL    HW118236   3.880   6.919   2.070
 5779SOL    HW218237   3.850   6.776   2.143
 5780SOL     OW18238   6.805   4.373   6.857
 5780SOL    HW118239   6.805   4.308   6.781
 5780SOL    HW218240   6.755   4.455   6.831
 5781SOL     OW18241   4.354   4.681   5.773
 5781SOL    HW118242   4.409   4.604   5.740
 5781SOL    HW218243   4.270   4.688   5.718
 5782SOL     OW18244   5.104   1.665   2.858
 5782SOL    HW118245   5.178   1.636   2.798
 5782SOL    HW218246   5.059   1.746   2.820
 5783SOL     OW18247   3.187   6.184   3.153
 5783SOL    HW118248   3.216   6.179   3.248
 5783SOL    HW218249   3.266   6.171   3.093
 5784SOL     OW18250   0.747   6.874   2.180
 5784SOL    HW118251   0.824   6.853   2.240
 5784SOL    HW218252   0.745   6.808   2.105
 5785SOL     OW18253   2.465   1.087   6.364
 5785SOL    HW118254   2.547   1.035   6.342
 5785SOL    HW218255   2.490   1.170   6.414
 5786SOL     OW18256   2.177   1.416   6.771
 5786SOL    HW118257   2.228   1.475   6.834
 5786SOL    HW218258   2.191   1.320   6.795
 5787SOL     OW18259   0.894   1.996   6.096
 5787SOL    HW118260   0.958   2.029   6.026
 5787SOL    HW218261   0.920   1.903   6.123
 5788SOL     OW18262   0.399   2.632   1.480
 5788SOL    HW118263   0.484   2.637   1.533
 5788SOL    HW218264   0.332   2.577   1.529
 5789SOL     OW18265   3.084   0.694   0.581
 5789SOL    HW118266   3.074   0.654   0.490
 5789SOL    HW218267   3.169   0.747   0.585
 5790SOL     OW18268   6.461   6.078   2.402
 5790SOL    HW118269   6.528   6.151   2.388
 5790SOL    HW218270   6.373   6.118   2.429
 5791SOL     OW18271   3.693   0.911   0.825
 5791SOL    HW118272   3.647   0.892   0.912
 5791SOL    HW218273   3.745   0.830   0.798
 5792SOL     OW18274   4.394   1.782   2.907
 5792SOL    HW118275   4.374   1.825   2.819
 5792SOL    HW218276   4.380   1.684   2.900
 5793SOL     OW18277   4.838   2.208   0.859
 5793SOL    HW118278   4.846   2.144   0.936
 5793SOL    HW218279   4.825   2.301   0.894
 5794SOL     OW18280   3.116   6.146   6.968
 5794SOL    HW118281   3.196   6.135   0.001
 5794SOL    HW218282   3.108   6.242   6.940
 5795SOL     OW18283   1.256   0.908   1.816
 5795SOL    HW118284   1.352   0.931   1.802
 5795SOL    HW218285   1.202   0.934   1.736
 5796SOL     OW18286   4.686   0.775   6.007
 5796SOL    HW118287   4.698   0.835   6.086
 5796SOL    HW218288   4.775   0.759   5.964
 5797SOL     OW18289   5.822   1.441   0.380
 5797SOL    HW118290   5.755   1.423   0.308
 5797SOL    HW218291   5.840   1.357   0.431
 5798SOL     OW18292   1.973   3.038   4.775
 5798SOL    HW118293   2.034   3.111   4.744
 5798SOL    HW218294   2.016   2.988   4.850
 5799SOL     OW18295   2.746   0.656   3.797
 5799SOL    HW118296   2.703   0.576   3.753
 5799SOL    HW218297   2.836   0.630   3.832
 5800SOL     OW18298   1.726   6.136   1.411
 5800SOL    HW118299   1.631   6.109   1.423
 5800SOL    HW218300   1.786   6.057   1.426
 5801SOL     OW18301   1.466   2.594   3.129
 5801SOL    HW118302   1.479   2.658   3.053
 5801SOL    HW218303   1.546   2.534   3.137
 5802SOL     OW18304   0.030   0.072   2.893
 5802SOL    HW118305   6.986   0.112   2.834
 5802SOL    HW218306   0.085   0.145   2.934
 5803SOL     OW18307   0.401   6.518   4.347
 5803SOL    HW118308   0.353   6.448   4.295
 5803SOL    HW218309   0.335   6.586   4.379
 5804SOL     OW18310   5.634   2.499   3.098
 5804SOL    HW118311   5.642   2.533   3.004
 5804SOL    HW218312   5.719   2.454   3.125
 5805SOL     OW18313   0.914   2.590   1.472
 5805SOL    HW118314   0.980   2.578   1.546
 5805SOL    HW218315   0.911   2.507   1.416
 5806SOL     OW18316   6.597   4.415   1.259
 5806SOL    HW118317   6.594   4.346   1.331
 5806SOL    HW218318   6.690   4.422   1.223
 5807SOL     OW18319   0.707   0.693   2.981
 5807SOL    HW118320   0.688   0.740   3.068
 5807SOL    HW218321   0.775   0.621   2.996
 5808SOL     OW18322   6.690   5.301   5.616
 5808SOL    HW118323   6.767   5.327   5.674
 5808SOL    HW218324   6.715   5.312   5.520
 5809SOL     OW18325   6.725   3.411   4.581
 5809SOL    HW118326   6.753   3.484   4.644
 5809SOL    HW218327   6.798   3.393   4.516
 5810SOL     OW18328   0.735   6.345   5.146
 5810SOL    HW118329   0.705   6.434   5.111
 5810SOL    HW218330   0.809   6.357   5.212
 5811SOL     OW18331   3.251   5.093   0.573
 5811SOL    HW118332   3.167   5.122   0.620
 5811SOL    HW218333   3.310   5.046   0.639
 5812SOL     OW18334   6.368   2.093   6.171
 5812SOL    HW118335   6.435   2.020   6.160
 5812SOL    HW218336   6.391   2.169   6.112
 5813SOL     OW18337   6.378   5.704   0.896
 5813SOL    HW118338   6.466   5.690   0.941
 5813SOL    HW218339   6.310   5.643   0.937
 5814SOL     OW18340   4.702   1.595   2.621
 5814SOL    HW118341   4.686   1.643   2.534
 5814SOL    HW218342   4.800   1.586   2.637
 5815SOL     OW18343   0.017   4.478   4.868
 5815SOL    HW118344   0.023   4.414   4.944
 5815SOL    HW218345   7.021   4.569   4.904
 5816SOL     OW18346   0.019   4.054   1.286
 5816SOL    HW118347   0.095   3.991   1.270
 5816SOL    HW218348   6.972   4.006   1.335
 5817SOL     OW18349   6.695   2.761   3.781
 5817SOL    HW118350   6.761   2.686   3.792
 5817SOL    HW218351   6.744   2.849   3.787
 5818SOL     OW18352   2.494   0.583   4.235
 5818SOL    HW118353   2.480   0.645   4.158
 5818SOL    HW218354   2.531   0.496   4.201
 5819SOL     OW18355   4.221   4.456   1.354
 5819SOL    HW118356   4.225   4.418   1.447
 5819SOL    HW218357   4.299   4.422   1.301
 5820SOL     OW18358   0.291   6.685   2.378
 5820SOL    HW118359   0.366   6.748   2.361
 5820SOL    HW218360   0.209   6.717   2.330
 5821SOL     OW18361   4.932   6.116   1.931
 5821SOL    HW118362   4.924   6.213   1.905
 5821SOL    HW218363   4.914   6.107   2.029
 5822SOL     OW18364   0.976   3.717   3.889
 5822SOL    HW118365   0.901   3.724   3.823
 5822SOL    HW218366   1.031   3.800   3.885
 5823SOL     OW18367   2.604   6.406   4.905
 5823SOL    HW118368   2.514   6.392   4.862
 5823SOL    HW218369   2.656   6.321   4.901
 5824SOL     OW18370   2.239   5.838   2.293
 5824SOL    HW118371   2.212   5.782   2.215
 5824SOL    HW218372   2.188   5.810   2.374
 5825SOL     OW18373   3.422   2.077   4.472
 5825SOL    HW118374   3.500   2.100   4.530
 5825SOL    HW218375   3.341   2.061   4.529
 5826SOL     OW18376   1.601   6.008   5.546
 5826SOL    HW118377   1.584   5.941   5.475
 5826SOL    HW218378   1.699   6.013   5.567
 5827SOL     OW18379   2.135   4.216   3.906
 5827SOL    HW118380   2.206   4.213   3.836
 5827SOL    HW218381   2.142   4.136   3.965
 5828SOL     OW18382   4.561   0.300   5.178
 5828SOL    HW118383   4.627   0.324   5.106
 5828SOL    HW218384   4.524   0.383   5.218
 5829SOL     OW18385   1.722   1.536   2.712
 5829SOL    HW118386   1.792   1.608   2.709
 5829SOL    HW218387   1.657   1.555   2.786
 5830SOL     OW18388   5.322   4.870   4.614
 5830SOL    HW118389   5.237   4.855   4.665
 5830SOL    HW218390   5.400   4.857   4.675
 5831SOL     OW18391   2.800   2.000   4.233
 5831SOL    HW118392   2.762   1.950   4.311
 5831SOL    HW218393   2.725   2.029   4.174
 5832SOL     OW18394   2.868   5.014   3.334
 5832SOL    HW118395   2.795   4.972   3.388
 5832SOL    HW218396   2.931   5.062   3.395
 5833SOL     OW18397   2.114   4.878   1.631
 5833SOL    HW118398   2.145   4.785   1.608
 5833SOL    HW218399   2.160   4.944   1.571
 5834SOL     OW18400   5.738   2.095   6.325
 5834SOL    HW118401   5.776   2.079   6.416
 5834SOL    HW218402   5.640   2.072   6.325
 5835SOL     OW18403   3.827   0.444   3.639
 5835SOL    HW118404   3.746   0.416   3.588
 5835SOL    HW218405   3.800   0.502   3.716
 5836SOL     OW18406   5.529   4.713   1.148
 5836SOL    HW118407   5.572   4.652   1.214
 5836SOL    HW218408   5.433   4.728   1.172
 5837SOL     OW18409   2.058   4.036   0.314
 5837SOL    HW118410   2.015   4.086   0.389
 5837SOL    HW218411   2.001   4.043   0.232
 5838SOL     OW18412   2.914   3.039   0.848
 5838SOL    HW118413   2.931   3.125   0.895
 5838SOL    HW218414   2.925   3.051   0.750
 5839SOL     OW18415   2.791   1.700   1.226
 5839SOL    HW118416   2.704   1.736   1.191
 5839SOL    HW218417   2.820   1.622   1.169
 5840SOL     OW18418   6.151   3.921   2.301
 5840SOL    HW118419   6.083   3.878   2.241
 5840SOL    HW218420   6.238   3.874   2.293
 5841SOL     OW18421   4.994   1.907   0.760
 5841SOL    HW118422   5.048   1.964   0.823
 5841SOL    HW218423   4.950   1.966   0.692
 5842SOL     OW18424   3.507   1.973   2.188
 5842SOL    HW118425   3.518   1.896   2.126
 5842SOL    HW218426   3.528   2.058   2.140
 5843SOL     OW18427   3.240   2.489   1.440
 5843SOL    HW118428   3.236   2.392   1.463
 5843SOL    HW218429   3.330   2.510   1.401
 5844SOL     OW18430   6.584   5.526   5.277
 5844SOL    HW118431   6.666   5.473   5.296
 5844SOL    HW218432   6.549   5.566   5.362
 5845SOL     OW18433   2.273   5.840   3.031
 5845SOL    HW118434   2.284   5.742   3.012
 5845SOL    HW218435   2.325   5.892   2.963
 5846SOL     OW18436   0.815   4.438   5.322
 5846SOL    HW118437   0.809   4.439   5.422
 5846SOL    HW218438   0.749   4.373   5.286
 5847SOL     OW18439   2.357   3.764   5.515
 5847SOL    HW118440   2.453   3.766   5.542
 5847SOL    HW218441   2.306   3.705   5.578
 5848SOL     OW18442   3.037   6.653   1.556
 5848SOL    HW118443   2.986   6.629   1.474
 5848SOL    HW218444   3.133   6.669   1.532
 5849SOL     OW18445   2.631   5.960   6.534
 5849SOL    HW118446   2.545   5.975   6.583
 5849SOL    HW218447   2.701   6.020   6.573
 5850SOL     OW18448   5.317   2.304   1.147
 5850SOL    HW118449   5.359   2.305   1.238
 5850SOL    HW218450   5.325   2.212   1.108
 5851SOL     OW18451   1.266   2.793   5.872
 5851SOL    HW118452   1.191   2.843   5.917
 5851SOL    HW218453   1.279   2.830   5.780
 5852SOL     OW18454   4.006   5.079   3.433
 5852SOL    HW118455   3.972   4.996   3.476
 5852SOL    HW218456   4.039   5.142   3.504
 5853SOL     OW18457   4.271   4.606   6.687
 5853SOL    HW118458   4.227   4.572   6.770
 5853SOL    HW218459   4.307   4.529   6.635
 5854SOL     OW18460   2.777   4.402   5.350
 5854SOL    HW118461   2.761   4.316   5.302
 5854SOL    HW218462   2.819   4.468   5.287
 5855SOL     OW18463   1.652   2.164   4.548
 5855SOL    HW118464   1.669   2.232   4.477
 5855SOL    HW218465   1.632   2.075   4.506
 5856SOL     OW18466   0.494   0.855   1.993
 5856SOL    HW118467   0.586   0.891   1.976
 5856SOL    HW218468   0.472   0.786   1.925
 5857SOL     OW18469   6.317   5.625   6.583
 5857SOL    HW118470   6.338   5.579   6.497
 5857SOL    HW218471   6.353   5.572   6.659
 5858SOL     OW18472   2.653   1.527   1.841
 5858SOL    HW118473   2.703   1.522   1.755
 5858SOL    HW218474   2.703   1.585   1.905
 5859SOL     OW18475   6.053   5.148   1.431
 5859SOL    HW118476   5.980   5.133   1.365
 5859SOL    HW218477   6.091   5.240   1.419
 5860SOL     OW18478   2.032   2.841   1.862
 5860SOL    HW118479   2.065   2.827   1.769
 5860SOL    HW218480   1.957   2.778   1.881
 5861SOL     OW18481   5.265   0.093   4.583
 5861SOL    HW118482   5.357   0.089   4.544
 5861SOL    HW218483   5.212   0.164   4.536
 5862SOL     OW18484   0.515   4.959   1.245
 5862SOL    HW118485   0.585   4.968   1.174
 5862SOL    HW218486   0.484   5.050   1.272
 5863SOL     OW18487   4.172   6.804   6.156
 5863SOL    HW118488   4.100   6.873   6.146
 5863SOL    HW218489   4.161   6.757   6.244
 5864SOL     OW18490   3.514   3.495   3.320
 5864SOL    HW118491   3.472   3.583   3.296
 5864SOL    HW218492   3.499   3.476   3.417
 5865SOL     OW18493   6.643   6.395   1.537
 5865SOL    HW118494   6.631   6.318   1.475
 5865SOL    HW218495   6.719   6.452   1.505
 5866SOL     OW18496   3.053   3.271   4.471
 5866SOL    HW118497   3.090   3.326   4.396
 5866SOL    HW218498   2.990   3.326   4.525
 5867SOL     OW18499   4.553   0.924   0.685
 5867SOL    HW118500   4.528   1.020   0.671
 5867SOL    HW218501   4.477   0.877   0.731
 5868SOL     OW18502   1.668   1.103   0.911
 5868SOL    HW118503   1.726   1.070   0.985
 5868SOL    HW218504   1.692   1.198   0.890
 5869SOL     OW18505   2.199   4.921   4.002
 5869SOL    HW118506   2.229   5.007   4.041
 5869SOL    HW218507   2.123   4.884   4.056
 5870SOL     OW18508   3.858   6.491   3.451
 5870SOL    HW118509   3.900   6.525   3.534
 5870SOL    HW218510   3.775   6.544   3.431
 5871SOL     OW18511   3.548   2.881   3.351
 5871SOL    HW118512   3.547   2.872   3.451
 5871SOL    HW218513   3.551   2.978   3.326
 5872SOL     OW18514   3.742   5.232   1.636
 5872SOL    HW118515   3.777   5.160   1.576
 5872SOL    HW218516   3.804   5.310   1.634
 5873SOL     OW18517   4.099   6.877   2.644
 5873SOL    HW118518   4.145   6.877   2.555
 5873SOL    HW218519   4.113   6.789   2.689
 5874SOL     OW18520   0.059   3.519   4.531
 5874SOL    HW118521   0.049   3.531   4.630
 5874SOL    HW218522   0.027   3.601   4.484
 5875SOL     OW18523   4.671   2.897   1.392
 5875SOL    HW118524   4.732   2.818   1.400
 5875SOL    HW218525   4.583   2.876   1.435
 5876SOL     OW18526   3.477   3.498   2.774
 5876SOL    HW118527   3.424   3.432   2.827
 5876SOL    HW218528   3.429   3.519   2.688
 5877SOL     OW18529   4.667   4.391   1.447
 5877SOL    HW118530   4.685   4.455   1.522
 5877SOL    HW218531   4.754   4.353   1.414
 5878SOL     OW18532   0.245   3.299   1.295
 5878SOL    HW118533   0.171   3.244   1.257
 5878SOL    HW218534   0.269   3.265   1.386
 5879SOL     OW18535   1.809   4.493   5.019
 5879SOL    HW118536   1.846   4.469   4.929
 5879SOL    HW218537   1.849   4.434   5.089
 5880SOL     OW18538   2.407   4.998   0.293
 5880SOL    HW118539   2.456   4.924   0.249
 5880SOL    HW218540   2.407   5.079   0.233
 5881SOL     OW18541   1.726   6.366   4.246
 5881SOL    HW118542   1.822   6.338   4.254
 5881SOL    HW218543   1.699   6.415   4.329
 5882SOL     OW18544   4.922   1.094   3.283
 5882SOL    HW118545   4.856   1.156   3.240
 5882SOL    HW218546   4.877   1.008   3.306
 5883SOL     OW18547   0.724   3.305   5.591
 5883SOL    HW118548   0.817   3.310   5.554
 5883SOL    HW218549   0.682   3.395   5.588
 5884SOL     OW18550   6.914   1.411   3.788
 5884SOL    HW118551   6.955   1.388   3.876
 5884SOL    HW218552   6.874   1.329   3.747
 5885SOL     OW18553   6.115   6.114   0.483
 5885SOL    HW118554   6.091   6.095   0.388
 5885SOL    HW218555   6.212   6.097   0.498
 5886SOL     OW18556   5.781   1.727   5.733
 5886SOL    HW118557   5.698   1.686   5.771
 5886SOL    HW218558   5.854   1.658   5.732
 5887SOL     OW18559   3.168   0.047   2.572
 5887SOL    HW118560   3.104   0.121   2.591
 5887SOL    HW218561   3.125   7.006   2.512
 5888SOL     OW18562   6.415   6.231   1.822
 5888SOL    HW118563   6.414   6.184   1.734
 5888SOL    HW218564   6.443   6.326   1.808
 5889SOL     OW18565   2.983   6.950   0.642
 5889SOL    HW118566   2.967   0.012   0.688
 5889SOL    HW218567   2.933   6.949   0.555
 5890SOL     OW18568   4.485   5.217   5.993
 5890SOL    HW118569   4.552   5.143   5.983
 5890SOL    HW218570   4.470   5.236   6.090
 5891SOL     OW18571   2.313   2.883   6.819
 5891SOL    HW118572   2.279   2.964   6.868
 5891SOL    HW218573   2.277   2.883   6.726
 5892SOL     OW18574   2.934   5.640   1.596
 5892SOL    HW118575   2.854   5.584   1.618
 5892SOL    HW218576   3.000   5.634   1.671
 5893SOL     OW18577   1.098   2.872   2.021
 5893SOL    HW118578   1.053   2.827   1.944
 5893SOL    HW218579   1.152   2.805   2.071
 5894SOL     OW18580   1.867   3.712   3.609
 5894SOL    HW118581   1.948   3.653   3.613
 5894SOL    HW218582   1.896   3.808   3.615
 5895SOL     OW18583   5.184   5.051   2.654
 5895SOL    HW118584   5.184   5.087   2.747
 5895SOL    HW218585   5.204   4.953   2.656
 5896SOL     OW18586   5.969   1.541   5.739
 5896SOL    HW118587   6.065   1.559   5.718
 5896SOL    HW218588   5.930   1.479   5.671
 5897SOL     OW18589   4.454   4.306   0.778
 5897SOL    HW118590   4.403   4.376   0.828
 5897SOL    HW218591   4.427   4.307   0.682
 5898SOL     OW18592   1.513   5.874   2.807
 5898SOL    HW118593   1.439   5.925   2.852
 5898SOL    HW218594   1.523   5.906   2.713
 5899SOL     OW18595   4.917   0.840   3.411
 5899SOL    HW118596   4.903   0.747   3.445
 5899SOL    HW218597   5.009   0.871   3.436
 5900SOL     OW18598   3.737   5.142   1.882
 5900SOL    HW118599   3.744   5.215   1.950
 5900SOL    HW218600   3.741   5.180   1.790
 5901SOL     OW18601   2.992   6.489   3.300
 5901SOL    HW118602   3.021   6.430   3.224
 5901SOL    HW218603   2.977   6.433   3.382
 5902SOL     OW18604   5.961   2.516   0.008
 5902SOL    HW118605   6.004   2.560   6.955
 5902SOL    HW218606   5.870   2.555   0.024
 5903SOL     OW18607   0.651   2.038   6.345
 5903SOL    HW118608   0.744   2.072   6.356
 5903SOL    HW218609   0.602   2.045   6.432
 5904SOL     OW18610   0.830   3.147   1.760
 5904SOL    HW118611   0.797   3.195   1.679
 5904SOL    HW218612   0.836   3.049   1.742
 5905SOL     OW18613   6.930   3.866   2.308
 5905SOL    HW118614   6.923   3.820   2.219
 5905SOL    HW218615   6.891   3.958   2.301
 5906SOL     OW18616   6.417   1.236   3.276
 5906SOL    HW118617   6.353   1.299   3.320
 5906SOL    HW218618   6.482   1.288   3.220
 5907SOL     OW18619   1.561   1.093   2.663
 5907SOL    HW118620   1.583   1.132   2.574
 5907SOL    HW218621   1.470   1.124   2.692
 5908SOL     OW18622   0.684   2.775   5.402
 5908SOL    HW118623   0.702   2.780   5.500
 5908SOL    HW218624   0.761   2.815   5.352
 5909SOL     OW18625   6.822   4.447   6.339
 5909SOL    HW118626   6.760   4.424   6.263
 5909SOL    HW218627   6.913   4.413   6.318
 5910SOL     OW18628   1.706   1.695   3.563
 5910SOL    HW118629   1.708   1.680   3.464
 5910SOL    HW218630   1.743   1.786   3.583
 5911SOL     OW18631   6.052   5.471   6.518
 5911SOL    HW118632   6.052   5.371   6.518
 5911SOL    HW218633   6.130   5.504   6.571
 5912SOL     OW18634   0.970   1.876   2.259
 5912SOL    HW118635   0.906   1.953   2.267
 5912SOL    HW218636   0.921   1.794   2.230
 5913SOL     OW18637   6.940   3.373   1.128
 5913SOL    HW118638   6.955   3.437   1.204
 5913SOL    HW218639   6.976   3.283   1.154
 5914SOL     OW18640   1.405   6.594   0.850
 5914SOL    HW118641   1.320   6.643   0.828
 5914SOL    HW218642   1.401   6.560   0.944
 5915SOL     OW18643   4.377   0.555   5.039
 5915SOL    HW118644   4.455   0.591   5.090
 5915SOL    HW218645   4.312   0.512   5.102
 5916SOL     OW18646   0.973   0.092   2.685
 5916SOL    HW118647   0.878   0.080   2.654
 5916SOL    HW218648   1.034   0.090   2.606
 5917SOL     OW18649   3.243   3.557   0.408
 5917SOL    HW118650   3.171   3.575   0.475
 5917SOL    HW218651   3.331   3.589   0.445
 5918SOL     OW18652   3.403   6.656   4.639
 5918SOL    HW118653   3.383   6.689   4.547
 5918SOL    HW218654   3.355   6.713   4.706
 5919SOL     OW18655   3.036   3.648   4.754
 5919SOL    HW118656   3.134   3.632   4.742
 5919SOL    HW218657   3.008   3.725   4.697
 5920SOL     OW18658   1.193   0.199   5.353
 5920SOL    HW118659   1.215   0.182   5.257
 5920SOL    HW218660   1.175   0.297   5.366
 5921SOL     OW18661   2.501   4.613   0.938
 5921SOL    HW118662   2.432   4.685   0.939
 5921SOL    HW218663   2.584   4.645   0.983
 5922SOL     OW18664   4.818   2.919   2.467
 5922SOL    HW118665   4.791   2.877   2.380
 5922SOL    HW218666   4.918   2.923   2.472
 5923SOL     OW18667   5.992   1.018   2.485
 5923SOL    HW118668   5.970   0.945   2.549
 5923SOL    HW218669   5.974   1.107   2.529
 5924SOL     OW18670   0.210   6.386   3.297
 5924SOL    HW118671   0.160   6.301   3.310
 5924SOL    HW218672   0.306   6.366   3.278
 5925SOL     OW18673   4.566   0.738   1.042
 5925SOL    HW118674   4.545   0.750   0.945
 5925SOL    HW218675   4.481   0.721   1.092
 5926SOL     OW18676   5.027   3.375   3.449
 5926SOL    HW118677   4.993   3.409   3.537
 5926SOL    HW218678   4.978   3.291   3.425
 5927SOL     OW18679   1.429   0.176   1.517
 5927SOL    HW118680   1.426   0.228   1.432
 5927SOL    HW218681   1.480   0.227   1.586
 5928SOL     OW18682   2.598   7.011   0.165
 5928SOL    HW118683   2.526   6.950   0.196
 5928SOL    HW218684   2.611   7.000   0.066
 5929SOL     OW18685   0.909   1.216   1.210
 5929SOL    HW118686   0.811   1.213   1.226
 5929SOL    HW218687   0.949   1.126   1.230
 5930SOL     OW18688   0.718   4.860   1.775
 5930SOL    HW118689   0.732   4.770   1.733
 5930SOL    HW218690   0.717   4.851   1.874
 5931SOL     OW18691   4.962   0.127   4.484
 5931SOL    HW118692   4.917   0.131   4.573
 5931SOL    HW218693   4.964   0.219   4.444
 5932SOL     OW18694   3.359   5.709   0.589
 5932SOL    HW118695   3.271   5.755   0.605
 5932SOL    HW218696   3.349   5.644   0.514
 5933SOL     OW18697   6.821   5.920   4.339
 5933SOL    HW118698   6.800   5.835   4.388
 5933SOL    HW218699   6.738   5.974   4.328
 5934SOL     OW18700   3.168   4.505   6.985
 5934SOL    HW118701   3.099   4.537   0.024
 5934SOL    HW218702   3.143   4.415   6.950
 5935SOL     OW18703   1.737   0.829   5.366
 5935SOL    HW118704   1.677   0.868   5.296
 5935SOL    HW218705   1.682   0.808   5.448
 5936SOL     OW18706   4.070   3.124   1.911
 5936SOL    HW118707   4.102   3.131   1.817
 5936SOL    HW218708   4.023   3.036   1.924
 5937SOL     OW18709   1.201   2.764   0.340
 5937SOL    HW118710   1.213   2.665   0.328
 5937SOL    HW218711   1.150   2.801   0.263
 5938SOL     OW18712   0.488   3.461   4.152
 5938SOL    HW118713   0.499   3.367   4.120
 5938SOL    HW218714   0.411   3.504   4.106
 5939SOL     OW18715   4.868   1.513   6.266
 5939SOL    HW118716   4.927   1.472   6.335
 5939SOL    HW218717   4.842   1.443   6.199
 5940SOL     OW18718   5.182   4.829   0.914
 5940SOL    HW118719   5.166   4.739   0.874
 5940SOL    HW218720   5.109   4.891   0.886
 5941SOL     OW18721   1.407   1.727   3.184
 5941SOL    HW118722   1.484   1.700   3.240
 5941SOL    HW218723   1.324   1.681   3.215
 5942SOL     OW18724   4.825   2.232   6.239
 5942SOL    HW118725   4.904   2.188   6.283
 5942SOL    HW218726   4.750   2.237   6.304
 5943SOL     OW18727   2.144   4.388   2.327
 5943SOL    HW118728   2.158   4.363   2.231
 5943SOL    HW218729   2.162   4.486   2.339
 5944SOL     OW18730   0.007   3.357   5.895
 5944SOL    HW118731   7.024   3.437   5.836
 5944SOL    HW218732   6.974   3.368   5.976
 5945SOL     OW18733   0.137   6.810   4.088
 5945SOL    HW118734   0.090   6.791   4.174
 5945SOL    HW218735   0.226   6.765   4.088
 5946SOL     OW18736   3.129   3.029   6.535
 5946SOL    HW118737   3.055   2.962   6.524
 5946SOL    HW218738   3.093   3.121   6.517
 5947SOL     OW18739   3.479   3.770   5.290
 5947SOL    HW118740   3.386   3.804   5.274
 5947SOL    HW218741   3.481   3.719   5.376
 5948SOL     OW18742   4.701   4.017   1.836
 5948SOL    HW118743   4.721   4.010   1.739
 5948SOL    HW218744   4.623   4.078   1.851
 5949SOL     OW18745   1.538   4.562   4.317
 5949SOL    HW118746   1.624   4.534   4.361
 5949SOL    HW218747   1.552   4.567   4.219
 5950SOL     OW18748   1.890   6.696   4.952
 5950SOL    HW118749   1.939   6.675   5.037
 5950SOL    HW218750   1.792   6.689   4.967
 5951SOL     OW18751   0.194   2.849   6.670
 5951SOL    HW118752   0.114   2.900   6.700
 5951SOL    HW218753   0.196   2.760   6.715
 5952SOL     OW18754   3.546   4.197   2.076
 5952SOL    HW118755   3.629   4.176   2.127
 5952SOL    HW218756   3.526   4.295   2.083
 5953SOL     OW18757   6.691   2.866   6.877
 5953SOL    HW118758   6.719   2.844   6.971
 5953SOL    HW218759   6.674   2.781   6.827
 5954SOL     OW18760   2.693   5.012   3.629
 5954SOL    HW118761   2.755   4.944   3.669
 5954SOL    HW218762   2.647   4.973   3.550
 5955SOL     OW18763   4.350   2.609   0.479
 5955SOL    HW118764   4.289   2.590   0.556
 5955SOL    HW218765   4.439   2.641   0.514
 5956SOL     OW18766   3.982   2.639   6.858
 5956SOL    HW118767   4.037   2.676   6.934
 5956SOL    HW218768   3.890   2.618   6.891
 5957SOL     OW18769   6.930   2.591   3.788
 5957SOL    HW118770   6.984   2.661   3.740
 5957SOL    HW218771   6.859   2.556   3.727
 5958SOL     OW18772   2.386   6.224   2.420
 5958SOL    HW118773   2.454   6.155   2.392
 5958SOL    HW218774   2.430   6.291   2.479
 5959SOL     OW18775   5.039   4.613   3.180
 5959SOL    HW118776   5.043   4.713   3.180
 5959SOL    HW218777   5.057   4.579   3.273
 5960SOL     OW18778   6.121   0.068   6.802
 5960SOL    HW118779   6.158   0.088   6.712
 5960SOL    HW218780   6.094   6.997   6.806
 5961SOL     OW18781   1.827   1.959   3.483
 5961SOL    HW118782   1.764   2.036   3.472
 5961SOL    HW218783   1.918   1.986   3.452
 5962SOL     OW18784   4.891   5.284   0.364
 5962SOL    HW118785   4.792   5.273   0.373
 5962SOL    HW218786   4.937   5.200   0.395
 5963SOL     OW18787   2.188   4.018   0.985
 5963SOL    HW118788   2.267   4.040   1.044
 5963SOL    HW218789   2.221   3.989   0.895
 5964SOL     OW18790   1.717   6.613   3.907
 5964SOL    HW118791   1.769   6.651   3.831
 5964SOL    HW218792   1.725   6.673   3.986
 5965SOL     OW18793   2.120   0.343   1.476
 5965SOL    HW118794   2.159   0.287   1.549
 5965SOL    HW218795   2.020   0.336   1.478
 5966SOL     OW18796   3.102   2.061   5.713
 5966SOL    HW118797   3.090   1.963   5.698
 5966SOL    HW218798   3.083   2.109   5.627
 5967SOL     OW18799   4.633   2.182   5.501
 5967SOL    HW118800   4.647   2.235   5.417
 5967SOL    HW218801   4.632   2.244   5.580
 5968SOL     OW18802   6.395   2.068   3.089
 5968SOL    HW118803   6.331   2.093   3.017
 5968SOL    HW218804   6.459   1.999   3.055
 5969SOL     OW18805   4.968   6.559   1.769
 5969SOL    HW118806   4.937   6.507   1.689
 5969SOL    HW218807   5.050   6.516   1.807
 5970SOL     OW18808   5.648   2.030   0.449
 5970SOL    HW118809   5.640   2.124   0.481
 5970SOL    HW218810   5.744   2.007   0.436
 5971SOL     OW18811   6.814   5.291   3.656
 5971SOL    HW118812   6.839   5.234   3.577
 5971SOL    HW218813   6.894   5.342   3.687
 5972SOL     OW18814   5.992   5.092   0.316
 5972SOL    HW118815   5.936   5.032   0.259
 5972SOL    HW218816   5.994   5.056   0.410
 5973SOL     OW18817   3.638   0.965   2.135
 5973SOL    HW118818   3.581   0.934   2.059
 5973SOL    HW218819   3.609   0.920   2.219
 5974SOL     OW18820   5.300   1.209   4.281
 5974SOL    HW118821   5.272   1.175   4.192
 5974SOL    HW218822   5.223   1.257   4.324
 5975SOL     OW18823   3.843   4.664   0.489
 5975SOL    HW118824   3.898   4.637   0.568
 5975SOL    HW218825   3.795   4.584   0.453
 5976SOL     OW18826   0.871   2.203   6.401
 5976SOL    HW118827   0.838   2.267   6.470
 5976SOL    HW218828   0.967   2.222   6.380
 5977SOL     OW18829   0.834   5.438   1.611
 5977SOL    HW118830   0.802   5.429   1.705
 5977SOL    HW218831   0.890   5.520   1.603
 5978SOL     OW18832   2.863   3.787   6.360
 5978SOL    HW118833   2.917   3.734   6.295
 5978SOL    HW218834   2.921   3.816   6.436
 5979SOL     OW18835   5.800   0.933   1.428
 5979SOL    HW118836   5.880   0.930   1.488
 5979SOL    HW218837   5.773   0.840   1.404
 5980SOL     OW18838   3.627   2.589   0.857
 5980SOL    HW118839   3.535   2.569   0.823
 5980SOL    HW218840   3.677   2.644   0.789
 5981SOL     OW18841   4.326   2.149   0.842
 5981SOL    HW118842   4.415   2.189   0.863
 5981SOL    HW218843   4.290   2.189   0.758
 5982SOL     OW18844   5.666   2.848   1.267
 5982SOL    HW118845   5.722   2.861   1.185
 5982SOL    HW218846   5.580   2.899   1.258
 5983SOL     OW18847   6.680   1.529   3.543
 5983SOL    HW118848   6.680   1.429   3.543
 5983SOL    HW218849   6.774   1.563   3.543
 5984SOL     OW18850   5.932   6.258   1.628
 5984SOL    HW118851   5.973   6.192   1.690
 5984SOL    HW218852   5.995   6.335   1.613
 5985SOL     OW18853   0.136   4.438   2.680
 5985SOL    HW118854   0.098   4.407   2.767
 5985SOL    HW218855   0.105   4.531   2.661
 5986SOL     OW18856   4.040   3.146   2.902
 5986SOL    HW118857   4.114   3.136   2.836
 5986SOL    HW218858   3.971   3.076   2.886
 5987SOL     OW18859   0.047   6.319   4.443
 5987SOL    HW118860   6.989   6.334   4.390
 5987SOL    HW218861   0.125   6.309   4.381
 5988SOL     OW18862   1.878   2.285   0.644
 5988SOL    HW118863   1.852   2.374   0.681
 5988SOL    HW218864   1.797   2.238   0.608
 5989SOL     OW18865   2.581   6.974   5.785
 5989SOL    HW118866   2.516   6.993   5.712
 5989SOL    HW218867   2.669   6.947   5.746
 5990SOL     OW18868   2.149   3.871   1.680
 5990SOL    HW118869   2.118   3.828   1.595
 5990SOL    HW218870   2.242   3.906   1.668
 5991SOL     OW18871   5.129   1.195   0.459
 5991SOL    HW118872   5.124   1.133   0.537
 5991SOL    HW218873   5.099   1.286   0.488
 5992SOL     OW18874   2.741   4.738   3.150
 5992SOL    HW118875   2.742   4.651   3.101
 5992SOL    HW218876   2.832   4.779   3.146
 5993SOL     OW18877   5.090   1.480   0.443
 5993SOL    HW118878   5.108   1.523   0.354
 5993SOL    HW218879   5.174   1.475   0.496
 5994SOL     OW18880   0.858   4.444   1.168
 5994SOL    HW118881   0.808   4.530   1.153
 5994SOL    HW218882   0.909   4.421   1.086
 5995SOL     OW18883   5.610   4.391   0.953
 5995SOL    HW118884   5.694   4.441   0.971
 5995SOL    HW218885   5.568   4.363   1.039
 5996SOL     OW18886   2.095   0.645   1.645
 5996SOL    HW118887   2.080   0.607   1.553
 5996SOL    HW218888   2.059   0.738   1.648
 5997SOL     OW18889   6.530   0.370   4.508
 5997SOL    HW118890   6.518   0.454   4.561
 5997SOL    HW218891   6.459   0.304   4.533
 5998SOL     OW18892   6.246   6.495   6.924
 5998SOL    HW118893   6.251   6.594   6.938
 5998SOL    HW218894   6.155   6.471   6.892
 5999SOL     OW18895   5.500   4.023   0.894
 5999SOL    HW118896   5.507   4.105   0.838
 5999SOL    HW218897   5.490   4.048   0.990
 6000SOL     OW18898   0.793   5.087   1.926
 6000SOL    HW118899   0.721   5.089   1.995
 6000SOL    HW218900   0.766   5.027   1.851
 6001SOL     OW18901   0.010   6.105   5.791
 6001SOL    HW118902   6.987   6.176   5.740
 6001SOL    HW218903   0.070   6.148   5.859
 6002SOL     OW18904   5.836   4.790   4.876
 6002SOL    HW118905   5.767   4.852   4.837
 6002SOL    HW218906   5.863   4.723   4.807
 6003SOL     OW18907   2.553   1.217   5.221
 6003SOL    HW118908   2.585   1.172   5.305
 6003SOL    HW218909   2.461   1.185   5.199
 6004SOL     OW18910   5.367   3.224   5.165
 6004SOL    HW118911   5.268   3.211   5.168
 6004SOL    HW218912   5.410   3.147   5.116
 6005SOL     OW18913   4.044   3.791   0.135
 6005SOL    HW118914   4.128   3.810   0.084
 6005SOL    HW218915   3.992   3.721   0.087
 6006SOL     OW18916   2.738   6.282   5.833
 6006SOL    HW118917   2.744   6.381   5.835
 6006SOL    HW218918   2.651   6.254   5.792
 6007SOL     OW18919   3.357   6.763   4.360
 6007SOL    HW118920   3.327   6.846   4.406
 6007SOL    HW218921   3.279   6.715   4.321
 6008SOL     OW18922   2.200   4.069   6.721
 6008SOL    HW118923   2.128   4.005   6.749
 6008SOL    HW218924   2.279   4.018   6.689
 6009SOL     OW18925   2.345   5.321   2.533
 6009SOL    HW118926   2.372   5.366   2.448
 6009SOL    HW218927   2.248   5.339   2.551
 6010SOL     OW18928   0.330   5.135   6.111
 6010SOL    HW118929   0.368   5.203   6.174
 6010SOL    HW218930   0.230   5.138   6.114
 6011SOL     OW18931   5.686   2.081   3.210
 6011SOL    HW118932   5.713   2.099   3.116
 6011SOL    HW218933   5.753   2.022   3.254
 6012SOL     OW18934   6.473   0.810   5.565
 6012SOL    HW118935   6.497   0.857   5.480
 6012SOL    HW218936   6.437   0.876   5.630
 6013SOL     OW18937   5.920   1.448   2.561
 6013SOL    HW118938   6.016   1.475   2.556
 6013SOL    HW218939   5.871   1.484   2.481
 6014SOL     OW18940   4.164   3.617   4.074
 6014SOL    HW118941   4.256   3.603   4.112
 6014SOL    HW218942   4.134   3.534   4.027
 6015SOL     OW18943   6.837   0.319   3.245
 6015SOL    HW118944   6.817   0.417   3.246
 6015SOL    HW218945   6.769   0.271   3.300
 6016SOL     OW18946   4.169   1.727   4.340
 6016SOL    HW118947   4.104   1.778   4.284
 6016SOL    HW218948   4.241   1.788   4.374
 6017SOL     OW18949   1.326   2.514   5.016
 6017SOL    HW118950   1.374   2.443   4.963
 6017SOL    HW218951   1.379   2.535   5.098
 6018SOL     OW18952   2.197   0.699   4.045
 6018SOL    HW118953   2.161   0.768   4.108
 6018SOL    HW218954   2.243   0.745   3.969
 6019SOL     OW18955   6.653   3.353   6.482
 6019SOL    HW118956   6.617   3.284   6.419
 6019SOL    HW218957   6.618   3.337   6.574
 6020SOL     OW18958   0.692   5.770   4.519
 6020SOL    HW118959   0.704   5.835   4.594
 6020SOL    HW218960   0.722   5.679   4.548
 6021SOL     OW18961   4.893   0.332   3.751
 6021SOL    HW118962   4.966   0.265   3.747
 6021SOL    HW218963   4.812   0.291   3.793
 6022SOL     OW18964   6.664   4.079   1.070
 6022SOL    HW118965   6.618   3.991   1.082
 6022SOL    HW218966   6.595   4.151   1.061
 6023SOL     OW18967   4.174   0.083   2.815
 6023SOL    HW118968   4.150   0.054   2.907
 6023SOL    HW218969   4.174   0.003   2.754
 6024SOL     OW18970   0.421   6.678   6.894
 6024SOL    HW118971   0.475   6.617   6.835
 6024SOL    HW218972   0.349   6.626   6.938
 6025SOL     OW18973   3.698   0.594   5.850
 6025SOL    HW118974   3.703   0.496   5.830
 6025SOL    HW218975   3.742   0.612   5.938
 6026SOL     OW18976   5.258   6.034   3.514
 6026SOL    HW118977   5.308   6.006   3.595
 6026SOL    HW218978   5.177   5.976   3.504
 6027SOL     OW18979   6.328   4.111   5.360
 6027SOL    HW118980   6.323   4.012   5.344
 6027SOL    HW218981   6.264   4.136   5.433
 6028SOL     OW18982   5.826   5.586   6.607
 6028SOL    HW118983   5.903   5.546   6.557
 6028SOL    HW218984   5.740   5.550   6.570
 6029SOL     OW18985   2.434   1.401   2.442
 6029SOL    HW118986   2.497   1.407   2.364
 6029SOL    HW218987   2.475   1.446   2.521
 6030SOL     OW18988   6.265   3.078   4.893
 6030SOL    HW118989   6.222   2.990   4.870
 6030SOL    HW218990   6.304   3.118   4.810
 6031SOL     OW18991   7.025   0.359   3.603
 6031SOL    HW118992   0.082   0.305   3.588
 6031SOL    HW218993   0.020   0.456   3.592
 6032SOL     OW18994   2.948   6.810   3.032
 6032SOL    HW118995   2.971   6.901   3.068
 6032SOL    HW218996   3.030   6.752   3.034
 6033SOL     OW18997   0.858   1.249   2.774
 6033SOL    HW118998   0.852   1.282   2.680
 6033SOL    HW218999   0.948   1.209   2.790
 6034SOL     OW19000   0.747   0.590   1.085
 6034SOL    HW119001   0.771   0.651   1.010
 6034SOL    HW219002   0.682   0.521   1.053
 6035SOL     OW19003   1.774   1.383   2.490
 6035SOL    HW119004   1.737   1.437   2.565
 6035SOL    HW219005   1.851   1.433   2.449
 6036SOL     OW19006   0.037   3.884   0.511
 6036SOL    HW119007   0.077   3.815   0.450
 6036SOL    HW219008   0.007   3.840   0.595
 6037SOL     OW19009   4.591   0.755   6.485
 6037SOL    HW119010   4.643   0.780   6.566
 6037SOL    HW219011   4.522   0.686   6.509
 6038SOL     OW19012   2.056   1.137   0.059
 6038SOL    HW119013   2.086   1.057   0.111
 6038SOL    HW219014   1.998   1.194   0.117
 6039SOL     OW19015   3.697   2.910   4.443
 6039SOL    HW119016   3.736   2.827   4.402
 6039SOL    HW219017   3.603   2.922   4.410
 6040SOL     OW19018   6.817   1.240   0.890
 6040SOL    HW119019   6.747   1.209   0.825
 6040SOL    HW219020   6.871   1.313   0.849
 6041SOL     OW19021   0.381   2.972   4.623
 6041SOL    HW119022   0.360   2.925   4.537
 6041SOL    HW219023   0.479   2.969   4.640
 6042SOL     OW19024   2.751   5.929   3.598
 6042SOL    HW119025   2.795   5.877   3.525
 6042SOL    HW219026   2.654   5.940   3.578
 6043SOL     OW19027   2.087   5.269   1.625
 6043SOL    HW119028   2.091   5.249   1.723
 6043SOL    HW219029   2.120   5.190   1.574
 6044SOL     OW19030   6.837   3.765   0.289
 6044SOL    HW119031   6.930   3.732   0.303
 6044SOL    HW219032   6.828   3.858   0.324
 6045SOL     OW19033   5.035   1.388   4.005
 6045SOL    HW119034   5.012   1.305   4.056
 6045SOL    HW219035   5.080   1.453   4.066
 6046SOL     OW19036   3.480   3.918   2.420
 6046SOL    HW119037   3.488   3.836   2.477
 6046SOL    HW219038   3.468   3.998   2.479
 6047SOL     OW19039   6.878   1.324   0.110
 6047SOL    HW119040   6.842   1.256   0.046
 6047SOL    HW219041   6.892   1.281   0.200
 6048SOL     OW19042   6.337   5.750   3.623
 6048SOL    HW119043   6.294   5.838   3.644
 6048SOL    HW219044   6.406   5.762   3.552
 6049SOL     OW19045   5.251   4.459   6.773
 6049SOL    HW119046   5.333   4.408   6.748
 6049SOL    HW219047   5.251   4.548   6.728
 6050SOL     OW19048   2.013   5.244   2.921
 6050SOL    HW119049   1.954   5.315   2.962
 6050SOL    HW219050   1.979   5.154   2.948
 6051SOL     OW19051   0.880   1.405   2.510
 6051SOL    HW119052   0.861   1.500   2.531
 6051SOL    HW219053   0.967   1.399   2.459
 6052SOL     OW19054   5.212   6.011   6.694
 6052SOL    HW119055   5.281   5.984   6.761
 6052SOL    HW219056   5.168   5.929   6.658
 6053SOL     OW19057   3.796   1.923   5.690
 6053SOL    HW119058   3.730   1.976   5.636
 6053SOL    HW219059   3.783   1.943   5.787
 6054SOL     OW19060   4.281   3.931   6.637
 6054SOL    HW119061   4.378   3.905   6.630
 6054SOL    HW219062   4.246   3.906   6.727
 6055SOL     OW19063   2.712   4.570   1.402
 6055SOL    HW119064   2.733   4.488   1.350
 6055SOL    HW219065   2.690   4.545   1.496
 6056SOL     OW19066   5.203   6.641   2.926
 6056SOL    HW119067   5.292   6.612   2.890
 6056SOL    HW219068   5.192   6.739   2.909
 6057SOL     OW19069   5.887   1.250   3.889
 6057SOL    HW119070   5.819   1.179   3.907
 6057SOL    HW219071   5.966   1.209   3.843
 6058SOL     OW19072   6.917   2.989   6.072
 6058SOL    HW119073   6.838   3.035   6.031
 6058SOL    HW219074   6.888   2.944   6.157
 6059SOL     OW19075   4.413   2.450   6.415
 6059SOL    HW119076   4.383   2.536   6.457
 6059SOL    HW219077   4.414   2.460   6.316
 6060SOL     OW19078   2.182   2.217   1.305
 6060SOL    HW119079   2.222   2.276   1.235
 6060SOL    HW219080   2.232   2.130   1.307
 6061SOL     OW19081   2.610   4.714   6.893
 6061SOL    HW119082   2.642   4.756   6.808
 6061SOL    HW219083   2.511   4.703   6.890
 6062SOL     OW19084   2.114   2.476   5.764
 6062SOL    HW119085   2.159   2.513   5.683
 6062SOL    HW219086   2.110   2.376   5.757
 6063SOL     OW19087   4.501   3.926   6.300
 6063SOL    HW119088   4.521   4.021   6.276
 6063SOL    HW219089   4.575   3.867   6.269
 6064SOL     OW19090   5.894   5.861   0.276
 6064SOL    HW119091   5.918   5.955   0.249
 6064SOL    HW219092   5.976   5.805   0.278
 6065SOL     OW19093   1.768   5.843   1.351
 6065SOL    HW119094   1.668   5.833   1.345
 6065SOL    HW219095   1.802   5.886   1.268
 6066SOL     OW19096   5.838   5.766   2.018
 6066SOL    HW119097   5.796   5.791   2.105
 6066SOL    HW219098   5.770   5.718   1.961
 6067SOL     OW19099   6.866   4.779   5.421
 6067SOL    HW119100   6.809   4.697   5.420
 6067SOL    HW219101   6.960   4.754   5.394
 6068SOL     OW19102   4.041   2.201   3.819
 6068SOL    HW119103   4.104   2.243   3.753
 6068SOL    HW219104   4.089   2.190   3.907
 6069SOL     OW19105   0.724   5.006   5.104
 6069SOL    HW119106   0.684   5.098   5.103
 6069SOL    HW219107   0.665   4.944   5.156
 6070SOL     OW19108   2.568   1.185   0.857
 6070SOL    HW119109   2.525   1.221   0.774
 6070SOL    HW219110   2.656   1.145   0.835
 6071SOL     OW19111   6.159   0.281   6.222
 6071SOL    HW119112   6.250   0.291   6.181
 6071SOL    HW219113   6.147   0.348   6.295
 6072SOL     OW19114   6.667   3.049   0.319
 6072SOL    HW119115   6.569   3.038   0.337
 6072SOL    HW219116   6.681   3.120   0.251
 6073SOL     OW19117   4.409   4.157   0.289
 6073SOL    HW119118   4.457   4.143   0.376
 6073SOL    HW219119   4.342   4.084   0.276
 6074SOL     OW19120   1.321   6.045   2.874
 6074SOL    HW119121   1.236   6.071   2.827
 6074SOL    HW219122   1.373   6.127   2.896
 6075SOL     OW19123   6.107   0.414   6.826
 6075SOL    HW119124   6.179   0.414   6.757
 6075SOL    HW219125   6.144   0.376   6.911
 6076SOL     OW19126   0.048   6.608   3.270
 6076SOL    HW119127   0.120   6.542   3.293
 6076SOL    HW219128   7.020   6.573   3.193
 6077SOL     OW19129   5.437   6.284   2.774
 6077SOL    HW119130   5.351   6.276   2.824
 6077SOL    HW219131   5.419   6.285   2.676
 6078SOL     OW19132   5.791   4.580   0.092
 6078SOL    HW119133   5.726   4.513   0.056
 6078SOL    HW219134   5.794   4.659   0.031
 6079SOL     OW19135   3.632   1.732   0.067
 6079SOL    HW119136   3.675   1.671   0.135
 6079SOL    HW219137   3.599   1.677   7.016
 6080SOL     OW19138   6.636   3.813   5.316
 6080SOL    HW119139   6.630   3.861   5.229
 6080SOL    HW219140   6.726   3.769   5.324
 6081SOL     OW19141   2.120   3.830   4.485
 6081SOL    HW119142   2.116   3.783   4.397
 6081SOL    HW219143   2.086   3.769   4.556
 6082SOL     OW19144   3.945   1.051   0.807
 6082SOL    HW119145   3.862   0.995   0.813
 6082SOL    HW219146   3.962   1.096   0.894
 6083SOL     OW19147   4.989   0.672   5.599
 6083SOL    HW119148   5.088   0.678   5.611
 6083SOL    HW219149   4.968   0.601   5.531
 6084SOL     OW19150   6.621   4.872   3.243
 6084SOL    HW119151   6.528   4.861   3.207
 6084SOL    HW219152   6.658   4.959   3.211
 6085SOL     OW19153   0.594   6.368   0.985
 6085SOL    HW119154   0.618   6.389   0.890
 6085SOL    HW219155   0.584   6.269   0.996
 6086SOL     OW19156   4.413   3.695   0.857
 6086SOL    HW119157   4.490   3.631   0.859
 6086SOL    HW219158   4.351   3.673   0.932
 6087SOL     OW19159   4.044   0.370   0.590
 6087SOL    HW119160   4.103   0.289   0.594
 6087SOL    HW219161   3.949   0.342   0.575
 6088SOL     OW19162   3.730   6.023   2.622
 6088SOL    HW119163   3.694   5.994   2.710
 6088SOL    HW219164   3.766   5.943   2.573
 6089SOL     OW19165   6.239   5.600   3.105
 6089SOL    HW119166   6.204   5.509   3.080
 6089SOL    HW219167   6.324   5.589   3.158
 6090SOL     OW19168   3.606   5.783   4.786
 6090SOL    HW119169   3.640   5.691   4.802
 6090SOL    HW219170   3.638   5.844   4.859
 6091SOL     OW19171   0.557   3.011   2.110
 6091SOL    HW119172   0.604   2.973   2.030
 6091SOL    HW219173   0.571   3.110   2.113
 6092SOL     OW19174   1.951   6.701   1.015
 6092SOL    HW119175   1.995   6.683   0.927
 6092SOL    HW219176   1.856   6.730   1.000
 6093SOL     OW19177   3.389   3.234   2.399
 6093SOL    HW119178   3.445   3.251   2.480
 6093SOL    HW219179   3.324   3.308   2.387
 6094SOL     OW19180   0.593   0.081   5.898
 6094SOL    HW119181   0.510   0.033   5.870
 6094SOL    HW219182   0.673   0.023   5.883
 6095SOL     OW19183   4.913   5.367   2.255
 6095SOL    HW119184   4.877   5.274   2.264
 6095SOL    HW219185   4.956   5.395   2.341
 6096SOL     OW19186   5.171   5.972   2.778
 6096SOL    HW119187   5.076   5.998   2.795
 6096SOL    HW219188   5.232   6.040   2.818
 6097SOL     OW19189   2.567   5.188   1.506
 6097SOL    HW119190   2.496   5.255   1.488
 6097SOL    HW219191   2.617   5.167   1.422
 6098SOL     OW19192   5.907   1.391   5.308
 6098SOL    HW119193   5.864   1.408   5.219
 6098SOL    HW219194   5.998   1.352   5.295
 6099SOL     OW19195   3.719   0.070   5.127
 6099SOL    HW119196   3.757   0.161   5.146
 6099SOL    HW219197   3.645   0.078   5.060
 6100SOL     OW19198   0.272   5.470   5.934
 6100SOL    HW119199   0.198   5.411   5.902
 6100SOL    HW219200   0.237   5.532   6.005
 6101SOL     OW19201   0.558   2.825   0.924
 6101SOL    HW119202   0.578   2.912   0.968
 6101SOL    HW219203   0.574   2.832   0.826
 6102SOL     OW19204   2.960   0.405   2.917
 6102SOL    HW119205   2.907   0.489   2.931
 6102SOL    HW219206   2.960   0.351   3.000
 6103SOL     OW19207   5.791   0.475   2.375
 6103SOL    HW119208   5.795   0.520   2.465
 6103SOL    HW219209   5.751   0.539   2.309
 6104SOL     OW19210   6.292   1.014   4.935
 6104SOL    HW119211   6.290   1.074   4.855
 6104SOL    HW219212   6.206   0.965   4.942
 6105SOL     OW19213   3.825   4.951   6.530
 6105SOL    HW119214   3.749   4.918   6.588
 6105SOL    HW219215   3.896   4.881   6.527
 6106SOL     OW19216   6.402   3.889   5.120
 6106SOL    HW119217   6.353   3.864   5.203
 6106SOL    HW219218   6.382   3.985   5.097
 6107SOL     OW19219   5.990   5.192   5.189
 6107SOL    HW119220   5.933   5.206   5.270
 6107SOL    HW219221   5.938   5.146   5.118
 6108SOL     OW19222   3.387   0.651   6.181
 6108SOL    HW119223   3.304   0.603   6.155
 6108SOL    HW219224   3.369   0.708   6.261
 6109SOL     OW19225   6.787   6.508   4.048
 6109SOL    HW119226   6.783   6.607   4.031
 6109SOL    HW219227   6.853   6.489   4.120
 6110SOL     OW19228   1.215   1.850   3.715
 6110SOL    HW119229   1.170   1.890   3.636
 6110SOL    HW219230   1.147   1.815   3.779
 6111SOL     OW19231   3.043   2.691   0.816
 6111SOL    HW119232   2.978   2.753   0.772
 6111SOL    HW219233   3.008   2.666   0.907
 6112SOL     OW19234   4.933   6.541   3.800
 6112SOL    HW119235   4.869   6.481   3.848
 6112SOL    HW219236   5.018   6.492   3.782
 6113SOL     OW19237   3.115   5.339   1.196
 6113SOL    HW119238   3.123   5.434   1.228
 6113SOL    HW219239   3.108   5.339   1.096
 6114SOL     OW19240   4.939   3.857   1.590
 6114SOL    HW119241   4.889   3.771   1.597
 6114SOL    HW219242   4.993   3.872   1.673
 6115SOL     OW19243   6.082   0.844   4.826
 6115SOL    HW119244   6.159   0.785   4.801
 6115SOL    HW219245   6.032   0.870   4.744
 6116SOL     OW19246   6.097   3.028   0.559
 6116SOL    HW119247   6.077   3.015   0.462
 6116SOL    HW219248   6.159   3.105   0.571
 6117SOL     OW19249   2.156   2.337   0.901
 6117SOL    HW119250   2.228   2.355   0.834
 6117SOL    HW219251   2.100   2.419   0.912
 6118SOL     OW19252   6.038   0.696   1.278
 6118SOL    HW119253   6.113   0.630   1.267
 6118SOL    HW219254   6.054   0.751   1.360
 6119SOL     OW19255   0.360   1.089   6.375
 6119SOL    HW119256   0.266   1.074   6.405
 6119SOL    HW219257   0.419   1.017   6.410
 6120SOL     OW19258   3.183   1.132   3.827
 6120SOL    HW119259   3.146   1.045   3.861
 6120SOL    HW219260   3.118   1.173   3.764
 6121SOL     OW19261   3.274   1.278   5.348
 6121SOL    HW119262   3.323   1.312   5.268
 6121SOL    HW219263   3.331   1.213   5.397
 6122SOL     OW19264   4.762   4.776   5.092
 6122SOL    HW119265   4.755   4.867   5.133
 6122SOL    HW219266   4.840   4.774   5.029
 6123SOL     OW19267   6.190   1.684   4.967
 6123SOL    HW119268   6.150   1.687   5.059
 6123SOL    HW219269   6.190   1.777   4.928
 6124SOL     OW19270   2.301   6.150   4.194
 6124SOL    HW119271   2.378   6.116   4.139
 6124SOL    HW219272   2.216   6.141   4.142
 6125SOL     OW19273   3.433   1.081   5.750
 6125SOL    HW119274   3.438   1.115   5.844
 6125SOL    HW219275   3.359   1.126   5.702
 6126SOL     OW19276   5.898   2.952   6.366
 6126SOL    HW119277   5.874   2.875   6.307
 6126SOL    HW219278   5.977   2.928   6.422
 6127SOL     OW19279   4.694   1.971   2.761
 6127SOL    HW119280   4.616   1.961   2.822
 6127SOL    HW219281   4.669   1.942   2.669
 6128SOL     OW19282   5.904   5.574   5.087
 6128SOL    HW119283   5.973   5.617   5.145
 6128SOL    HW219284   5.945   5.495   5.041
 6129SOL     OW19285   2.050   6.012   3.169
 6129SOL    HW119286   2.112   6.090   3.165
 6129SOL    HW219287   2.089   5.934   3.120
 6130SOL     OW19288   6.072   2.788   6.962
 6130SOL    HW119289   6.003   2.762   6.894
 6130SOL    HW219290   6.035   2.774   0.028
 6131SOL     OW19291   5.983   3.011   2.718
 6131SOL    HW119292   6.033   3.056   2.644
 6131SOL    HW219293   5.917   3.075   2.758
 6132SOL     OW19294   4.404   6.138   6.214
 6132SOL    HW119295   4.449   6.051   6.231
 6132SOL    HW219296   4.320   6.123   6.161
 6133SOL     OW19297   0.509   2.248   3.703
 6133SOL    HW119298   0.573   2.283   3.635
 6133SOL    HW219299   0.545   2.162   3.741
 6134SOL     OW19300   0.185   6.913   5.410
 6134SOL    HW119301   0.268   6.924   5.355
 6134SOL    HW219302   0.183   6.822   5.451
 6135SOL     OW19303   6.378   5.893   0.088
 6135SOL    HW119304   6.409   5.971   0.142
 6135SOL    HW219305   6.415   5.809   0.127
 6136SOL     OW19306   1.342   2.080   3.404
 6136SOL    HW119307   1.331   2.178   3.387
 6136SOL    HW219308   1.256   2.043   3.441
 6137SOL     OW19309   0.174   4.942   0.876
 6137SOL    HW119310   0.093   4.885   0.892
 6137SOL    HW219311   0.196   4.940   0.778
 6138SOL     OW19312   5.488   0.838   2.351
 6138SOL    HW119313   5.438   0.814   2.434
 6138SOL    HW219314   5.426   0.881   2.285
 6139SOL     OW19315   2.166   2.055   5.486
 6139SOL    HW119316   2.137   2.135   5.538
 6139SOL    HW219317   2.091   2.025   5.426
 6140SOL     OW19318   2.171   0.248   3.879
 6140SOL    HW119319   2.150   0.271   3.974
 6140SOL    HW219320   2.092   0.269   3.821
 6141SOL     OW19321   1.248   6.915   0.609
 6141SOL    HW119322   1.228   6.932   0.512
 6141SOL    HW219323   1.345   6.931   0.625
 6142SOL     OW19324   0.200   0.077   1.910
 6142SOL    HW119325   0.257   0.154   1.937
 6142SOL    HW219326   0.248   0.023   1.841
 6143SOL     OW19327   0.613   3.087   5.430
 6143SOL    HW119328   0.660   3.165   5.471
 6143SOL    HW219329   0.663   3.058   5.348
 6144SOL     OW19330   3.348   5.798   2.469
 6144SOL    HW119331   3.279   5.809   2.540
 6144SOL    HW219332   3.366   5.886   2.425
 6145SOL     OW19333   5.478   3.200   4.328
 6145SOL    HW119334   5.485   3.178   4.231
 6145SOL    HW219335   5.560   3.249   4.357
 6146SOL     OW19336   5.807   1.437   5.550
 6146SOL    HW119337   5.740   1.512   5.547
 6146SOL    HW219338   5.841   1.419   5.458
 6147SOL     OW19339   1.327   1.948   6.076
 6147SOL    HW119340   1.330   2.046   6.057
 6147SOL    HW219341   1.295   1.934   6.170
 6148SOL     OW19342   4.038   4.876   6.888
 6148SOL    HW119343   4.103   4.817   6.935
 6148SOL    HW219344   3.951   4.877   6.938
 6149SOL     OW19345   4.121   1.662   1.568
 6149SOL    HW119346   4.085   1.610   1.490
 6149SOL    HW219347   4.055   1.733   1.593
 6150SOL     OW19348   0.782   4.994   4.126
 6150SOL    HW119349   0.813   4.913   4.175
 6150SOL    HW219350   0.710   5.039   4.179
 6151SOL     OW19351   3.994   5.703   2.686
 6151SOL    HW119352   4.021   5.611   2.658
 6151SOL    HW219353   4.073   5.764   2.681
 6152SOL     OW19354   0.481   4.020   3.087
 6152SOL    HW119355   0.468   3.930   3.130
 6152SOL    HW219356   0.424   4.027   3.005
 6153SOL     OW19357   5.826   6.180   1.102
 6153SOL    HW119358   5.834   6.086   1.069
 6153SOL    HW219359   5.857   6.185   1.197
 6154SOL     OW19360   4.171   4.820   2.812
 6154SOL    HW119361   4.138   4.780   2.898
 6154SOL    HW219362   4.111   4.896   2.786
 6155SOL     OW19363   1.978   1.732   3.990
 6155SOL    HW119364   1.910   1.803   4.006
 6155SOL    HW219365   1.952   1.650   4.042
 6156SOL     OW19366   4.557   4.376   2.504
 6156SOL    HW119367   4.531   4.304   2.569
 6156SOL    HW219368   4.567   4.336   2.413
 6157SOL     OW19369   0.335   2.751   1.046
 6157SOL    HW119370   0.345   2.680   1.115
 6157SOL    HW219371   0.424   2.767   1.002
 6158SOL     OW19372   3.405   0.588   5.782
 6158SOL    HW119373   3.391   0.631   5.693
 6158SOL    HW219374   3.491   0.621   5.822
 6159SOL     OW19375   5.874   2.058   1.133
 6159SOL    HW119376   5.914   2.148   1.118
 6159SOL    HW219377   5.945   1.988   1.126
 6160SOL     OW19378   1.020   6.910   1.130
 6160SOL    HW119379   1.107   6.862   1.117
 6160SOL    HW219380   0.970   6.913   1.044
 6161SOL     OW19381   5.911   3.793   0.128
 6161SOL    HW119382   5.826   3.751   0.161
 6161SOL    HW219383   5.974   3.804   0.204
 6162SOL     OW19384   6.187   6.146   1.093
 6162SOL    HW119385   6.218   6.151   1.188
 6162SOL    HW219386   6.117   6.216   1.077
 6163SOL     OW19387   5.945   5.987   3.084
 6163SOL    HW119388   5.919   6.026   2.995
 6163SOL    HW219389   5.980   5.894   3.071
 6164SOL     OW19390   3.292   3.838   4.520
 6164SOL    HW119391   3.214   3.892   4.551
 6164SOL    HW219392   3.271   3.795   4.433
 6165SOL     OW19393   3.082   0.545   0.349
 6165SOL    HW119394   3.049   0.451   0.350
 6165SOL    HW219395   3.152   0.555   0.279
 6166SOL     OW19396   3.518   1.332   5.974
 6166SOL    HW119397   3.513   1.266   6.049
 6166SOL    HW219398   3.607   1.325   5.930
 6167SOL     OW19399   1.333   3.293   2.923
 6167SOL    HW119400   1.390   3.374   2.909
 6167SOL    HW219401   1.259   3.292   2.856
 6168SOL     OW19402   0.830   3.251   4.083
 6168SOL    HW119403   0.785   3.199   4.155
 6168SOL    HW219404   0.886   3.324   4.124
 6169SOL     OW19405   2.437   1.165   0.328
 6169SOL    HW119406   2.510   1.117   0.280
 6169SOL    HW219407   2.442   1.263   0.308
 6170SOL     OW19408   2.736   4.652   1.120
 6170SOL    HW119409   2.709   4.578   1.181
 6170SOL    HW219410   2.738   4.738   1.171
 6171SOL     OW19411   2.208   4.137   1.579
 6171SOL    HW119412   2.132   4.112   1.518
 6171SOL    HW219413   2.193   4.228   1.616
 6172SOL     OW19414   2.710   4.947   1.355
 6172SOL    HW119415   2.779   5.018   1.342
 6172SOL    HW219416   2.681   4.946   1.451
 6173SOL     OW19417   1.376   5.616   2.501
 6173SOL    HW119418   1.398   5.708   2.534
 6173SOL    HW219419   1.456   5.557   2.513
 6174SOL     OW19420   5.947   4.887   1.224
 6174SOL    HW119421   5.927   4.792   1.199
 6174SOL    HW219422   5.947   4.895   1.323
 6175SOL     OW19423   5.493   0.103   3.923
 6175SOL    HW119424   5.398   0.131   3.942
 6175SOL    HW219425   5.524   0.041   3.995
 6176SOL     OW19426   5.961   3.180   0.260
 6176SOL    HW119427   5.924   3.181   0.167
 6176SOL    HW219428   6.023   3.259   0.272
 6177SOL     OW19429   6.034   2.507   2.572
 6177SOL    HW119430   6.088   2.587   2.598
 6177SOL    HW219431   5.984   2.527   2.487
 6178SOL     OW19432   6.529   2.980   1.124
 6178SOL    HW119433   6.499   3.055   1.183
 6178SOL    HW219434   6.469   2.902   1.136
 6179SOL     OW19435   0.666   1.389   5.111
 6179SOL    HW119436   0.672   1.400   5.011
 6179SOL    HW219437   0.755   1.362   5.147
 6180SOL     OW19438   3.189   0.965   6.564
 6180SOL    HW119439   3.163   1.050   6.518
 6180SOL    HW219440   3.129   0.948   6.641
 6181SOL     OW19441   4.282   6.098   6.543
 6181SOL    HW119442   4.285   6.167   6.471
 6181SOL    HW219443   4.202   6.040   6.531
 6182SOL     OW19444   4.913   6.877   5.498
 6182SOL    HW119445   4.846   6.951   5.504
 6182SOL    HW219446   4.888   6.815   5.423
 6183SOL     OW19447   3.003   0.677   2.694
 6183SOL    HW119448   3.068   0.646   2.625
 6183SOL    HW219449   2.948   0.600   2.725
 6184SOL     OW19450   6.664   0.638   5.630
 6184SOL    HW119451   6.597   0.701   5.590
 6184SOL    HW219452   6.709   0.682   5.707
 6185SOL     OW19453   2.520   2.578   0.027
 6185SOL    HW119454   2.441   2.520   0.048
 6185SOL    HW219455   2.506   2.625   6.966
 6186SOL     OW19456   4.331   1.189   4.241
 6186SOL    HW119457   4.388   1.174   4.322
 6186SOL    HW219458   4.324   1.104   4.189
 6187SOL     OW19459   3.210   4.910   4.242
 6187SOL    HW119460   3.136   4.886   4.304
 6187SOL    HW219461   3.173   4.929   4.151
 6188SOL     OW19462   2.979   0.175   1.969
 6188SOL    HW119463   2.921   0.099   1.940
 6188SOL    HW219464   3.062   0.139   2.011
 6189SOL     OW19465   5.070   4.936   3.159
 6189SOL    HW119466   5.168   4.919   3.148
 6189SOL    HW219467   5.053   4.982   3.246
 6190SOL     OW19468   5.174   2.656   6.046
 6190SOL    HW119469   5.075   2.662   6.035
 6190SOL    HW219470   5.195   2.636   6.142
 6191SOL     OW19471   6.748   1.829   6.413
 6191SOL    HW119472   6.650   1.812   6.426
 6191SOL    HW219473   6.798   1.743   6.420
 6192SOL     OW19474   3.514   2.099   0.436
 6192SOL    HW119475   3.436   2.152   0.469
 6192SOL    HW219476   3.533   2.025   0.500
 6193SOL     OW19477   0.037   0.394   1.905
 6193SOL    HW119478   7.015   0.466   1.855
 6193SOL    HW219479   0.023   0.307   1.858
 6194SOL     OW19480   2.544   0.158   0.482
 6194SOL    HW119481   2.531   0.247   0.524
 6194SOL    HW219482   2.575   0.169   0.387
 6195SOL     OW19483   2.429   0.463   5.668
 6195SOL    HW119484   2.403   0.426   5.757
 6195SOL    HW219485   2.529   0.459   5.658
 6196SOL     OW19486   1.119   1.918   5.546
 6196SOL    HW119487   1.172   1.941   5.465
 6196SOL    HW219488   1.043   1.982   5.557
 6197SOL     OW19489   2.793   2.705   1.341
 6197SOL    HW119490   2.743   2.624   1.372
 6197SOL    HW219491   2.759   2.733   1.251
 6198SOL     OW19492   3.671   5.401   2.749
 6198SOL    HW119493   3.635   5.452   2.671
 6198SOL    HW219494   3.740   5.455   2.796
 6199SOL     OW19495   0.387   0.236   6.861
 6199SOL    HW119496   0.360   0.327   6.831
 6199SOL    HW219497   0.307   0.176   6.860
 6200SOL     OW19498   3.772   0.309   5.877
 6200SOL    HW119499   3.758   0.210   5.869
 6200SOL    HW219500   3.847   0.337   5.817
 6201SOL     OW19501   2.235   4.986   4.495
 6201SOL    HW119502   2.221   4.901   4.547
 6201SOL    HW219503   2.328   5.020   4.511
 6202SOL     OW19504   1.914   1.976   1.451
 6202SOL    HW119505   1.893   2.019   1.539
 6202SOL    HW219506   2.013   1.972   1.439
 6203SOL     OW19507   5.695   2.513   3.815
 6203SOL    HW119508   5.682   2.471   3.725
 6203SOL    HW219509   5.793   2.525   3.833
 6204SOL     OW19510   1.227   6.702   5.597
 6204SOL    HW119511   1.214   6.603   5.607
 6204SOL    HW219512   1.268   6.739   5.680
 6205SOL     OW19513   4.905   6.533   0.011
 6205SOL    HW119514   4.926   6.618   6.989
 6205SOL    HW219515   4.816   6.541   0.057
 6206SOL     OW19516   4.967   0.082   3.685
 6206SOL    HW119517   5.056   0.057   3.645
 6206SOL    HW219518   4.952   0.028   3.767
 6207SOL     OW19519   1.970   4.104   4.619
 6207SOL    HW119520   2.055   4.066   4.656
 6207SOL    HW219521   1.922   4.035   4.565
 6208SOL     OW19522   5.490   4.990   5.452
 6208SOL    HW119523   5.446   4.925   5.390
 6208SOL    HW219524   5.588   4.994   5.433
 6209SOL     OW19525   1.989   5.417   1.062
 6209SOL    HW119526   2.069   5.467   1.031
 6209SOL    HW219527   1.906   5.466   1.033
 6210SOL     OW19528   6.925   4.246   2.826
 6210SOL    HW119529   6.946   4.151   2.851
 6210SOL    HW219530   6.827   4.256   2.812
 6211SOL     OW19531   2.813   0.915   5.352
 6211SOL    HW119532   2.736   0.959   5.397
 6211SOL    HW219533   2.898   0.956   5.383
 6212SOL     OW19534   6.753   0.490   3.637
 6212SOL    HW119535   6.845   0.450   3.637
 6212SOL    HW219536   6.753   0.573   3.692
 6213SOL     OW19537   6.747   6.917   0.016
 6213SOL    HW119538   6.786   6.979   0.083
 6213SOL    HW219539   6.656   6.948   7.016
 6214SOL     OW19540   5.294   4.788   1.700
 6214SOL    HW119541   5.255   4.867   1.654
 6214SOL    HW219542   5.245   4.771   1.785
 6215SOL     OW19543   2.965   4.659   1.434
 6215SOL    HW119544   2.871   4.629   1.420
 6215SOL    HW219545   2.979   4.683   1.530
 6216SOL     OW19546   6.860   2.776   2.547
 6216SOL    HW119547   6.859   2.840   2.624
 6216SOL    HW219548   6.846   2.683   2.581
 6217SOL     OW19549   4.443   1.605   1.878
 6217SOL    HW119550   4.393   1.534   1.828
 6217SOL    HW219551   4.526   1.629   1.828
 6218SOL     OW19552   4.828   5.739   4.451
 6218SOL    HW119553   4.789   5.655   4.413
 6218SOL    HW219554   4.873   5.790   4.378
 6219SOL     OW19555   0.100   1.164   4.283
 6219SOL    HW119556   0.188   1.126   4.256
 6219SOL    HW219557   0.110   1.213   4.369
 6220SOL     OW19558   1.227   3.163   5.213
 6220SOL    HW119559   1.261   3.218   5.290
 6220SOL    HW219560   1.221   3.067   5.241
 6221SOL     OW19561   4.361   4.643   4.599
 6221SOL    HW119562   4.391   4.616   4.507
 6221SOL    HW219563   4.262   4.631   4.606
 6222SOL     OW19564   6.499   2.113   1.205
 6222SOL    HW119565   6.517   2.153   1.115
 6222SOL    HW219566   6.569   2.045   1.226
 6223SOL     OW19567   5.266   4.206   4.083
 6223SOL    HW119568   5.240   4.249   4.170
 6223SOL    HW219569   5.349   4.151   4.097
 6224SOL     OW19570   2.620   0.016   4.401
 6224SOL    HW119571   2.702   0.068   4.429
 6224SOL    HW219572   2.550   0.025   4.472
 6225SOL     OW19573   3.926   2.037   6.605
 6225SOL    HW119574   3.851   2.089   6.646
 6225SOL    HW219575   4.001   2.100   6.581
 6226SOL     OW19576   6.850   6.408   4.309
 6226SOL    HW119577   6.782   6.433   4.377
 6226SOL    HW219578   6.824   6.323   4.265
 6227SOL     OW19579   2.509   4.313   6.466
 6227SOL    HW119580   2.582   4.358   6.518
 6227SOL    HW219581   2.421   4.351   6.492
 6228SOL     OW19582   6.953   2.155   2.608
 6228SOL    HW119583   0.023   2.126   2.603
 6228SOL    HW219584   6.940   2.217   2.685
 6229SOL     OW19585   1.394   2.074   1.863
 6229SOL    HW119586   1.459   2.005   1.832
 6229SOL    HW219587   1.439   2.163   1.869
 6230SOL     OW19588   2.149   2.252   3.773
 6230SOL    HW119589   2.128   2.191   3.850
 6230SOL    HW219590   2.076   2.246   3.705
 6231SOL     OW19591   6.423   4.977   1.675
 6231SOL    HW119592   6.511   5.016   1.648
 6231SOL    HW219593   6.439   4.892   1.725
 6232SOL     OW19594   1.103   0.779   0.197
 6232SOL    HW119595   1.144   0.791   0.107
 6232SOL    HW219596   1.158   0.715   0.251
 6233SOL     OW19597   3.892   1.055   6.446
 6233SOL    HW119598   3.906   0.977   6.506
 6233SOL    HW219599   3.805   1.099   6.467
 6234SOL     OW19600   2.620   2.182   4.053
 6234SOL    HW119601   2.618   2.167   3.954
 6234SOL    HW219602   2.535   2.147   4.093
 6235SOL     OW19603   2.421   5.584   2.121
 6235SOL    HW119604   2.492   5.649   2.148
 6235SOL    HW219605   2.332   5.619   2.150
 6236SOL     OW19606   0.257   4.093   7.025
 6236SOL    HW119607   0.319   4.016   7.011
 6236SOL    HW219608   0.197   4.073   0.077
 6237SOL     OW19609   3.564   5.932   6.472
 6237SOL    HW119610   3.605   6.000   6.412
 6237SOL    HW219611   3.630   5.859   6.491
 6238SOL     OW19612   5.277   3.631   0.913
 6238SOL    HW119613   5.289   3.730   0.919
 6238SOL    HW219614   5.277   3.603   0.817
 6239SOL     OW19615   3.460   6.423   3.334
 6239SOL    HW119616   3.534   6.439   3.400
 6239SOL    HW219617   3.383   6.482   3.356
 6240SOL     OW19618   2.773   3.761   0.284
 6240SOL    HW119619   2.750   3.858   0.271
 6240SOL    HW219620   2.841   3.734   0.216
 6241SOL     OW19621   4.770   6.847   2.315
 6241SOL    HW119622   4.842   6.832   2.382
 6241SOL    HW219623   4.805   6.903   2.240
 6242SOL     OW19624   3.544   1.924   2.769
 6242SOL    HW119625   3.551   1.895   2.674
 6242SOL    HW219626   3.572   1.850   2.829
 6243SOL     OW19627   6.430   5.605   3.308
 6243SOL    HW119628   6.360   5.574   3.373
 6243SOL    HW219629   6.493   5.666   3.355
 6244SOL     OW19630   1.365   1.590   1.736
 6244SOL    HW119631   1.388   1.619   1.828
 6244SOL    HW219632   1.320   1.501   1.738
 6245SOL     OW19633   2.458   3.881   0.441
 6245SOL    HW119634   2.361   3.877   0.467
 6245SOL    HW219635   2.513   3.837   0.511
 6246SOL     OW19636   4.251   6.708   0.320
 6246SOL    HW119637   4.194   6.681   0.398
 6246SOL    HW219638   4.339   6.659   0.326
 6247SOL     OW19639   6.622   6.830   2.668
 6247SOL    HW119640   6.570   6.794   2.746
 6247SOL    HW219641   6.638   6.928   2.681
 6248SOL     OW19642   0.918   6.008   0.708
 6248SOL    HW119643   1.014   5.980   0.716
 6248SOL    HW219644   0.903   6.090   0.763
 6249SOL     OW19645   6.126   2.812   5.791
 6249SOL    HW119646   6.070   2.891   5.816
 6249SOL    HW219647   6.069   2.730   5.790
 6250SOL     OW19648   6.745   4.518   5.901
 6250SOL    HW119649   6.804   4.459   5.845
 6250SOL    HW219650   6.755   4.613   5.871
 6251SOL     OW19651   4.402   1.220   0.941
 6251SOL    HW119652   4.315   1.266   0.959
 6251SOL    HW219653   4.476   1.272   0.984
 6252SOL     OW19654   1.811   6.366   4.800
 6252SOL    HW119655   1.820   6.452   4.749
 6252SOL    HW219656   1.869   6.297   4.758
 6253SOL     OW19657   2.659   3.224   1.445
 6253SOL    HW119658   2.664   3.259   1.539
 6253SOL    HW219659   2.627   3.296   1.384
 6254SOL     OW19660   5.078   0.464   0.135
 6254SOL    HW119661   5.041   0.548   0.096
 6254SOL    HW219662   5.054   0.458   0.231
 6255SOL     OW19663   0.332   3.138   3.091
 6255SOL    HW119664   0.381   3.104   3.172
 6255SOL    HW219665   0.299   3.060   3.037
 6256SOL     OW19666   3.737   5.241   4.281
 6256SOL    HW119667   3.732   5.141   4.275
 6256SOL    HW219668   3.832   5.270   4.278
 6257SOL     OW19669   4.193   2.981   6.660
 6257SOL    HW119670   4.094   2.990   6.674
 6257SOL    HW219671   4.227   3.062   6.612
 6258SOL     OW19672   4.686   2.145   3.027
 6258SOL    HW119673   4.649   2.055   3.005
 6258SOL    HW219674   4.677   2.206   2.949
 6259SOL     OW19675   3.424   2.214   1.716
 6259SOL    HW119676   3.407   2.134   1.774
 6259SOL    HW219677   3.523   2.230   1.711
 6260SOL     OW19678   3.302   4.337   1.282
 6260SOL    HW119679   3.273   4.326   1.187
 6260SOL    HW219680   3.232   4.385   1.334
 6261SOL     OW19681   4.847   6.678   6.316
 6261SOL    HW119682   4.821   6.768   6.279
 6261SOL    HW219683   4.913   6.690   6.390
 6262SOL     OW19684   0.079   5.650   5.017
 6262SOL    HW119685   0.117   5.603   5.097
 6262SOL    HW219686   7.011   5.620   5.001
 6263SOL     OW19687   6.569   0.675   1.460
 6263SOL    HW119688   6.614   0.753   1.418
 6263SOL    HW219689   6.582   0.594   1.402
 6264SOL     OW19690   2.493   1.416   0.253
 6264SOL    HW119691   2.592   1.432   0.254
 6264SOL    HW219692   2.456   1.444   0.165
 6265SOL     OW19693   6.035   3.520   0.424
 6265SOL    HW119694   5.944   3.485   0.448
 6265SOL    HW219695   6.028   3.618   0.404
 6266SOL     OW19696   2.541   0.244   2.587
 6266SOL    HW119697   2.608   0.226   2.660
 6266SOL    HW219698   2.522   0.159   2.538
 6267SOL     OW19699   2.944   6.340   0.159
 6267SOL    HW119700   2.943   6.258   0.217
 6267SOL    HW219701   2.922   6.420   0.215
 6268SOL     OW19702   1.974   6.033   2.288
 6268SOL    HW119703   2.037   5.993   2.354
 6268SOL    HW219704   2.018   6.110   2.242
 6269SOL     OW19705   6.590   4.463   6.486
 6269SOL    HW119706   6.591   4.368   6.516
 6269SOL    HW219707   6.668   4.481   6.427
 6270SOL     OW19708   0.235   1.186   3.864
 6270SOL    HW119709   0.164   1.240   3.909
 6270SOL    HW219710   0.321   1.236   3.865
 6271SOL     OW19711   5.999   1.680   1.335
 6271SOL    HW119712   5.996   1.667   1.236
 6271SOL    HW219713   6.094   1.674   1.367
 6272SOL     OW19714   2.546   2.447   3.724
 6272SOL    HW119715   2.533   2.453   3.823
 6272SOL    HW219716   2.458   2.431   3.679
 6273SOL     OW19717   4.143   0.844   2.721
 6273SOL    HW119718   4.091   0.900   2.657
 6273SOL    HW219719   4.123   0.873   2.815
 6274SOL     OW19720   2.671   5.916   6.918
 6274SOL    HW119721   2.767   5.941   6.931
 6274SOL    HW219722   2.664   5.844   6.849
 6275SOL     OW19723   3.634   1.229   4.835
 6275SOL    HW119724   3.688   1.259   4.913
 6275SOL    HW219725   3.576   1.304   4.803
 6276SOL     OW19726   1.329   5.134   3.664
 6276SOL    HW119727   1.236   5.125   3.700
 6276SOL    HW219728   1.392   5.084   3.724
 6277SOL     OW19729   6.139   3.442   4.181
 6277SOL    HW119730   6.135   3.416   4.278
 6277SOL    HW219731   6.100   3.533   4.169
 6278SOL     OW19732   4.605   1.264   3.470
 6278SOL    HW119733   4.617   1.336   3.402
 6278SOL    HW219734   4.694   1.238   3.508
 6279SOL     OW19735   4.288   1.847   6.021
 6279SOL    HW119736   4.234   1.804   5.949
 6279SOL    HW219737   4.314   1.778   6.089
 6280SOL     OW19738   1.323   5.406   5.792
 6280SOL    HW119739   1.364   5.468   5.859
 6280SOL    HW219740   1.393   5.347   5.753
 6281SOL     OW19741   3.260   5.990   4.655
 6281SOL    HW119742   3.282   5.959   4.562
 6281SOL    HW219743   3.252   5.910   4.715
 6282SOL     OW19744   0.745   7.023   4.311
 6282SOL    HW119745   0.751   0.067   4.239
 6282SOL    HW219746   0.827   6.966   4.309
 6283SOL     OW19747   0.977   2.739   4.911
 6283SOL    HW119748   1.050   2.777   4.968
 6283SOL    HW219749   0.969   2.641   4.929
 6284SOL     OW19750   2.369   4.912   0.005
 6284SOL    HW119751   2.329   4.876   6.946
 6284SOL    HW219752   2.459   4.952   7.011
 6285SOL     OW19753   2.009   3.980   2.072
 6285SOL    HW119754   2.007   3.900   2.132
 6285SOL    HW219755   2.009   4.063   2.128
 6286SOL     OW19756   6.509   6.155   4.569
 6286SOL    HW119757   6.593   6.159   4.622
 6286SOL    HW219758   6.524   6.104   4.485
 6287SOL     OW19759   3.674   4.868   2.778
 6287SOL    HW119760   3.661   4.856   2.680
 6287SOL    HW219761   3.586   4.866   2.824
 6288SOL     OW19762   6.109   3.456   0.695
 6288SOL    HW119763   6.026   3.466   0.751
 6288SOL    HW219764   6.097   3.507   0.610
 6289SOL     OW19765   0.758   6.583   2.663
 6289SOL    HW119766   0.689   6.654   2.649
 6289SOL    HW219767   0.804   6.564   2.576
 6290SOL     OW19768   5.775   3.972   3.891
 6290SOL    HW119769   5.822   3.918   3.820
 6290SOL    HW219770   5.811   4.065   3.891
 6291SOL     OW19771   3.511   4.035   3.576
 6291SOL    HW119772   3.452   4.074   3.505
 6291SOL    HW219773   3.455   4.006   3.654
 6292SOL     OW19774   0.198   0.926   1.601
 6292SOL    HW119775   0.173   0.952   1.695
 6292SOL    HW219776   0.257   0.997   1.562
 6293SOL     OW19777   5.859   5.032   5.883
 6293SOL    HW119778   5.837   4.935   5.882
 6293SOL    HW219779   5.924   5.053   5.811
 6294SOL     OW19780   3.241   6.427   1.554
 6294SOL    HW119781   3.298   6.368   1.611
 6294SOL    HW219782   3.147   6.394   1.555
 6295SOL     OW19783   6.821   5.804   6.104
 6295SOL    HW119784   6.920   5.807   6.116
 6295SOL    HW219785   6.777   5.791   6.193
 6296SOL     OW19786   5.971   1.685   3.163
 6296SOL    HW119787   6.060   1.675   3.118
 6296SOL    HW219788   5.985   1.712   3.258
 6297SOL     OW19789   5.762   1.370   6.030
 6297SOL    HW119790   5.755   1.470   6.035
 6297SOL    HW219791   5.805   1.344   5.944
 6298SOL     OW19792   6.346   2.378   4.406
 6298SOL    HW119793   6.309   2.471   4.399
 6298SOL    HW219794   6.373   2.347   4.315
 6299SOL     OW19795   6.970   2.665   0.300
 6299SOL    HW119796   6.941   2.575   0.265
 6299SOL    HW219797   0.035   2.656   0.342
 6300SOL     OW19798   5.302   1.253   3.535
 6300SOL    HW119799   5.303   1.329   3.470
 6300SOL    HW219800   5.329   1.169   3.488
 6301SOL     OW19801   3.330   0.539   1.194
 6301SOL    HW119802   3.359   0.599   1.120
 6301SOL    HW219803   3.250   0.486   1.165
 6302SOL     OW19804   6.310   0.217   2.873
 6302SOL    HW119805   6.287   0.304   2.916
 6302SOL    HW219806   6.330   0.149   2.943
 6303SOL     OW19807   2.496   5.246   4.328
 6303SOL    HW119808   2.544   5.332   4.345
 6303SOL    HW219809   2.512   5.183   4.404
 6304SOL     OW19810   4.631   0.868   4.755
 6304SOL    HW119811   4.704   0.932   4.780
 6304SOL    HW219812   4.671   0.780   4.728
 6305SOL     OW19813   5.381   0.196   2.546
 6305SOL    HW119814   5.438   0.119   2.574
 6305SOL    HW219815   5.408   0.225   2.454
 6306SOL     OW19816   6.114   2.697   3.925
 6306SOL    HW119817   6.180   2.751   3.872
 6306SOL    HW219818   6.049   2.759   3.970
 6307SOL     OW19819   1.828   4.748   0.361
 6307SOL    HW119820   1.748   4.743   0.421
 6307SOL    HW219821   1.866   4.841   0.364
 6308SOL     OW19822   4.354   2.350   6.160
 6308SOL    HW119823   4.279   2.383   6.103
 6308SOL    HW219824   4.321   2.275   6.217
 6309SOL     OW19825   5.769   2.123   5.305
 6309SOL    HW119826   5.788   2.215   5.337
 6309SOL    HW219827   5.775   2.059   5.381
 6310SOL     OW19828   0.061   5.522   4.294
 6310SOL    HW119829   0.026   5.437   4.332
 6310SOL    HW219830   7.018   5.563   4.234
 6311SOL     OW19831   6.237   6.995   4.367
 6311SOL    HW119832   6.183   6.964   4.289
 6311SOL    HW219833   6.261   6.916   4.424
 6312SOL     OW19834   5.931   4.007   5.889
 6312SOL    HW119835   5.845   3.956   5.898
 6312SOL    HW219836   5.993   3.981   5.963
 6313SOL     OW19837   2.327   5.094   4.189
 6313SOL    HW119838   2.332   5.145   4.103
 6313SOL    HW219839   2.356   5.153   4.264
 6314SOL     OW19840   1.210   0.365   3.719
 6314SOL    HW119841   1.138   0.426   3.754
 6314SOL    HW219842   1.217   0.377   3.619
 6315SOL     OW19843   2.092   3.062   0.282
 6315SOL    HW119844   2.033   3.139   0.307
 6315SOL    HW219845   2.058   3.021   0.197
 6316SOL     OW19846   4.004   1.075   4.897
 6316SOL    HW119847   3.995   1.156   4.839
 6316SOL    HW219848   4.081   1.086   4.959
 6317SOL     OW19849   6.641   5.231   4.550
 6317SOL    HW119850   6.739   5.219   4.565
 6317SOL    HW219851   6.599   5.143   4.528
 6318SOL     OW19852   1.973   2.013   4.189
 6318SOL    HW119853   1.889   2.062   4.165
 6318SOL    HW219854   2.025   2.067   4.255
 6319SOL     OW19855   1.245   1.947   3.058
 6319SOL    HW119856   1.290   1.990   2.980
 6319SOL    HW219857   1.314   1.916   3.123
 6320SOL     OW19858   0.509   2.338   2.785
 6320SOL    HW119859   0.433   2.379   2.835
 6320SOL    HW219860   0.482   2.320   2.691
 6321SOL     OW19861   1.844   3.814   5.924
 6321SOL    HW119862   1.834   3.913   5.936
 6321SOL    HW219863   1.760   3.776   5.886
 6322SOL     OW19864   2.518   6.810   6.697
 6322SOL    HW119865   2.601   6.799   6.643
 6322SOL    HW219866   2.516   6.741   6.769
 6323SOL     OW19867   4.516   1.685   2.153
 6323SOL    HW119868   4.443   1.660   2.218
 6323SOL    HW219869   4.509   1.627   2.072
 6324SOL     OW19870   3.192   1.732   0.754
 6324SOL    HW119871   3.146   1.757   0.839
 6324SOL    HW219872   3.152   1.783   0.678
 6325SOL     OW19873   1.659   3.106   3.156
 6325SOL    HW119874   1.745   3.074   3.116
 6325SOL    HW219875   1.628   3.041   3.225
 6326SOL     OW19876   4.429   6.582   1.318
 6326SOL    HW119877   4.481   6.507   1.361
 6326SOL    HW219878   4.489   6.661   1.305
 6327SOL     OW19879   3.916   5.087   5.388
 6327SOL    HW119880   3.956   5.169   5.430
 6327SOL    HW219881   3.970   5.007   5.414
 6328SOL     OW19882   2.749   4.427   6.824
 6328SOL    HW119883   2.779   4.452   6.916
 6328SOL    HW219884   2.767   4.330   6.809
 6329SOL     OW19885   0.724   1.790   3.520
 6329SOL    HW119886   0.792   1.731   3.475
 6329SOL    HW219887   0.637   1.742   3.525
 6330SOL     OW19888   3.286   0.615   6.956
 6330SOL    HW119889   3.309   0.526   6.916
 6330SOL    HW219890   3.293   0.686   6.886
 6331SOL     OW19891   5.082   3.211   1.553
 6331SOL    HW119892   5.124   3.268   1.483
 6331SOL    HW219893   4.983   3.211   1.540
 6332SOL     OW19894   4.725   6.179   2.372
 6332SOL    HW119895   4.751   6.275   2.378
 6332SOL    HW219896   4.628   6.169   2.396
 6333SOL     OW19897   2.432   5.068   2.641
 6333SOL    HW119898   2.458   5.087   2.735
 6333SOL    HW219899   2.425   5.154   2.590
 6334SOL     OW19900   2.210   0.784   2.109
 6334SOL    HW119901   2.228   0.722   2.186
 6334SOL    HW219902   2.232   0.877   2.135
 6335SOL     OW19903   6.654   0.758   0.024
 6335SOL    HW119904   6.701   0.843   0.049
 6335SOL    HW219905   6.710   0.707   6.984
 6336SOL     OW19906   1.463   2.609   5.226
 6336SOL    HW119907   1.521   2.690   5.222
 6336SOL    HW219908   1.420   2.604   5.317
 6337SOL     OW19909   0.592   4.536   4.910
 6337SOL    HW119910   0.640   4.614   4.950
 6337SOL    HW219911   0.496   4.558   4.898
 6338SOL     OW19912   3.545   1.446   4.737
 6338SOL    HW119913   3.565   1.532   4.785
 6338SOL    HW219914   3.604   1.439   4.656
 6339SOL     OW19915   6.636   2.530   4.165
 6339SOL    HW119916   6.644   2.526   4.265
 6339SOL    HW219917   6.582   2.609   4.139
 6340SOL     OW19918   3.017   5.619   3.473
 6340SOL    HW119919   3.000   5.566   3.390
 6340SOL    HW219920   3.110   5.602   3.506
 6341SOL     OW19921   6.001   5.454   2.190
 6341SOL    HW119922   6.019   5.477   2.094
 6341SOL    HW219923   5.998   5.539   2.244
 6342SOL     OW19924   1.110   3.448   0.647
 6342SOL    HW119925   1.056   3.532   0.651
 6342SOL    HW219926   1.175   3.455   0.571
 6343SOL     OW19927   3.971   1.347   0.246
 6343SOL    HW119928   4.003   1.361   0.152
 6343SOL    HW219929   4.047   1.357   0.309
 6344SOL     OW19930   6.146   4.933   4.732
 6344SOL    HW119931   6.093   5.017   4.723
 6344SOL    HW219932   6.179   4.924   4.826
 6345SOL     OW19933   1.732   2.005   1.242
 6345SOL    HW119934   1.796   2.008   1.319
 6345SOL    HW219935   1.776   1.958   1.165
 6346SOL     OW19936   0.861   5.381   3.975
 6346SOL    HW119937   0.827   5.362   3.882
 6346SOL    HW219938   0.791   5.429   4.026
 6347SOL     OW19939   2.840   0.847   0.694
 6347SOL    HW119940   2.927   0.799   0.680
 6347SOL    HW219941   2.781   0.792   0.754
 6348SOL     OW19942   0.338   2.524   4.264
 6348SOL    HW119943   0.278   2.458   4.219
 6348SOL    HW219944   0.304   2.543   4.356
 6349SOL     OW19945   1.197   0.744   0.620
 6349SOL    HW119946   1.140   0.806   0.566
 6349SOL    HW219947   1.288   0.783   0.631
 6350SOL     OW19948   6.953   5.920   3.305
 6350SOL    HW119949   6.888   5.845   3.308
 6350SOL    HW219950   6.909   6.002   3.267
 6351SOL     OW19951   0.255   2.217   3.333
 6351SOL    HW119952   0.177   2.211   3.394
 6351SOL    HW219953   0.301   2.128   3.327
 6352SOL     OW19954   6.603   4.341   2.511
 6352SOL    HW119955   6.534   4.388   2.566
 6352SOL    HW219956   6.663   4.408   2.468
 6353SOL     OW19957   6.719   6.887   2.154
 6353SOL    HW119958   6.798   6.947   2.142
 6353SOL    HW219959   6.689   6.891   2.250
 6354SOL     OW19960   6.315   0.211   4.594
 6354SOL    HW119961   6.244   0.211   4.524
 6354SOL    HW219962   6.274   0.228   4.684
 6355SOL     OW19963   1.272   1.959   1.290
 6355SOL    HW119964   1.344   1.894   1.315
 6355SOL    HW219965   1.233   1.933   1.202
 6356SOL     OW19966   3.380   3.685   1.360
 6356SOL    HW119967   3.425   3.691   1.271
 6356SOL    HW219968   3.442   3.719   1.430
 6357SOL     OW19969   5.100   1.798   1.247
 6357SOL    HW119970   5.026   1.841   1.195
 6357SOL    HW219971   5.086   1.699   1.249
 6358SOL     OW19972   0.964   2.525   5.177
 6358SOL    HW119973   0.935   2.496   5.268
 6358SOL    HW219974   0.988   2.445   5.122
 6359SOL     OW19975   6.988   0.717   6.573
 6359SOL    HW119976   0.022   0.741   6.497
 6359SOL    HW219977   0.018   0.701   6.655
 6360SOL     OW19978   2.306   4.844   4.291
 6360SOL    HW119979   2.320   4.903   4.211
 6360SOL    HW219980   2.272   4.898   4.367
 6361SOL     OW19981   2.715   6.457   5.316
 6361SOL    HW119982   2.696   6.403   5.398
 6361SOL    HW219983   2.805   6.501   5.325
 6362SOL     OW19984   0.035   5.335   5.942
 6362SOL    HW119985   0.055   5.237   5.947
 6362SOL    HW219986   7.024   5.366   6.029
 6363SOL     OW19987   1.117   5.562   3.896
 6363SOL    HW119988   1.098   5.539   3.800
 6363SOL    HW219989   1.047   5.624   3.930
 6364SOL     OW19990   2.530   1.637   6.289
 6364SOL    HW119991   2.455   1.579   6.257
 6364SOL    HW219992   2.617   1.588   6.277
 6365SOL     OW19993   3.800   5.794   2.511
 6365SOL    HW119994   3.861   5.772   2.586
 6365SOL    HW219995   3.809   5.725   2.439
 6366SOL     OW19996   0.969   4.200   5.464
 6366SOL    HW119997   1.046   4.138   5.479
 6366SOL    HW219998   0.999   4.294   5.473
 6367SOL     OW19999   5.402   5.575   1.893
 6367SOL    HW120000   5.331   5.616   1.949
 6367SOL    HW220001   5.362   5.539   1.808
 6368SOL     OW20002   2.880   1.443   2.398
 6368SOL    HW120003   2.810   1.511   2.419
 6368SOL    HW220004   2.898   1.443   2.300
 6369SOL     OW20005   2.252   6.249   5.095
 6369SOL    HW120006   2.197   6.296   5.165
 6369SOL    HW220007   2.294   6.317   5.036
 6370SOL     OW20008   5.468   3.028   2.164
 6370SOL    HW120009   5.450   2.986   2.253
 6370SOL    HW220010   5.497   2.957   2.099
 6371SOL     OW20011   4.298   1.385   3.383
 6371SOL    HW120012   4.352   1.463   3.416
 6371SOL    HW220013   4.330   1.302   3.429
 6372SOL     OW20014   2.734   0.261   2.807
 6372SOL    HW120015   2.802   0.315   2.757
 6372SOL    HW220016   2.779   0.185   2.853
 6373SOL     OW20017   3.615   4.423   0.095
 6373SOL    HW120018   3.665   4.448   0.178
 6373SOL    HW220019   3.584   4.328   0.101
 6374SOL     OW20020   3.255   3.011   4.109
 6374SOL    HW120021   3.275   2.958   4.027
 6374SOL    HW220022   3.297   3.102   4.101
 6375SOL     OW20023   2.219   6.124   1.929
 6375SOL    HW120024   2.166   6.046   1.896
 6375SOL    HW220025   2.278   6.158   1.857
 6376SOL     OW20026   1.427   1.578   5.101
 6376SOL    HW120027   1.327   1.575   5.089
 6376SOL    HW220028   1.465   1.651   5.044
 6377SOL     OW20029   0.892   2.186   3.847
 6377SOL    HW120030   0.938   2.167   3.760
 6377SOL    HW220031   0.838   2.270   3.838
 6378SOL     OW20032   3.871   4.903   3.932
 6378SOL    HW120033   3.791   4.885   3.988
 6378SOL    HW220034   3.842   4.927   3.839
 6379SOL     OW20035   2.321   4.759   2.122
 6379SOL    HW120036   2.401   4.815   2.103
 6379SOL    HW220037   2.248   4.783   2.058
 6380SOL     OW20038   1.381   0.871   6.151
 6380SOL    HW120039   1.427   0.954   6.185
 6380SOL    HW220040   1.431   0.790   6.181
 6381SOL     OW20041   3.597   3.338   2.546
 6381SOL    HW120042   3.576   3.427   2.586
 6381SOL    HW220043   3.691   3.338   2.511
 6382SOL     OW20044   1.429   4.654   4.839
 6382SOL    HW120045   1.403   4.745   4.808
 6382SOL    HW220046   1.346   4.599   4.853
 6383SOL     OW20047   4.185   1.537   4.115
 6383SOL    HW120048   4.220   1.601   4.047
 6383SOL    HW220049   4.191   1.579   4.206
 6384SOL     OW20050   6.877   4.076   1.688
 6384SOL    HW120051   6.906   3.998   1.744
 6384SOL    HW220052   6.958   4.124   1.655
 6385SOL     OW20053   1.147   5.872   5.556
 6385SOL    HW120054   1.060   5.899   5.598
 6385SOL    HW220055   1.130   5.814   5.477
 6386SOL     OW20056   2.061   5.340   2.588
 6386SOL    HW120057   1.995   5.279   2.631
 6386SOL    HW220058   2.020   5.430   2.573
 6387SOL     OW20059   6.017   0.776   5.098
 6387SOL    HW120060   6.030   0.802   5.002
 6387SOL    HW220061   5.984   0.854   5.150
 6388SOL     OW20062   2.202   4.675   2.806
 6388SOL    HW120063   2.299   4.697   2.791
 6388SOL    HW220064   2.157   4.751   2.853
 6389SOL     OW20065   1.756   4.132   1.046
 6389SOL    HW120066   1.667   4.156   1.009
 6389SOL    HW220067   1.826   4.141   0.975
 6390SOL     OW20068   0.358   3.240   4.632
 6390SOL    HW120069   0.378   3.143   4.645
 6390SOL    HW220070   0.378   3.265   4.537
 6391SOL     OW20071   3.823   0.695   0.382
 6391SOL    HW120072   3.796   0.686   0.478
 6391SOL    HW220073   3.905   0.752   0.376
 6392SOL     OW20074   1.461   5.952   4.361
 6392SOL    HW120075   1.476   5.908   4.272
 6392SOL    HW220076   1.370   5.992   4.363
 6393SOL     OW20077   4.920   1.371   6.918
 6393SOL    HW120078   4.937   1.331   7.008
 6393SOL    HW220079   4.948   1.466   6.917
 6394SOL     OW20080   4.022   5.615   1.939
 6394SOL    HW120081   3.942   5.652   1.891
 6394SOL    HW220082   4.078   5.691   1.973
 6395SOL     OW20083   5.541   2.157   0.049
 6395SOL    HW120084   5.624   2.197   0.010
 6395SOL    HW220085   5.562   2.066   0.086
 6396SOL     OW20086   6.389   2.651   6.698
 6396SOL    HW120087   6.349   2.617   6.613
 6396SOL    HW220088   6.345   2.737   6.723
 6397SOL     OW20089   6.759   0.554   0.718
 6397SOL    HW120090   6.723   0.642   0.686
 6397SOL    HW220091   6.686   0.486   0.718
 6398SOL     OW20092   4.331   0.807   1.616
 6398SOL    HW120093   4.429   0.820   1.603
 6398SOL    HW220094   4.293   0.760   1.537
 6399SOL     OW20095   1.097   6.241   6.305
 6399SOL    HW120096   1.146   6.192   6.377
 6399SOL    HW220097   1.022   6.184   6.271
 6400SOL     OW20098   3.075   4.859   4.655
 6400SOL    HW120099   3.133   4.849   4.736
 6400SOL    HW220100   2.993   4.803   4.666
 6401SOL     OW20101   0.223   4.999   5.635
 6401SOL    HW120102   0.288   4.987   5.561
 6401SOL    HW220103   0.262   5.061   5.704
 6402SOL     OW20104   2.092   3.325   2.956
 6402SOL    HW120105   2.072   3.231   2.928
 6402SOL    HW220106   2.038   3.348   3.037
 6403SOL     OW20107   0.231   6.215   1.880
 6403SOL    HW120108   0.170   6.238   1.804
 6403SOL    HW220109   0.182   6.159   1.947
 6404SOL     OW20110   5.118   0.979   2.429
 6404SOL    HW120111   5.129   0.897   2.486
 6404SOL    HW220112   5.207   1.011   2.398
 6405SOL     OW20113   3.596   0.492   1.594
 6405SOL    HW120114   3.579   0.407   1.644
 6405SOL    HW220115   3.642   0.557   1.655
 6406SOL     OW20116   2.494   1.887   3.188
 6406SOL    HW120117   2.542   1.971   3.216
 6406SOL    HW220118   2.476   1.890   3.090
 6407SOL     OW20119   4.558   6.372   6.804
 6407SOL    HW120120   4.618   6.412   6.873
 6407SOL    HW220121   4.485   6.321   6.850
 6408SOL     OW20122   5.815   2.557   1.075
 6408SOL    HW120123   5.865   2.503   1.008
 6408SOL    HW220124   5.751   2.498   1.125
 6409SOL     OW20125   1.024   5.098   1.698
 6409SOL    HW120126   0.946   5.155   1.724
 6409SOL    HW220127   1.101   5.119   1.759
 6410SOL     OW20128   0.234   0.162   1.612
 6410SOL    HW120129   0.321   0.117   1.636
 6410SOL    HW220130   0.249   0.223   1.534
 6411SOL     OW20131   1.661   1.658   3.279
 6411SOL    HW120132   1.724   1.721   3.235
 6411SOL    HW220133   1.684   1.564   3.254
 6412SOL     OW20134   5.869   2.055   4.888
 6412SOL    HW120135   5.813   1.975   4.912
 6412SOL    HW220136   5.910   2.092   4.971
 6413SOL     OW20137   0.562   5.117   0.902
 6413SOL    HW120138   0.532   5.096   0.809
 6413SOL    HW220139   0.523   5.204   0.932
 6414SOL     OW20140   5.907   0.479   3.296
 6414SOL    HW120141   5.849   0.410   3.338
 6414SOL    HW220142   5.953   0.532   3.367
 6415SOL     OW20143   1.300   1.299   1.788
 6415SOL    HW120144   1.216   1.266   1.744
 6415SOL    HW220145   1.284   1.311   1.886
 6416SOL     OW20146   2.600   6.148   6.321
 6416SOL    HW120147   2.601   6.079   6.394
 6416SOL    HW220148   2.588   6.102   6.233
 6417SOL     OW20149   0.292   5.736   4.375
 6417SOL    HW120150   0.222   5.803   4.354
 6417SOL    HW220151   0.249   5.649   4.398
 6418SOL     OW20152   6.916   5.064   2.168
 6418SOL    HW120153   6.874   5.131   2.107
 6418SOL    HW220154   6.857   4.983   2.173
 6419SOL     OW20155   2.582   2.636   0.307
 6419SOL    HW120156   2.670   2.591   0.290
 6419SOL    HW220157   2.517   2.612   0.235
 6420SOL     OW20158   0.410   2.175   0.099
 6420SOL    HW120159   0.323   2.142   0.134
 6420SOL    HW220160   0.485   2.125   0.141
 6421SOL     OW20161   5.434   1.567   0.258
 6421SOL    HW120162   5.448   1.540   0.354
 6421SOL    HW220163   5.519   1.555   0.207
 6422SOL     OW20164   5.654   2.522   2.799
 6422SOL    HW120165   5.580   2.494   2.737
 6422SOL    HW220166   5.704   2.599   2.759
 6423SOL     OW20167   5.447   4.159   0.635
 6423SOL    HW120168   5.445   4.088   0.566
 6423SOL    HW220169   5.355   4.191   0.654
 6424SOL     OW20170   6.043   3.426   4.959
 6424SOL    HW120171   6.072   3.521   4.955
 6424SOL    HW220172   6.115   3.371   5.001
 6425SOL     OW20173   0.795   5.895   0.942
 6425SOL    HW120174   0.837   5.904   0.852
 6425SOL    HW220175   0.721   5.827   0.938
 6426SOL     OW20176   6.321   3.234   3.363
 6426SOL    HW120177   6.312   3.135   3.377
 6426SOL    HW220178   6.272   3.260   3.279
 6427SOL     OW20179   0.731   3.600   5.838
 6427SOL    HW120180   0.653   3.607   5.901
 6427SOL    HW220181   0.788   3.682   5.847
 6428SOL     OW20182   6.174   3.667   5.075
 6428SOL    HW120183   6.267   3.661   5.039
 6428SOL    HW220184   6.122   3.735   5.024
 6429SOL     OW20185   1.171   1.351   5.413
 6429SOL    HW120186   1.123   1.437   5.427
 6429SOL    HW220187   1.241   1.363   5.342
 6430SOL     OW20188   6.393   2.932   0.407
 6430SOL    HW120189   6.296   2.939   0.385
 6430SOL    HW220190   6.413   2.989   0.487
 6431SOL     OW20191   5.710   1.286   2.187
 6431SOL    HW120192   5.679   1.296   2.092
 6431SOL    HW220193   5.712   1.189   2.212
 6432SOL     OW20194   6.092   3.853   0.369
 6432SOL    HW120195   6.108   3.937   0.317
 6432SOL    HW220196   6.057   3.877   0.460
 6433SOL     OW20197   2.159   3.470   1.580
 6433SOL    HW120198   2.096   3.531   1.628
 6433SOL    HW220199   2.109   3.420   1.509
 6434SOL     OW20200   1.607   6.096   0.551
 6434SOL    HW120201   1.587   6.153   0.630
 6434SOL    HW220202   1.524   6.048   0.523
 6435SOL     OW20203   5.394   3.560   1.157
 6435SOL    HW120204   5.359   3.575   1.065
 6435SOL    HW220205   5.407   3.462   1.173
 6436SOL     OW20206   2.303   2.352   1.119
 6436SOL    HW120207   2.241   2.325   1.046
 6436SOL    HW220208   2.327   2.449   1.108
 6437SOL     OW20209   0.273   1.421   1.295
 6437SOL    HW120210   0.361   1.379   1.270
 6437SOL    HW220211   0.198   1.369   1.253
 6438SOL     OW20212   0.703   3.008   4.658
 6438SOL    HW120213   0.787   2.973   4.616
 6438SOL    HW220214   0.701   3.108   4.647
 6439SOL     OW20215   0.224   5.986   2.741
 6439SOL    HW120216   0.273   5.938   2.668
 6439SOL    HW220217   0.239   6.085   2.731
 6440SOL     OW20218   0.539   0.503   2.143
 6440SOL    HW120219   0.576   0.539   2.228
 6440SOL    HW220220   0.604   0.519   2.068
 6441SOL     OW20221   5.179   1.666   3.559
 6441SOL    HW120222   5.214   1.702   3.645
 6441SOL    HW220223   5.091   1.708   3.538
 6442SOL     OW20224   1.848   1.978   3.792
 6442SOL    HW120225   1.781   1.932   3.851
 6442SOL    HW220226   1.837   1.946   3.698
 6443SOL     OW20227   2.151   0.728   1.019
 6443SOL    HW120228   2.183   0.634   1.028
 6443SOL    HW220229   2.194   0.771   0.940
 6444SOL     OW20230   0.835   0.989   2.530
 6444SOL    HW120231   0.804   0.908   2.580
 6444SOL    HW220232   0.779   1.068   2.556
 6445SOL     OW20233   3.342   4.587   6.081
 6445SOL    HW120234   3.244   4.588   6.102
 6445SOL    HW220235   3.375   4.680   6.068
 6446SOL     OW20236   0.203   1.221   1.000
 6446SOL    HW120237   0.158   1.305   0.968
 6446SOL    HW220238   0.141   1.172   1.062
 6447SOL     OW20239   1.873   0.939   3.620
 6447SOL    HW120240   1.859   0.857   3.674
 6447SOL    HW220241   1.867   0.917   3.523
 6448SOL     OW20242   6.372   2.717   2.638
 6448SOL    HW120243   6.297   2.724   2.702
 6448SOL    HW220244   6.409   2.808   2.618
 6449SOL     OW20245   4.155   2.260   0.623
 6449SOL    HW120246   4.081   2.318   0.657
 6449SOL    HW220247   4.137   2.235   0.528
 6450SOL     OW20248   6.570   2.542   0.068
 6450SOL    HW120249   6.502   2.469   0.071
 6450SOL    HW220250   6.529   2.627   0.103
 6451SOL     OW20251   2.799   6.288   4.158
 6451SOL    HW120252   2.764   6.247   4.242
 6451SOL    HW220253   2.802   6.219   4.085
 6452SOL     OW20254   3.385   6.060   4.176
 6452SOL    HW120255   3.471   6.049   4.125
 6452SOL    HW220256   3.396   6.130   4.246
 6453SOL     OW20257   2.245   4.862   6.791
 6453SOL    HW120258   2.187   4.794   6.746
 6453SOL    HW220259   2.210   4.953   6.771
 6454SOL     OW20260   4.007   0.947   4.379
 6454SOL    HW120261   4.076   0.968   4.448
 6454SOL    HW220262   3.982   0.850   4.385
 6455SOL     OW20263   6.646   3.447   0.399
 6455SOL    HW120264   6.653   3.435   0.300
 6455SOL    HW220265   6.735   3.425   0.441
 6456SOL     OW20266   6.175   1.777   4.321
 6456SOL    HW120267   6.176   1.678   4.307
 6456SOL    HW220268   6.123   1.820   4.247
 6457SOL     OW20269   5.475   3.409   2.261
 6457SOL    HW120270   5.511   3.501   2.242
 6457SOL    HW220271   5.397   3.391   2.201
 6458SOL     OW20272   1.620   5.433   3.800
 6458SOL    HW120273   1.552   5.421   3.871
 6458SOL    HW220274   1.592   5.508   3.739
 6459SOL     OW20275   6.020   4.455   6.873
 6459SOL    HW120276   6.002   4.452   6.775
 6459SOL    HW220277   5.980   4.374   6.917
 6460SOL     OW20278   3.621   4.884   1.623
 6460SOL    HW120279   3.596   4.909   1.529
 6460SOL    HW220280   3.661   4.792   1.624
 6461SOL     OW20281   3.026   5.669   4.758
 6461SOL    HW120282   3.119   5.695   4.733
 6461SOL    HW220283   2.961   5.724   4.706
 6462SOL     OW20284   2.064   3.794   2.682
 6462SOL    HW120285   1.975   3.820   2.644
 6462SOL    HW220286   2.063   3.697   2.706
 6463SOL     OW20287   1.997   3.220   6.267
 6463SOL    HW120288   1.935   3.298   6.254
 6463SOL    HW220289   2.049   3.233   6.351
 6464SOL     OW20290   1.048   4.992   2.019
 6464SOL    HW120291   1.054   4.893   2.002
 6464SOL    HW220292   0.961   5.026   1.985
 6465SOL     OW20293   6.448   0.575   2.762
 6465SOL    HW120294   6.464   0.561   2.860
 6465SOL    HW220295   6.521   0.532   2.710
 6466SOL     OW20296   6.377   2.890   4.291
 6466SOL    HW120297   6.298   2.944   4.262
 6466SOL    HW220298   6.423   2.853   4.210
 6467SOL     OW20299   3.716   7.000   6.111
 6467SOL    HW120300   3.628   6.959   6.086
 6467SOL    HW220301   3.702   0.045   6.180
 6468SOL     OW20302   6.500   4.736   1.808
 6468SOL    HW120303   6.420   4.675   1.816
 6468SOL    HW220304   6.520   4.775   1.898
 6469SOL     OW20305   5.895   1.897   5.900
 6469SOL    HW120306   5.966   1.831   5.923
 6469SOL    HW220307   5.828   1.855   5.838
 6470SOL     OW20308   6.616   6.382   4.751
 6470SOL    HW120309   6.558   6.430   4.686
 6470SOL    HW220310   6.577   6.388   4.843
 6471SOL     OW20311   6.418   6.630   4.888
 6471SOL    HW120312   6.488   6.661   4.952
 6471SOL    HW220313   6.335   6.607   4.938
 6472SOL     OW20314   1.622   6.673   1.777
 6472SOL    HW120315   1.688   6.745   1.798
 6472SOL    HW220316   1.594   6.680   1.681
 6473SOL     OW20317   2.091   1.359   5.663
 6473SOL    HW120318   2.048   1.281   5.708
 6473SOL    HW220319   2.020   1.422   5.631
 6474SOL     OW20320   1.965   3.320   6.639
 6474SOL    HW120321   2.043   3.261   6.618
 6474SOL    HW220322   1.898   3.314   6.566
 6475SOL     OW20323   3.963   5.207   3.839
 6475SOL    HW120324   3.903   5.267   3.892
 6475SOL    HW220325   3.912   5.127   3.809
 6476SOL     OW20326   4.929   5.863   2.984
 6476SOL    HW120327   4.914   5.941   2.924
 6476SOL    HW220328   4.968   5.895   3.071
 6477SOL     OW20329   6.537   6.379   0.050
 6477SOL    HW120330   6.581   6.366   0.139
 6477SOL    HW220331   6.516   6.290   0.010
 6478SOL     OW20332   3.987   6.227   1.179
 6478SOL    HW120333   3.977   6.137   1.136
 6478SOL    HW220334   4.082   6.257   1.172
 6479SOL     OW20335   3.007   5.712   2.879
 6479SOL    HW120336   3.036   5.793   2.930
 6479SOL    HW220337   2.908   5.713   2.867
 6480SOL     OW20338   2.495   0.545   0.269
 6480SOL    HW120339   2.444   0.601   0.204
 6480SOL    HW220340   2.531   0.604   0.342
 6481SOL     OW20341   4.767   0.567   1.137
 6481SOL    HW120342   4.688   0.616   1.101
 6481SOL    HW220343   4.742   0.471   1.154
 6482SOL     OW20344   0.479   0.153   5.550
 6482SOL    HW120345   0.532   0.231   5.582
 6482SOL    HW220346   0.431   0.111   5.628
 6483SOL     OW20347   1.453   5.001   1.864
 6483SOL    HW120348   1.515   4.937   1.820
 6483SOL    HW220349   1.465   4.996   1.964
 6484SOL     OW20350   4.659   0.189   2.974
 6484SOL    HW120351   4.694   0.224   3.061
 6484SOL    HW220352   4.729   0.199   2.903
 6485SOL     OW20353   0.251   3.070   2.282
 6485SOL    HW120354   0.320   3.039   2.216
 6485SOL    HW220355   0.163   3.028   2.260
 6486SOL     OW20356   1.297   2.939   3.466
 6486SOL    HW120357   1.208   2.984   3.465
 6486SOL    HW220358   1.286   2.843   3.441
 6487SOL     OW20359   6.003   5.692   3.369
 6487SOL    HW120360   6.003   5.712   3.272
 6487SOL    HW220361   6.082   5.634   3.391
 6488SOL     OW20362   3.370   5.210   4.313
 6488SOL    HW120363   3.313   5.192   4.393
 6488SOL    HW220364   3.406   5.303   4.317
 6489SOL     OW20365   2.492   1.335   6.472
 6489SOL    HW120366   2.395   1.334   6.497
 6489SOL    HW220367   2.504   1.382   6.385
 6490SOL     OW20368   4.649   1.466   0.250
 6490SOL    HW120369   4.682   1.529   0.180
 6490SOL    HW220370   4.648   1.512   0.339
 6491SOL     OW20371   5.517   1.123   5.936
 6491SOL    HW120372   5.587   1.193   5.918
 6491SOL    HW220373   5.435   1.167   5.972
 6492SOL     OW20374   6.336   5.541   5.745
 6492SOL    HW120375   6.304   5.633   5.768
 6492SOL    HW220376   6.366   5.495   5.829
 6493SOL     OW20377   7.023   0.066   5.179
 6493SOL    HW120378   6.979   7.014   5.224
 6493SOL    HW220379   0.073   0.033   5.123
 6494SOL     OW20380   0.470   2.385   3.242
 6494SOL    HW120381   0.535   2.316   3.212
 6494SOL    HW220382   0.391   2.340   3.285
 6495SOL     OW20383   5.528   4.675   1.831
 6495SOL    HW120384   5.436   4.698   1.800
 6495SOL    HW220385   5.528   4.663   1.930
 6496SOL     OW20386   0.491   6.255   3.236
 6496SOL    HW120387   0.522   6.338   3.281
 6496SOL    HW220388   0.568   6.194   3.220
 6497SOL     OW20389   0.940   6.658   1.532
 6497SOL    HW120390   1.016   6.700   1.580
 6497SOL    HW220391   0.974   6.603   1.456
 6498SOL     OW20392   1.336   3.399   4.291
 6498SOL    HW120393   1.408   3.366   4.231
 6498SOL    HW220394   1.375   3.426   4.379
 6499SOL     OW20395   6.297   1.499   3.402
 6499SOL    HW120396   6.209   1.546   3.411
 6499SOL    HW220397   6.366   1.564   3.369
 6500SOL     OW20398   5.662   4.856   2.158
 6500SOL    HW120399   5.660   4.859   2.258
 6500SOL    HW220400   5.740   4.908   2.125
 6501SOL     OW20401   6.658   4.568   0.792
 6501SOL    HW120402   6.690   4.493   0.850
 6501SOL    HW220403   6.589   4.534   0.728
 6502SOL     OW20404   0.671   5.679   1.444
 6502SOL    HW120405   0.653   5.678   1.543
 6502SOL    HW220406   0.716   5.765   1.420
 6503SOL     OW20407   4.368   0.569   3.900
 6503SOL    HW120408   4.409   0.535   3.816
 6503SOL    HW220409   4.317   0.653   3.881
 6504SOL     OW20410   2.391   2.512   0.476
 6504SOL    HW120411   2.303   2.545   0.441
 6504SOL    HW220412   2.465   2.551   0.422
 6505SOL     OW20413   5.500   5.464   0.763
 6505SOL    HW120414   5.546   5.538   0.713
 6505SOL    HW220415   5.548   5.447   0.849
 6506SOL     OW20416   2.008   1.153   1.553
 6506SOL    HW120417   2.043   1.110   1.636
 6506SOL    HW220418   1.921   1.198   1.573
 6507SOL     OW20419   3.060   1.076   1.843
 6507SOL    HW120420   2.965   1.105   1.856
 6507SOL    HW220421   3.071   1.041   1.750
 6508SOL     OW20422   1.696   2.826   1.814
 6508SOL    HW120423   1.601   2.799   1.800
 6508SOL    HW220424   1.742   2.756   1.868
 6509SOL     OW20425   1.434   2.867   3.860
 6509SOL    HW120426   1.387   2.927   3.925
 6509SOL    HW220427   1.464   2.920   3.781
 6510SOL     OW20428   6.325   4.467   6.214
 6510SOL    HW120429   6.265   4.540   6.248
 6510SOL    HW220430   6.360   4.491   6.124
 6511SOL     OW20431   6.902   6.822   6.024
 6511SOL    HW120432   6.842   6.877   5.966
 6511SOL    HW220433   6.867   6.729   6.029
 6512SOL     OW20434   5.264   6.366   4.057
 6512SOL    HW120435   5.305   6.275   4.055
 6512SOL    HW220436   5.267   6.403   4.149
 6513SOL     OW20437   1.327   6.534   3.614
 6513SOL    HW120438   1.351   6.623   3.653
 6513SOL    HW220439   1.408   6.492   3.573
 6514SOL     OW20440   3.048   0.417   3.592
 6514SOL    HW120441   2.978   0.404   3.662
 6514SOL    HW220442   3.139   0.405   3.634
 6515SOL     OW20443   1.185   0.864   3.318
 6515SOL    HW120444   1.124   0.924   3.369
 6515SOL    HW220445   1.263   0.917   3.284
 6516SOL     OW20446   1.639   1.240   5.342
 6516SOL    HW120447   1.685   1.324   5.371
 6516SOL    HW220448   1.707   1.176   5.305
 6517SOL     OW20449   2.484   2.143   1.073
 6517SOL    HW120450   2.568   2.162   1.124
 6517SOL    HW220451   2.422   2.222   1.080
 6518SOL     OW20452   6.026   6.395   1.085
 6518SOL    HW120453   6.018   6.491   1.058
 6518SOL    HW220454   5.936   6.352   1.085
 6519SOL     OW20455   1.006   1.729   3.884
 6519SOL    HW120456   0.926   1.777   3.848
 6519SOL    HW220457   0.979   1.638   3.915
 6520SOL     OW20458   5.682   5.426   0.969
 6520SOL    HW120459   5.679   5.329   0.995
 6520SOL    HW220460   5.761   5.469   1.012
 6521SOL     OW20461   1.335   2.255   5.604
 6521SOL    HW120462   1.266   2.220   5.667
 6521SOL    HW220463   1.291   2.290   5.522
 6522SOL     OW20464   2.560   4.818   4.391
 6522SOL    HW120465   2.467   4.829   4.356
 6522SOL    HW220466   2.567   4.730   4.439
 6523SOL     OW20467   2.356   2.392   0.718
 6523SOL    HW120468   2.383   2.430   0.630
 6523SOL    HW220469   2.429   2.333   0.753
 6524SOL     OW20470   4.067   2.492   5.512
 6524SOL    HW120471   4.028   2.584   5.504
 6524SOL    HW220472   4.018   2.441   5.583
 6525SOL     OW20473   0.600   2.429   4.299
 6525SOL    HW120474   0.528   2.497   4.288
 6525SOL    HW220475   0.566   2.339   4.275
 6526SOL     OW20476   1.605   6.087   3.336
 6526SOL    HW120477   1.654   6.062   3.252
 6526SOL    HW220478   1.648   6.042   3.414
 6527SOL     OW20479   1.830   1.069   4.323
 6527SOL    HW120480   1.731   1.079   4.311
 6527SOL    HW220481   1.865   1.148   4.375
 6528SOL     OW20482   0.171   0.477   3.297
 6528SOL    HW120483   0.120   0.416   3.237
 6528SOL    HW220484   0.111   0.511   3.370
 6529SOL     OW20485   6.260   3.147   2.766
 6529SOL    HW120486   6.263   3.247   2.770
 6529SOL    HW220487   6.179   3.114   2.816
 6530SOL     OW20488   0.037   1.542   0.077
 6530SOL    HW120489   0.087   1.515   7.021
 6530SOL    HW220490   6.992   1.474   0.097
 6531SOL     OW20491   5.333   2.216   5.737
 6531SOL    HW120492   5.354   2.120   5.755
 6531SOL    HW220493   5.406   2.274   5.773
 6532SOL     OW20494   1.424   1.547   6.953
 6532SOL    HW120495   1.496   1.509   6.895
 6532SOL    HW220496   1.343   1.488   6.948
 6533SOL     OW20497   5.071   0.190   0.601
 6533SOL    HW120498   5.099   0.226   0.690
 6533SOL    HW220499   4.980   0.225   0.578
 6534SOL     OW20500   3.497   2.304   0.030
 6534SOL    HW120501   3.550   2.239   7.002
 6534SOL    HW220502   3.486   2.389   7.004
 6535SOL     OW20503   2.131   3.439   5.188
 6535SOL    HW120504   2.182   3.499   5.250
 6535SOL    HW220505   2.111   3.353   5.235
 6536SOL     OW20506   0.211   1.448   0.460
 6536SOL    HW120507   0.157   1.395   0.395
 6536SOL    HW220508   0.154   1.471   0.540
 6537SOL     OW20509   0.421   0.631   6.664
 6537SOL    HW120510   0.378   0.567   6.600
 6537SOL    HW220511   0.375   0.624   6.753
 6538SOL     OW20512   3.031   2.685   5.660
 6538SOL    HW120513   3.071   2.613   5.603
 6538SOL    HW220514   2.965   2.645   5.723
 6539SOL     OW20515   3.173   1.299   0.005
 6539SOL    HW120516   3.152   1.331   0.098
 6539SOL    HW220517   3.255   1.241   0.009
 6540SOL     OW20518   3.961   2.203   2.923
 6540SOL    HW120519   4.047   2.219   2.972
 6540SOL    HW220520   3.885   2.202   2.988
 6541SOL     OW20521   2.861   2.310   5.176
 6541SOL    HW120522   2.806   2.366   5.114
 6541SOL    HW220523   2.957   2.314   5.149
 6542SOL     OW20524   4.486   4.429   2.783
 6542SOL    HW120525   4.391   4.447   2.808
 6542SOL    HW220526   4.501   4.455   2.688
 6543SOL     OW20527   1.308   6.128   5.870
 6543SOL    HW120528   1.326   6.175   5.784
 6543SOL    HW220529   1.390   6.080   5.900
 6544SOL     OW20530   0.313   5.810   2.929
 6544SOL    HW120531   0.300   5.722   2.883
 6544SOL    HW220532   0.289   5.885   2.867
 6545SOL     OW20533   6.098   2.740   6.129
 6545SOL    HW120534   6.173   2.805   6.117
 6545SOL    HW220535   6.114   2.660   6.070
 6546SOL     OW20536   3.330   4.881   6.477
 6546SOL    HW120537   3.317   4.964   6.531
 6546SOL    HW220538   3.369   4.906   6.388
 6547SOL     OW20539   4.343   1.246   6.514
 6547SOL    HW120540   4.405   1.211   6.443
 6547SOL    HW220541   4.249   1.222   6.492
 6548SOL     OW20542   4.840   4.260   6.091
 6548SOL    HW120543   4.883   4.350   6.098
 6548SOL    HW220544   4.897   4.193   6.137
 6549SOL     OW20545   2.629   2.274   2.464
 6549SOL    HW120546   2.640   2.228   2.552
 6549SOL    HW220547   2.719   2.298   2.427
 6550SOL     OW20548   0.788   6.162   2.332
 6550SOL    HW120549   0.742   6.249   2.314
 6550SOL    HW220550   0.739   6.088   2.287
 6551SOL     OW20551   3.594   5.236   2.183
 6551SOL    HW120552   3.501   5.239   2.147
 6551SOL    HW220553   3.632   5.328   2.185
 6552SOL     OW20554   4.572   4.935   5.577
 6552SOL    HW120555   4.623   4.869   5.632
 6552SOL    HW220556   4.625   5.020   5.568
 6553SOL     OW20557   0.100   3.412   3.436
 6553SOL    HW120558   0.127   3.370   3.522
 6553SOL    HW220559   0.182   3.442   3.387
 6554SOL     OW20560   6.856   3.630   4.703
 6554SOL    HW120561   6.953   3.642   4.722
 6554SOL    HW220562   6.815   3.718   4.682
 6555SOL     OW20563   0.896   1.825   1.134
 6555SOL    HW120564   0.870   1.859   1.224
 6555SOL    HW220565   0.855   1.734   1.120
 6556SOL     OW20566   3.807   0.020   3.358
 6556SOL    HW120567   3.864   0.097   3.386
 6556SOL    HW220568   3.790   0.025   3.259
 6557SOL     OW20569   5.141   5.861   0.960
 6557SOL    HW120570   5.070   5.792   0.975
 6557SOL    HW220571   5.140   5.927   1.036
 6558SOL     OW20572   6.523   6.795   5.690
 6558SOL    HW120573   6.593   6.774   5.622
 6558SOL    HW220574   6.509   6.716   5.749
 6559SOL     OW20575   2.891   3.784   1.229
 6559SOL    HW120576   2.985   3.788   1.262
 6559SOL    HW220577   2.892   3.767   1.130
 6560SOL     OW20578   4.296   1.718   1.147
 6560SOL    HW120579   4.324   1.705   1.242
 6560SOL    HW220580   4.199   1.740   1.143
 6561SOL     OW20581   3.616   4.154   4.549
 6561SOL    HW120582   3.676   4.174   4.472
 6561SOL    HW220583   3.670   4.138   4.632
 6562SOL     OW20584   0.603   4.273   5.190
 6562SOL    HW120585   0.580   4.220   5.108
 6562SOL    HW220586   0.549   4.357   5.191
 6563SOL     OW20587   0.858   5.762   2.208
 6563SOL    HW120588   0.819   5.853   2.192
 6563SOL    HW220589   0.949   5.758   2.168
 6564SOL     OW20590   1.697   5.114   2.996
 6564SOL    HW120591   1.625   5.129   3.064
 6564SOL    HW220592   1.656   5.089   2.909
 6565SOL     OW20593   6.778   3.339   4.878
 6565SOL    HW120594   6.695   3.284   4.880
 6565SOL    HW220595   6.755   3.434   4.899
 6566SOL     OW20596   3.961   1.249   0.589
 6566SOL    HW120597   3.967   1.186   0.667
 6566SOL    HW220598   4.050   1.251   0.542
 6567SOL     OW20599   6.327   2.545   0.630
 6567SOL    HW120600   6.385   2.547   0.549
 6567SOL    HW220601   6.336   2.630   0.681
 6568SOL     OW20602   5.311   3.360   1.435
 6568SOL    HW120603   5.369   3.372   1.516
 6568SOL    HW220604   5.366   3.320   1.361
 6569SOL     OW20605   1.421   3.901   5.430
 6569SOL    HW120606   1.336   3.927   5.476
 6569SOL    HW220607   1.482   3.979   5.426
 6570SOL     OW20608   0.088   4.149   1.966
 6570SOL    HW120609   0.037   4.066   1.944
 6570SOL    HW220610   0.183   4.138   1.935
 6571SOL     OW20611   2.113   5.233   3.742
 6571SOL    HW120612   2.155   5.267   3.658
 6571SOL    HW220613   2.031   5.180   3.720
 6572SOL     OW20614   1.984   3.745   5.648
 6572SOL    HW120615   1.955   3.759   5.743
 6572SOL    HW220616   2.067   3.689   5.646
 6573SOL     OW20617   1.620   1.959   1.699
 6573SOL    HW120618   1.661   2.049   1.711
 6573SOL    HW220619   1.667   1.893   1.757
 6574SOL     OW20620   2.233   4.753   4.626
 6574SOL    HW120621   2.234   4.724   4.722
 6574SOL    HW220622   2.255   4.675   4.568
 6575SOL     OW20623   1.630   1.868   2.439
 6575SOL    HW120624   1.576   1.952   2.435
 6575SOL    HW220625   1.617   1.823   2.527
 6576SOL     OW20626   0.260   5.922   3.991
 6576SOL    HW120627   0.228   5.859   3.920
 6576SOL    HW220628   0.341   5.971   3.959
 6577SOL     OW20629   0.232   3.489   5.744
 6577SOL    HW120630   0.275   3.400   5.732
 6577SOL    HW220631   0.262   3.551   5.672
 6578SOL     OW20632   6.259   5.828   3.935
 6578SOL    HW120633   6.258   5.871   3.844
 6578SOL    HW220634   6.208   5.742   3.932
 6579SOL     OW20635   0.600   3.741   3.936
 6579SOL    HW120636   0.510   3.749   3.979
 6579SOL    HW220637   0.670   3.732   4.006
 6580SOL     OW20638   5.654   2.462   0.820
 6580SOL    HW120639   5.714   2.423   0.750
 6580SOL    HW220640   5.559   2.437   0.800
 6581SOL     OW20641   2.856   2.356   5.456
 6581SOL    HW120642   2.842   2.353   5.357
 6581SOL    HW220643   2.778   2.401   5.499
 6582SOL     OW20644   6.715   0.861   2.688
 6582SOL    HW120645   6.632   0.890   2.736
 6582SOL    HW220646   6.738   0.928   2.618
 6583SOL     OW20647   6.813   0.924   6.356
 6583SOL    HW120648   6.848   0.939   6.449
 6583SOL    HW220649   6.839   0.833   6.325
 6584SOL     OW20650   5.772   2.370   0.366
 6584SOL    HW120651   5.854   2.341   0.316
 6584SOL    HW220652   5.786   2.462   0.402
 6585SOL     OW20653   2.937   0.927   2.661
 6585SOL    HW120654   2.966   0.831   2.655
 6585SOL    HW220655   3.013   0.982   2.694
 6586SOL     OW20656   5.901   2.069   6.867
 6586SOL    HW120657   6.001   2.076   6.861
 6586SOL    HW220658   5.863   2.157   6.896
 6587SOL     OW20659   1.078   5.679   1.935
 6587SOL    HW120660   1.169   5.687   1.893
 6587SOL    HW220661   1.070   5.592   1.982
 6588SOL     OW20662   3.287   2.916   0.451
 6588SOL    HW120663   3.198   2.891   0.492
 6588SOL    HW220664   3.359   2.865   0.497
 6589SOL     OW20665   5.197   1.369   5.783
 6589SOL    HW120666   5.188   1.431   5.860
 6589SOL    HW220667   5.260   1.408   5.715
 6590SOL     OW20668   6.109   1.958   5.498
 6590SOL    HW120669   6.009   1.951   5.503
 6590SOL    HW220670   6.149   1.866   5.509
 6591SOL     OW20671   4.969   0.521   2.306
 6591SOL    HW120672   4.929   0.605   2.271
 6591SOL    HW220673   5.067   0.520   2.287
 6592SOL     OW20674   5.848   4.661   5.290
 6592SOL    HW120675   5.850   4.561   5.288
 6592SOL    HW220676   5.776   4.694   5.228
 6593SOL     OW20677   5.514   1.151   2.971
 6593SOL    HW120678   5.611   1.174   2.972
 6593SOL    HW220679   5.483   1.134   3.065
 6594SOL     OW20680   5.441   0.928   6.974
 6594SOL    HW120681   5.444   1.004   6.910
 6594SOL    HW220682   5.364   0.940   0.012
 6595SOL     OW20683   3.772   2.731   6.343
 6595SOL    HW120684   3.868   2.731   6.370
 6595SOL    HW220685   3.716   2.701   6.420
 6596SOL     OW20686   2.310   5.761   4.769
 6596SOL    HW120687   2.357   5.701   4.705
 6596SOL    HW220688   2.222   5.790   4.730
 6597SOL     OW20689   0.406   3.910   6.701
 6597SOL    HW120690   0.380   3.911   6.798
 6597SOL    HW220691   0.375   3.994   6.657
 6598SOL     OW20692   3.130   6.139   4.127
 6598SOL    HW120693   3.213   6.090   4.152
 6598SOL    HW220694   3.136   6.234   4.158
 6599SOL     OW20695   4.127   3.735   6.473
 6599SOL    HW120696   4.191   3.798   6.516
 6599SOL    HW220697   4.160   3.641   6.485
 6600SOL     OW20698   4.271   4.737   5.085
 6600SOL    HW120699   4.316   4.649   5.069
 6600SOL    HW220700   4.180   4.721   5.125
 6601SOL     OW20701   1.295   1.383   2.037
 6601SOL    HW120702   1.317   1.481   2.038
 6601SOL    HW220703   1.318   1.343   2.125
 6602SOL     OW20704   5.923   1.639   1.074
 6602SOL    HW120705   5.834   1.678   1.094
 6602SOL    HW220706   5.913   1.543   1.047
 6603SOL     OW20707   2.473   1.962   1.402
 6603SOL    HW120708   2.550   2.002   1.352
 6603SOL    HW220709   2.504   1.926   1.489
 6604SOL     OW20710   4.000   5.525   4.952
 6604SOL    HW120711   4.003   5.492   5.046
 6604SOL    HW220712   4.005   5.625   4.952
 6605SOL     OW20713   5.477   6.213   0.799
 6605SOL    HW120714   5.555   6.177   0.747
 6605SOL    HW220715   5.395   6.161   0.777
 6606SOL     OW20716   0.719   2.275   3.140
 6606SOL    HW120717   0.789   2.309   3.202
 6606SOL    HW220718   0.715   2.333   3.058
 6607SOL     OW20719   1.518   3.082   2.555
 6607SOL    HW120720   1.451   3.009   2.558
 6607SOL    HW220721   1.557   3.096   2.646
 6608SOL     OW20722   5.265   4.255   4.848
 6608SOL    HW120723   5.256   4.275   4.750
 6608SOL    HW220724   5.284   4.157   4.861
 6609SOL     OW20725   5.174   2.180   6.628
 6609SOL    HW120726   5.083   2.211   6.655
 6609SOL    HW220727   5.194   2.093   6.672
 6610SOL     OW20728   3.678   1.607   0.859
 6610SOL    HW120729   3.740   1.532   0.885
 6610SOL    HW220730   3.598   1.606   0.919
 6611SOL     OW20731   5.251   3.893   2.652
 6611SOL    HW120732   5.175   3.855   2.705
 6611SOL    HW220733   5.248   3.855   2.559
 6612SOL     OW20734   0.658   5.892   6.279
 6612SOL    HW120735   0.626   5.948   6.355
 6612SOL    HW220736   0.747   5.926   6.248
 6613SOL     OW20737   6.012   4.846   0.684
 6613SOL    HW120738   6.001   4.942   0.659
 6613SOL    HW220739   5.923   4.807   0.708
 6614SOL     OW20740   5.898   4.397   6.024
 6614SOL    HW120741   5.987   4.374   6.064
 6614SOL    HW220742   5.910   4.423   5.929
 6615SOL     OW20743   0.326   3.593   4.938
 6615SOL    HW120744   0.369   3.628   5.022
 6615SOL    HW220745   0.369   3.507   4.912
 6616SOL     OW20746   4.872   1.007   3.820
 6616SOL    HW120747   4.847   1.004   3.917
 6616SOL    HW220748   4.949   1.069   3.807
 6617SOL     OW20749   4.353   0.148   4.573
 6617SOL    HW120750   4.364   0.244   4.545
 6617SOL    HW220751   4.370   0.089   4.494
 6618SOL     OW20752   0.349   4.314   1.061
 6618SOL    HW120753   0.386   4.407   1.070
 6618SOL    HW220754   0.388   4.256   1.132
 6619SOL     OW20755   6.873   5.994   2.125
 6619SOL    HW120756   6.828   6.055   2.060
 6619SOL    HW220757   6.868   6.033   2.217
 6620SOL     OW20758   4.740   3.257   5.572
 6620SOL    HW120759   4.723   3.330   5.638
 6620SOL    HW220760   4.687   3.274   5.489
 6621SOL     OW20761   3.051   2.896   0.590
 6621SOL    HW120762   2.984   2.822   0.592
 6621SOL    HW220763   3.005   2.980   0.560
 6622SOL     OW20764   5.707   5.244   0.100
 6622SOL    HW120765   5.792   5.200   0.071
 6622SOL    HW220766   5.679   5.208   0.189
 6623SOL     OW20767   3.219   3.923   2.814
 6623SOL    HW120768   3.172   3.938   2.727
 6623SOL    HW220769   3.224   3.825   2.833
 6624SOL     OW20770   4.803   5.067   4.100
 6624SOL    HW120771   4.896   5.039   4.121
 6624SOL    HW220772   4.803   5.119   4.014
 6625SOL     OW20773   5.367   6.662   0.182
 6625SOL    HW120774   5.401   6.617   0.264
 6625SOL    HW220775   5.337   6.754   0.204
 6626SOL     OW20776   2.605   5.172   3.858
 6626SOL    HW120777   2.582   5.119   3.940
 6626SOL    HW220778   2.630   5.111   3.784
 6627SOL     OW20779   0.574   1.088   1.724
 6627SOL    HW120780   0.493   1.112   1.777
 6627SOL    HW220781   0.584   1.151   1.647
 6628SOL     OW20782   4.062   6.208   3.569
 6628SOL    HW120783   4.143   6.254   3.606
 6628SOL    HW220784   3.980   6.242   3.616
 6629SOL     OW20785   2.794   4.203   0.366
 6629SOL    HW120786   2.759   4.177   0.276
 6629SOL    HW220787   2.729   4.264   0.412
 6630SOL     OW20788   3.902   0.982   6.196
 6630SOL    HW120789   3.856   1.066   6.167
 6630SOL    HW220790   3.910   0.980   6.295
 6631SOL     OW20791   3.194   0.007   1.449
 6631SOL    HW120792   3.166   0.089   1.498
 6631SOL    HW220793   3.244   6.971   1.510
 6632SOL     OW20794   5.989   3.288   2.022
 6632SOL    HW120795   5.919   3.288   2.093
 6632SOL    HW220796   6.050   3.367   2.034
 6633SOL     OW20797   1.107   6.150   2.701
 6633SOL    HW120798   1.052   6.111   2.627
 6633SOL    HW220799   1.047   6.191   2.769
 6634SOL     OW20800   6.572   1.841   5.871
 6634SOL    HW120801   6.583   1.751   5.829
 6634SOL    HW220802   6.552   1.831   5.968
 6635SOL     OW20803   4.496   5.090   3.642
 6635SOL    HW120804   4.492   5.185   3.609
 6635SOL    HW220805   4.407   5.047   3.631
 6636SOL     OW20806   1.686   3.318   2.738
 6636SOL    HW120807   1.728   3.352   2.653
 6636SOL    HW220808   1.606   3.374   2.760
 6637SOL     OW20809   6.653   2.790   0.951
 6637SOL    HW120810   6.596   2.774   0.870
 6637SOL    HW220811   6.621   2.872   0.999
 6638SOL     OW20812   1.655   0.745   6.670
 6638SOL    HW120813   1.684   0.716   6.579
 6638SOL    HW220814   1.556   0.758   6.671
 6639SOL     OW20815   4.089   5.281   6.104
 6639SOL    HW120816   4.117   5.223   6.181
 6639SOL    HW220817   4.113   5.236   6.018
 6640SOL     OW20818   6.074   4.090   3.106
 6640SOL    HW120819   5.999   4.066   3.167
 6640SOL    HW220820   6.146   4.137   3.157
 6641SOL     OW20821   2.378   5.615   6.648
 6641SOL    HW120822   2.448   5.643   6.582
 6641SOL    HW220823   2.416   5.549   6.712
 6642SOL     OW20824   6.716   6.410   5.768
 6642SOL    HW120825   6.763   6.444   5.849
 6642SOL    HW220826   6.783   6.374   5.703
 6643SOL     OW20827   4.266   5.726   0.498
 6643SOL    HW120828   4.289   5.818   0.467
 6643SOL    HW220829   4.166   5.717   0.504
 6644SOL     OW20830   0.848   3.665   1.863
 6644SOL    HW120831   0.918   3.612   1.910
 6644SOL    HW220832   0.797   3.605   1.800
 6645SOL     OW20833   7.015   4.469   5.447
 6645SOL    HW120834   6.961   4.401   5.398
 6645SOL    HW220835   6.988   4.471   5.543
 6646SOL     OW20836   1.863   5.101   3.677
 6646SOL    HW120837   1.855   5.022   3.738
 6646SOL    HW220838   1.772   5.124   3.641
 6647SOL     OW20839   4.674   1.508   1.682
 6647SOL    HW120840   4.643   1.414   1.670
 6647SOL    HW220841   4.716   1.519   1.772
 6648SOL     OW20842   3.646   5.871   2.258
 6648SOL    HW120843   3.724   5.931   2.277
 6648SOL    HW220844   3.678   5.777   2.251
 6649SOL     OW20845   4.093   1.636   5.592
 6649SOL    HW120846   4.156   1.652   5.517
 6649SOL    HW220847   4.009   1.596   5.557
 6650SOL     OW20848   3.647   1.405   4.119
 6650SOL    HW120849   3.745   1.390   4.111
 6650SOL    HW220850   3.627   1.502   4.112
 6651SOL     OW20851   0.551   1.247   0.865
 6651SOL    HW120852   0.616   1.221   0.937
 6651SOL    HW220853   0.564   1.187   0.786
 6652SOL     OW20854   1.062   5.006   3.373
 6652SOL    HW120855   1.049   4.919   3.325
 6652SOL    HW220856   1.154   5.040   3.354
 6653SOL     OW20857   3.901   3.967   3.404
 6653SOL    HW120858   3.883   3.884   3.456
 6653SOL    HW220859   3.977   4.017   3.446
 6654SOL     OW20860   1.871   3.568   1.603
 6654SOL    HW120861   1.882   3.666   1.618
 6654SOL    HW220862   1.791   3.536   1.653
 6655SOL     OW20863   1.287   1.104   6.913
 6655SOL    HW120864   1.272   1.019   6.965
 6655SOL    HW220865   1.375   1.099   6.867
 6656SOL     OW20866   6.379   2.606   1.803
 6656SOL    HW120867   6.421   2.605   1.713
 6656SOL    HW220868   6.280   2.620   1.793
 6657SOL     OW20869   3.420   4.953   5.555
 6657SOL    HW120870   3.517   4.932   5.542
 6657SOL    HW220871   3.373   4.871   5.588
 6658SOL     OW20872   6.695   0.115   5.662
 6658SOL    HW120873   6.673   0.212   5.661
 6658SOL    HW220874   6.628   0.066   5.719
 6659SOL     OW20875   1.935   3.136   6.887
 6659SOL    HW120876   2.027   3.109   6.918
 6659SOL    HW220877   1.942   3.181   6.798
 6660SOL     OW20878   0.198   6.672   2.840
 6660SOL    HW120879   0.186   6.597   2.905
 6660SOL    HW220880   0.110   6.716   2.822
 6661SOL     OW20881   6.973   0.280   4.166
 6661SOL    HW120882   0.032   0.226   4.165
 6661SOL    HW220883   6.942   0.295   4.072
 6662SOL     OW20884   0.931   3.833   6.350
 6662SOL    HW120885   0.941   3.865   6.256
 6662SOL    HW220886   0.836   3.845   6.379
 6663SOL     OW20887   0.359   5.165   1.803
 6663SOL    HW120888   0.406   5.248   1.773
 6663SOL    HW220889   0.328   5.176   1.897
 6664SOL     OW20890   6.675   2.199   2.135
 6664SOL    HW120891   6.608   2.264   2.099
 6664SOL    HW220892   6.759   2.247   2.158
 6665SOL     OW20893   2.080   6.309   3.401
 6665SOL    HW120894   2.134   6.374   3.454
 6665SOL    HW220895   1.988   6.346   3.385
 6666SOL     OW20896   5.358   1.111   0.377
 6666SOL    HW120897   5.371   1.043   0.450
 6666SOL    HW220898   5.264   1.146   0.382
 6667SOL     OW20899   5.600   5.006   5.130
 6667SOL    HW120900   5.650   5.043   5.208
 6667SOL    HW220901   5.569   5.081   5.072
 6668SOL     OW20902   6.195   5.871   1.097
 6668SOL    HW120903   6.179   5.969   1.085
 6668SOL    HW220904   6.253   5.837   1.023
 6669SOL     OW20905   0.971   5.082   3.047
 6669SOL    HW120906   0.975   5.153   3.117
 6669SOL    HW220907   1.018   5.000   3.081
 6670SOL     OW20908   4.984   4.744   7.022
 6670SOL    HW120909   4.974   4.665   6.961
 6670SOL    HW220910   5.049   4.809   6.982
 6671SOL     OW20911   0.364   2.474   5.209
 6671SOL    HW120912   0.276   2.491   5.164
 6671SOL    HW220913   0.359   2.388   5.260
 6672SOL     OW20914   6.824   0.714   5.007
 6672SOL    HW120915   6.731   0.732   4.975
 6672SOL    HW220916   6.840   0.765   5.092
 6673SOL     OW20917   4.017   6.007   1.990
 6673SOL    HW120918   4.109   6.046   1.988
 6673SOL    HW220919   4.017   5.919   1.942
 6674SOL     OW20920   0.509   6.173   5.081
 6674SOL    HW120921   0.481   6.182   4.986
 6674SOL    HW220922   0.587   6.233   5.099
 6675SOL     OW20923   6.608   6.303   6.374
 6675SOL    HW120924   6.602   6.203   6.380
 6675SOL    HW220925   6.523   6.344   6.406
 6676SOL     OW20926   0.406   1.451   0.759
 6676SOL    HW120927   0.330   1.413   0.707
 6676SOL    HW220928   0.462   1.377   0.796
 6677SOL     OW20929   0.664   4.913   0.658
 6677SOL    HW120930   0.649   5.009   0.636
 6677SOL    HW220931   0.582   4.860   0.633
 6678SOL     OW20932   0.621   3.286   3.923
 6678SOL    HW120933   0.648   3.367   3.870
 6678SOL    HW220934   0.692   3.265   3.990
 6679SOL     OW20935   2.502   1.306   4.826
 6679SOL    HW120936   2.481   1.290   4.729
 6679SOL    HW220937   2.471   1.228   4.880
 6680SOL     OW20938   2.837   0.294   6.209
 6680SOL    HW120939   2.794   0.283   6.120
 6680SOL    HW220940   2.933   0.268   6.203
 6681SOL     OW20941   5.475   5.691   6.068
 6681SOL    HW120942   5.433   5.738   6.145
 6681SOL    HW220943   5.558   5.740   6.040
 6682SOL     OW20944   6.315   5.203   2.289
 6682SOL    HW120945   6.302   5.293   2.330
 6682SOL    HW220946   6.311   5.133   2.359
 6683SOL     OW20947   5.054   3.059   3.989
 6683SOL    HW120948   4.991   3.120   3.940
 6683SOL    HW220949   5.135   3.043   3.932
 6684SOL     OW20950   1.754   0.857   2.063
 6684SOL    HW120951   1.838   0.862   2.009
 6684SOL    HW220952   1.675   0.865   2.003
 6685SOL     OW20953   5.629   2.843   6.945
 6685SOL    HW120954   5.556   2.781   6.915
 6685SOL    HW220955   5.656   2.902   6.868
 6686SOL     OW20956   5.111   4.588   4.056
 6686SOL    HW120957   5.051   4.667   4.064
 6686SOL    HW220958   5.177   4.588   4.131
 6687SOL     OW20959   0.665   0.378   0.255
 6687SOL    HW120960   0.681   0.286   0.291
 6687SOL    HW220961   0.597   0.374   0.183
 6688SOL     OW20962   0.780   4.979   2.863
 6688SOL    HW120963   0.853   5.010   2.924
 6688SOL    HW220964   0.799   4.885   2.834
 6689SOL     OW20965   5.285   4.211   0.304
 6689SOL    HW120966   5.379   4.217   0.270
 6689SOL    HW220967   5.254   4.301   0.334
 6690SOL     OW20968   0.515   1.179   0.606
 6690SOL    HW120969   0.567   1.115   0.551
 6690SOL    HW220970   0.515   1.269   0.563
 6691SOL     OW20971   1.371   5.467   1.129
 6691SOL    HW120972   1.289   5.522   1.111
 6691SOL    HW220973   1.373   5.443   1.226
 6692SOL     OW20974   4.606   3.510   6.509
 6692SOL    HW120975   4.636   3.433   6.453
 6692SOL    HW220976   4.602   3.482   6.605
 6693SOL     OW20977   4.223   3.264   6.221
 6693SOL    HW120978   4.145   3.285   6.280
 6693SOL    HW220979   4.292   3.335   6.232
 6694SOL     OW20980   2.945   5.944   6.944
 6694SOL    HW120981   3.007   6.021   6.962
 6694SOL    HW220982   2.988   5.883   6.877
 6695SOL     OW20983   1.472   1.381   0.179
 6695SOL    HW120984   1.560   1.352   0.141
 6695SOL    HW220985   1.434   1.454   0.122
 6696SOL     OW20986   1.480   2.121   1.333
 6696SOL    HW120987   1.409   2.074   1.280
 6696SOL    HW220988   1.569   2.080   1.314
 6697SOL     OW20989   5.310   3.413   4.562
 6697SOL    HW120990   5.309   3.326   4.612
 6697SOL    HW220991   5.268   3.484   4.618
 6698SOL     OW20992   2.914   4.290   6.452
 6698SOL    HW120993   2.917   4.336   6.541
 6698SOL    HW220994   3.001   4.242   6.436
 6699SOL     OW20995   1.968   3.492   6.898
 6699SOL    HW120996   1.942   3.466   6.805
 6699SOL    HW220997   2.059   3.532   6.898
 6700SOL     OW20998   0.277   6.473   6.665
 6700SOL    HW120999   0.360   6.429   6.698
 6700SOL    HW221000   0.197   6.431   6.708
 6701SOL     OW21001   1.490   2.628   0.361
 6701SOL    HW121002   1.484   2.653   0.264
 6701SOL    HW221003   1.519   2.708   0.414
 6702SOL     OW21004   2.649   3.401   0.999
 6702SOL    HW121005   2.728   3.357   1.042
 6702SOL    HW221006   2.615   3.342   0.925
 6703SOL     OW21007   0.051   2.313   0.295
 6703SOL    HW121008   0.048   2.272   0.386
 6703SOL    HW221009   0.081   2.408   0.301
 6704SOL     OW21010   5.223   3.485   2.904
 6704SOL    HW121011   5.149   3.548   2.926
 6704SOL    HW221012   5.187   3.391   2.904
 6705SOL     OW21013   5.303   1.956   1.369
 6705SOL    HW121014   5.247   2.012   1.430
 6705SOL    HW221015   5.251   1.875   1.342
 6706SOL     OW21016   1.734   6.445   0.011
 6706SOL    HW121017   1.716   6.348   7.022
 6706SOL    HW221018   1.804   6.455   0.082
 6707SOL     OW21019   1.624   5.364   3.165
 6707SOL    HW121020   1.659   5.282   3.211
 6707SOL    HW221021   1.538   5.342   3.120
 6708SOL     OW21022   2.283   6.088   1.091
 6708SOL    HW121023   2.217   6.089   1.166
 6708SOL    HW221024   2.374   6.112   1.125
 6709SOL     OW21025   5.228   2.222   3.911
 6709SOL    HW121026   5.266   2.130   3.921
 6709SOL    HW221027   5.297   2.282   3.872
 6710SOL     OW21028   2.373   2.752   0.630
 6710SOL    HW121029   2.351   2.814   0.555
 6710SOL    HW221030   2.379   2.658   0.595
 6711SOL     OW21031   5.635   3.706   6.723
 6711SOL    HW121032   5.649   3.683   6.626
 6711SOL    HW221033   5.563   3.775   6.730
 6712SOL     OW21034   3.097   6.230   1.323
 6712SOL    HW121035   3.184   6.187   1.345
 6712SOL    HW221036   3.110   6.299   1.252
 6713SOL     OW21037   1.203   2.283   2.963
 6713SOL    HW121038   1.114   2.240   2.947
 6713SOL    HW221039   1.204   2.323   3.054
 6714SOL     OW21040   6.419   0.565   4.958
 6714SOL    HW121041   6.320   0.556   4.948
 6714SOL    HW221042   6.444   0.554   5.054
 6715SOL     OW21043   5.375   2.622   0.522
 6715SOL    HW121044   5.424   2.556   0.579
 6715SOL    HW221045   5.298   2.576   0.476
 6716SOL     OW21046   3.509   6.294   0.949
 6716SOL    HW121047   3.520   6.264   1.044
 6716SOL    HW221048   3.492   6.214   0.891
 6717SOL     OW21049   3.983   0.576   6.993
 6717SOL    HW121050   4.020   0.494   0.011
 6717SOL    HW221051   4.016   0.657   0.016
 6718SOL     OW21052   3.992   0.252   6.573
 6718SOL    HW121053   3.914   0.314   6.579
 6718SOL    HW221054   4.067   0.298   6.525
 6719SOL     OW21055   0.699   1.856   5.061
 6719SOL    HW121056   0.759   1.856   4.981
 6719SOL    HW221057   0.741   1.909   5.135
 6720SOL     OW21058   1.137   4.583   1.200
 6720SOL    HW121059   1.160   4.680   1.196
 6720SOL    HW221060   1.092   4.563   1.287
 6721SOL     OW21061   6.179   6.427   3.097
 6721SOL    HW121062   6.114   6.420   3.021
 6721SOL    HW221063   6.237   6.346   3.099
 6722SOL     OW21064   3.906   4.351   0.100
 6722SOL    HW121065   3.877   4.443   0.074
 6722SOL    HW221066   3.983   4.323   0.043
 6723SOL     OW21067   3.724   1.589   2.821
 6723SOL    HW121068   3.680   1.645   2.891
 6723SOL    HW221069   3.719   1.493   2.847
 6724SOL     OW21070   3.251   4.442   5.874
 6724SOL    HW121071   3.152   4.441   5.888
 6724SOL    HW221072   3.295   4.492   5.948
 6725SOL     OW21073   1.067   5.920   1.519
 6725SOL    HW121074   1.015   5.931   1.435
 6725SOL    HW221075   1.163   5.940   1.503
 6726SOL     OW21076   2.468   2.535   1.953
 6726SOL    HW121077   2.508   2.490   2.033
 6726SOL    HW221078   2.535   2.599   1.914
 6727SOL     OW21079   2.794   3.869   0.796
 6727SOL    HW121080   2.828   3.936   0.730
 6727SOL    HW221081   2.730   3.913   0.859
 6728SOL     OW21082   4.322   1.315   3.997
 6728SOL    HW121083   4.320   1.280   4.091
 6728SOL    HW221084   4.289   1.409   3.996
 6729SOL     OW21085   4.374   5.910   3.911
 6729SOL    HW121086   4.470   5.884   3.912
 6729SOL    HW221087   4.318   5.832   3.939
 6730SOL     OW21088   1.069   6.770   2.624
 6730SOL    HW121089   1.149   6.778   2.683
 6730SOL    HW221090   0.986   6.779   2.679
 6731SOL     OW21091   1.719   3.532   1.825
 6731SOL    HW121092   1.624   3.555   1.846
 6731SOL    HW221093   1.778   3.609   1.849
 6732SOL     OW21094   3.446   6.065   0.795
 6732SOL    HW121095   3.451   6.022   0.885
 6732SOL    HW221096   3.483   6.001   0.726
 6733SOL     OW21097   6.559   6.029   4.333
 6733SOL    HW121098   6.567   6.100   4.263
 6733SOL    HW221099   6.511   5.950   4.295
 6734SOL     OW21100   2.562   3.684   6.760
 6734SOL    HW121101   2.551   3.670   6.859
 6734SOL    HW221102   2.518   3.608   6.711
 6735SOL     OW21103   0.577   6.537   6.002
 6735SOL    HW121104   0.656   6.596   6.017
 6735SOL    HW221105   0.604   6.459   5.945
 6736SOL     OW21106   2.018   4.481   1.992
 6736SOL    HW121107   1.951   4.431   1.937
 6736SOL    HW221108   1.975   4.510   2.078
 6737SOL     OW21109   1.686   6.882   1.222
 6737SOL    HW121110   1.721   6.799   1.266
 6737SOL    HW221111   1.615   6.923   1.280
 6738SOL     OW21112   5.330   1.705   1.110
 6738SOL    HW121113   5.309   1.744   1.021
 6738SOL    HW221114   5.258   1.729   1.175
 6739SOL     OW21115   3.475   6.423   5.505
 6739SOL    HW121116   3.529   6.375   5.574
 6739SOL    HW221117   3.432   6.356   5.444
 6740SOL     OW21118   5.732   2.510   6.028
 6740SOL    HW121119   5.634   2.529   6.035
 6740SOL    HW221120   5.751   2.420   6.068
 6741SOL     OW21121   0.742   0.546   5.703
 6741SOL    HW121122   0.798   0.605   5.645
 6741SOL    HW221123   0.751   0.575   5.799
 6742SOL     OW21124   6.367   5.875   4.680
 6742SOL    HW121125   6.302   5.850   4.751
 6742SOL    HW221126   6.328   5.853   4.590
 6743SOL     OW21127   5.706   2.184   1.357
 6743SOL    HW121128   5.753   2.108   1.311
 6743SOL    HW221129   5.664   2.243   1.288
 6744SOL     OW21130   4.512   0.987   4.066
 6744SOL    HW121131   4.494   1.015   3.972
 6744SOL    HW221132   4.599   0.937   4.070
 6745SOL     OW21133   0.924   3.771   2.983
 6745SOL    HW121134   0.910   3.695   3.047
 6745SOL    HW221135   0.835   3.808   2.957
 6746SOL     OW21136   6.292   0.736   0.387
 6746SOL    HW121137   6.208   0.778   0.351
 6746SOL    HW221138   6.298   0.752   0.485
 6747SOL     OW21139   5.202   5.205   6.556
 6747SOL    HW121140   5.149   5.190   6.639
 6747SOL    HW221141   5.160   5.155   6.480
 6748SOL     OW21142   6.672   6.294   2.450
 6748SOL    HW121143   6.731   6.330   2.522
 6748SOL    HW221144   6.715   6.309   2.361
 6749SOL     OW21145   2.811   5.253   1.088
 6749SOL    HW121146   2.898   5.223   1.049
 6749SOL    HW221147   2.794   5.348   1.061
 6750SOL     OW21148   2.541   3.173   5.455
 6750SOL    HW121149   2.502   3.264   5.442
 6750SOL    HW221150   2.525   3.118   5.373
 6751SOL     OW21151   4.372   2.705   5.576
 6751SOL    HW121152   4.348   2.607   5.578
 6751SOL    HW221153   4.452   2.720   5.634
 6752SOL     OW21154   6.754   1.097   6.979
 6752SOL    HW121155   6.691   1.171   6.956
 6752SOL    HW221156   6.730   1.058   0.043
 6753SOL     OW21157   6.202   0.710   6.672
 6753SOL    HW121158   6.134   0.754   6.731
 6753SOL    HW221159   6.265   0.657   6.727
 6754SOL     OW21160   4.343   1.336   6.930
 6754SOL    HW121161   4.312   1.363   7.021
 6754SOL    HW221162   4.326   1.411   6.865
 6755SOL     OW21163   5.335   1.774   3.248
 6755SOL    HW121164   5.362   1.694   3.301
 6755SOL    HW221165   5.251   1.754   3.197
 6756SOL     OW21166   4.450   4.974   3.257
 6756SOL    HW121167   4.495   4.887   3.278
 6756SOL    HW221168   4.509   5.029   3.199
 6757SOL     OW21169   6.211   4.259   1.211
 6757SOL    HW121170   6.294   4.297   1.253
 6757SOL    HW221171   6.210   4.280   1.113
 6758SOL     OW21172   6.943   2.332   2.402
 6758SOL    HW121173   6.938   2.288   2.492
 6758SOL    HW221174   6.944   2.262   2.331
 6759SOL     OW21175   0.389   5.337   3.764
 6759SOL    HW121176   0.457   5.306   3.699
 6759SOL    HW221177   0.355   5.258   3.817
 6760SOL     OW21178   0.640   3.593   4.970
 6760SOL    HW121179   0.580   3.636   5.037
 6760SOL    HW221180   0.591   3.518   4.924
 6761SOL     OW21181   6.268   2.882   6.798
 6761SOL    HW121182   6.206   2.852   6.870
 6761SOL    HW221183   6.315   2.966   6.827
 6762SOL     OW21184   6.987   2.573   4.280
 6762SOL    HW121185   7.015   2.480   4.254
 6762SOL    HW221186   6.961   2.624   4.199
 6763SOL     OW21187   5.987   6.227   5.710
 6763SOL    HW121188   6.083   6.212   5.685
 6763SOL    HW221189   5.930   6.219   5.629
 6764SOL     OW21190   1.847   3.726   0.099
 6764SOL    HW121191   1.937   3.698   0.133
 6764SOL    HW221192   1.787   3.646   0.093
 6765SOL     OW21193   4.521   5.211   2.063
 6765SOL    HW121194   4.504   5.114   2.046
 6765SOL    HW221195   4.519   5.228   2.161
 6766SOL     OW21196   2.998   2.587   5.308
 6766SOL    HW121197   3.042   2.505   5.271
 6766SOL    HW221198   2.902   2.566   5.329
 6767SOL     OW21199   0.483   2.936   5.671
 6767SOL    HW121200   0.506   2.952   5.575
 6767SOL    HW221201   0.452   2.842   5.684
 6768SOL     OW21202   0.002   0.933   6.038
 6768SOL    HW121203   0.027   0.901   5.946
 6768SOL    HW221204   6.930   0.955   6.040
 6769SOL     OW21205   0.737   2.212   6.102
 6769SOL    HW121206   0.759   2.115   6.114
 6769SOL    HW221207   0.704   2.249   6.189
 6770SOL     OW21208   0.526   1.655   3.573
 6770SOL    HW121209   0.495   1.703   3.654
 6770SOL    HW221210   0.465   1.578   3.554
 6771SOL     OW21211   5.440   2.593   2.396
 6771SOL    HW121212   5.384   2.569   2.316
 6771SOL    HW221213   5.534   2.565   2.381
 6772SOL     OW21214   1.142   0.229   1.831
 6772SOL    HW121215   1.202   0.149   1.829
 6772SOL    HW221216   1.105   0.245   1.740
 6773SOL     OW21217   1.942   1.192   3.511
 6773SOL    HW121218   1.904   1.120   3.569
 6773SOL    HW221219   1.873   1.263   3.497
 6774SOL     OW21220   4.052   1.308   5.568
 6774SOL    HW121221   4.047   1.267   5.659
 6774SOL    HW221222   4.126   1.374   5.565
 6775SOL     OW21223   1.718   2.686   4.900
 6775SOL    HW121224   1.658   2.765   4.890
 6775SOL    HW221225   1.792   2.708   4.963
 6776SOL     OW21226   3.332   3.707   3.834
 6776SOL    HW121227   3.358   3.803   3.843
 6776SOL    HW221228   3.290   3.692   3.744
 6777SOL     OW21229   0.395   0.620   5.463
 6777SOL    HW121230   0.455   0.700   5.456
 6777SOL    HW221231   0.449   0.536   5.455
 6778SOL     OW21232   6.045   6.117   1.845
 6778SOL    HW121233   6.093   6.167   1.917
 6778SOL    HW221234   6.049   6.019   1.864
 6779SOL     OW21235   6.070   3.528   5.862
 6779SOL    HW121236   5.997   3.473   5.902
 6779SOL    HW221237   6.030   3.595   5.799
 6780SOL     OW21238   4.880   0.762   2.221
 6780SOL    HW121239   4.802   0.819   2.194
 6780SOL    HW221240   4.945   0.756   2.146
 6781SOL     OW21241   5.865   4.031   3.253
 6781SOL    HW121242   5.892   4.043   3.349
 6781SOL    HW221243   5.785   3.971   3.248
 6782SOL     OW21244   7.019   2.136   3.017
 6782SOL    HW121245   0.024   2.041   3.014
 6782SOL    HW221246   6.961   2.149   3.098
 6783SOL     OW21247   0.893   6.348   6.861
 6783SOL    HW121248   0.819   6.408   6.831
 6783SOL    HW221249   0.976   6.401   6.873
 6784SOL     OW21250   1.658   4.568   6.832
 6784SOL    HW121251   1.736   4.625   6.857
 6784SOL    HW221252   1.573   4.617   6.852
 6785SOL     OW21253   5.404   4.514   2.125
 6785SOL    HW121254   5.357   4.601   2.138
 6785SOL    HW221255   5.503   4.529   2.127
 6786SOL     OW21256   6.417   1.067   6.339
 6786SOL    HW121257   6.370   0.980   6.354
 6786SOL    HW221258   6.379   1.136   6.401
 6787SOL     OW21259   4.383   2.621   1.272
 6787SOL    HW121260   4.461   2.575   1.314
 6787SOL    HW221261   4.302   2.563   1.279
 6788SOL     OW21262   1.504   4.305   0.912
 6788SOL    HW121263   1.423   4.311   0.970
 6788SOL    HW221264   1.477   4.291   0.817
 6789SOL     OW21265   6.045   2.485   3.031
 6789SOL    HW121266   6.003   2.435   2.955
 6789SOL    HW221267   5.984   2.482   3.110
 6790SOL     OW21268   0.704   5.745   0.056
 6790SOL    HW121269   0.713   5.645   0.054
 6790SOL    HW221270   0.626   5.773   0.000
 6791SOL     OW21271   2.064   6.132   4.067
 6791SOL    HW121272   2.001   6.174   4.002
 6791SOL    HW221273   2.062   6.032   4.055
 6792SOL     OW21274   3.319   5.550   0.302
 6792SOL    HW121275   3.248   5.620   0.295
 6792SOL    HW221276   3.284   5.463   0.270
 6793SOL     OW21277   1.729   3.638   6.385
 6793SOL    HW121278   1.654   3.633   6.452
 6793SOL    HW221279   1.743   3.733   6.358
 6794SOL     OW21280   4.707   2.374   4.605
 6794SOL    HW121281   4.714   2.316   4.686
 6794SOL    HW221282   4.613   2.405   4.594
 6795SOL     OW21283   0.819   0.362   2.523
 6795SOL    HW121284   0.761   0.335   2.446
 6795SOL    HW221285   0.915   0.356   2.495
 6796SOL     OW21286   6.724   2.487   2.404
 6796SOL    HW121287   6.652   2.439   2.454
 6796SOL    HW221288   6.806   2.431   2.400
 6797SOL     OW21289   1.554   3.719   0.565
 6797SOL    HW121290   1.550   3.619   0.572
 6797SOL    HW221291   1.638   3.752   0.607
 6798SOL     OW21292   5.107   2.054   1.805
 6798SOL    HW121293   5.078   2.135   1.857
 6798SOL    HW221294   5.205   2.059   1.787
 6799SOL     OW21295   4.595   0.215   2.468
 6799SOL    HW121296   4.686   0.240   2.435
 6799SOL    HW221297   4.538   0.189   2.390
 6800SOL     OW21298   6.631   2.775   2.356
 6800SOL    HW121299   6.554   2.711   2.360
 6800SOL    HW221300   6.703   2.744   2.419
 6801SOL     OW21301   2.071   5.149   5.292
 6801SOL    HW121302   2.006   5.225   5.290
 6801SOL    HW221303   2.027   5.067   5.329
 6802SOL     OW21304   2.601   4.221   1.738
 6802SOL    HW121305   2.520   4.163   1.752
 6802SOL    HW221306   2.684   4.167   1.753
 6803SOL     OW21307   6.438   5.472   6.090
 6803SOL    HW121308   6.418   5.507   6.181
 6803SOL    HW221309   6.371   5.403   6.064
 6804SOL     OW21310   3.164   5.693   1.772
 6804SOL    HW121311   3.254   5.675   1.811
 6804SOL    HW221312   3.171   5.696   1.672
 6805SOL     OW21313   0.754   4.070   3.999
 6805SOL    HW121314   0.731   4.165   3.981
 6805SOL    HW221315   0.852   4.063   4.019
 6806SOL     OW21316   6.411   3.938   1.969
 6806SOL    HW121317   6.368   3.851   1.944
 6806SOL    HW221318   6.444   3.933   2.064
 6807SOL     OW21319   4.086   3.781   2.984
 6807SOL    HW121320   4.054   3.812   2.895
 6807SOL    HW221321   4.165   3.836   3.012
 6808SOL     OW21322   2.865   6.518   4.293
 6808SOL    HW121323   2.854   6.504   4.392
 6808SOL    HW221324   2.841   6.435   4.244
 6809SOL     OW21325   6.063   2.861   0.797
 6809SOL    HW121326   6.059   2.927   0.722
 6809SOL    HW221327   6.011   2.779   0.772
 6810SOL     OW21328   3.249   0.248   4.807
 6810SOL    HW121329   3.331   0.233   4.751
 6810SOL    HW221330   3.220   0.344   4.798
 6811SOL     OW21331   6.307   2.140   1.385
 6811SOL    HW121332   6.324   2.073   1.457
 6811SOL    HW221333   6.380   2.135   1.318
 6812SOL     OW21334   3.345   4.688   5.317
 6812SOL    HW121335   3.247   4.696   5.302
 6812SOL    HW221336   3.386   4.780   5.321
 6813SOL     OW21337   0.332   3.866   1.963
 6813SOL    HW121338   0.420   3.867   2.010
 6813SOL    HW221339   0.318   3.778   1.918
 6814SOL     OW21340   4.487   2.277   1.671
 6814SOL    HW121341   4.512   2.206   1.737
 6814SOL    HW221342   4.476   2.364   1.718
 6815SOL     OW21343   1.626   6.207   0.839
 6815SOL    HW121344   1.586   6.299   0.834
 6815SOL    HW221345   1.595   6.161   0.922
 6816SOL     OW21346   5.610   0.144   3.301
 6816SOL    HW121347   5.647   0.228   3.342
 6816SOL    HW221348   5.681   0.099   3.248
 6817SOL     OW21349   5.815   1.111   1.140
 6817SOL    HW121350   5.741   1.090   1.076
 6817SOL    HW221351   5.778   1.158   1.220
 6818SOL     OW21352   6.957   0.168   5.693
 6818SOL    HW121353   6.995   0.209   5.611
 6818SOL    HW221354   6.869   0.126   5.671
 6819SOL     OW21355   6.113   3.818   0.689
 6819SOL    HW121356   6.095   3.892   0.754
 6819SOL    HW221357   6.189   3.762   0.721
 6820SOL     OW21358   2.163   4.513   1.009
 6820SOL    HW121359   2.207   4.600   0.991
 6820SOL    HW221360   2.223   4.455   1.065
 6821SOL     OW21361   2.353   3.127   5.884
 6821SOL    HW121362   2.289   3.167   5.949
 6821SOL    HW221363   2.438   3.179   5.884
 6822SOL     OW21364   0.243   4.491   4.686
 6822SOL    HW121365   0.156   4.475   4.733
 6822SOL    HW221366   0.295   4.406   4.683
 6823SOL     OW21367   7.015   3.483   5.574
 6823SOL    HW121368   6.995   3.537   5.656
 6823SOL    HW221369   6.985   3.389   5.588
 6824SOL     OW21370   0.657   0.646   4.111
 6824SOL    HW121371   0.645   0.591   4.194
 6824SOL    HW221372   0.574   0.698   4.093
 6825SOL     OW21373   4.724   5.188   1.570
 6825SOL    HW121374   4.688   5.198   1.663
 6825SOL    HW221375   4.807   5.243   1.561
 6826SOL     OW21376   5.717   0.587   4.282
 6826SOL    HW121377   5.687   0.592   4.187
 6826SOL    HW221378   5.686   0.501   4.323
 6827SOL     OW21379   5.025   4.963   5.494
 6827SOL    HW121380   5.101   4.977   5.557
 6827SOL    HW221381   4.995   5.051   5.457
 6828SOL     OW21382   2.593   2.091   2.677
 6828SOL    HW121383   2.541   2.018   2.634
 6828SOL    HW221384   2.671   2.052   2.726
 6829SOL     OW21385   5.675   6.601   4.936
 6829SOL    HW121386   5.581   6.584   4.906
 6829SOL    HW221387   5.698   6.538   5.010
 6830SOL     OW21388   3.562   6.662   2.551
 6830SOL    HW121389   3.491   6.716   2.595
 6830SOL    HW221390   3.551   6.566   2.576
 6831SOL     OW21391   2.067   0.264   0.360
 6831SOL    HW121392   2.058   0.166   0.380
 6831SOL    HW221393   2.112   0.276   0.271
 6832SOL     OW21394   3.595   3.764   0.334
 6832SOL    HW121395   3.530   3.827   0.376
 6832SOL    HW221396   3.585   3.674   0.376
 6833SOL     OW21397   4.357   5.322   0.136
 6833SOL    HW121398   4.306   5.272   0.206
 6833SOL    HW221399   4.329   5.418   0.138
 6834SOL     OW21400   6.529   5.600   5.004
 6834SOL    HW121401   6.585   5.557   4.933
 6834SOL    HW221402   6.554   5.562   5.094
 6835SOL     OW21403   4.122   0.582   2.679
 6835SOL    HW121404   4.131   0.672   2.722
 6835SOL    HW221405   4.094   0.593   2.584
 6836SOL     OW21406   0.926   4.541   6.365
 6836SOL    HW121407   0.952   4.469   6.429
 6836SOL    HW221408   0.954   4.630   6.400
 6837SOL     OW21409   6.309   2.272   1.813
 6837SOL    HW121410   6.298   2.174   1.803
 6837SOL    HW221411   6.290   2.317   1.725
 6838SOL     OW21412   2.032   4.251   6.946
 6838SOL    HW121413   1.983   4.217   6.866
 6838SOL    HW221414   2.014   4.348   6.958
 6839SOL     OW21415   6.331   2.285   5.311
 6839SOL    HW121416   6.306   2.374   5.351
 6839SOL    HW221417   6.416   2.295   5.260
 6840SOL     OW21418   3.125   0.529   4.271
 6840SOL    HW121419   3.161   0.620   4.250
 6840SOL    HW221420   3.136   0.469   4.192
 6841SOL     OW21421   4.468   5.727   0.690
 6841SOL    HW121422   4.451   5.682   0.778
 6841SOL    HW221423   4.402   5.695   0.623
 6842SOL     OW21424   0.355   3.257   3.511
 6842SOL    HW121425   0.388   3.172   3.471
 6842SOL    HW221426   0.280   3.238   3.574
 6843SOL     OW21427   4.479   3.099   1.643
 6843SOL    HW121428   4.543   3.073   1.716
 6843SOL    HW221429   4.522   3.082   1.554
 6844SOL     OW21430   3.136   6.599   4.256
 6844SOL    HW121431   3.048   6.631   4.291
 6844SOL    HW221432   3.138   6.499   4.257
 6845SOL     OW21433   3.492   4.178   0.209
 6845SOL    HW121434   3.501   4.081   0.187
 6845SOL    HW221435   3.518   4.194   0.304
 6846SOL     OW21436   3.656   3.214   4.075
 6846SOL    HW121437   3.671   3.280   4.001
 6846SOL    HW221438   3.634   3.263   4.159
 6847SOL     OW21439   5.311   3.768   1.324
 6847SOL    HW121440   5.325   3.693   1.259
 6847SOL    HW221441   5.286   3.851   1.274
 6848SOL     OW21442   0.903   6.352   4.616
 6848SOL    HW121443   0.987   6.337   4.564
 6848SOL    HW221444   0.824   6.335   4.558
 6849SOL     OW21445   2.579   0.444   4.568
 6849SOL    HW121446   2.559   0.449   4.470
 6849SOL    HW221447   2.640   0.366   4.585
 6850SOL     OW21448   6.645   2.871   1.977
 6850SOL    HW121449   6.571   2.912   1.924
 6850SOL    HW221450   6.610   2.790   2.025
 6851SOL     OW21451   1.843   5.518   0.532
 6851SOL    HW121452   1.787   5.597   0.558
 6851SOL    HW221453   1.825   5.495   0.436
 6852SOL     OW21454   4.905   4.703   2.574
 6852SOL    HW121455   4.884   4.674   2.667
 6852SOL    HW221456   4.968   4.638   2.532
 6853SOL     OW21457   5.878   4.438   4.567
 6853SOL    HW121458   5.921   4.395   4.488
 6853SOL    HW221459   5.790   4.477   4.540
 6854SOL     OW21460   6.064   1.096   6.660
 6854SOL    HW121461   5.977   1.134   6.630
 6854SOL    HW221462   6.102   1.039   6.586
 6855SOL     OW21463   2.577   6.732   2.367
 6855SOL    HW121464   2.619   6.669   2.431
 6855SOL    HW221465   2.477   6.726   2.375
 6856SOL     OW21466   0.973   5.166   5.554
 6856SOL    HW121467   0.957   5.068   5.564
 6856SOL    HW221468   0.980   5.208   5.645
 6857SOL     OW21469   4.407   0.811   6.901
 6857SOL    HW121470   4.396   0.903   6.938
 6857SOL    HW221471   4.349   0.800   6.820
 6858SOL     OW21472   3.394   3.063   6.487
 6858SOL    HW121473   3.395   3.159   6.459
 6858SOL    HW221474   3.300   3.035   6.507
 6859SOL     OW21475   4.356   0.020   1.413
 6859SOL    HW121476   4.292   6.976   1.445
 6859SOL    HW221477   4.383   7.025   1.318
 6860SOL     OW21478   4.650   3.248   6.735
 6860SOL    HW121479   4.735   3.220   6.691
 6860SOL    HW221480   4.613   3.172   6.788
 6861SOL     OW21481   6.576   3.775   0.141
 6861SOL    HW121482   6.478   3.780   0.161
 6861SOL    HW221483   6.626   3.761   0.227
 6862SOL     OW21484   2.581   4.657   4.656
 6862SOL    HW121485   2.511   4.599   4.614
 6862SOL    HW221486   2.538   4.719   4.722
 6863SOL     OW21487   1.124   3.462   3.803
 6863SOL    HW121488   1.079   3.379   3.834
 6863SOL    HW221489   1.061   3.515   3.746
 6864SOL     OW21490   3.164   5.604   6.217
 6864SOL    HW121491   3.236   5.667   6.248
 6864SOL    HW221492   3.175   5.587   6.119
 6865SOL     OW21493   0.929   2.427   5.447
 6865SOL    HW121494   0.861   2.356   5.466
 6865SOL    HW221495   1.017   2.384   5.426
 6866SOL     OW21496   0.396   3.970   2.818
 6866SOL    HW121497   0.407   4.008   2.726
 6866SOL    HW221498   0.399   3.871   2.814
 6867SOL     OW21499   2.879   5.220   3.595
 6867SOL    HW121500   2.838   5.291   3.538
 6867SOL    HW221501   2.817   5.142   3.601
 6868SOL     OW21502   1.737   5.387   4.997
 6868SOL    HW121503   1.675   5.325   4.949
 6868SOL    HW221504   1.706   5.481   4.986
 6869SOL     OW21505   0.234   2.589   4.552
 6869SOL    HW121506   0.279   2.585   4.641
 6869SOL    HW221507   0.147   2.638   4.561
 6870SOL     OW21508   5.443   4.084   3.014
 6870SOL    HW121509   5.457   4.027   2.933
 6870SOL    HW221510   5.512   4.156   3.017
 6871SOL     OW21511   4.248   6.149   2.030
 6871SOL    HW121512   4.212   6.190   2.114
 6871SOL    HW221513   4.317   6.209   1.991
 6872SOL     OW21514   3.357   4.217   0.667
 6872SOL    HW121515   3.340   4.176   0.757
 6872SOL    HW221516   3.282   4.279   0.644
 6873SOL     OW21517   5.414   5.227   5.334
 6873SOL    HW121518   5.409   5.210   5.235
 6873SOL    HW221519   5.439   5.143   5.381
 6874SOL     OW21520   1.375   1.851   6.573
 6874SOL    HW121521   1.277   1.835   6.585
 6874SOL    HW221522   1.395   1.865   6.476
 6875SOL     OW21523   3.665   0.158   4.864
 6875SOL    HW121524   3.630   0.069   4.835
 6875SOL    HW221525   3.763   0.163   4.848
 6876SOL     OW21526   3.073   6.419   4.691
 6876SOL    HW121527   3.171   6.425   4.670
 6876SOL    HW221528   3.054   6.333   4.737
 6877SOL     OW21529   2.140   3.783   0.209
 6877SOL    HW121530   2.131   3.882   0.224
 6877SOL    HW221531   2.170   3.766   0.115
 6878SOL     OW21532   1.892   1.654   5.241
 6878SOL    HW121533   1.979   1.642   5.289
 6878SOL    HW221534   1.872   1.572   5.189
 6879SOL     OW21535   6.045   1.687   5.964
 6879SOL    HW121536   6.139   1.675   5.995
 6879SOL    HW221537   6.021   1.615   5.899
 6880SOL     OW21538   0.847   4.405   4.821
 6880SOL    HW121539   0.906   4.384   4.900
 6880SOL    HW221540   0.763   4.449   4.854
 6881SOL     OW21541   4.946   6.275   1.312
 6881SOL    HW121542   4.986   6.336   1.244
 6881SOL    HW221543   5.019   6.228   1.361
 6882SOL     OW21544   2.804   5.871   5.724
 6882SOL    HW121545   2.712   5.902   5.699
 6882SOL    HW221546   2.839   5.927   5.798
 6883SOL     OW21547   2.911   6.596   2.003
 6883SOL    HW121548   2.818   6.562   2.016
 6883SOL    HW221549   2.941   6.643   2.085
 6884SOL     OW21550   1.698   4.799   3.302
 6884SOL    HW121551   1.681   4.793   3.204
 6884SOL    HW221552   1.796   4.813   3.318
 6885SOL     OW21553   4.164   4.873   4.618
 6885SOL    HW121554   4.260   4.884   4.592
 6885SOL    HW221555   4.149   4.911   4.709
 6886SOL     OW21556   5.217   6.730   0.671
 6886SOL    HW121557   5.241   6.652   0.613
 6886SOL    HW221558   5.119   6.748   0.664
 6887SOL     OW21559   6.193   0.666   4.659
 6887SOL    HW121560   6.272   0.611   4.683
 6887SOL    HW221561   6.214   0.722   4.579
 6888SOL     OW21562   6.511   6.943   3.829
 6888SOL    HW121563   6.545   6.849   3.822
 6888SOL    HW221564   6.581   7.001   3.872
 6889SOL     OW21565   2.043   4.172   6.142
 6889SOL    HW121566   2.046   4.091   6.202
 6889SOL    HW221567   2.071   4.253   6.193
 6890SOL     OW21568   1.410   0.652   1.540
 6890SOL    HW121569   1.359   0.572   1.570
 6890SOL    HW221570   1.350   0.713   1.489
 6891SOL     OW21571   4.614   5.395   5.810
 6891SOL    HW121572   4.568   5.318   5.854
 6891SOL    HW221573   4.710   5.396   5.837
 6892SOL     OW21574   3.169   1.836   4.165
 6892SOL    HW121575   3.183   1.912   4.229
 6892SOL    HW221576   3.154   1.873   4.073
 6893SOL     OW21577   5.000   6.809   0.999
 6893SOL    HW121578   5.044   6.721   0.980
 6893SOL    HW221579   5.004   6.827   1.098
 6894SOL     OW21580   6.142   4.645   5.875
 6894SOL    HW121581   6.201   4.626   5.953
 6894SOL    HW221582   6.180   4.720   5.822
 6895SOL     OW21583   4.950   5.043   4.940
 6895SOL    HW121584   4.858   5.052   4.903
 6895SOL    HW221585   4.995   4.964   4.897
 6896SOL     OW21586   5.329   2.161   2.505
 6896SOL    HW121587   5.271   2.212   2.441
 6896SOL    HW221588   5.273   2.095   2.555
 6897SOL     OW21589   3.987   1.238   1.744
 6897SOL    HW121590   4.028   1.154   1.708
 6897SOL    HW221591   3.889   1.238   1.725
 6898SOL     OW21592   3.652   1.406   2.129
 6898SOL    HW121593   3.677   1.340   2.058
 6898SOL    HW221594   3.734   1.456   2.158
 6899SOL     OW21595   5.866   4.757   5.885
 6899SOL    HW121596   5.824   4.728   5.800
 6899SOL    HW221597   5.948   4.703   5.902
 6900SOL     OW21598   4.136   0.214   6.116
 6900SOL    HW121599   4.156   0.310   6.137
 6900SOL    HW221600   4.163   0.194   6.022
 6901SOL     OW21601   1.612   0.393   0.065
 6901SOL    HW121602   1.706   0.426   0.057
 6901SOL    HW221603   1.597   0.356   0.156
 6902SOL     OW21604   6.473   5.832   2.899
 6902SOL    HW121605   6.561   5.876   2.918
 6902SOL    HW221606   6.478   5.735   2.923
 6903SOL     OW21607   6.228   4.354   6.687
 6903SOL    HW121608   6.289   4.313   6.619
 6903SOL    HW221609   6.196   4.443   6.654
 6904SOL     OW21610   0.536   1.410   2.726
 6904SOL    HW121611   0.483   1.417   2.811
 6904SOL    HW221612   0.628   1.447   2.741
 6905SOL     OW21613   3.772   5.536   0.957
 6905SOL    HW121614   3.749   5.530   1.054
 6905SOL    HW221615   3.719   5.469   0.906
 6906SOL     OW21616   6.205   6.246   2.419
 6906SOL    HW121617   6.202   6.321   2.485
 6906SOL    HW221618   6.240   6.280   2.332
 6907SOL     OW21619   3.420   0.699   1.542
 6907SOL    HW121620   3.334   0.663   1.579
 6907SOL    HW221621   3.493   0.633   1.558
 6908SOL     OW21622   5.280   6.909   0.243
 6908SOL    HW121623   5.296   6.996   0.197
 6908SOL    HW221624   5.225   6.925   0.325
 6909SOL     OW21625   2.635   2.286   6.918
 6909SOL    HW121626   2.660   2.317   6.827
 6909SOL    HW221627   2.536   2.277   6.925
 6910SOL     OW21628   4.764   0.968   1.176
 6910SOL    HW121629   4.759   0.869   1.160
 6910SOL    HW221630   4.682   0.999   1.224
 6911SOL     OW21631   3.514   6.979   4.706
 6911SOL    HW121632   3.589   6.934   4.657
 6911SOL    HW221633   3.461   6.910   4.756
 6912SOL     OW21634   3.856   5.833   1.784
 6912SOL    HW121635   3.821   5.776   1.709
 6912SOL    HW221636   3.782   5.890   1.820
 6913SOL     OW21637   4.277   6.165   5.621
 6913SOL    HW121638   4.286   6.262   5.599
 6913SOL    HW221639   4.352   6.114   5.578
 6914SOL     OW21640   0.185   5.201   0.044
 6914SOL    HW121641   0.238   5.130   7.023
 6914SOL    HW221642   0.242   5.244   0.115
 6915SOL     OW21643   0.962   6.942   0.054
 6915SOL    HW121644   0.917   6.861   0.018
 6915SOL    HW221645   0.901   7.021   0.046
 6916SOL     OW21646   6.130   0.724   5.913
 6916SOL    HW121647   6.056   0.739   5.847
 6916SOL    HW221648   6.181   0.809   5.926
 6917SOL     OW21649   4.202   6.466   5.873
 6917SOL    HW121650   4.130   6.425   5.929
 6917SOL    HW221651   4.288   6.418   5.890
 6918SOL     OW21652   2.210   2.462   3.151
 6918SOL    HW121653   2.276   2.530   3.184
 6918SOL    HW221654   2.258   2.377   3.130
 6919SOL     OW21655   1.976   5.849   3.708
 6919SOL    HW121656   2.054   5.906   3.733
 6919SOL    HW221657   1.994   5.754   3.733
 6920SOL     OW21658   5.654   5.732   4.302
 6920SOL    HW121659   5.680   5.680   4.383
 6920SOL    HW221660   5.613   5.671   4.234
 6921SOL     OW21661   1.928   4.788   2.840
 6921SOL    HW121662   1.916   4.869   2.898
 6921SOL    HW221663   1.928   4.706   2.898
 6922SOL     OW21664   2.030   6.150   1.545
 6922SOL    HW121665   2.022   6.191   1.635
 6922SOL    HW221666   2.030   6.050   1.554
 6923SOL     OW21667   5.180   5.579   4.462
 6923SOL    HW121668   5.114   5.627   4.519
 6923SOL    HW221669   5.137   5.496   4.424
 6924SOL     OW21670   5.587   6.127   2.349
 6924SOL    HW121671   5.533   6.050   2.383
 6924SOL    HW221672   5.681   6.097   2.331
 6925SOL     OW21673   4.461   5.594   2.078
 6925SOL    HW121674   4.525   5.579   2.003
 6925SOL    HW221675   4.512   5.618   2.161
 6926SOL     OW21676   2.888   3.457   5.584
 6926SOL    HW121677   2.946   3.493   5.657
 6926SOL    HW221678   2.894   3.357   5.582
 6927SOL     OW21679   4.038   3.739   0.672
 6927SOL    HW121680   4.064   3.811   0.608
 6927SOL    HW221681   4.112   3.672   0.679
 6928SOL     OW21682   6.777   0.752   6.736
 6928SOL    HW121683   6.847   0.723   6.671
 6928SOL    HW221684   6.716   0.675   6.755
 6929SOL     OW21685   3.260   5.822   1.122
 6929SOL    HW121686   3.173   5.774   1.134
 6929SOL    HW221687   3.308   5.826   1.210
 6930SOL     OW21688   0.021   1.011   3.066
 6930SOL    HW121689   6.971   1.027   3.131
 6930SOL    HW221690   7.009   0.976   2.980
 6931SOL     OW21691   2.506   0.379   0.951
 6931SOL    HW121692   2.580   0.392   1.017
 6931SOL    HW221693   2.474   0.284   0.956
 6932SOL     OW21694   3.210   2.526   0.329
 6932SOL    HW121695   3.205   2.622   0.299
 6932SOL    HW221696   3.210   2.466   0.249
 6933SOL     OW21697   2.763   5.899   5.257
 6933SOL    HW121698   2.702   5.964   5.302
 6933SOL    HW221699   2.808   5.945   5.180
 6934SOL     OW21700   5.623   4.723   6.474
 6934SOL    HW121701   5.554   4.690   6.539
 6934SOL    HW221702   5.675   4.798   6.516
 6935SOL     OW21703   4.204   5.527   3.358
 6935SOL    HW121704   4.279   5.497   3.299
 6935SOL    HW221705   4.205   5.626   3.366
 6936SOL     OW21706   0.755   4.550   0.740
 6936SOL    HW121707   0.797   4.637   0.715
 6936SOL    HW221708   0.687   4.525   0.671
 6937SOL     OW21709   4.388   5.850   6.305
 6937SOL    HW121710   4.438   5.771   6.339
 6937SOL    HW221711   4.297   5.851   6.345
 6938SOL     OW21712   6.529   2.101   5.527
 6938SOL    HW121713   6.586   2.122   5.448
 6938SOL    HW221714   6.586   2.096   5.609
 6939SOL     OW21715   6.677   4.653   1.622
 6939SOL    HW121716   6.602   4.680   1.682
 6939SOL    HW221717   6.731   4.582   1.667
 6940SOL     OW21718   4.546   0.400   4.311
 6940SOL    HW121719   4.508   0.387   4.403
 6940SOL    HW221720   4.473   0.387   4.244
 6941SOL     OW21721   3.371   2.906   5.094
 6941SOL    HW121722   3.309   2.865   5.162
 6941SOL    HW221723   3.321   2.974   5.041
 6942SOL     OW21724   6.296   1.418   6.428
 6942SOL    HW121725   6.253   1.336   6.392
 6942SOL    HW221726   6.242   1.498   6.402
 6943SOL     OW21727   5.899   4.844   6.934
 6943SOL    HW121728   5.840   4.770   6.900
 6943SOL    HW221729   5.981   4.804   6.976
 6944SOL     OW21730   1.535   0.008   0.502
 6944SOL    HW121731   1.619   6.980   0.493
 6944SOL    HW221732   1.485   0.007   0.416
 6945SOL     OW21733   3.740   1.220   6.949
 6945SOL    HW121734   3.785   1.272   7.022
 6945SOL    HW221735   3.807   1.201   6.877
 6946SOL     OW21736   6.360   4.351   2.198
 6946SOL    HW121737   6.283   4.295   2.229
 6946SOL    HW221738   6.385   4.324   2.104
 6947SOL     OW21739   3.386   6.473   1.145
 6947SOL    HW121740   3.440   6.557   1.149
 6947SOL    HW221741   3.397   6.430   1.056
 6948SOL     OW21742   3.167   1.790   5.645
 6948SOL    HW121743   3.194   1.730   5.570
 6948SOL    HW221744   3.248   1.816   5.697
 6949SOL     OW21745   5.233   0.416   2.134
 6949SOL    HW121746   5.270   0.334   2.089
 6949SOL    HW221747   5.277   0.428   2.223
 6950SOL     OW21748   3.701   1.527   3.127
 6950SOL    HW121749   3.657   1.440   3.103
 6950SOL    HW221750   3.680   1.550   3.222
 6951SOL     OW21751   4.762   3.854   5.696
 6951SOL    HW121752   4.827   3.829   5.624
 6951SOL    HW221753   4.676   3.806   5.682
 6952SOL     OW21754   0.133   3.597   6.504
 6952SOL    HW121755   0.141   3.544   6.589
 6952SOL    HW221756   0.101   3.689   6.526
 6953SOL     OW21757   5.478   2.429   4.677
 6953SOL    HW121758   5.447   2.430   4.772
 6953SOL    HW221759   5.577   2.440   4.675
 6954SOL     OW21760   0.048   4.678   1.599
 6954SOL    HW121761   7.015   4.710   1.524
 6954SOL    HW221762   0.010   4.595   1.639
 6955SOL     OW21763   6.712   0.998   3.887
 6955SOL    HW121764   6.739   1.070   3.824
 6955SOL    HW221765   6.672   1.039   3.969
 6956SOL     OW21766   3.280   4.111   1.449
 6956SOL    HW121767   3.259   4.133   1.544
 6956SOL    HW221768   3.322   4.190   1.405
 6957SOL     OW21769   1.260   4.407   0.744
 6957SOL    HW121770   1.240   4.311   0.721
 6957SOL    HW221771   1.178   4.449   0.784
 6958SOL     OW21772   1.748   3.306   5.593
 6958SOL    HW121773   1.693   3.341   5.517
 6958SOL    HW221774   1.709   3.339   5.679
 6959SOL     OW21775   4.239   0.804   4.971
 6959SOL    HW121776   4.144   0.800   4.942
 6959SOL    HW221777   4.272   0.712   4.993
 6960SOL     OW21778   1.153   5.776   6.598
 6960SOL    HW121779   1.065   5.772   6.552
 6960SOL    HW221780   1.223   5.733   6.541
 6961SOL     OW21781   6.085   1.147   3.378
 6961SOL    HW121782   6.075   1.237   3.335
 6961SOL    HW221783   6.043   1.149   3.469
 6962SOL     OW21784   3.013   3.764   0.991
 6962SOL    HW121785   2.933   3.786   0.936
 6962SOL    HW221786   3.058   3.849   1.020
 6963SOL     OW21787   6.342   5.811   1.969
 6963SOL    HW121788   6.409   5.855   2.028
 6963SOL    HW221789   6.251   5.847   1.988
 6964SOL     OW21790   3.884   5.016   5.877
 6964SOL    HW121791   3.929   4.965   5.951
 6964SOL    HW221792   3.854   4.953   5.806
 6965SOL     OW21793   6.306   1.300   6.085
 6965SOL    HW121794   6.356   1.292   5.998
 6965SOL    HW221795   6.361   1.352   6.150
 6966SOL     OW21796   4.803   1.824   3.934
 6966SOL    HW121797   4.724   1.835   3.994
 6966SOL    HW221798   4.886   1.853   3.982
 6967SOL     OW21799   2.996   2.825   6.301
 6967SOL    HW121800   3.019   2.747   6.359
 6967SOL    HW221801   2.987   2.793   6.206
 6968SOL     OW21802   4.236   0.384   3.421
 6968SOL    HW121803   4.191   0.469   3.394
 6968SOL    HW221804   4.335   0.393   3.406
 6969SOL     OW21805   3.250   3.304   1.184
 6969SOL    HW121806   3.217   3.237   1.118
 6969SOL    HW221807   3.201   3.390   1.170
 6970SOL     OW21808   5.209   4.480   0.376
 6970SOL    HW121809   5.170   4.555   0.429
 6970SOL    HW221810   5.303   4.503   0.351
 6971SOL     OW21811   6.067   1.579   2.189
 6971SOL    HW121812   6.039   1.487   2.162
 6971SOL    HW221813   6.145   1.608   2.134
 6972SOL     OW21814   5.322   5.802   4.362
 6972SOL    HW121815   5.254   5.824   4.293
 6972SOL    HW221816   5.293   5.720   4.412
 6973SOL     OW21817   1.400   3.994   3.775
 6973SOL    HW121818   1.327   4.021   3.838
 6973SOL    HW221819   1.368   3.920   3.717
 6974SOL     OW21820   3.470   4.063   4.979
 6974SOL    HW121821   3.405   4.038   5.051
 6974SOL    HW221822   3.554   4.008   4.989
 6975SOL     OW21823   1.560   6.551   6.153
 6975SOL    HW121824   1.468   6.584   6.173
 6975SOL    HW221825   1.564   6.452   6.163
 6976SOL     OW21826   1.237   6.237   0.831
 6976SOL    HW121827   1.141   6.249   0.855
 6976SOL    HW221828   1.286   6.199   0.909
 6977SOL     OW21829   5.339   3.056   1.508
 6977SOL    HW121830   5.339   3.044   1.409
 6977SOL    HW221831   5.274   3.128   1.533
 6978SOL     OW21832   4.459   2.507   3.358
 6978SOL    HW121833   4.524   2.472   3.290
 6978SOL    HW221834   4.369   2.466   3.341
 6979SOL     OW21835   0.169   3.705   4.720
 6979SOL    HW121836   0.260   3.732   4.687
 6979SOL    HW221837   0.179   3.651   4.804
 6980SOL     OW21838   4.874   1.826   5.043
 6980SOL    HW121839   4.862   1.735   5.003
 6980SOL    HW221840   4.971   1.849   5.042
 6981SOL     OW21841   3.467   3.704   6.201
 6981SOL    HW121842   3.515   3.777   6.249
 6981SOL    HW221843   3.488   3.616   6.244
 6982SOL     OW21844   0.488   0.229   4.856
 6982SOL    HW121845   0.500   0.284   4.773
 6982SOL    HW221846   0.565   0.244   4.918
 6983SOL     OW21847   6.141   0.875   3.214
 6983SOL    HW121848   6.118   0.857   3.119
 6983SOL    HW221849   6.085   0.950   3.249
 6984SOL     OW21850   1.558   1.360   6.174
 6984SOL    HW121851   1.654   1.333   6.168
 6984SOL    HW221852   1.525   1.388   6.084
 6985SOL     OW21853   5.366   6.752   4.133
 6985SOL    HW121854   5.408   6.694   4.063
 6985SOL    HW221855   5.301   6.698   4.187
 6986SOL     OW21856   1.718   6.139   5.284
 6986SOL    HW121857   1.716   6.238   5.272
 6986SOL    HW221858   1.645   6.112   5.346
 6987SOL     OW21859   6.827   3.538   6.385
 6987SOL    HW121860   6.740   3.489   6.390
 6987SOL    HW221861   6.899   3.483   6.429
 6988SOL     OW21862   5.519   1.847   6.482
 6988SOL    HW121863   5.569   1.822   6.565
 6988SOL    HW221864   5.446   1.781   6.465
 6989SOL     OW21865   1.772   3.373   4.439
 6989SOL    HW121866   1.788   3.366   4.341
 6989SOL    HW221867   1.696   3.436   4.456
 6990SOL     OW21868   4.256   3.566   1.667
 6990SOL    HW121869   4.250   3.651   1.616
 6990SOL    HW221870   4.347   3.525   1.654
 6991SOL     OW21871   4.171   4.497   5.479
 6991SOL    HW121872   4.123   4.412   5.499
 6991SOL    HW221873   4.149   4.566   5.548
 6992SOL     OW21874   6.432   6.532   4.635
 6992SOL    HW121875   6.428   6.593   4.714
 6992SOL    HW221876   6.344   6.533   4.587
 6993SOL     OW21877   0.573   6.898   2.902
 6993SOL    HW121878   0.592   6.942   2.815
 6993SOL    HW221879   0.659   6.870   2.945
 6994SOL     OW21880   1.648   2.170   0.554
 6994SOL    HW121881   1.611   2.092   0.503
 6994SOL    HW221882   1.597   2.253   0.530
 6995SOL     OW21883   1.366   5.425   3.957
 6995SOL    HW121884   1.355   5.365   4.036
 6995SOL    HW221885   1.278   5.435   3.910
 6996SOL     OW21886   1.945   6.560   5.452
 6996SOL    HW121887   1.955   6.658   5.472
 6996SOL    HW221888   1.863   6.526   5.499
 6997SOL     OW21889   4.396   5.106   4.133
 6997SOL    HW121890   4.375   5.013   4.102
 6997SOL    HW221891   4.379   5.113   4.231
 6998SOL     OW21892   2.670   1.892   2.388
 6998SOL    HW121893   2.671   1.881   2.289
 6998SOL    HW221894   2.577   1.913   2.419
 6999SOL     OW21895   5.289   1.786   6.668
 6999SOL    HW121896   5.343   1.854   6.719
 6999SOL    HW221897   5.350   1.714   6.635
 7000SOL     OW21898   0.033   0.093   1.410
 7000SOL    HW121899   0.092   0.095   1.491
 7000SOL    HW221900   6.967   0.061   1.436
 7001SOL     OW21901   2.777   1.510   6.598
 7001SOL    HW121902   2.807   1.445   6.529
 7001SOL    HW221903   2.796   1.474   6.689
 7002SOL     OW21904   2.574   4.974   1.937
 7002SOL    HW121905   2.658   4.921   1.928
 7002SOL    HW221906   2.582   5.058   1.882
 7003SOL     OW21907   2.062   6.319   5.592
 7003SOL    HW121908   2.012   6.406   5.587
 7003SOL    HW221909   2.160   6.337   5.587
 7004SOL     OW21910   1.933   3.887   6.505
 7004SOL    HW121911   1.838   3.896   6.478
 7004SOL    HW221912   1.975   3.977   6.510
 7005SOL     OW21913   6.427   0.270   6.239
 7005SOL    HW121914   6.501   0.336   6.252
 7005SOL    HW221915   6.436   0.227   6.149
 7006SOL     OW21916   5.081   5.312   4.330
 7006SOL    HW121917   5.014   5.239   4.338
 7006SOL    HW221918   5.170   5.273   4.308
 7007SOL     OW21919   5.346   5.158   1.861
 7007SOL    HW121920   5.393   5.203   1.785
 7007SOL    HW221921   5.281   5.223   1.902
 7008SOL     OW21922   0.818   5.974   4.343
 7008SOL    HW121923   0.804   5.881   4.377
 7008SOL    HW221924   0.834   5.971   4.244
 7009SOL     OW21925   0.060   4.512   1.332
 7009SOL    HW121926   0.027   4.474   1.418
 7009SOL    HW221927   0.027   4.457   1.255
 7010SOL     OW21928   5.686   4.191   5.986
 7010SOL    HW121929   5.776   4.235   5.985
 7010SOL    HW221930   5.664   4.158   5.894
 7011SOL     OW21931   0.977   0.058   5.427
 7011SOL    HW121932   0.948   0.081   5.520
 7011SOL    HW221933   1.059   0.109   5.404
 7012SOL     OW21934   0.580   1.013   1.423
 7012SOL    HW121935   0.610   0.919   1.408
 7012SOL    HW221936   0.482   1.014   1.442
 7013SOL     OW21937   6.147   2.238   1.179
 7013SOL    HW121938   6.203   2.209   1.257
 7013SOL    HW221939   6.118   2.333   1.192
 7014SOL     OW21940   2.325   5.204   0.756
 7014SOL    HW121941   2.307   5.284   0.699
 7014SOL    HW221942   2.304   5.226   0.851
 7015SOL     OW21943   4.934   2.467   2.044
 7015SOL    HW121944   4.893   2.506   2.127
 7015SOL    HW221945   4.891   2.507   1.964
 7016SOL     OW21946   4.620   4.377   0.440
 7016SOL    HW121947   4.610   4.302   0.505
 7016SOL    HW221948   4.632   4.340   0.348
 7017SOL     OW21949   5.314   2.222   5.440
 7017SOL    HW121950   5.326   2.239   5.538
 7017SOL    HW221951   5.283   2.305   5.395
 7018SOL     OW21952   0.465   3.773   3.199
 7018SOL    HW121953   0.538   3.744   3.262
 7018SOL    HW221954   0.415   3.693   3.168
 7019SOL     OW21955   6.957   6.150   2.386
 7019SOL    HW121956   6.930   6.119   2.477
 7019SOL    HW221957   0.028   6.173   2.386
 7020SOL     OW21958   0.244   5.796   0.218
 7020SOL    HW121959   0.206   5.712   0.179
 7020SOL    HW221960   0.186   5.873   0.194
 7021SOL     OW21961   2.953   6.604   5.329
 7021SOL    HW121962   3.002   6.528   5.372
 7021SOL    HW221963   3.013   6.684   5.326
 7022SOL     OW21964   3.838   5.251   5.996
 7022SOL    HW121965   3.896   5.275   6.073
 7022SOL    HW221966   3.860   5.158   5.966
 7023SOL     OW21967   4.095   5.032   2.522
 7023SOL    HW121968   4.006   5.032   2.475
 7023SOL    HW221969   4.132   4.939   2.523
 7024SOL     OW21970   5.670   6.438   1.818
 7024SOL    HW121971   5.621   6.446   1.731
 7024SOL    HW221972   5.611   6.468   1.893
 7025SOL     OW21973   2.834   0.144   1.279
 7025SOL    HW121974   2.806   0.198   1.358
 7025SOL    HW221975   2.930   0.161   1.259
 7026SOL     OW21976   4.635   2.704   0.426
 7026SOL    HW121977   4.649   2.781   0.363
 7026SOL    HW221978   4.607   2.624   0.374
 7027SOL     OW21979   5.851   5.685   4.822
 7027SOL    HW121980   5.906   5.615   4.777
 7027SOL    HW221981   5.871   5.687   4.920
 7028SOL     OW21982   3.128   1.113   4.606
 7028SOL    HW121983   3.044   1.143   4.561
 7028SOL    HW221984   3.206   1.162   4.567
 7029SOL     OW21985   3.679   0.847   4.113
 7029SOL    HW121986   3.604   0.799   4.158
 7029SOL    HW221987   3.703   0.928   4.167
 7030SOL     OW21988   1.530   3.514   3.855
 7030SOL    HW121989   1.590   3.434   3.857
 7030SOL    HW221990   1.478   3.519   3.940
 7031SOL     OW21991   1.886   0.749   4.578
 7031SOL    HW121992   1.923   0.664   4.614
 7031SOL    HW221993   1.865   0.738   4.481
 7032SOL     OW21994   5.792   2.639   3.339
 7032SOL    HW121995   5.818   2.543   3.354
 7032SOL    HW221996   5.720   2.665   3.403
 7033SOL     OW21997   0.029   1.269   4.793
 7033SOL    HW121998   0.059   1.183   4.834
 7033SOL    HW221999   0.001   1.332   4.866
 7034SOL     OW22000   0.250   5.000   3.554
 7034SOL    HW122001   0.333   4.959   3.592
 7034SOL    HW222002   0.174   4.986   3.618
 7035SOL     OW22003   0.282   4.686   1.314
 7035SOL    HW122004   0.277   4.759   1.246
 7035SOL    HW222005   0.203   4.626   1.305
 7036SOL     OW22006   6.487   5.085   0.528
 7036SOL    HW122007   6.440   5.146   0.592
 7036SOL    HW222008   6.421   5.050   0.461
 7037SOL     OW22009   1.195   0.427   6.487
 7037SOL    HW122010   1.221   0.519   6.458
 7037SOL    HW222011   1.106   0.404   6.449
 7038SOL     OW22012   2.242   3.067   4.341
 7038SOL    HW122013   2.291   3.129   4.280
 7038SOL    HW222014   2.302   2.991   4.368
 7039SOL     OW22015   3.956   1.623   6.883
 7039SOL    HW122016   3.861   1.591   6.879
 7039SOL    HW222017   3.995   1.622   6.791
 7040SOL     OW22018   5.860   2.689   6.809
 7040SOL    HW122019   5.803   2.607   6.814
 7040SOL    HW222020   5.812   2.760   6.759
 7041SOL     OW22021   1.971   1.525   3.554
 7041SOL    HW122022   1.998   1.560   3.465
 7041SOL    HW222023   2.034   1.559   3.624
 7042SOL     OW22024   2.110   1.123   6.813
 7042SOL    HW122025   2.083   1.155   6.904
 7042SOL    HW222026   2.042   1.059   6.778
 7043SOL     OW22027   1.860   2.743   1.585
 7043SOL    HW122028   1.827   2.801   1.659
 7043SOL    HW222029   1.959   2.755   1.575
 7044SOL     OW22030   0.006   5.680   0.902
 7044SOL    HW122031   6.947   5.734   0.901
 7044SOL    HW222032   0.006   5.617   0.824
 7045SOL     OW22033   0.239   4.930   0.384
 7045SOL    HW122034   0.304   4.960   0.315
 7045SOL    HW222035   0.218   4.833   0.370
 7046SOL     OW22036   2.967   2.279   3.820
 7046SOL    HW122037   2.933   2.255   3.911
 7046SOL    HW222038   3.067   2.268   3.819
 7047SOL     OW22039   1.697   6.839   3.513
 7047SOL    HW122040   1.713   6.795   3.425
 7047SOL    HW222041   1.761   6.803   3.581
 7048SOL     OW22042   6.883   5.399   0.287
 7048SOL    HW122043   6.901   5.326   0.352
 7048SOL    HW222044   6.832   5.363   0.209
 7049SOL     OW22045   2.425   0.767   6.850
 7049SOL    HW122046   2.452   0.690   6.793
 7049SOL    HW222047   2.386   0.839   6.792
 7050SOL     OW22048   4.400   3.455   5.446
 7050SOL    HW122049   4.331   3.482   5.379
 7050SOL    HW222050   4.479   3.417   5.399
 7051SOL     OW22051   5.980   6.393   2.924
 7051SOL    HW122052   5.936   6.315   2.967
 7051SOL    HW222053   5.911   6.449   2.878
 7052SOL     OW22054   6.403   0.161   5.077
 7052SOL    HW122055   6.422   0.086   5.140
 7052SOL    HW222056   6.357   0.235   5.125
 7053SOL     OW22057   6.470   3.314   6.105
 7053SOL    HW122058   6.434   3.337   6.195
 7053SOL    HW222059   6.394   3.292   6.043
 7054SOL     OW22060   6.140   2.278   2.698
 7054SOL    HW122061   6.147   2.192   2.648
 7054SOL    HW222062   6.130   2.354   2.634
 7055SOL     OW22063   4.464   1.863   3.639
 7055SOL    HW122064   4.542   1.888   3.582
 7055SOL    HW222065   4.469   1.766   3.662
 7056SOL     OW22066   4.685   5.511   4.365
 7056SOL    HW122067   4.655   5.423   4.328
 7056SOL    HW222068   4.629   5.537   4.443
 7057SOL     OW22069   5.631   5.778   2.871
 7057SOL    HW122070   5.721   5.743   2.896
 7057SOL    HW222071   5.580   5.803   2.953
 7058SOL     OW22072   0.323   4.016   4.426
 7058SOL    HW122073   0.324   4.112   4.398
 7058SOL    HW222074   0.409   3.973   4.398
 7059SOL     OW22075   1.725   0.687   2.471
 7059SOL    HW122076   1.731   0.784   2.448
 7059SOL    HW222077   1.652   0.672   2.537
 7060SOL     OW22078   3.341   0.390   0.662
 7060SOL    HW122079   3.316   0.426   0.751
 7060SOL    HW222080   3.332   0.463   0.593
 7061SOL     OW22081   0.696   1.020   2.806
 7061SOL    HW122082   0.733   1.112   2.798
 7061SOL    HW222083   0.596   1.024   2.804
 7062SOL     OW22084   6.641   1.135   5.736
 7062SOL    HW122085   6.700   1.077   5.679
 7062SOL    HW222086   6.550   1.093   5.742
 7063SOL     OW22087   1.968   6.243   1.803
 7063SOL    HW122088   2.011   6.301   1.872
 7063SOL    HW222089   1.878   6.213   1.835
 7064SOL     OW22090   3.472   2.501   0.506
 7064SOL    HW122091   3.466   2.600   0.518
 7064SOL    HW222092   3.470   2.478   0.409
 7065SOL     OW22093   3.370   3.556   2.484
 7065SOL    HW122094   3.362   3.519   2.391
 7065SOL    HW222095   3.449   3.618   2.488
 7066SOL     OW22096   2.614   4.881   1.611
 7066SOL    HW122097   2.656   4.829   1.685
 7066SOL    HW222098   2.579   4.968   1.647
 7067SOL     OW22099   0.988   4.329   5.048
 7067SOL    HW122100   1.012   4.232   5.043
 7067SOL    HW222101   0.967   4.353   5.142
 7068SOL     OW22102   0.406   0.732   2.965
 7068SOL    HW122103   0.353   0.653   2.995
 7068SOL    HW222104   0.503   0.710   2.969
 7069SOL     OW22105   1.806   4.743   5.265
 7069SOL    HW122106   1.807   4.652   5.306
 7069SOL    HW222107   1.730   4.751   5.201
 7070SOL     OW22108   5.493   5.220   3.268
 7070SOL    HW122109   5.438   5.279   3.210
 7070SOL    HW222110   5.590   5.229   3.242
 7071SOL     OW22111   1.651   6.428   5.223
 7071SOL    HW122112   1.665   6.405   5.319
 7071SOL    HW222113   1.645   6.527   5.213
 7072SOL     OW22114   0.430   0.159   6.375
 7072SOL    HW122115   0.476   0.233   6.424
 7072SOL    HW222116   0.491   0.125   6.303
 7073SOL     OW22117   1.590   2.363   0.095
 7073SOL    HW122118   1.587   2.346   7.022
 7073SOL    HW222119   1.507   2.411   0.123
 7074SOL     OW22120   3.813   1.417   6.596
 7074SOL    HW122121   3.738   1.472   6.633
 7074SOL    HW222122   3.882   1.478   6.557
 7075SOL     OW22123   0.969   6.269   2.906
 7075SOL    HW122124   0.878   6.273   2.947
 7075SOL    HW222125   1.012   6.359   2.912
 7076SOL     OW22126   3.579   1.247   6.245
 7076SOL    HW122127   3.580   1.147   6.245
 7076SOL    HW222128   3.527   1.279   6.324
 7077SOL     OW22129   1.308   5.699   6.334
 7077SOL    HW122130   1.334   5.644   6.255
 7077SOL    HW222131   1.238   5.765   6.307
 7078SOL     OW22132   0.559   0.809   1.688
 7078SOL    HW122133   0.577   0.907   1.698
 7078SOL    HW222134   0.466   0.789   1.720
 7079SOL     OW22135   5.264   6.460   4.314
 7079SOL    HW122136   5.238   6.415   4.400
 7079SOL    HW222137   5.219   6.549   4.308
 7080SOL     OW22138   5.842   0.771   3.565
 7080SOL    HW122139   5.854   0.690   3.623
 7080SOL    HW222140   5.746   0.777   3.536
 7081SOL     OW22141   4.701   0.993   4.446
 7081SOL    HW122142   4.711   0.895   4.433
 7081SOL    HW222143   4.784   1.029   4.489
 7082SOL     OW22144   6.067   1.013   0.287
 7082SOL    HW122145   5.999   1.076   0.325
 7082SOL    HW222146   6.036   0.919   0.299
 7083SOL     OW22147   4.203   0.367   5.221
 7083SOL    HW122148   4.253   0.311   5.154
 7083SOL    HW222149   4.199   0.318   5.308
 7084SOL     OW22150   6.162   5.814   0.295
 7084SOL    HW122151   6.200   5.872   0.223
 7084SOL    HW222152   6.176   5.717   0.271
 7085SOL     OW22153   4.973   1.712   1.600
 7085SOL    HW122154   4.934   1.802   1.616
 7085SOL    HW222155   5.017   1.709   1.511
 7086SOL     OW22156   1.311   0.979   5.894
 7086SOL    HW122157   1.351   0.943   5.979
 7086SOL    HW222158   1.383   0.994   5.827
 7087SOL     OW22159   2.231   2.657   4.814
 7087SOL    HW122160   2.273   2.645   4.904
 7087SOL    HW222161   2.253   2.749   4.779
 7088SOL     OW22162   6.729   2.087   4.428
 7088SOL    HW122163   6.731   2.011   4.363
 7088SOL    HW222164   6.819   2.131   4.430
 7089SOL     OW22165   3.192   2.059   1.896
 7089SOL    HW122166   3.144   2.053   1.984
 7089SOL    HW222167   3.150   2.129   1.839
 7090SOL     OW22168   3.032   1.434   5.069
 7090SOL    HW122169   3.004   1.494   4.995
 7090SOL    HW222170   3.126   1.403   5.054
 7091SOL     OW22171   6.878   6.087   0.535
 7091SOL    HW122172   6.940   6.051   0.465
 7091SOL    HW222173   6.784   6.087   0.501
 7092SOL     OW22174   3.648   1.904   0.616
 7092SOL    HW122175   3.727   1.844   0.631
 7092SOL    HW222176   3.680   1.999   0.611
 7093SOL     OW22177   3.943   3.054   6.472
 7093SOL    HW122178   3.987   3.141   6.496
 7093SOL    HW222179   3.849   3.054   6.504
 7094SOL     OW22180   6.297   0.937   6.550
 7094SOL    HW122181   6.392   0.945   6.581
 7094SOL    HW222182   6.261   0.848   6.576
 7095SOL     OW22183   1.212   4.120   1.291
 7095SOL    HW122184   1.194   4.054   1.363
 7095SOL    HW222185   1.227   4.210   1.332
 7096SOL     OW22186   3.710   6.766   3.170
 7096SOL    HW122187   3.804   6.744   3.146
 7096SOL    HW222188   3.653   6.767   3.088
 7097SOL     OW22189   1.729   1.289   1.572
 7097SOL    HW122190   1.707   1.384   1.595
 7097SOL    HW222191   1.741   1.280   1.473
 7098SOL     OW22192   1.322   0.466   6.017
 7098SOL    HW122193   1.371   0.379   6.017
 7098SOL    HW222194   1.365   0.528   6.082
 7099SOL     OW22195   6.921   1.197   5.202
 7099SOL    HW122196   6.972   1.149   5.273
 7099SOL    HW222197   6.982   1.260   5.153
 7100SOL     OW22198   5.551   1.835   1.437
 7100SOL    HW122199   5.463   1.879   1.418
 7100SOL    HW222200   5.543   1.736   1.420
 7101SOL     OW22201   1.829   0.621   5.017
 7101SOL    HW122202   1.830   0.701   4.957
 7101SOL    HW222203   1.889   0.637   5.095
 7102SOL     OW22204   4.415   2.396   0.662
 7102SOL    HW122205   4.321   2.426   0.674
 7102SOL    HW222206   4.458   2.386   0.752
 7103SOL     OW22207   2.155   0.046   5.837
 7103SOL    HW122208   2.190   0.060   5.929
 7103SOL    HW222209   2.195   0.115   5.776
 7104SOL     OW22210   0.607   3.017   1.471
 7104SOL    HW122211   0.610   2.946   1.400
 7104SOL    HW222212   0.648   3.101   1.436
 7105SOL     OW22213   2.377   2.755   5.474
 7105SOL    HW122214   2.329   2.833   5.431
 7105SOL    HW222215   2.468   2.747   5.435
 7106SOL     OW22216   2.933   2.849   5.357
 7106SOL    HW122217   3.018   2.880   5.399
 7106SOL    HW222218   2.931   2.749   5.356
 7107SOL     OW22219   1.439   1.099   0.210
 7107SOL    HW122220   1.357   1.071   0.260
 7107SOL    HW222221   1.435   1.197   0.192
 7108SOL     OW22222   4.462   6.675   1.866
 7108SOL    HW122223   4.448   6.646   1.961
 7108SOL    HW222224   4.560   6.680   1.847
 7109SOL     OW22225   4.736   5.943   6.724
 7109SOL    HW122226   4.672   5.944   6.802
 7109SOL    HW222227   4.698   5.998   6.650
 7110SOL     OW22228   3.752   4.948   4.367
 7110SOL    HW122229   3.807   4.958   4.450
 7110SOL    HW222230   3.655   4.945   4.392
 7111SOL     OW22231   1.153   2.546   3.617
 7111SOL    HW122232   1.109   2.632   3.591
 7111SOL    HW222233   1.161   2.542   3.717
 7112SOL     OW22234   1.741   6.304   3.091
 7112SOL    HW122235   1.656   6.312   3.143
 7112SOL    HW222236   1.771   6.208   3.089
 7113SOL     OW22237   3.855   3.916   5.948
 7113SOL    HW122238   3.892   3.910   6.041
 7113SOL    HW222239   3.786   3.845   5.935
 7114SOL     OW22240   3.854   6.571   0.581
 7114SOL    HW122241   3.831   6.656   0.628
 7114SOL    HW222242   3.933   6.529   0.625
 7115SOL     OW22243   4.059   2.770   1.072
 7115SOL    HW122244   4.111   2.692   1.038
 7115SOL    HW222245   4.096   2.855   1.033
 7116SOL     OW22246   6.105   4.407   3.625
 7116SOL    HW122247   6.199   4.430   3.651
 7116SOL    HW222248   6.089   4.310   3.643
 7117SOL     OW22249   5.376   6.892   2.412
 7117SOL    HW122250   5.347   6.881   2.507
 7117SOL    HW222251   5.296   6.912   2.355
 7118SOL     OW22252   6.630   3.524   3.625
 7118SOL    HW122253   6.697   3.548   3.555
 7118SOL    HW222254   6.589   3.435   3.603
 7119SOL     OW22255   1.090   2.079   2.703
 7119SOL    HW122256   1.091   2.115   2.797
 7119SOL    HW222257   1.004   2.103   2.660
 7120SOL     OW22258   4.837   6.219   3.926
 7120SOL    HW122259   4.910   6.262   3.979
 7120SOL    HW222260   4.780   6.290   3.884
 7121SOL     OW22261   2.172   6.436   1.216
 7121SOL    HW122262   2.151   6.520   1.268
 7121SOL    HW222263   2.253   6.451   1.160
 7122SOL     OW22264   6.949   5.900   0.323
 7122SOL    HW122265   6.990   5.828   0.379
 7122SOL    HW222266   6.850   5.890   0.322
 7123SOL     OW22267   3.035   5.162   0.961
 7123SOL    HW122268   3.017   5.167   0.863
 7123SOL    HW222269   3.092   5.082   0.981
 7124SOL     OW22270   0.258   5.993   6.658
 7124SOL    HW122271   0.224   5.899   6.658
 7124SOL    HW222272   0.189   6.053   6.618
 7125SOL     OW22273   1.137   6.113   3.438
 7125SOL    HW122274   1.212   6.085   3.378
 7125SOL    HW222275   1.170   6.117   3.533
 7126SOL     OW22276   1.654   3.287   1.426
 7126SOL    HW122277   1.684   3.327   1.513
 7126SOL    HW222278   1.571   3.333   1.395
 7127SOL     OW22279   2.369   0.538   5.176
 7127SOL    HW122280   2.317   0.487   5.107
 7127SOL    HW222281   2.356   0.636   5.161
 7128SOL     OW22282   3.184   3.402   2.619
 7128SOL    HW122283   3.096   3.379   2.578
 7128SOL    HW222284   3.234   3.465   2.559
 7129SOL     OW22285   3.153   2.142   0.738
 7129SOL    HW122286   3.203   2.085   0.805
 7129SOL    HW222287   3.161   2.238   0.764
 7130SOL     OW22288   1.829   0.457   2.874
 7130SOL    HW122289   1.803   0.410   2.959
 7130SOL    HW222290   1.897   0.527   2.895
 7131SOL     OW22291   2.497   1.257   3.507
 7131SOL    HW122292   2.399   1.276   3.516
 7131SOL    HW222293   2.510   1.186   3.438
 7132SOL     OW22294   2.945   3.782   2.253
 7132SOL    HW122295   3.032   3.736   2.273
 7132SOL    HW222296   2.964   3.873   2.215
 7133SOL     OW22297   6.543   4.232   1.465
 7133SOL    HW122298   6.570   4.193   1.553
 7133SOL    HW222299   6.461   4.286   1.476
 7134SOL     OW22300   4.660   4.555   2.193
 7134SOL    HW122301   4.599   4.567   2.115
 7134SOL    HW222302   4.685   4.645   2.229
 7135SOL     OW22303   0.425   1.695   5.870
 7135SOL    HW122304   0.516   1.712   5.905
 7135SOL    HW222305   0.376   1.633   5.932
 7136SOL     OW22306   1.615   1.823   6.713
 7136SOL    HW122307   1.531   1.829   6.660
 7136SOL    HW222308   1.675   1.753   6.674
 7137SOL     OW22309   5.304   2.083   4.872
 7137SOL    HW122310   5.395   2.111   4.843
 7137SOL    HW222311   5.246   2.164   4.884
 7138SOL     OW22312   2.431   2.278   6.545
 7138SOL    HW122313   2.414   2.202   6.608
 7138SOL    HW222314   2.375   2.357   6.571
 7139SOL     OW22315   2.375   1.821   0.252
 7139SOL    HW122316   2.454   1.861   0.205
 7139SOL    HW222317   2.405   1.765   0.329
 7140SOL     OW22318   6.766   4.582   4.313
 7140SOL    HW122319   6.841   4.524   4.345
 7140SOL    HW222320   6.758   4.573   4.214
 7141SOL     OW22321   0.856   0.155   2.084
 7141SOL    HW122322   0.835   0.066   2.044
 7141SOL    HW222323   0.864   0.223   2.011
 7142SOL     OW22324   3.436   6.337   3.834
 7142SOL    HW122325   3.376   6.262   3.860
 7142SOL    HW222326   3.487   6.313   3.751
 7143SOL     OW22327   1.527   2.423   3.611
 7143SOL    HW122328   1.585   2.498   3.644
 7143SOL    HW222329   1.531   2.347   3.675
 7144SOL     OW22330   1.322   3.535   3.616
 7144SOL    HW122331   1.404   3.592   3.625
 7144SOL    HW222332   1.290   3.509   3.707
 7145SOL     OW22333   4.110   5.643   6.647
 7145SOL    HW122334   4.048   5.618   6.573
 7145SOL    HW222335   4.117   5.568   6.712
 7146SOL     OW22336   3.421   5.050   1.857
 7146SOL    HW122337   3.333   5.019   1.819
 7146SOL    HW222338   3.437   5.145   1.832
 7147SOL     OW22339   0.392   0.941   3.296
 7147SOL    HW122340   0.405   1.009   3.368
 7147SOL    HW222341   0.297   0.908   3.298
 7148SOL     OW22342   6.406   1.768   0.216
 7148SOL    HW122343   6.386   1.670   0.209
 7148SOL    HW222344   6.456   1.797   0.134
 7149SOL     OW22345   1.095   0.609   4.601
 7149SOL    HW122346   1.049   0.560   4.527
 7149SOL    HW222347   1.180   0.649   4.567
 7150SOL     OW22348   5.798   2.999   5.915
 7150SOL    HW122349   5.787   3.030   6.009
 7150SOL    HW222350   5.892   3.019   5.884
 7151SOL     OW22351   1.878   7.015   6.885
 7151SOL    HW122352   1.859   0.085   6.908
 7151SOL    HW222353   1.792   6.969   6.861
 7152SOL     OW22354   1.431   2.284   4.883
 7152SOL    HW122355   1.492   2.226   4.938
 7152SOL    HW222356   1.369   2.226   4.831
 7153SOL     OW22357   4.243   1.948   3.062
 7153SOL    HW122358   4.317   1.907   3.008
 7153SOL    HW222359   4.163   1.889   3.058
 7154SOL     OW22360   3.460   0.252   4.649
 7154SOL    HW122361   3.533   0.318   4.666
 7154SOL    HW222362   3.495   0.160   4.664
 7155SOL     OW22363   2.295   1.387   3.810
 7155SOL    HW122364   2.380   1.405   3.860
 7155SOL    HW222365   2.306   1.416   3.715
 7156SOL     OW22366   2.450   5.678   5.476
 7156SOL    HW122367   2.499   5.665   5.390
 7156SOL    HW222368   2.359   5.636   5.470
 7157SOL     OW22369   4.948   4.809   0.265
 7157SOL    HW122370   4.901   4.894   0.242
 7157SOL    HW222371   4.964   4.756   0.182
 7158SOL     OW22372   4.075   0.573   3.344
 7158SOL    HW122373   3.996   0.593   3.401
 7158SOL    HW222374   4.079   0.638   3.268
 7159SOL     OW22375   1.431   6.350   6.843
 7159SOL    HW122376   1.362   6.378   6.910
 7159SOL    HW222377   1.502   6.420   6.838
 7160SOL     OW22378   6.703   0.748   2.280
 7160SOL    HW122379   6.780   0.705   2.325
 7160SOL    HW222380   6.632   0.680   2.262
 7161SOL     OW22381   3.369   4.133   4.704
 7161SOL    HW122382   3.435   4.168   4.637
 7161SOL    HW222383   3.407   4.141   4.796
 7162SOL     OW22384   3.415   5.028   4.081
 7162SOL    HW122385   3.386   5.073   4.166
 7162SOL    HW222386   3.336   4.982   4.039
 7163SOL     OW22387   1.106   6.373   3.688
 7163SOL    HW122388   1.144   6.282   3.704
 7163SOL    HW222389   1.178   6.435   3.659
 7164SOL     OW22390   3.173   1.777   4.568
 7164SOL    HW122391   3.208   1.869   4.583
 7164SOL    HW222392   3.208   1.716   4.640
 7165SOL     OW22393   4.250   5.065   2.194
 7165SOL    HW122394   4.254   5.162   2.215
 7165SOL    HW222395   4.159   5.042   2.159
 7166SOL     OW22396   3.530   6.477   2.144
 7166SOL    HW122397   3.546   6.545   2.073
 7166SOL    HW222398   3.482   6.521   2.221
 7167SOL     OW22399   5.605   3.613   0.621
 7167SOL    HW122400   5.561   3.703   0.625
 7167SOL    HW222401   5.704   3.624   0.634
 7168SOL     OW22402   6.996   1.541   4.409
 7168SOL    HW122403   0.000   1.460   4.459
 7168SOL    HW222404   6.920   1.517   4.349
 7169SOL     OW22405   2.508   2.683   6.776
 7169SOL    HW122406   2.591   2.706   6.725
 7169SOL    HW222407   2.444   2.759   6.770
 7170SOL     OW22408   5.173   3.740   4.292
 7170SOL    HW122409   5.094   3.680   4.281
 7170SOL    HW222410   5.144   3.835   4.282
 7171SOL     OW22411   3.656   3.946   5.624
 7171SOL    HW122412   3.587   3.874   5.634
 7171SOL    HW222413   3.741   3.917   5.669
 7172SOL     OW22414   6.814   6.005   1.313
 7172SOL    HW122415   6.791   5.910   1.291
 7172SOL    HW222416   6.769   6.031   1.399
 7173SOL     OW22417   6.697   6.758   4.555
 7173SOL    HW122418   6.774   6.771   4.617
 7173SOL    HW222419   6.632   6.833   4.566
 7174SOL     OW22420   1.069   6.016   5.914
 7174SOL    HW122421   1.151   6.072   5.912
 7174SOL    HW222422   1.046   5.985   5.822
 7175SOL     OW22423   6.525   3.560   5.302
 7175SOL    HW122424   6.479   3.549   5.214
 7175SOL    HW222425   6.569   3.651   5.305
 7176SOL     OW22426   1.316   3.315   1.136
 7176SOL    HW122427   1.257   3.282   1.062
 7176SOL    HW222428   1.411   3.317   1.106
 7177SOL     OW22429   0.774   5.214   1.384
 7177SOL    HW122430   0.762   5.173   1.474
 7177SOL    HW222431   0.767   5.143   1.314
 7178SOL     OW22432   6.145   0.502   6.394
 7178SOL    HW122433   6.221   0.567   6.400
 7178SOL    HW222434   6.066   0.540   6.441
 7179SOL     OW22435   0.429   3.911   5.710
 7179SOL    HW122436   0.366   3.984   5.683
 7179SOL    HW222437   0.417   3.833   5.649
 7180SOL     OW22438   6.632   0.400   2.374
 7180SOL    HW122439   6.670   0.452   2.451
 7180SOL    HW222440   6.596   0.464   2.306
 7181SOL     OW22441   5.391   5.663   2.318
 7181SOL    HW122442   5.374   5.596   2.391
 7181SOL    HW222443   5.472   5.716   2.340
 7182SOL     OW22444   4.248   3.687   6.135
 7182SOL    HW122445   4.324   3.642   6.182
 7182SOL    HW222446   4.223   3.634   6.054
 7183SOL     OW22447   2.209   2.891   2.926
 7183SOL    HW122448   2.283   2.829   2.903
 7183SOL    HW222449   2.175   2.936   2.843
 7184SOL     OW22450   2.218   5.160   3.268
 7184SOL    HW122451   2.231   5.169   3.170
 7184SOL    HW222452   2.284   5.095   3.305
 7185SOL     OW22453   4.927   2.276   6.755
 7185SOL    HW122454   4.978   2.308   6.835
 7185SOL    HW222455   4.837   2.245   6.784
 7186SOL     OW22456   0.910   6.606   4.724
 7186SOL    HW122457   0.858   6.656   4.655
 7186SOL    HW222458   0.920   6.510   4.695
 7187SOL     OW22459   1.798   5.121   1.966
 7187SOL    HW122460   1.797   5.054   1.892
 7187SOL    HW222461   1.737   5.092   2.038
 7188SOL     OW22462   5.154   0.745   1.439
 7188SOL    HW122463   5.152   0.650   1.469
 7188SOL    HW222464   5.144   0.805   1.519
 7189SOL     OW22465   5.805   0.648   5.790
 7189SOL    HW122466   5.770   0.660   5.697
 7189SOL    HW222467   5.880   0.581   5.788
 7190SOL     OW22468   4.790   5.454   2.865
 7190SOL    HW122469   4.787   5.358   2.837
 7190SOL    HW222470   4.697   5.489   2.877
 7191SOL     OW22471   0.832   2.714   1.240
 7191SOL    HW122472   0.775   2.648   1.191
 7191SOL    HW222473   0.888   2.667   1.308
 7192SOL     OW22474   3.177   3.933   6.164
 7192SOL    HW122475   3.106   4.003   6.172
 7192SOL    HW222476   3.265   3.973   6.189
 7193SOL     OW22477   5.747   1.830   4.976
 7193SOL    HW122478   5.655   1.791   4.973
 7193SOL    HW222479   5.777   1.837   5.071
 7194SOL     OW22480   3.239   1.244   2.006
 7194SOL    HW122481   3.226   1.185   1.927
 7194SOL    HW222482   3.156   1.298   2.021
 7195SOL     OW22483   0.575   0.077   2.720
 7195SOL    HW122484   0.492   0.124   2.688
 7195SOL    HW222485   0.644   0.144   2.745
 7196SOL     OW22486   3.847   3.586   1.670
 7196SOL    HW122487   3.903   3.551   1.745
 7196SOL    HW222488   3.903   3.645   1.612
 7197SOL     OW22489   1.854   0.877   4.129
 7197SOL    HW122490   1.901   0.919   4.051
 7197SOL    HW222491   1.860   0.938   4.208
 7198SOL     OW22492   0.361   0.005   5.772
 7198SOL    HW122493   0.276   0.006   5.825
 7198SOL    HW222494   0.375   6.940   5.733
 7199SOL     OW22495   6.215   5.539   1.970
 7199SOL    HW122496   6.185   5.479   1.895
 7199SOL    HW222497   6.233   5.631   1.934
 7200SOL     OW22498   1.439   2.427   2.346
 7200SOL    HW122499   1.420   2.474   2.432
 7200SOL    HW222500   1.502   2.351   2.363
 7201SOL     OW22501   1.764   4.314   4.049
 7201SOL    HW122502   1.808   4.316   3.960
 7201SOL    HW222503   1.803   4.240   4.105
 7202SOL     OW22504   2.274   6.987   6.108
 7202SOL    HW122505   2.301   6.908   6.054
 7202SOL    HW222506   2.211   6.957   6.181
 7203SOL     OW22507   5.531   0.057   0.196
 7203SOL    HW122508   5.465   0.083   0.125
 7203SOL    HW222509   5.588   0.137   0.219
 7204SOL     OW22510   0.047   2.590   2.777
 7204SOL    HW122511   0.038   2.492   2.759
 7204SOL    HW222512   6.998   2.619   2.837
 7205SOL     OW22513   1.354   3.839   1.565
 7205SOL    HW122514   1.270   3.888   1.588
 7205SOL    HW222515   1.421   3.903   1.528
 7206SOL     OW22516   6.347   0.974   1.324
 7206SOL    HW122517   6.347   0.963   1.423
 7206SOL    HW222518   6.436   0.947   1.287
 7207SOL     OW22519   4.048   6.914   1.437
 7207SOL    HW122520   4.012   7.006   1.453
 7207SOL    HW222521   4.053   6.896   1.339
 7208SOL     OW22522   2.636   0.633   5.188
 7208SOL    HW122523   2.582   0.552   5.213
 7208SOL    HW222524   2.655   0.687   5.270
 7209SOL     OW22525   3.202   3.678   5.120
 7209SOL    HW122526   3.123   3.625   5.090
 7209SOL    HW222527   3.172   3.745   5.188
 7210SOL     OW22528   4.452   6.785   4.137
 7210SOL    HW122529   4.461   6.860   4.071
 7210SOL    HW222530   4.508   6.708   4.107
 7211SOL     OW22531   0.872   5.147   2.560
 7211SOL    HW122532   0.873   5.086   2.480
 7211SOL    HW222533   0.911   5.236   2.534
 7212SOL     OW22534   5.492   6.885   3.320
 7212SOL    HW122535   5.517   6.982   3.316
 7212SOL    HW222536   5.430   6.864   3.244
 7213SOL     OW22537   5.846   6.150   5.947
 7213SOL    HW122538   5.751   6.183   5.948
 7213SOL    HW222539   5.889   6.174   5.860
 7214SOL     OW22540   1.236   5.097   5.814
 7214SOL    HW122541   1.305   5.155   5.771
 7214SOL    HW222542   1.170   5.155   5.862
 7215SOL     OW22543   1.195   3.189   1.353
 7215SOL    HW122544   1.267   3.136   1.396
 7215SOL    HW222545   1.233   3.244   1.279
 7216SOL     OW22546   2.812   1.555   2.742
 7216SOL    HW122547   2.872   1.500   2.684
 7216SOL    HW222548   2.863   1.587   2.822
 7217SOL     OW22549   0.314   3.604   1.849
 7217SOL    HW122550   0.244   3.558   1.794
 7217SOL    HW222551   0.389   3.540   1.866
 7218SOL     OW22552   6.264   2.933   3.852
 7218SOL    HW122553   6.323   2.984   3.915
 7218SOL    HW222554   6.236   2.993   3.777
 7219SOL     OW22555   2.711   1.214   1.450
 7219SOL    HW122556   2.641   1.210   1.379
 7219SOL    HW222557   2.687   1.150   1.524
 7220SOL     OW22558   0.131   1.918   3.211
 7220SOL    HW122559   0.050   1.888   3.160
 7220SOL    HW222560   0.212   1.910   3.153
 7221SOL     OW22561   6.868   4.062   4.745
 7221SOL    HW122562   6.805   4.022   4.678
 7221SOL    HW222563   6.962   4.045   4.716
 7222SOL     OW22564   6.658   0.037   2.839
 7222SOL    HW122565   6.724   0.070   2.906
 7222SOL    HW222566   6.573   0.088   2.847
 7223SOL     OW22567   4.646   1.196   4.135
 7223SOL    HW122568   4.581   1.120   4.133
 7223SOL    HW222569   4.629   1.254   4.214
 7224SOL     OW22570   5.602   1.601   3.502
 7224SOL    HW122571   5.661   1.593   3.582
 7224SOL    HW222572   5.630   1.680   3.448
 7225SOL     OW22573   2.821   0.512   1.392
 7225SOL    HW122574   2.842   0.609   1.397
 7225SOL    HW222575   2.903   0.458   1.413
 7226SOL     OW22576   5.976   6.497   5.423
 7226SOL    HW122577   5.888   6.539   5.401
 7226SOL    HW222578   5.998   6.427   5.355
 7227SOL     OW22579   0.413   3.084   6.121
 7227SOL    HW122580   0.411   2.995   6.076
 7227SOL    HW222581   0.430   3.156   6.053
 7228SOL     OW22582   1.741   0.209   2.740
 7228SOL    HW122583   1.709   0.264   2.663
 7228SOL    HW222584   1.774   0.269   2.813
 7229SOL     OW22585   6.758   0.033   3.408
 7229SOL    HW122586   6.739   6.970   3.452
 7229SOL    HW222587   6.853   0.035   3.377
 7230SOL     OW22588   6.382   5.436   1.133
 7230SOL    HW122589   6.457   5.494   1.164
 7230SOL    HW222590   6.413   5.340   1.131
 7231SOL     OW22591   5.513   0.528   0.163
 7231SOL    HW122592   5.566   0.579   0.095
 7231SOL    HW222593   5.419   0.561   0.163
 7232SOL     OW22594   3.111   4.104   0.793
 7232SOL    HW122595   3.134   4.022   0.741
 7232SOL    HW222596   3.178   4.118   0.865
 7233SOL     OW22597   0.921   2.082   5.581
 7233SOL    HW122598   0.865   2.161   5.557
 7233SOL    HW222599   0.912   2.063   5.679
 7234SOL     OW22600   5.597   2.716   4.053
 7234SOL    HW122601   5.608   2.650   3.979
 7234SOL    HW222602   5.620   2.807   4.020
 7235SOL     OW22603   6.314   2.756   5.083
 7235SOL    HW122604   6.404   2.789   5.054
 7235SOL    HW222605   6.251   2.760   5.005
 7236SOL     OW22606   0.917   1.645   3.339
 7236SOL    HW122607   0.868   1.559   3.325
 7236SOL    HW222608   1.014   1.632   3.319
 7237SOL     OW22609   5.718   6.239   4.974
 7237SOL    HW122610   5.767   6.167   5.025
 7237SOL    HW222611   5.758   6.248   4.883
 7238SOL     OW22612   1.461   0.115   2.431
 7238SOL    HW122613   1.558   0.122   2.451
 7238SOL    HW222614   1.442   0.153   2.341
 7239SOL     OW22615   4.645   2.169   2.440
 7239SOL    HW122616   4.592   2.249   2.467
 7239SOL    HW222617   4.650   2.164   2.340
 7240SOL     OW22618   3.309   3.301   2.879
 7240SOL    HW122619   3.239   3.273   2.813
 7240SOL    HW222620   3.268   3.308   2.970
 7241SOL     OW22621   4.680   0.003   4.506
 7241SOL    HW122622   4.652   0.027   4.599
 7241SOL    HW222623   4.775   0.029   4.491
 7242SOL     OW22624   6.598   6.114   0.488
 7242SOL    HW122625   6.596   6.044   0.417
 7242SOL    HW222626   6.533   6.090   0.560
 7243SOL     OW22627   0.593   6.107   0.960
 7243SOL    HW122628   0.502   6.066   0.970
 7243SOL    HW222629   0.661   6.035   0.953
 7244SOL     OW22630   5.837   2.087   1.778
 7244SOL    HW122631   5.745   2.108   1.745
 7244SOL    HW222632   5.900   2.080   1.700
 7245SOL     OW22633   5.719   1.826   3.393
 7245SOL    HW122634   5.667   1.898   3.438
 7245SOL    HW222635   5.807   1.864   3.363
 7246SOL     OW22636   1.159   5.745   5.316
 7246SOL    HW122637   1.181   5.647   5.320
 7246SOL    HW222638   1.208   5.787   5.240
 7247SOL     OW22639   3.848   5.825   4.164
 7247SOL    HW122640   3.817   5.826   4.259
 7247SOL    HW222641   3.843   5.732   4.128
 7248SOL     OW22642   3.287   1.331   4.999
 7248SOL    HW122643   3.249   1.257   4.942
 7248SOL    HW222644   3.372   1.299   5.042
 7249SOL     OW22645   4.638   3.053   6.285
 7249SOL    HW122646   4.546   3.047   6.323
 7249SOL    HW222647   4.673   2.961   6.266
 7250SOL     OW22648   3.080   2.980   0.063
 7250SOL    HW122649   3.007   3.001   0.128
 7250SOL    HW222650   3.123   3.065   0.034
 7251SOL     OW22651   5.760   1.244   5.772
 7251SOL    HW122652   5.824   1.267   5.699
 7251SOL    HW222653   5.710   1.161   5.747
 7252SOL     OW22654   4.634   3.396   5.331
 7252SOL    HW122655   4.656   3.470   5.268
 7252SOL    HW222656   4.683   3.313   5.304
 7253SOL     OW22657   5.205   4.726   6.639
 7253SOL    HW122658   5.153   4.756   6.559
 7253SOL    HW222659   5.198   4.794   6.711
 7254SOL     OW22660   5.073   6.370   5.281
 7254SOL    HW122661   5.145   6.438   5.281
 7254SOL    HW222662   5.095   6.297   5.346
 7255SOL     OW22663   3.555   3.180   2.943
 7255SOL    HW122664   3.473   3.231   2.916
 7255SOL    HW222665   3.529   3.086   2.964
 7256SOL     OW22666   3.206   5.790   3.332
 7256SOL    HW122667   3.140   5.720   3.359
 7256SOL    HW222668   3.177   5.879   3.369
 7257SOL     OW22669   6.096   5.407   2.628
 7257SOL    HW122670   6.079   5.321   2.676
 7257SOL    HW222671   6.126   5.476   2.695
 7258SOL     OW22672   2.803   0.567   6.188
 7258SOL    HW122673   2.840   0.485   6.231
 7258SOL    HW222674   2.762   0.626   6.257
 7259SOL     OW22675   3.367   4.124   6.145
 7259SOL    HW122676   3.388   4.212   6.187
 7259SOL    HW222677   3.314   4.140   6.062
 7260SOL     OW22678   4.324   2.190   2.741
 7260SOL    HW122679   4.304   2.093   2.725
 7260SOL    HW222680   4.332   2.237   2.654
 7261SOL     OW22681   2.526   4.900   1.162
 7261SOL    HW122682   2.468   4.824   1.192
 7261SOL    HW222683   2.597   4.916   1.230
 7262SOL     OW22684   5.984   0.417   4.608
 7262SOL    HW122685   6.015   0.358   4.533
 7262SOL    HW222686   6.035   0.503   4.607
 7263SOL     OW22687   5.209   5.100   1.201
 7263SOL    HW122688   5.119   5.140   1.184
 7263SOL    HW222689   5.260   5.093   1.115
 7264SOL     OW22690   0.092   7.025   4.470
 7264SOL    HW122691   7.023   7.022   4.439
 7264SOL    HW222692   0.095   0.029   4.566
 7265SOL     OW22693   4.582   2.992   6.846
 7265SOL    HW122694   4.520   2.917   6.869
 7265SOL    HW222695   4.601   3.046   6.928
 7266SOL     OW22696   3.998   1.489   2.965
 7266SOL    HW122697   3.955   1.577   2.982
 7266SOL    HW222698   3.995   1.433   3.047
 7267SOL     OW22699   4.961   2.196   4.001
 7267SOL    HW122700   5.057   2.208   3.978
 7267SOL    HW222701   4.950   2.120   4.064
 7268SOL     OW22702   4.143   6.519   0.061
 7268SOL    HW122703   4.115   6.607   0.100
 7268SOL    HW222704   4.204   6.472   0.125
 7269SOL     OW22705   1.568   0.023   2.796
 7269SOL    HW122706   1.584   7.000   2.882
 7269SOL    HW222707   1.644   0.086   2.779
 7270SOL     OW22708   3.327   2.502   1.735
 7270SOL    HW122709   3.348   2.413   1.773
 7270SOL    HW222710   3.358   2.507   1.640
 7271SOL     OW22711   5.829   5.454   3.574
 7271SOL    HW122712   5.825   5.551   3.550
 7271SOL    HW222713   5.893   5.441   3.649
 7272SOL     OW22714   5.981   1.608   1.861
 7272SOL    HW122715   5.912   1.548   1.903
 7272SOL    HW222716   5.935   1.681   1.811
 7273SOL     OW22717   6.287   5.212   4.809
 7273SOL    HW122718   6.261   5.186   4.716
 7273SOL    HW222719   6.249   5.146   4.874
 7274SOL     OW22720   5.619   5.000   3.671
 7274SOL    HW122721   5.622   5.090   3.628
 7274SOL    HW222722   5.561   5.004   3.753
 7275SOL     OW22723   6.036   6.603   2.195
 7275SOL    HW122724   6.040   6.531   2.126
 7275SOL    HW222725   6.115   6.664   2.184
 7276SOL     OW22726   3.942   1.735   2.677
 7276SOL    HW122727   3.971   1.808   2.739
 7276SOL    HW222728   3.880   1.673   2.725
 7277SOL     OW22729   5.985   2.444   3.981
 7277SOL    HW122730   5.914   2.438   4.050
 7277SOL    HW222731   6.025   2.536   3.982
 7278SOL     OW22732   3.606   0.970   3.343
 7278SOL    HW122733   3.572   1.013   3.427
 7278SOL    HW222734   3.677   0.904   3.366
 7279SOL     OW22735   3.540   3.893   1.772
 7279SOL    HW122736   3.550   3.861   1.678
 7279SOL    HW222737   3.455   3.857   1.810
 7280SOL     OW22738   6.680   1.598   5.802
 7280SOL    HW122739   6.719   1.633   5.716
 7280SOL    HW222740   6.737   1.627   5.879
 7281SOL     OW22741   3.748   6.502   3.933
 7281SOL    HW122742   3.757   6.468   3.839
 7281SOL    HW222743   3.651   6.518   3.954
 7282SOL     OW22744   0.644   3.952   1.297
 7282SOL    HW122745   0.687   4.042   1.287
 7282SOL    HW222746   0.678   3.908   1.380
 7283SOL     OW22747   2.861   6.215   3.021
 7283SOL    HW122748   2.877   6.312   3.007
 7283SOL    HW222749   2.947   6.165   3.012
 7284SOL     OW22750   0.716   0.408   3.673
 7284SOL    HW122751   0.699   0.497   3.715
 7284SOL    HW222752   0.731   0.340   3.745
 7285SOL     OW22753   5.059   2.462   1.609
 7285SOL    HW122754   5.145   2.477   1.658
 7285SOL    HW222755   5.001   2.543   1.618
 7286SOL     OW22756   6.526   1.333   4.687
 7286SOL    HW122757   6.503   1.427   4.710
 7286SOL    HW222758   6.592   1.331   4.612
 7287SOL     OW22759   3.001   1.755   4.369
 7287SOL    HW122760   3.000   1.788   4.275
 7287SOL    HW222761   3.078   1.795   4.418
 7288SOL     OW22762   2.845   2.003   1.723
 7288SOL    HW122763   2.900   1.922   1.746
 7288SOL    HW222764   2.863   2.030   1.628
 7289SOL     OW22765   6.526   2.431   1.385
 7289SOL    HW122766   6.525   2.354   1.450
 7289SOL    HW222767   6.480   2.509   1.426
 7290SOL     OW22768   3.293   2.100   4.917
 7290SOL    HW122769   3.374   2.076   4.971
 7290SOL    HW222770   3.232   2.156   4.972
 7291SOL     OW22771   0.965   0.859   0.450
 7291SOL    HW122772   0.981   0.823   0.358
 7291SOL    HW222773   0.885   0.919   0.448
 7292SOL     OW22774   4.106   1.358   2.447
 7292SOL    HW122775   4.136   1.263   2.448
 7292SOL    HW222776   4.059   1.378   2.361
 7293SOL     OW22777   6.395   1.274   4.259
 7293SOL    HW122778   6.375   1.245   4.352
 7293SOL    HW222779   6.327   1.235   4.196
 7294SOL     OW22780   2.488   1.081   2.892
 7294SOL    HW122781   2.559   1.152   2.889
 7294SOL    HW222782   2.528   0.994   2.919
 7295SOL     OW22783   5.549   4.123   1.480
 7295SOL    HW122784   5.603   4.184   1.422
 7295SOL    HW222785   5.530   4.169   1.567
 7296SOL     OW22786   3.299   0.064   2.814
 7296SOL    HW122787   3.224   0.066   2.747
 7296SOL    HW222788   3.372   0.124   2.783
 7297SOL     OW22789   4.048   6.951   0.526
 7297SOL    HW122790   4.067   6.854   0.511
 7297SOL    HW222791   3.950   6.967   0.520
 7298SOL     OW22792   3.783   4.469   1.050
 7298SOL    HW122793   3.732   4.413   0.985
 7298SOL    HW222794   3.881   4.463   1.030
 7299SOL     OW22795   6.689   3.254   0.144
 7299SOL    HW122796   6.779   3.296   0.134
 7299SOL    HW222797   6.624   3.298   0.081
 7300SOL     OW22798   0.917   4.195   1.901
 7300SOL    HW122799   0.885   4.238   1.816
 7300SOL    HW222800   0.933   4.098   1.885
 7301SOL     OW22801   3.874   1.757   0.448
 7301SOL    HW122802   3.874   1.752   0.548
 7301SOL    HW222803   3.858   1.666   0.410
 7302SOL     OW22804   5.463   1.950   6.816
 7302SOL    HW122805   5.484   2.035   6.767
 7302SOL    HW222806   5.548   1.902   6.837
 7303SOL     OW22807   3.762   2.250   1.448
 7303SOL    HW122808   3.815   2.171   1.417
 7303SOL    HW222809   3.812   2.334   1.427
 7304SOL     OW22810   2.613   0.030   0.721
 7304SOL    HW122811   2.596   0.044   0.623
 7304SOL    HW222812   2.709   0.051   0.741
 7305SOL     OW22813   6.790   0.117   6.385
 7305SOL    HW122814   6.792   0.217   6.381
 7305SOL    HW222815   6.884   0.082   6.395
 7306SOL     OW22816   2.097   3.504   0.888
 7306SOL    HW122817   2.080   3.601   0.908
 7306SOL    HW222818   2.018   3.449   0.916
 7307SOL     OW22819   4.163   6.846   2.170
 7307SOL    HW122820   4.076   6.865   2.126
 7307SOL    HW222821   4.177   6.747   2.177
 7308SOL     OW22822   3.656   1.781   3.031
 7308SOL    HW122823   3.735   1.838   3.009
 7308SOL    HW222824   3.687   1.693   3.065
 7309SOL     OW22825   2.429   4.756   3.722
 7309SOL    HW122826   2.448   4.747   3.820
 7309SOL    HW222827   2.498   4.705   3.671
 7310SOL     OW22828   4.523   2.801   0.071
 7310SOL    HW122829   4.622   2.798   0.058
 7310SOL    HW222830   4.497   2.892   0.101
 7311SOL     OW22831   1.491   6.489   5.737
 7311SOL    HW122832   1.502   6.588   5.739
 7311SOL    HW222833   1.424   6.464   5.666
 7312SOL     OW22834   5.829   2.053   4.257
 7312SOL    HW122835   5.744   2.010   4.226
 7312SOL    HW222836   5.814   2.151   4.268
 7313SOL     OW22837   3.517   0.943   3.097
 7313SOL    HW122838   3.516   1.028   3.046
 7313SOL    HW222839   3.559   0.958   3.187
 7314SOL     OW22840   2.410   5.591   4.573
 7314SOL    HW122841   2.361   5.558   4.492
 7314SOL    HW222842   2.408   5.521   4.644
 7315SOL     OW22843   2.231   4.635   2.348
 7315SOL    HW122844   2.277   4.657   2.262
 7315SOL    HW222845   2.299   4.609   2.416
 7316SOL     OW22846   3.543   0.797   2.327
 7316SOL    HW122847   3.552   0.712   2.378
 7316SOL    HW222848   3.469   0.852   2.365
 7317SOL     OW22849   6.346   1.702   1.684
 7317SOL    HW122850   6.358   1.768   1.757
 7317SOL    HW222851   6.333   1.611   1.724
 7318SOL     OW22852   4.427   6.198   1.720
 7318SOL    HW122853   4.445   6.236   1.811
 7318SOL    HW222854   4.433   6.098   1.724
 7319SOL     OW22855   4.699   5.074   5.985
 7319SOL    HW122856   4.752   5.132   5.924
 7319SOL    HW222857   4.758   5.005   6.026
 7320SOL     OW22858   1.539   3.131   0.603
 7320SOL    HW122859   1.504   3.159   0.513
 7320SOL    HW222860   1.467   3.139   0.671
 7321SOL     OW22861   2.411   2.364   5.252
 7321SOL    HW122862   2.347   2.437   5.275
 7321SOL    HW222863   2.479   2.398   5.187
 7322SOL     OW22864   2.448   2.091   4.249
 7322SOL    HW122865   2.400   2.159   4.194
 7322SOL    HW222866   2.428   1.999   4.214
 7323SOL     OW22867   1.944   1.740   0.381
 7323SOL    HW122868   1.978   1.787   0.300
 7323SOL    HW222869   1.965   1.642   0.374
 7324SOL     OW22870   5.363   3.796   5.028
 7324SOL    HW122871   5.315   3.861   4.970
 7324SOL    HW222872   5.322   3.705   5.018
 7325SOL     OW22873   3.478   0.617   6.564
 7325SOL    HW122874   3.431   0.545   6.615
 7325SOL    HW222875   3.491   0.697   6.622
 7326SOL     OW22876   3.827   6.493   6.562
 7326SOL    HW122877   3.831   6.528   6.469
 7326SOL    HW222878   3.794   6.565   6.623
 7327SOL     OW22879   1.800   4.467   3.538
 7327SOL    HW122880   1.769   4.375   3.512
 7327SOL    HW222881   1.724   4.532   3.527
 7328SOL     OW22882   4.438   5.552   6.918
 7328SOL    HW122883   4.443   5.578   6.821
 7328SOL    HW222884   4.384   5.620   6.967
 7329SOL     OW22885   2.538   4.046   6.476
 7329SOL    HW122886   2.521   4.143   6.489
 7329SOL    HW222887   2.516   4.020   6.382
 7330SOL     OW22888   2.317   3.747   1.450
 7330SOL    HW122889   2.228   3.704   1.461
 7330SOL    HW222890   2.388   3.690   1.492
 7331SOL     OW22891   5.245   1.330   2.693
 7331SOL    HW122892   5.157   1.348   2.738
 7331SOL    HW222893   5.308   1.405   2.713
 7332SOL     OW22894   1.989   6.944   5.146
 7332SOL    HW122895   1.920   6.980   5.083
 7332SOL    HW222896   2.067   6.910   5.094
 7333SOL     OW22897   6.506   1.565   1.981
 7333SOL    HW122898   6.502   1.490   1.915
 7333SOL    HW222899   6.426   1.624   1.970
 7334SOL     OW22900   1.061   4.761   4.885
 7334SOL    HW122901   1.034   4.697   4.814
 7334SOL    HW222902   1.092   4.711   4.966
 7335SOL     OW22903   6.478   3.158   2.096
 7335SOL    HW122904   6.567   3.188   2.131
 7335SOL    HW222905   6.453   3.071   2.137
 7336SOL     OW22906   2.663   0.443   1.155
 7336SOL    HW122907   2.625   0.369   1.211
 7336SOL    HW222908   2.699   0.514   1.215
 7337SOL     OW22909   3.245   1.647   1.933
 7337SOL    HW122910   3.299   1.706   1.873
 7337SOL    HW222911   3.306   1.594   1.992
 7338SOL     OW22912   5.207   2.907   0.471
 7338SOL    HW122913   5.284   2.917   0.408
 7338SOL    HW222914   5.131   2.862   0.424
 7339SOL     OW22915   6.723   0.050   3.924
 7339SOL    HW122916   6.773   0.088   3.846
 7339SOL    HW222917   6.755   0.092   4.009
 7340SOL     OW22918   2.826   6.987   0.351
 7340SOL    HW122919   2.908   7.016   0.301
 7340SOL    HW222920   2.746   6.996   0.292
 7341SOL     OW22921   6.638   5.494   3.162
 7341SOL    HW122922   6.614   5.398   3.180
 7341SOL    HW222923   6.579   5.554   3.216
 7342SOL     OW22924   0.065   4.952   0.171
 7342SOL    HW122925   0.062   4.972   0.073
 7342SOL    HW222926   0.112   5.026   0.219
 7343SOL     OW22927   0.660   2.104   2.775
 7343SOL    HW122928   0.597   2.039   2.816
 7343SOL    HW222929   0.619   2.195   2.776
 7344SOL     OW22930   2.063   1.701   5.727
 7344SOL    HW122931   2.085   1.622   5.784
 7344SOL    HW222932   2.106   1.782   5.765
 7345SOL     OW22933   1.385   6.870   6.833
 7345SOL    HW122934   1.333   6.852   6.916
 7345SOL    HW222935   1.360   6.803   6.763
 7346SOL     OW22936   3.856   5.363   2.947
 7346SOL    HW122937   3.827   5.268   2.930
 7346SOL    HW222938   3.915   5.365   3.028
 7347SOL     OW22939   5.575   2.975   3.655
 7347SOL    HW122940   5.479   2.992   3.634
 7347SOL    HW222941   5.630   3.055   3.628
 7348SOL     OW22942   5.498   0.161   6.310
 7348SOL    HW122943   5.498   0.183   6.212
 7348SOL    HW222944   5.506   0.062   6.322
 7349SOL     OW22945   3.481   2.252   1.405
 7349SOL    HW122946   3.426   2.250   1.488
 7349SOL    HW222947   3.578   2.265   1.429
 7350SOL     OW22948   1.540   1.766   2.683
 7350SOL    HW122949   1.457   1.822   2.682
 7350SOL    HW222950   1.579   1.766   2.775
 7351SOL     OW22951   6.204   5.055   6.826
 7351SOL    HW122952   6.117   5.101   6.843
 7351SOL    HW222953   6.248   5.031   6.912
 7352SOL     OW22954   6.534   1.454   3.159
 7352SOL    HW122955   6.481   1.476   3.077
 7352SOL    HW222956   6.535   1.534   3.220
 7353SOL     OW22957   5.457   1.767   5.024
 7353SOL    HW122958   5.438   1.808   4.935
 7353SOL    HW222959   5.413   1.677   5.029
 7354SOL     OW22960   5.713   4.203   5.450
 7354SOL    HW122961   5.807   4.188   5.481
 7354SOL    HW222962   5.665   4.116   5.444
 7355SOL     OW22963   0.030   5.697   0.507
 7355SOL    HW122964   7.016   5.641   0.580
 7355SOL    HW222965   0.112   5.742   0.541
 7356SOL     OW22966   7.019   2.177   6.165
 7356SOL    HW122967   6.957   2.248   6.133
 7356SOL    HW222968   0.061   2.157   6.094
 7357SOL     OW22969   0.272   1.157   0.742
 7357SOL    HW122970   0.363   1.142   0.703
 7357SOL    HW222971   0.281   1.189   0.836
 7358SOL     OW22972   3.348   1.383   3.784
 7358SOL    HW122973   3.330   1.286   3.794
 7358SOL    HW222974   3.309   1.433   3.862
 7359SOL     OW22975   3.229   3.414   4.286
 7359SOL    HW122976   3.269   3.505   4.298
 7359SOL    HW222977   3.227   3.391   4.189
 7360SOL     OW22978   1.554   4.251   6.175
 7360SOL    HW122979   1.497   4.282   6.099
 7360SOL    HW222980   1.650   4.268   6.153
 7361SOL     OW22981   4.481   0.276   1.870
 7361SOL    HW122982   4.457   0.315   1.959
 7361SOL    HW222983   4.404   0.224   1.835
 7362SOL     OW22984   1.036   4.926   0.009
 7362SOL    HW122985   1.052   4.875   0.093
 7362SOL    HW222986   1.011   5.020   0.032
 7363SOL     OW22987   4.958   1.998   5.771
 7363SOL    HW122988   4.923   1.947   5.850
 7363SOL    HW222989   4.891   1.996   5.697
 7364SOL     OW22990   5.207   7.022   0.476
 7364SOL    HW122991   5.174   0.065   0.540
 7364SOL    HW222992   5.307   7.016   0.481
 7365SOL     OW22993   5.302   6.948   1.419
 7365SOL    HW122994   5.239   6.993   1.482
 7365SOL    HW222995   5.254   6.925   1.334
 7366SOL     OW22996   2.779   6.718   0.418
 7366SOL    HW122997   2.804   6.814   0.404
 7366SOL    HW222998   2.689   6.713   0.463
 7367SOL     OW22999   4.303   3.104   6.015
 7367SOL    HW123000   4.292   3.171   6.089
 7367SOL    HW223001   4.214   3.082   5.976
 7368SOL     OW23002   3.201   3.000   4.901
 7368SOL    HW123003   3.129   2.989   4.969
 7368SOL    HW223004   3.176   3.071   4.836
 7369SOL     OW23005   6.870   6.616   6.430
 7369SOL    HW123006   6.816   6.668   6.496
 7369SOL    HW223007   6.809   6.558   6.376
 7370SOL     OW23008   0.113   5.714   1.158
 7370SOL    HW123009   0.065   5.633   1.191
 7370SOL    HW223010   0.088   5.732   1.063
 7371SOL     OW23011   2.272   4.556   3.649
 7371SOL    HW123012   2.174   4.565   3.667
 7371SOL    HW223013   2.318   4.641   3.672
 7372SOL     OW23014   2.955   0.484   5.081
 7372SOL    HW123015   2.966   0.386   5.066
 7372SOL    HW223016   3.045   0.528   5.079
 7373SOL     OW23017   3.998   1.594   1.113
 7373SOL    HW123018   4.013   1.690   1.136
 7373SOL    HW223019   3.926   1.587   1.044
 7374SOL     OW23020   2.170   3.833   0.492
 7374SOL    HW123021   2.107   3.762   0.522
 7374SOL    HW223022   2.124   3.894   0.428
 7375SOL     OW23023   2.233   5.527   3.032
 7375SOL    HW123024   2.243   5.428   3.032
 7375SOL    HW223025   2.200   5.557   2.943
 7376SOL     OW23026   3.329   4.077   6.899
 7376SOL    HW123027   3.346   4.072   6.998
 7376SOL    HW223028   3.235   4.106   6.883
 7377SOL     OW23029   5.571   6.102   1.241
 7377SOL    HW123030   5.584   6.021   1.299
 7377SOL    HW223031   5.660   6.134   1.208
 7378SOL     OW23032   1.029   1.739   6.198
 7378SOL    HW123033   1.107   1.676   6.199
 7378SOL    HW223034   1.050   1.818   6.256
 7379SOL     OW23035   4.185   0.639   0.624
 7379SOL    HW123036   4.127   0.718   0.639
 7379SOL    HW223037   4.128   0.558   0.610
 7380SOL     OW23038   0.193   3.135   6.873
 7380SOL    HW123039   0.253   3.166   6.799
 7380SOL    HW223040   0.117   3.083   6.834
 7381SOL     OW23041   5.371   2.399   0.706
 7381SOL    HW123042   5.287   2.447   0.731
 7381SOL    HW223043   5.357   2.300   0.717
 7382SOL     OW23044   1.006   5.168   3.569
 7382SOL    HW123045   1.017   5.108   3.648
 7382SOL    HW223046   1.023   5.115   3.485
 7383SOL     OW23047   1.833   4.543   2.648
 7383SOL    HW123048   1.867   4.453   2.618
 7383SOL    HW223049   1.899   4.613   2.624
 7384SOL     OW23050   5.843   1.471   1.433
 7384SOL    HW123051   5.898   1.553   1.418
 7384SOL    HW223052   5.851   1.411   1.353
 7385SOL     OW23053   5.320   0.242   1.921
 7385SOL    HW123054   5.405   0.224   1.971
 7385SOL    HW223055   5.338   0.238   1.823
 7386SOL     OW23056   6.230   1.587   5.701
 7386SOL    HW123057   6.259   1.681   5.722
 7386SOL    HW223058   6.278   1.524   5.762
 7387SOL     OW23059   4.635   5.894   3.792
 7387SOL    HW123060   4.701   5.876   3.719
 7387SOL    HW223061   4.684   5.932   3.871
 7388SOL     OW23062   5.131   3.672   4.726
 7388SOL    HW123063   5.179   3.618   4.795
 7388SOL    HW223064   5.053   3.718   4.768
 7389SOL     OW23065   2.317   3.006   5.622
 7389SOL    HW123066   2.386   3.051   5.567
 7389SOL    HW223067   2.323   3.038   5.717
 7390SOL     OW23068   4.645   6.693   0.611
 7390SOL    HW123069   4.740   6.717   0.594
 7390SOL    HW223070   4.631   6.595   0.596
 7391SOL     OW23071   6.830   5.451   1.046
 7391SOL    HW123072   6.836   5.365   0.995
 7391SOL    HW223073   6.743   5.496   1.025
 7392SOL     OW23074   1.784   4.357   2.312
 7392SOL    HW123075   1.852   4.326   2.379
 7392SOL    HW223076   1.822   4.430   2.256
 7393SOL     OW23077   1.419   4.028   0.470
 7393SOL    HW123078   1.488   3.956   0.465
 7393SOL    HW223079   1.331   3.992   0.438
 7394SOL     OW23080   2.837   3.617   0.025
 7394SOL    HW123081   2.847   3.664   6.963
 7394SOL    HW223082   2.928   3.601   0.065
 7395SOL     OW23083   2.668   6.941   6.927
 7395SOL    HW123084   2.741   6.877   6.952
 7395SOL    HW223085   2.616   6.904   6.850
 7396SOL     OW23086   6.602   6.961   2.426
 7396SOL    HW123087   6.611   6.905   2.509
 7396SOL    HW223088   6.667   0.012   2.430
 7397SOL     OW23089   5.842   4.230   3.930
 7397SOL    HW123090   5.826   4.291   3.853
 7397SOL    HW223091   5.835   4.282   4.015
 7398SOL     OW23092   4.312   6.342   2.800
 7398SOL    HW123093   4.270   6.334   2.891
 7398SOL    HW223094   4.362   6.429   2.794
 7399SOL     OW23095   5.184   5.961   4.168
 7399SOL    HW123096   5.196   6.038   4.105
 7399SOL    HW223097   5.170   5.995   4.261
 7400SOL     OW23098   2.644   4.543   6.604
 7400SOL    HW123099   2.680   4.510   6.691
 7400SOL    HW223100   2.719   4.575   6.547
 7401SOL     OW23101   6.460   2.737   4.050
 7401SOL    HW123102   6.522   2.762   3.976
 7401SOL    HW223103   6.367   2.764   4.026
 7402SOL     OW23104   1.986   6.192   4.660
 7402SOL    HW123105   2.021   6.141   4.581
 7402SOL    HW223106   2.001   6.138   4.743
 7403SOL     OW23107   2.305   2.882   1.824
 7403SOL    HW123108   2.213   2.866   1.858
 7403SOL    HW223109   2.331   2.810   1.760
 7404SOL     OW23110   1.384   3.014   3.102
 7404SOL    HW123111   1.442   2.977   3.174
 7404SOL    HW223112   1.422   3.101   3.069
 7405SOL     OW23113   3.436   4.977   6.214
 7405SOL    HW123114   3.510   5.022   6.164
 7405SOL    HW223115   3.384   4.919   6.151
 7406SOL     OW23116   6.243   6.186   3.047
 7406SOL    HW123117   6.260   6.087   3.049
 7406SOL    HW223118   6.179   6.208   2.975
 7407SOL     OW23119   3.967   1.558   6.015
 7407SOL    HW123120   3.990   1.634   5.954
 7407SOL    HW223121   4.042   1.541   6.078
 7408SOL     OW23122   0.885   3.337   4.881
 7408SOL    HW123123   0.932   3.399   4.944
 7408SOL    HW223124   0.864   3.251   4.928
 7409SOL     OW23125   2.294   0.172   4.734
 7409SOL    HW123126   2.368   0.110   4.709
 7409SOL    HW223127   2.326   0.267   4.726
 7410SOL     OW23128   4.537   5.760   5.639
 7410SOL    HW123129   4.481   5.785   5.560
 7410SOL    HW223130   4.586   5.675   5.620
 7411SOL     OW23131   6.287   3.713   5.635
 7411SOL    HW123132   6.287   3.624   5.590
 7411SOL    HW223133   6.194   3.734   5.667
 7412SOL     OW23134   0.987   0.475   0.500
 7412SOL    HW123135   1.029   0.387   0.479
 7412SOL    HW223136   0.901   0.461   0.550
 7413SOL     OW23137   6.357   4.065   3.494
 7413SOL    HW123138   6.407   4.108   3.570
 7413SOL    HW223139   6.384   3.969   3.487
 7414SOL     OW23140   0.095   5.987   1.986
 7414SOL    HW123141   0.127   5.895   1.962
 7414SOL    HW223142   0.004   5.981   2.027
 7415SOL     OW23143   2.743   1.507   3.129
 7415SOL    HW123144   2.766   1.542   3.038
 7415SOL    HW223145   2.779   1.569   3.198
 7416SOL     OW23146   6.060   0.308   2.511
 7416SOL    HW123147   5.965   0.287   2.536
 7416SOL    HW223148   6.116   0.226   2.524
 7417SOL     OW23149   0.406   5.229   1.301
 7417SOL    HW123150   0.308   5.250   1.310
 7417SOL    HW223151   0.458   5.280   1.369
 7418SOL     OW23152   2.318   3.747   0.895
 7418SOL    HW123153   2.324   3.672   0.828
 7418SOL    HW223154   2.348   3.713   0.984
 7419SOL     OW23155   6.341   1.870   5.726
 7419SOL    HW123156   6.272   1.928   5.770
 7419SOL    HW223157   6.431   1.890   5.765
 7420SOL     OW23158   0.451   5.487   1.986
 7420SOL    HW123159   0.492   5.407   2.030
 7420SOL    HW223160   0.439   5.468   1.888
 7421SOL     OW23161   4.157   2.236   1.435
 7421SOL    HW123162   4.094   2.271   1.505
 7421SOL    HW223163   4.230   2.184   1.479
 7422SOL     OW23164   1.243   2.237   0.454
 7422SOL    HW123165   1.180   2.282   0.518
 7422SOL    HW223166   1.242   2.139   0.470
 7423SOL     OW23167   3.214   4.399   0.485
 7423SOL    HW123168   3.252   4.491   0.474
 7423SOL    HW223169   3.115   4.403   0.472
 7424SOL     OW23170   5.482   0.261   3.681
 7424SOL    HW123171   5.489   0.192   3.753
 7424SOL    HW223172   5.551   0.331   3.696
 7425SOL     OW23173   3.605   0.803   4.464
 7425SOL    HW123174   3.693   0.761   4.485
 7425SOL    HW223175   3.561   0.832   4.549
 7426SOL     OW23176   0.255   0.434   6.567
 7426SOL    HW123177   0.176   0.432   6.627
 7426SOL    HW223178   0.227   0.403   6.475
 7427SOL     OW23179   5.310   5.456   5.748
 7427SOL    HW123180   5.366   5.448   5.665
 7427SOL    HW223181   5.368   5.447   5.828
 7428SOL     OW23182   5.257   1.782   5.293
 7428SOL    HW123183   5.181   1.772   5.357
 7428SOL    HW223184   5.326   1.844   5.332
 7429SOL     OW23185   5.766   6.075   3.548
 7429SOL    HW123186   5.789   6.152   3.607
 7429SOL    HW223187   5.823   6.078   3.466
 7430SOL     OW23188   0.928   4.012   4.480
 7430SOL    HW123189   0.926   3.923   4.525
 7430SOL    HW223190   0.857   4.015   4.409
 7431SOL     OW23191   0.170   4.091   2.895
 7431SOL    HW123192   0.259   4.059   2.861
 7431SOL    HW223193   0.167   4.084   2.995
 7432SOL     OW23194   2.143   6.055   5.768
 7432SOL    HW123195   2.174   6.089   5.680
 7432SOL    HW223196   2.158   5.956   5.773
 7433SOL     OW23197   0.715   6.752   0.720
 7433SOL    HW123198   0.634   6.809   0.708
 7433SOL    HW223199   0.698   6.685   0.792
 7434SOL     OW23200   4.399   6.828   0.616
 7434SOL    HW123201   4.429   6.921   0.595
 7434SOL    HW223202   4.478   6.767   0.617
 7435SOL     OW23203   0.923   4.797   6.823
 7435SOL    HW123204   0.962   4.831   6.909
 7435SOL    HW223205   0.993   4.797   6.752
 7436SOL     OW23206   5.100   3.654   6.699
 7436SOL    HW123207   5.025   3.652   6.632
 7436SOL    HW223208   5.182   3.613   6.659
 7437SOL     OW23209   6.751   6.636   5.514
 7437SOL    HW123210   6.825   6.569   5.510
 7437SOL    HW223211   6.789   6.728   5.519
 7438SOL     OW23212   6.420   4.349   0.323
 7438SOL    HW123213   6.402   4.379   0.416
 7438SOL    HW223214   6.505   4.297   0.321
 7439SOL     OW23215   1.298   6.520   3.247
 7439SOL    HW123216   1.218   6.514   3.187
 7439SOL    HW223217   1.330   6.615   3.250
 7440SOL     OW23218   1.009   0.922   4.681
 7440SOL    HW123219   0.939   0.919   4.610
 7440SOL    HW223220   1.088   0.869   4.651
 7441SOL     OW23221   6.659   0.642   4.321
 7441SOL    HW123222   6.582   0.627   4.259
 7441SOL    HW223223   6.742   0.603   4.281
 7442SOL     OW23224   1.753   0.779   0.119
 7442SOL    HW123225   1.824   0.731   0.172
 7442SOL    HW223226   1.667   0.779   0.170
 7443SOL     OW23227   6.612   1.696   1.540
 7443SOL    HW123228   6.518   1.697   1.574
 7443SOL    HW223229   6.675   1.691   1.618
 7444SOL     OW23230   1.597   2.935   5.509
 7444SOL    HW123231   1.587   2.883   5.424
 7444SOL    HW223232   1.693   2.964   5.519
 7445SOL     OW23233   5.654   3.144   2.570
 7445SOL    HW123234   5.617   3.059   2.607
 7445SOL    HW223235   5.585   3.188   2.513
 7446SOL     OW23236   4.696   4.333   2.921
 7446SOL    HW123237   4.611   4.377   2.895
 7446SOL    HW223238   4.723   4.362   3.013
 7447SOL     OW23239   1.641   3.253   6.182
 7447SOL    HW123240   1.595   3.342   6.183
 7447SOL    HW223241   1.596   3.192   6.117
 7448SOL     OW23242   0.242   0.981   5.648
 7448SOL    HW123243   0.293   0.912   5.701
 7448SOL    HW223244   0.200   1.047   5.711
 7449SOL     OW23245   3.106   0.980   3.459
 7449SOL    HW123246   3.061   0.891   3.455
 7449SOL    HW223247   3.150   0.999   3.371
 7450SOL     OW23248   3.981   1.611   1.997
 7450SOL    HW123249   3.922   1.605   2.078
 7450SOL    HW223250   4.061   1.667   2.017
 7451SOL     OW23251   1.177   0.647   1.852
 7451SOL    HW123252   1.173   0.743   1.826
 7451SOL    HW223253   1.086   0.614   1.875
 7452SOL     OW23254   1.908   5.723   2.862
 7452SOL    HW123255   1.856   5.684   2.938
 7452SOL    HW223256   2.006   5.712   2.879
 7453SOL     OW23257   6.790   4.477   5.128
 7453SOL    HW123258   6.763   4.505   5.220
 7453SOL    HW223259   6.712   4.435   5.081
 7454SOL     OW23260   2.549   1.973   0.087
 7454SOL    HW123261   2.602   2.052   0.116
 7454SOL    HW223262   2.611   1.901   0.056
 7455SOL     OW23263   4.764   6.939   0.931
 7455SOL    HW123264   4.815   7.025   0.916
 7455SOL    HW223265   4.829   6.864   0.944
 7456SOL     OW23266   1.470   3.568   5.741
 7456SOL    HW123267   1.519   3.491   5.780
 7456SOL    HW223268   1.382   3.579   5.789
 7457SOL     OW23269   0.168   6.320   5.938
 7457SOL    HW123270   0.213   6.399   5.896
 7457SOL    HW223271   0.127   6.348   6.025
 7458SOL     OW23272   2.579   0.422   1.507
 7458SOL    HW123273   2.566   0.458   1.599
 7458SOL    HW223274   2.674   0.435   1.479
 7459SOL     OW23275   3.738   6.256   3.422
 7459SOL    HW123276   3.787   6.224   3.341
 7459SOL    HW223277   3.779   6.342   3.454
 7460SOL     OW23278   0.909   5.220   6.406
 7460SOL    HW123279   0.958   5.305   6.392
 7460SOL    HW223280   0.934   5.154   6.335
 7461SOL     OW23281   3.760   1.509   3.418
 7461SOL    HW123282   3.712   1.517   3.505
 7461SOL    HW223283   3.856   1.536   3.431
 7462SOL     OW23284   1.711   1.841   4.008
 7462SOL    HW123285   1.658   1.893   4.075
 7462SOL    HW223286   1.650   1.781   3.956
 7463SOL     OW23287   3.796   4.029   2.919
 7463SOL    HW123288   3.832   4.121   2.936
 7463SOL    HW223289   3.735   4.003   2.994
 7464SOL     OW23290   4.612   5.746   0.438
 7464SOL    HW123291   4.663   5.662   0.419
 7464SOL    HW223292   4.566   5.738   0.526
 7465SOL     OW23293   3.487   1.321   3.079
 7465SOL    HW123294   3.390   1.345   3.071
 7465SOL    HW223295   3.506   1.240   3.023
 7466SOL     OW23296   0.012   6.724   0.895
 7466SOL    HW123297   6.962   6.787   0.912
 7466SOL    HW223298   0.019   6.707   0.796
 7467SOL     OW23299   4.240   2.392   1.207
 7467SOL    HW123300   4.199   2.343   1.284
 7467SOL    HW223301   4.324   2.346   1.179
 7468SOL     OW23302   5.137   4.555   4.800
 7468SOL    HW123303   5.177   4.510   4.721
 7468SOL    HW223304   5.152   4.500   4.882
 7469SOL     OW23305   5.622   2.066   1.582
 7469SOL    HW123306   5.607   1.984   1.527
 7469SOL    HW223307   5.625   2.146   1.523
 7470SOL     OW23308   0.649   3.187   3.152
 7470SOL    HW123309   0.577   3.254   3.133
 7470SOL    HW223310   0.723   3.199   3.086
 7471SOL     OW23311   6.673   4.353   5.563
 7471SOL    HW123312   6.740   4.317   5.499
 7471SOL    HW223313   6.628   4.277   5.610
 7472SOL     OW23314   4.376   5.280   3.289
 7472SOL    HW123315   4.420   5.263   3.201
 7472SOL    HW223316   4.350   5.194   3.332
 7473SOL     OW23317   1.608   2.398   6.630
 7473SOL    HW123318   1.659   2.365   6.710
 7473SOL    HW223319   1.664   2.385   6.548
 7474SOL     OW23320   2.718   1.223   2.056
 7474SOL    HW123321   2.714   1.177   2.145
 7474SOL    HW223322   2.626   1.234   2.020
 7475SOL     OW23323   5.077   0.695   6.121
 7475SOL    HW123324   5.031   0.711   6.209
 7475SOL    HW223325   5.036   0.753   6.051
 7476SOL     OW23326   2.133   6.422   4.602
 7476SOL    HW123327   2.229   6.409   4.628
 7476SOL    HW223328   2.079   6.343   4.630
 7477SOL     OW23329   4.581   4.611   4.964
 7477SOL    HW123330   4.517   4.553   5.015
 7477SOL    HW223331   4.645   4.654   5.027
 7478SOL     OW23332   0.267   4.295   1.424
 7478SOL    HW123333   0.327   4.353   1.479
 7478SOL    HW223334   0.194   4.351   1.385
 7479SOL     OW23335   3.881   0.513   4.631
 7479SOL    HW123336   3.790   0.491   4.666
 7479SOL    HW223337   3.948   0.504   4.705
 7480SOL     OW23338   5.378   5.210   0.134
 7480SOL    HW123339   5.370   5.309   0.127
 7480SOL    HW223340   5.397   5.184   0.229
 7481SOL     OW23341   5.824   6.320   0.187
 7481SOL    HW123342   5.876   6.406   0.182
 7481SOL    HW223343   5.828   6.274   0.099
 7482SOL     OW23344   4.765   0.322   5.023
 7482SOL    HW123345   4.843   0.357   5.074
 7482SOL    HW223346   4.794   0.244   4.967
 7483SOL     OW23347   3.304   0.204   6.829
 7483SOL    HW123348   3.233   0.134   6.825
 7483SOL    HW223349   3.365   0.185   6.906
 7484SOL     OW23350   3.281   6.949   1.193
 7484SOL    HW123351   3.282   7.017   1.119
 7484SOL    HW223352   3.238   6.989   1.274
 7485SOL     OW23353   0.936   0.149   4.969
 7485SOL    HW123354   0.895   0.062   4.940
 7485SOL    HW223355   0.900   0.174   5.059
 7486SOL     OW23356   1.595   2.097   4.974
 7486SOL    HW123357   1.559   2.009   5.003
 7486SOL    HW223358   1.690   2.107   5.004
 7487SOL     OW23359   2.866   5.443   2.781
 7487SOL    HW123360   2.962   5.434   2.754
 7487SOL    HW223361   2.837   5.361   2.830
 7488SOL     OW23362   4.478   1.714   5.049
 7488SOL    HW123363   4.517   1.768   5.124
 7488SOL    HW223364   4.379   1.719   5.052
 7489SOL     OW23365   0.821   3.231   3.572
 7489SOL    HW123366   0.769   3.168   3.513
 7489SOL    HW223367   0.784   3.227   3.665
 7490SOL     OW23368   5.836   6.946   2.111
 7490SOL    HW123369   5.804   6.851   2.106
 7490SOL    HW223370   5.791   7.001   2.041
 7491SOL     OW23371   0.923   6.891   0.865
 7491SOL    HW123372   0.857   6.852   0.800
 7491SOL    HW223373   0.963   6.974   0.826
 7492SOL     OW23374   1.841   2.079   2.804
 7492SOL    HW123375   1.840   2.033   2.892
 7492SOL    HW223376   1.749   2.111   2.782
 7493SOL     OW23377   5.893   4.227   6.686
 7493SOL    HW123378   5.917   4.132   6.708
 7493SOL    HW223379   5.933   4.252   6.597
 7494SOL     OW23380   4.761   1.937   1.513
 7494SOL    HW123381   4.759   2.005   1.440
 7494SOL    HW223382   4.775   1.982   1.601
 7495SOL     OW23383   1.637   1.645   3.808
 7495SOL    HW123384   1.713   1.597   3.851
 7495SOL    HW223385   1.658   1.661   3.712
 7496SOL     OW23386   0.991   5.060   6.211
 7496SOL    HW123387   0.991   5.102   6.120
 7496SOL    HW223388   1.052   4.981   6.211
 7497SOL     OW23389   1.053   4.830   3.123
 7497SOL    HW123390   0.987   4.756   3.132
 7497SOL    HW223391   1.113   4.811   3.045
 7498SOL     OW23392   5.283   2.101   4.350
 7498SOL    HW123393   5.267   2.176   4.286
 7498SOL    HW223394   5.359   2.125   4.410
 7499SOL     OW23395   3.792   5.310   3.544
 7499SOL    HW123396   3.784   5.397   3.593
 7499SOL    HW223397   3.845   5.324   3.460
 7500SOL     OW23398   4.922   4.292   1.392
 7500SOL    HW123399   4.997   4.304   1.326
 7500SOL    HW223400   4.935   4.354   1.469
 7501SOL     OW23401   0.986   4.019   3.566
 7501SOL    HW123402   1.000   3.967   3.482
 7501SOL    HW223403   0.972   4.116   3.544
 7502SOL     OW23404   1.202   1.735   4.087
 7502SOL    HW123405   1.224   1.832   4.100
 7502SOL    HW223406   1.156   1.723   3.999
 7503SOL     OW23407   2.116   1.822   0.194
 7503SOL    HW123408   2.109   1.861   0.102
 7503SOL    HW223409   2.207   1.840   0.231
 7504SOL     OW23410   5.094   6.168   5.469
 7504SOL    HW123411   5.151   6.146   5.548
 7504SOL    HW223412   5.039   6.088   5.444
 7505SOL     OW23413   1.600   2.182   3.454
 7505SOL    HW123414   1.577   2.252   3.522
 7505SOL    HW223415   1.528   2.113   3.451
 7506SOL     OW23416   4.101   0.555   3.012
 7506SOL    HW123417   4.100   0.459   3.041
 7506SOL    HW223418   4.008   0.585   2.992
 7507SOL     OW23419   1.721   0.028   5.494
 7507SOL    HW123420   1.778   7.009   5.424
 7507SOL    HW223421   1.717   0.126   5.475
 7508SOL     OW23422   5.426   5.993   3.318
 7508SOL    HW123423   5.354   6.002   3.387
 7508SOL    HW223424   5.436   6.079   3.268
 7509SOL     OW23425   3.345   4.375   6.242
 7509SOL    HW123426   3.410   4.379   6.318
 7509SOL    HW223427   3.351   4.459   6.188
 7510SOL     OW23428   4.154   3.213   5.189
 7510SOL    HW123429   4.063   3.174   5.175
 7510SOL    HW223430   4.203   3.214   5.102
 7511SOL     OW23431   1.114   1.410   2.329
 7511SOL    HW123432   1.167   1.331   2.296
 7511SOL    HW223433   1.167   1.460   2.397
 7512SOL     OW23434   2.394   2.724   2.424
 7512SOL    HW123435   2.391   2.740   2.325
 7512SOL    HW223436   2.329   2.785   2.470
 7513SOL     OW23437   2.222   3.146   6.928
 7513SOL    HW123438   2.314   3.175   6.902
 7513SOL    HW223439   2.194   3.195   7.011
 7514SOL     OW23440   3.069   5.197   3.064
 7514SOL    HW123441   3.162   5.233   3.055
 7514SOL    HW223442   3.071   5.112   3.116
 7515SOL     OW23443   0.272   5.005   3.072
 7515SOL    HW123444   0.294   5.006   2.975
 7515SOL    HW223445   0.187   4.956   3.087
 7516SOL     OW23446   2.334   3.278   1.184
 7516SOL    HW123447   2.382   3.200   1.143
 7516SOL    HW223448   2.390   3.317   1.257
 7517SOL     OW23449   1.110   5.029   2.344
 7517SOL    HW123450   1.188   4.976   2.377
 7517SOL    HW223451   1.118   5.042   2.246
 7518SOL     OW23452   5.161   4.115   2.299
 7518SOL    HW123453   5.097   4.040   2.282
 7518SOL    HW223454   5.209   4.138   2.214
 7519SOL     OW23455   1.881   0.379   4.897
 7519SOL    HW123456   1.876   0.476   4.919
 7519SOL    HW223457   1.803   0.331   4.937
 7520SOL     OW23458   1.979   0.144   4.749
 7520SOL    HW123459   1.954   0.206   4.823
 7520SOL    HW223460   2.078   0.129   4.749
 7521SOL     OW23461   4.397   2.862   5.959
 7521SOL    HW123462   4.365   2.954   5.982
 7521SOL    HW223463   4.438   2.863   5.867
 7522SOL     OW23464   2.219   6.692   2.954
 7522SOL    HW123465   2.288   6.739   3.009
 7522SOL    HW223466   2.164   6.760   2.905
 7523SOL     OW23467   6.746   6.332   6.752
 7523SOL    HW123468   6.710   6.255   6.699
 7523SOL    HW223469   6.832   6.363   6.711
 7524SOL     OW23470   6.494   1.393   5.044
 7524SOL    HW123471   6.494   1.437   4.954
 7524SOL    HW223472   6.582   1.409   5.088
 7525SOL     OW23473   0.310   0.150   0.816
 7525SOL    HW123474   0.410   0.144   0.814
 7525SOL    HW223475   0.272   0.079   0.757
 7526SOL     OW23476   3.951   2.970   5.483
 7526SOL    HW123477   4.035   3.002   5.526
 7526SOL    HW223478   3.973   2.917   5.401
 7527SOL     OW23479   2.700   6.262   2.245
 7527SOL    HW123480   2.769   6.223   2.186
 7527SOL    HW223481   2.617   6.206   2.241
 7528SOL     OW23482   6.146   2.977   0.286
 7528SOL    HW123483   6.154   3.067   0.242
 7528SOL    HW223484   6.065   2.931   0.252
 7529SOL     OW23485   1.668   0.108   4.072
 7529SOL    HW123486   1.693   0.183   4.011
 7529SOL    HW223487   1.600   0.140   4.138
 7530SOL     OW23488   0.055   3.096   2.961
 7530SOL    HW123489   0.134   3.037   2.943
 7530SOL    HW223490   0.062   3.134   3.053
 7531SOL     OW23491   1.776   2.181   4.107
 7531SOL    HW123492   1.773   2.209   4.011
 7531SOL    HW223493   1.768   2.261   4.166
 7532SOL     OW23494   4.690   4.235   2.184
 7532SOL    HW123495   4.744   4.315   2.210
 7532SOL    HW223496   4.623   4.261   2.115
 7533SOL     OW23497   3.169   0.988   5.162
 7533SOL    HW123498   3.210   1.078   5.148
 7533SOL    HW223499   3.098   0.972   5.093
 7534SOL     OW23500   3.966   6.198   4.344
 7534SOL    HW123501   3.920   6.265   4.285
 7534SOL    HW223502   4.043   6.242   4.391
 7535SOL     OW23503   2.913   5.208   6.992
 7535SOL    HW123504   2.858   5.141   6.942
 7535SOL    HW223505   2.902   5.298   6.950
 7536SOL     OW23506   4.661   5.116   6.454
 7536SOL    HW123507   4.664   5.113   6.554
 7536SOL    HW223508   4.715   5.194   6.421
 7537SOL     OW23509   2.455   4.398   5.154
 7537SOL    HW123510   2.480   4.474   5.093
 7537SOL    HW223511   2.355   4.391   5.159
 7538SOL     OW23512   3.503   4.252   5.345
 7538SOL    HW123513   3.547   4.235   5.433
 7538SOL    HW223514   3.457   4.340   5.347
 7539SOL     OW23515   0.803   2.217   5.176
 7539SOL    HW123516   0.750   2.292   5.217
 7539SOL    HW223517   0.788   2.133   5.228
 7540SOL     OW23518   2.696   0.626   0.066
 7540SOL    HW123519   2.602   0.590   0.066
 7540SOL    HW223520   2.699   0.710   0.013
 7541SOL     OW23521   0.281   1.945   5.910
 7541SOL    HW123522   0.323   1.880   5.847
 7541SOL    HW223523   0.344   1.964   5.986
 7542SOL     OW23524   1.564   0.311   4.970
 7542SOL    HW123525   1.486   0.373   4.980
 7542SOL    HW223526   1.566   0.248   5.047
 7543SOL     OW23527   2.929   2.411   1.469
 7543SOL    HW123528   2.981   2.448   1.546
 7543SOL    HW223529   2.839   2.455   1.465
 7544SOL     OW23530   1.400   1.989   2.118
 7544SOL    HW123531   1.327   2.019   2.180
 7544SOL    HW223532   1.382   2.024   2.026
 7545SOL     OW23533   4.617   0.162   3.420
 7545SOL    HW123534   4.692   0.198   3.366
 7545SOL    HW223535   4.651   0.092   3.482
 7546SOL     OW23536   5.317   7.008   5.343
 7546SOL    HW123537   5.374   0.065   5.348
 7546SOL    HW223538   5.271   6.994   5.430
 7547SOL     OW23539   2.569   6.409   0.140
 7547SOL    HW123540   2.638   6.342   0.111
 7547SOL    HW223541   2.614   6.493   0.168
 7548SOL     OW23542   2.557   3.923   0.927
 7548SOL    HW123543   2.525   3.833   0.896
 7548SOL    HW223544   2.572   3.922   1.025
 7549SOL     OW23545   5.963   0.305   2.246
 7549SOL    HW123546   6.022   0.236   2.289
 7549SOL    HW223547   5.919   0.360   2.317
 7550SOL     OW23548   1.084   4.818   0.914
 7550SOL    HW123549   1.143   4.872   0.853
 7550SOL    HW223550   1.096   4.721   0.894
 7551SOL     OW23551   4.898   3.635   5.965
 7551SOL    HW123552   4.926   3.615   6.058
 7551SOL    HW223553   4.844   3.720   5.964
 7552SOL     OW23554   3.613   5.977   4.047
 7552SOL    HW123555   3.586   5.883   4.069
 7552SOL    HW223556   3.711   5.988   4.066
 7553SOL     OW23557   4.194   3.974   6.329
 7553SOL    HW123558   4.169   3.909   6.257
 7553SOL    HW223559   4.278   3.943   6.374
 7554SOL     OW23560   0.037   1.937   0.890
 7554SOL    HW123561   6.966   1.938   0.918
 7554SOL    HW223562   0.092   1.900   0.965
 7555SOL     OW23563   2.151   6.516   5.845
 7555SOL    HW123564   2.172   6.541   5.939
 7555SOL    HW223565   2.075   6.571   5.811
 7556SOL     OW23566   6.887   3.733   2.545
 7556SOL    HW123567   6.866   3.650   2.493
 7556SOL    HW223568   6.895   3.811   2.483
 7557SOL     OW23569   4.291   4.031   0.659
 7557SOL    HW123570   4.258   4.008   0.750
 7557SOL    HW223571   4.252   3.966   0.593
 7558SOL     OW23572   1.764   3.246   3.513
 7558SOL    HW123573   1.809   3.170   3.466
 7558SOL    HW223574   1.681   3.212   3.558
 7559SOL     OW23575   0.710   5.120   0.124
 7559SOL    HW123576   0.674   5.102   0.032
 7559SOL    HW223577   0.810   5.128   0.118
 7560SOL     OW23578   4.783   0.287   5.552
 7560SOL    HW123579   4.751   0.192   5.560
 7560SOL    HW223580   4.719   0.348   5.598
 7561SOL     OW23581   1.051   3.120   0.141
 7561SOL    HW123582   0.969   3.064   0.152
 7561SOL    HW223583   1.062   3.178   0.222
 7562SOL     OW23584   4.322   6.371   5.228
 7562SOL    HW123585   4.325   6.377   5.129
 7562SOL    HW223586   4.234   6.332   5.256
 7563SOL     OW23587   1.830   1.361   3.743
 7563SOL    HW123588   1.812   1.397   3.834
 7563SOL    HW223589   1.870   1.432   3.685
 7564SOL     OW23590   6.405   5.656   4.307
 7564SOL    HW123591   6.348   5.729   4.345
 7564SOL    HW223592   6.444   5.602   4.382
 7565SOL     OW23593   5.448   4.775   6.273
 7565SOL    HW123594   5.511   4.731   6.337
 7565SOL    HW223595   5.494   4.794   6.187
 7566SOL     OW23596   1.826   4.982   4.487
 7566SOL    HW123597   1.816   4.943   4.396
 7566SOL    HW223598   1.839   5.081   4.480
 7567SOL     OW23599   2.495   3.580   0.362
 7567SOL    HW123600   2.584   3.611   0.397
 7567SOL    HW223601   2.434   3.659   0.352
 7568SOL     OW23602   4.176   4.668   3.929
 7568SOL    HW123603   4.162   4.734   3.855
 7568SOL    HW223604   4.087   4.645   3.970
 7569SOL     OW23605   4.146   0.632   2.398
 7569SOL    HW123606   4.141   0.592   2.307
 7569SOL    HW223607   4.241   0.632   2.430
 7570SOL     OW23608   5.679   4.757   5.099
 7570SOL    HW123609   5.739   4.757   5.019
 7570SOL    HW223610   5.634   4.846   5.107
 7571SOL     OW23611   6.731   3.868   6.971
 7571SOL    HW123612   6.795   3.792   6.957
 7571SOL    HW223613   6.660   3.841   0.010
 7572SOL     OW23614   6.170   1.741   3.574
 7572SOL    HW123615   6.228   1.800   3.518
 7572SOL    HW223616   6.116   1.681   3.515
 7573SOL     OW23617   3.541   5.211   3.641
 7573SOL    HW123618   3.612   5.257   3.588
 7573SOL    HW223619   3.503   5.136   3.588
 7574SOL     OW23620   4.064   5.895   1.603
 7574SOL    HW123621   4.117   5.815   1.576
 7574SOL    HW223622   3.973   5.866   1.634
 7575SOL     OW23623   5.061   3.140   4.276
 7575SOL    HW123624   5.035   3.104   4.186
 7575SOL    HW223625   5.125   3.215   4.265
 7576SOL     OW23626   0.376   4.186   1.933
 7576SOL    HW123627   0.376   4.126   2.013
 7576SOL    HW223628   0.349   4.278   1.960
 7577SOL     OW23629   3.927   1.381   4.130
 7577SOL    HW123630   4.008   1.436   4.107
 7577SOL    HW223631   3.933   1.351   4.225
 7578SOL     OW23632   2.238   5.486   5.383
 7578SOL    HW123633   2.246   5.393   5.419
 7578SOL    HW223634   2.202   5.482   5.289
 7579SOL     OW23635   4.556   2.069   4.186
 7579SOL    HW123636   4.540   2.108   4.095
 7579SOL    HW223637   4.590   2.140   4.247
 7580SOL     OW23638   2.099   3.247   2.010
 7580SOL    HW123639   2.151   3.328   1.986
 7580SOL    HW223640   2.005   3.256   1.976
 7581SOL     OW23641   5.590   1.065   0.985
 7581SOL    HW123642   5.555   1.148   1.029
 7581SOL    HW223643   5.549   0.985   1.030
 7582SOL     OW23644   4.100   2.693   1.359
 7582SOL    HW123645   4.125   2.703   1.263
 7582SOL    HW223646   4.095   2.783   1.403
 7583SOL     OW23647   6.849   3.968   3.370
 7583SOL    HW123648   6.811   3.971   3.278
 7583SOL    HW223649   6.895   4.054   3.390
 7584SOL     OW23650   1.865   2.303   1.888
 7584SOL    HW123651   1.815   2.291   1.974
 7584SOL    HW223652   1.962   2.283   1.904
 7585SOL     OW23653   2.678   4.239   0.778
 7585SOL    HW123654   2.738   4.205   0.705
 7585SOL    HW223655   2.614   4.167   0.805
 7586SOL     OW23656   1.716   2.746   3.375
 7586SOL    HW123657   1.775   2.826   3.369
 7586SOL    HW223658   1.710   2.716   3.470
 7587SOL     OW23659   2.758   1.042   5.729
 7587SOL    HW123660   2.679   0.986   5.752
 7587SOL    HW223661   2.821   0.991   5.671
 7588SOL     OW23662   0.693   5.043   1.565
 7588SOL    HW123663   0.733   4.971   1.622
 7588SOL    HW223664   0.595   5.028   1.557
 7589SOL     OW23665   4.846   6.108   5.999
 7589SOL    HW123666   4.817   6.092   5.904
 7589SOL    HW223667   4.849   6.021   6.048
 7590SOL     OW23668   2.299   1.117   5.160
 7590SOL    HW123669   2.212   1.166   5.152
 7590SOL    HW223670   2.341   1.109   5.069
 7591SOL     OW23671   6.528   5.778   6.307
 7591SOL    HW123672   6.603   5.823   6.355
 7591SOL    HW223673   6.470   5.846   6.263
 7592SOL     OW23674   4.457   4.910   5.919
 7592SOL    HW123675   4.449   4.828   5.862
 7592SOL    HW223676   4.553   4.938   5.924
 7593SOL     OW23677   6.796   4.620   0.080
 7593SOL    HW123678   6.810   4.529   0.040
 7593SOL    HW223679   6.719   4.617   0.143
 7594SOL     OW23680   1.048   6.670   4.180
 7594SOL    HW123681   1.087   6.725   4.106
 7594SOL    HW223682   0.986   6.602   4.141
 7595SOL     OW23683   0.096   3.462   6.739
 7595SOL    HW123684   0.044   3.403   6.678
 7595SOL    HW223685   0.066   3.447   6.834
 7596SOL     OW23686   4.844   5.538   2.067
 7596SOL    HW123687   4.908   5.614   2.050
 7596SOL    HW223688   4.872   5.489   2.150
 7597SOL     OW23689   2.118   4.366   1.685
 7597SOL    HW123690   2.153   4.459   1.676
 7597SOL    HW223691   2.026   4.368   1.724
 7598SOL     OW23692   6.586   0.953   2.907
 7598SOL    HW123693   6.516   0.938   2.975
 7598SOL    HW223694   6.677   0.942   2.948
 7599SOL     OW23695   5.398   3.870   2.148
 7599SOL    HW123696   5.457   3.826   2.216
 7599SOL    HW223697   5.380   3.806   2.074
 7600SOL     OW23698   2.415   2.297   2.771
 7600SOL    HW123699   2.436   2.392   2.746
 7600SOL    HW223700   2.458   2.235   2.706
 7601SOL     OW23701   1.919   1.048   5.467
 7601SOL    HW123702   1.844   1.000   5.421
 7601SOL    HW223703   1.968   0.984   5.526
 7602SOL     OW23704   1.896   2.937   5.281
 7602SOL    HW123705   1.952   2.982   5.212
 7602SOL    HW223706   1.868   3.004   5.350
 7603SOL     OW23707   6.860   1.779   2.266
 7603SOL    HW123708   6.761   1.775   2.255
 7603SOL    HW223709   6.895   1.687   2.285
 7604SOL     OW23710   5.584   5.596   6.486
 7604SOL    HW123711   5.506   5.535   6.476
 7604SOL    HW223712   5.552   5.690   6.494
 7605SOL     OW23713   5.386   3.517   5.928
 7605SOL    HW123714   5.418   3.465   6.007
 7605SOL    HW223715   5.298   3.561   5.950
 7606SOL     OW23716   5.620   1.435   3.791
 7606SOL    HW123717   5.708   1.405   3.754
 7606SOL    HW223718   5.607   1.532   3.771
 7607SOL     OW23719   4.854   6.356   6.113
 7607SOL    HW123720   4.937   6.405   6.089
 7607SOL    HW223721   4.847   6.272   6.058
 7608SOL     OW23722   3.687   3.890   5.035
 7608SOL    HW123723   3.716   3.936   5.119
 7608SOL    HW223724   3.764   3.889   4.970
 7609SOL     OW23725   1.135   2.866   3.156
 7609SOL    HW123726   1.213   2.927   3.142
 7609SOL    HW223727   1.167   2.780   3.195
 7610SOL     OW23728   5.481   0.432   2.297
 7610SOL    HW123729   5.513   0.344   2.264
 7610SOL    HW223730   5.552   0.501   2.283
 7611SOL     OW23731   1.325   1.327   1.269
 7611SOL    HW123732   1.416   1.321   1.227
 7611SOL    HW223733   1.286   1.235   1.276
 7612SOL     OW23734   4.586   1.536   3.052
 7612SOL    HW123735   4.486   1.537   3.055
 7612SOL    HW223736   4.618   1.602   2.984
 7613SOL     OW23737   6.477   0.573   2.228
 7613SOL    HW123738   6.434   0.636   2.164
 7613SOL    HW223739   6.406   0.519   2.274
 7614SOL     OW23740   4.362   0.727   0.817
 7614SOL    HW123741   4.308   0.753   0.897
 7614SOL    HW223742   4.305   0.675   0.753
 7615SOL     OW23743   3.751   4.848   5.704
 7615SOL    HW123744   3.703   4.873   5.620
 7615SOL    HW223745   3.730   4.753   5.727
 7616SOL     OW23746   0.134   6.108   3.356
 7616SOL    HW123747   0.156   6.088   3.451
 7616SOL    HW223748   0.053   6.056   3.329
 7617SOL     OW23749   3.972   5.757   3.823
 7617SOL    HW123750   4.031   5.831   3.791
 7617SOL    HW223751   3.905   5.793   3.887
 7618SOL     OW23752   3.431   1.545   6.983
 7618SOL    HW123753   3.382   1.630   7.001
 7618SOL    HW223754   3.426   1.486   0.038
 7619SOL     OW23755   5.586   3.018   5.708
 7619SOL    HW123756   5.573   3.020   5.609
 7619SOL    HW223757   5.667   2.963   5.730
 7620SOL     OW23758   2.697   5.517   1.685
 7620SOL    HW123759   2.624   5.567   1.639
 7620SOL    HW223760   2.708   5.552   1.778
 7621SOL     OW23761   2.386   2.624   1.168
 7621SOL    HW123762   2.454   2.671   1.112
 7621SOL    HW223763   2.355   2.685   1.241
 7622SOL     OW23764   4.856   2.078   1.101
 7622SOL    HW123765   4.815   1.989   1.081
 7622SOL    HW223766   4.800   2.125   1.170
 7623SOL     OW23767   6.950   6.874   4.725
 7623SOL    HW123768   6.920   6.949   4.667
 7623SOL    HW223769   6.883   6.858   4.797
 7624SOL     OW23770   6.575   0.788   4.921
 7624SOL    HW123771   6.516   0.708   4.938
 7624SOL    HW223772   6.575   0.809   4.823
 7625SOL     OW23773   2.546   4.891   0.690
 7625SOL    HW123774   2.507   4.937   0.769
 7625SOL    HW223775   2.504   4.800   0.680
 7626SOL     OW23776   2.716   4.110   5.475
 7626SOL    HW123777   2.688   4.114   5.571
 7626SOL    HW223778   2.646   4.155   5.418
 7627SOL     OW23779   6.815   0.635   0.438
 7627SOL    HW123780   6.736   0.673   0.390
 7627SOL    HW223781   6.831   0.541   0.407
 7628SOL     OW23782   4.342   1.498   0.511
 7628SOL    HW123783   4.284   1.536   0.583
 7628SOL    HW223784   4.424   1.458   0.551
 7629SOL     OW23785   6.206   5.599   2.794
 7629SOL    HW123786   6.250   5.669   2.738
 7629SOL    HW223787   6.189   5.636   2.885
 7630SOL     OW23788   5.852   1.791   1.707
 7630SOL    HW123789   5.834   1.874   1.760
 7630SOL    HW223790   5.844   1.812   1.610
 7631SOL     OW23791   1.386   0.475   3.907
 7631SOL    HW123792   1.318   0.545   3.927
 7631SOL    HW223793   1.360   0.426   3.823
 7632SOL     OW23794   4.431   0.964   4.896
 7632SOL    HW123795   4.496   0.920   4.835
 7632SOL    HW223796   4.372   0.895   4.938
 7633SOL     OW23797   6.250   3.118   6.251
 7633SOL    HW123798   6.311   3.192   6.279
 7633SOL    HW223799   6.288   3.030   6.281
 7634SOL     OW23800   1.114   2.491   1.653
 7634SOL    HW123801   1.163   2.452   1.576
 7634SOL    HW223802   1.150   2.454   1.739
 7635SOL     OW23803   2.599   4.535   5.546
 7635SOL    HW123804   2.643   4.487   5.470
 7635SOL    HW223805   2.614   4.484   5.631
 7636SOL     OW23806   0.788   1.090   3.471
 7636SOL    HW123807   0.824   1.054   3.385
 7636SOL    HW223808   0.786   1.189   3.468
 7637SOL     OW23809   2.895   5.989   4.062
 7637SOL    HW123810   2.880   6.020   3.968
 7637SOL    HW223811   2.968   6.044   4.104
 7638SOL     OW23812   4.332   4.891   1.672
 7638SOL    HW123813   4.298   4.944   1.750
 7638SOL    HW223814   4.353   4.798   1.702
 7639SOL     OW23815   0.569   2.143   4.443
 7639SOL    HW123816   0.637   2.209   4.475
 7639SOL    HW223817   0.613   2.054   4.428
 7640SOL     OW23818   2.070   3.087   6.516
 7640SOL    HW123819   2.162   3.048   6.525
 7640SOL    HW223820   2.021   3.039   6.444
 7641SOL     OW23821   5.972   3.786   2.113
 7641SOL    HW123822   5.928   3.726   2.180
 7641SOL    HW223823   6.018   3.731   2.044
 7642SOL     OW23824   1.241   2.546   2.770
 7642SOL    HW123825   1.205   2.638   2.782
 7642SOL    HW223826   1.197   2.484   2.835
 7643SOL     OW23827   5.460   3.800   3.092
 7643SOL    HW123828   5.375   3.774   3.136
 7643SOL    HW223829   5.459   3.898   3.073
 7644SOL     OW23830   6.244   3.186   3.725
 7644SOL    HW123831   6.232   3.243   3.807
 7644SOL    HW223832   6.251   3.245   3.644
 7645SOL     OW23833   4.343   2.887   0.635
 7645SOL    HW123834   4.436   2.924   0.640
 7645SOL    HW223835   4.318   2.872   0.540
 7646SOL     OW23836   0.942   0.405   1.955
 7646SOL    HW123837   0.994   0.447   2.029
 7646SOL    HW223838   0.993   0.327   1.918
 7647SOL     OW23839   2.342   4.558   6.917
 7647SOL    HW123840   2.284   4.542   6.837
 7647SOL    HW223841   2.394   4.475   6.937
 7648SOL     OW23842   2.753   0.439   3.613
 7648SOL    HW123843   2.788   0.345   3.616
 7648SOL    HW223844   2.747   0.468   3.518
 7649SOL     OW23845   3.604   1.995   1.228
 7649SOL    HW123846   3.609   2.071   1.162
 7649SOL    HW223847   3.602   2.032   1.321
 7650SOL     OW23848   6.834   5.128   0.428
 7650SOL    HW123849   6.818   5.032   0.406
 7650SOL    HW223850   6.845   5.138   0.527
 7651SOL     OW23851   5.406   1.865   6.056
 7651SOL    HW123852   5.346   1.938   6.024
 7651SOL    HW223853   5.501   1.887   6.033
 7652SOL     OW23854   0.958   3.530   2.780
 7652SOL    HW123855   0.938   3.595   2.853
 7652SOL    HW223856   0.921   3.565   2.694
 7653SOL     OW23857   4.478   2.382   2.070
 7653SOL    HW123858   4.569   2.406   2.101
 7653SOL    HW223859   4.443   2.455   2.011
 7654SOL     OW23860   5.443   3.933   5.296
 7654SOL    HW123861   5.408   3.856   5.349
 7654SOL    HW223862   5.475   3.901   5.207
 7655SOL     OW23863   4.945   5.085   6.716
 7655SOL    HW123864   4.852   5.049   6.714
 7655SOL    HW223865   4.966   5.118   6.809
 7656SOL     OW23866   0.270   0.652   5.183
 7656SOL    HW123867   0.343   0.710   5.145
 7656SOL    HW223868   0.298   0.618   5.273
 7657SOL     OW23869   3.923   1.920   3.327
 7657SOL    HW123870   3.927   1.892   3.422
 7657SOL    HW223871   3.919   2.020   3.322
 7658SOL     OW23872   4.126   0.617   5.804
 7658SOL    HW123873   4.214   0.642   5.845
 7658SOL    HW223874   4.086   0.697   5.760
 7659SOL     OW23875   5.184   6.295   6.154
 7659SOL    HW123876   5.233   6.375   6.189
 7659SOL    HW223877   5.232   6.212   6.180
 7660SOL     OW23878   5.221   5.344   3.765
 7660SOL    HW123879   5.226   5.262   3.709
 7660SOL    HW223880   5.127   5.378   3.765
 7661SOL     OW23881   5.949   3.083   3.854
 7661SOL    HW123882   5.930   3.149   3.781
 7661SOL    HW223883   5.954   3.130   3.942
 7662SOL     OW23884   6.199   5.542   3.465
 7662SOL    HW123885   6.213   5.588   3.553
 7662SOL    HW223886   6.185   5.444   3.480
 7663SOL     OW23887   0.763   6.158   7.016
 7663SOL    HW123888   0.753   6.178   0.088
 7663SOL    HW223889   0.809   6.233   6.971
 7664SOL     OW23890   4.002   5.367   4.734
 7664SOL    HW123891   3.928   5.405   4.680
 7664SOL    HW223892   4.003   5.410   4.825
 7665SOL     OW23893   1.891   5.401   3.745
 7665SOL    HW123894   1.933   5.311   3.758
 7665SOL    HW223895   1.791   5.393   3.751
 7666SOL     OW23896   1.977   0.496   2.637
 7666SOL    HW123897   1.915   0.484   2.715
 7666SOL    HW223898   1.930   0.547   2.565
 7667SOL     OW23899   5.874   6.950   5.762
 7667SOL    HW123900   5.959   6.964   5.710
 7667SOL    HW223901   5.801   6.926   5.698
 7668SOL     OW23902   3.209   3.407   2.302
 7668SOL    HW123903   3.113   3.435   2.309
 7668SOL    HW223904   3.247   3.442   2.215
 7669SOL     OW23905   4.416   6.694   5.102
 7669SOL    HW123906   4.332   6.670   5.054
 7669SOL    HW223907   4.488   6.629   5.078
 7670SOL     OW23908   2.005   5.742   0.915
 7670SOL    HW123909   2.021   5.708   0.822
 7670SOL    HW223910   1.914   5.782   0.920
 7671SOL     OW23911   4.452   2.555   5.080
 7671SOL    HW123912   4.486   2.463   5.057
 7671SOL    HW223913   4.355   2.550   5.103
 7672SOL     OW23914   6.029   6.869   1.510
 7672SOL    HW123915   5.956   6.932   1.537
 7672SOL    HW223916   6.019   6.783   1.560
 7673SOL     OW23917   1.622   3.312   0.332
 7673SOL    HW123918   1.692   3.263   0.282
 7673SOL    HW223919   1.586   3.387   0.276
 7674SOL     OW23920   6.112   1.279   5.129
 7674SOL    HW123921   6.207   1.278   5.159
 7674SOL    HW223922   6.108   1.305   5.032
 7675SOL     OW23923   5.093   0.625   3.186
 7675SOL    HW123924   5.142   0.585   3.108
 7675SOL    HW223925   5.123   0.719   3.198
 7676SOL     OW23926   2.299   0.117   1.334
 7676SOL    HW123927   2.228   0.156   1.275
 7676SOL    HW223928   2.285   0.018   1.342
 7677SOL     OW23929   1.932   2.565   2.685
 7677SOL    HW123930   1.994   2.590   2.611
 7677SOL    HW223931   1.984   2.547   2.768
 7678SOL     OW23932   4.821   6.693   5.917
 7678SOL    HW123933   4.832   6.792   5.927
 7678SOL    HW223934   4.903   6.646   5.950
 7679SOL     OW23935   1.703   4.907   4.716
 7679SOL    HW123936   1.768   4.929   4.643
 7679SOL    HW223937   1.621   4.867   4.676
 7680SOL     OW23938   4.607   0.436   0.678
 7680SOL    HW123939   4.548   0.458   0.755
 7680SOL    HW223940   4.583   0.492   0.599
 7681SOL     OW23941   3.938   2.321   5.666
 7681SOL    HW123942   3.962   2.231   5.631
 7681SOL    HW223943   3.979   2.334   5.756
 7682SOL     OW23944   2.806   0.729   0.312
 7682SOL    HW123945   2.762   0.663   0.252
 7682SOL    HW223946   2.900   0.700   0.332
 7683SOL     OW23947   6.896   3.382   3.742
 7683SOL    HW123948   6.862   3.399   3.649
 7683SOL    HW223949   6.833   3.322   3.790
 7684SOL     OW23950   4.266   1.438   6.038
 7684SOL    HW123951   4.276   1.443   5.938
 7684SOL    HW223952   4.238   1.345   6.064
 7685SOL     OW23953   4.455   4.380   1.230
 7685SOL    HW123954   4.528   4.411   1.291
 7685SOL    HW223955   4.443   4.281   1.241
 7686SOL     OW23956   2.126   0.812   2.473
 7686SOL    HW123957   2.167   0.902   2.489
 7686SOL    HW223958   2.044   0.822   2.416
 7687SOL     OW23959   4.763   4.115   5.658
 7687SOL    HW123960   4.751   4.169   5.742
 7687SOL    HW223961   4.740   4.020   5.675
 7688SOL     OW23962   6.706   0.881   3.528
 7688SOL    HW123963   6.674   0.799   3.481
 7688SOL    HW223964   6.627   0.937   3.553
 7689SOL     OW23965   3.310   6.978   5.219
 7689SOL    HW123966   3.405   6.945   5.216
 7689SOL    HW223967   3.300   0.029   5.155
 7690SOL     OW23968   1.009   5.453   3.161
 7690SOL    HW123969   1.015   5.519   3.085
 7690SOL    HW223970   0.984   5.502   3.245
 7691SOL     OW23971   6.866   3.669   5.323
 7691SOL    HW123972   6.895   3.573   5.324
 7691SOL    HW223973   6.893   3.712   5.409
 7692SOL     OW23974   1.625   6.054   1.102
 7692SOL    HW123975   1.723   6.065   1.116
 7692SOL    HW223976   1.575   6.111   1.167
 7693SOL     OW23977   4.666   0.864   0.431
 7693SOL    HW123978   4.640   0.884   0.525
 7693SOL    HW223979   4.611   0.788   0.397
 7694SOL     OW23980   5.760   4.673   3.123
 7694SOL    HW123981   5.727   4.641   3.212
 7694SOL    HW223982   5.725   4.614   3.050
 7695SOL     OW23983   4.679   0.467   6.554
 7695SOL    HW123984   4.750   0.537   6.543
 7695SOL    HW223985   4.632   0.453   6.467
 7696SOL     OW23986   1.128   3.978   5.508
 7696SOL    HW123987   1.111   3.979   5.607
 7696SOL    HW223988   1.050   3.935   5.462
 7697SOL     OW23989   4.694   0.949   2.131
 7697SOL    HW123990   4.627   0.949   2.206
 7697SOL    HW223991   4.646   0.940   2.044
 7698SOL     OW23992   0.002   1.514   5.980
 7698SOL    HW123993   0.063   1.453   6.030
 7698SOL    HW223994   0.056   1.584   5.932
 7699SOL     OW23995   3.274   3.392   1.462
 7699SOL    HW123996   3.296   3.487   1.480
 7699SOL    HW223997   3.297   3.369   1.367
 7700SOL     OW23998   5.189   0.343   4.925
 7700SOL    HW123999   5.213   0.246   4.925
 7700SOL    HW224000   5.232   0.389   5.002
 7701SOL     OW24001   6.328   1.948   5.257
 7701SOL    HW124002   6.372   1.955   5.167
 7701SOL    HW224003   6.282   1.860   5.264
 7702SOL     OW24004   1.511   6.611   6.744
 7702SOL    HW124005   1.601   6.595   6.705
 7702SOL    HW224006   1.441   6.571   6.685
 7703SOL     OW24007   0.475   2.259   6.878
 7703SOL    HW124008   0.554   2.207   6.846
 7703SOL    HW224009   0.442   2.221   6.964
 7704SOL     OW24010   3.252   3.889   1.168
 7704SOL    HW124011   3.174   3.952   1.164
 7704SOL    HW224012   3.290   3.889   1.261
 7705SOL     OW24013   4.072   3.792   4.313
 7705SOL    HW124014   4.019   3.863   4.265
 7705SOL    HW224015   4.103   3.724   4.246
 7706SOL     OW24016   5.965   1.117   5.542
 7706SOL    HW124017   5.884   1.085   5.494
 7706SOL    HW224018   6.004   1.042   5.595
 7707SOL     OW24019   6.956   5.139   6.655
 7707SOL    HW124020   6.919   5.082   6.728
 7707SOL    HW224021   6.967   5.233   6.689
 7708SOL     OW24022   4.797   1.304   4.917
 7708SOL    HW124023   4.733   1.347   4.853
 7708SOL    HW224024   4.836   1.373   4.977
 7709SOL     OW24025   3.672   2.554   1.129
 7709SOL    HW124026   3.749   2.491   1.122
 7709SOL    HW224027   3.642   2.581   1.037
 7710SOL     OW24028   3.706   2.151   6.741
 7710SOL    HW124029   3.723   2.229   6.801
 7710SOL    HW224030   3.688   2.070   6.797
 7711SOL     OW24031   4.265   6.057   5.058
 7711SOL    HW124032   4.184   6.115   5.068
 7711SOL    HW224033   4.262   5.983   5.124
 7712SOL     OW24034   6.245   4.017   6.250
 7712SOL    HW124035   6.331   4.032   6.298
 7712SOL    HW224036   6.213   3.924   6.268
 7713SOL     OW24037   0.549   5.433   6.714
 7713SOL    HW124038   0.493   5.352   6.698
 7713SOL    HW224039   0.518   5.480   6.797
 7714SOL     OW24040   5.600   4.534   4.869
 7714SOL    HW124041   5.542   4.479   4.929
 7714SOL    HW224042   5.690   4.545   4.910
 7715SOL     OW24043   3.819   2.128   1.725
 7715SOL    HW124044   3.861   2.180   1.651
 7715SOL    HW224045   3.755   2.187   1.774
 7716SOL     OW24046   4.141   2.188   4.509
 7716SOL    HW124047   4.100   2.102   4.541
 7716SOL    HW224048   4.146   2.187   4.409
 7717SOL     OW24049   3.034   6.898   6.779
 7717SOL    HW124050   2.996   6.811   6.750
 7717SOL    HW224051   3.065   6.950   6.699
 7718SOL     OW24052   2.216   6.514   3.535
 7718SOL    HW124053   2.270   6.509   3.619
 7718SOL    HW224054   2.235   6.600   3.488
 7719SOL     OW24055   5.637   2.457   5.252
 7719SOL    HW124056   5.665   2.485   5.160
 7719SOL    HW224057   5.712   2.412   5.298
 7720SOL     OW24058   4.715   6.526   1.260
 7720SOL    HW124059   4.737   6.609   1.310
 7720SOL    HW224060   4.743   6.535   1.165
 7721SOL     OW24061   0.722   5.317   2.837
 7721SOL    HW124062   0.712   5.344   2.933
 7721SOL    HW224063   0.751   5.396   2.784
 7722SOL     OW24064   0.762   5.885   3.761
 7722SOL    HW124065   0.809   5.973   3.762
 7722SOL    HW224066   0.665   5.899   3.741
 7723SOL     OW24067   6.696   1.800   6.745
 7723SOL    HW124068   6.717   1.779   6.650
 7723SOL    HW224069   6.772   1.773   6.804
 7724SOL     OW24070   2.390   6.305   6.469
 7724SOL    HW124071   2.457   6.252   6.418
 7724SOL    HW224072   2.435   6.381   6.516
 7725SOL     OW24073   5.244   3.980   3.879
 7725SOL    HW124074   5.339   3.968   3.848
 7725SOL    HW224075   5.236   4.067   3.928
 7726SOL     OW24076   5.097   5.401   3.394
 7726SOL    HW124077   5.130   5.314   3.358
 7726SOL    HW224078   5.017   5.385   3.452
 7727SOL     OW24079   5.902   4.001   1.940
 7727SOL    HW124080   5.999   4.027   1.941
 7727SOL    HW224081   5.887   3.926   2.004
 7728SOL     OW24082   1.801   2.817   2.885
 7728SOL    HW124083   1.848   2.771   2.810
 7728SOL    HW224084   1.828   2.775   2.972
 7729SOL     OW24085   5.294   1.658   6.188
 7729SOL    HW124086   5.251   1.601   6.118
 7729SOL    HW224087   5.337   1.737   6.146
 7730SOL     OW24088   4.578   6.668   2.448
 7730SOL    HW124089   4.657   6.708   2.401
 7730SOL    HW224090   4.559   6.721   2.531
 7731SOL     OW24091   6.273   1.555   3.811
 7731SOL    HW124092   6.260   1.613   3.730
 7731SOL    HW224093   6.185   1.530   3.849
 7732SOL     OW24094   4.615   5.007   0.689
 7732SOL    HW124095   4.606   4.912   0.721
 7732SOL    HW224096   4.574   5.016   0.598
 7733SOL     OW24097   3.568   5.438   0.793
 7733SOL    HW124098   3.546   5.341   0.804
 7733SOL    HW224099   3.492   5.494   0.826
 7734SOL     OW24100   1.409   2.737   1.839
 7734SOL    HW124101   1.316   2.771   1.826
 7734SOL    HW224102   1.425   2.661   1.776
 7735SOL     OW24103   5.935   4.257   0.432
 7735SOL    HW124104   5.939   4.316   0.513
 7735SOL    HW224105   6.011   4.191   0.435
 7736SOL     OW24106   6.132   4.596   6.505
 7736SOL    HW124107   6.049   4.564   6.550
 7736SOL    HW224108   6.124   4.583   6.406
 7737SOL     OW24109   4.785   2.800   0.093
 7737SOL    HW124110   4.809   2.723   0.034
 7737SOL    HW224111   4.828   2.883   0.060
 7738SOL     OW24112   1.917   4.962   6.744
 7738SOL    HW124113   1.886   5.003   6.658
 7738SOL    HW224114   1.857   4.991   6.818
 7739SOL     OW24115   5.337   4.443   2.394
 7739SOL    HW124116   5.353   4.434   2.296
 7739SOL    HW224117   5.352   4.355   2.439
 7740SOL     OW24118   6.797   5.987   3.666
 7740SOL    HW124119   6.800   5.890   3.689
 7740SOL    HW224120   6.883   6.030   3.692
 7741SOL     OW24121   3.269   5.351   3.548
 7741SOL    HW124122   3.246   5.448   3.549
 7741SOL    HW224123   3.259   5.314   3.641
 7742SOL     OW24124   6.708   0.745   4.643
 7742SOL    HW124125   6.707   0.750   4.543
 7742SOL    HW224126   6.757   0.825   4.680
 7743SOL     OW24127   5.000   3.457   2.521
 7743SOL    HW124128   5.006   3.365   2.482
 7743SOL    HW224129   4.946   3.454   2.605
 7744SOL     OW24130   0.461   6.628   4.681
 7744SOL    HW124131   0.417   6.561   4.741
 7744SOL    HW224132   0.536   6.583   4.632
 7745SOL     OW24133   5.647   2.929   5.409
 7745SOL    HW124134   5.666   2.846   5.462
 7745SOL    HW224135   5.549   2.948   5.413
 7746SOL     OW24136   1.815   0.818   6.253
 7746SOL    HW124137   1.780   0.904   6.289
 7746SOL    HW224138   1.861   0.768   6.326
 7747SOL     OW24139   4.679   5.501   0.276
 7747SOL    HW124140   4.629   5.416   0.293
 7747SOL    HW224141   4.704   5.506   0.179
 7748SOL     OW24142   2.016   3.909   6.857
 7748SOL    HW124143   1.930   3.879   6.816
 7748SOL    HW224144   2.000   3.943   6.949
 7749SOL     OW24145   5.876   3.216   6.261
 7749SOL    HW124146   5.899   3.121   6.280
 7749SOL    HW224147   5.943   3.256   6.199
 7750SOL     OW24148   4.488   5.573   3.188
 7750SOL    HW124149   4.444   5.525   3.112
 7750SOL    HW224150   4.567   5.521   3.220
 7751SOL     OW24151   0.705   2.543   1.084
 7751SOL    HW124152   0.746   2.566   0.996
 7751SOL    HW224153   0.634   2.474   1.071
 7752SOL     OW24154   3.355   0.847   2.681
 7752SOL    HW124155   3.451   0.840   2.710
 7752SOL    HW224156   3.303   0.769   2.717
 7753SOL     OW24157   4.003   0.383   5.762
 7753SOL    HW124158   4.020   0.360   5.667
 7753SOL    HW224159   4.044   0.472   5.783
 7754SOL     OW24160   4.846   5.928   1.350
 7754SOL    HW124161   4.940   5.906   1.323
 7754SOL    HW224162   4.847   5.988   1.430
 7755SOL     OW24163   0.491   3.888   6.314
 7755SOL    HW124164   0.544   3.809   6.282
 7755SOL    HW224165   0.508   3.965   6.252
 7756SOL     OW24166   2.223   4.041   2.321
 7756SOL    HW124167   2.184   4.128   2.291
 7756SOL    HW224168   2.264   4.052   2.411
 7757SOL     OW24169   0.650   4.508   0.208
 7757SOL    HW124170   0.748   4.488   0.209
 7757SOL    HW224171   0.599   4.426   0.235
 7758SOL     OW24172   0.735   1.161   5.594
 7758SOL    HW124173   0.700   1.228   5.659
 7758SOL    HW224174   0.775   1.084   5.643
 7759SOL     OW24175   3.743   1.038   2.491
 7759SOL    HW124176   3.786   1.127   2.508
 7759SOL    HW224177   3.646   1.053   2.470
 7760SOL     OW24178   4.635   3.170   0.026
 7760SOL    HW124179   4.620   3.269   0.038
 7760SOL    HW224180   4.711   3.141   0.085
 7761SOL     OW24181   5.414   5.260   2.864
 7761SOL    HW124182   5.416   5.358   2.882
 7761SOL    HW224183   5.343   5.217   2.920
 7762SOL     OW24184   4.704   1.632   0.925
 7762SOL    HW124185   4.611   1.599   0.909
 7762SOL    HW224186   4.768   1.573   0.878
 7763SOL     OW24187   1.660   0.569   3.381
 7763SOL    HW124188   1.610   0.552   3.466
 7763SOL    HW224189   1.616   0.644   3.332
 7764SOL     OW24190   3.805   4.573   5.323
 7764SOL    HW124191   3.728   4.563   5.387
 7764SOL    HW224192   3.859   4.489   5.324
 7765SOL     OW24193   6.557   4.061   4.689
 7765SOL    HW124194   6.484   4.014   4.739
 7765SOL    HW224195   6.571   4.017   4.601
 7766SOL     OW24196   6.858   1.899   5.774
 7766SOL    HW124197   6.807   1.861   5.697
 7766SOL    HW224198   6.795   1.933   5.843
 7767SOL     OW24199   4.325   0.304   3.695
 7767SOL    HW124200   4.291   0.332   3.605
 7767SOL    HW224201   4.247   0.294   3.758
 7768SOL     OW24202   3.516   5.667   3.359
 7768SOL    HW124203   3.460   5.676   3.277
 7768SOL    HW224204   3.554   5.757   3.383
 7769SOL     OW24205   4.076   2.264   6.524
 7769SOL    HW124206   4.042   2.324   6.596
 7769SOL    HW224207   4.045   2.298   6.435
 7770SOL     OW24208   1.149   2.878   3.873
 7770SOL    HW124209   1.239   2.835   3.878
 7770SOL    HW224210   1.130   2.926   3.959
 7771SOL     OW24211   1.057   4.060   5.024
 7771SOL    HW124212   1.106   4.061   5.111
 7771SOL    HW224213   1.038   3.966   4.997
 7772SOL     OW24214   4.953   5.763   1.872
 7772SOL    HW124215   4.865   5.795   1.838
 7772SOL    HW224216   5.007   5.726   1.796
 7773SOL     OW24217   2.846   6.376   6.672
 7773SOL    HW124218   2.816   6.429   6.751
 7773SOL    HW224219   2.848   6.434   6.591
 7774SOL     OW24220   5.014   1.314   2.826
 7774SOL    HW124221   4.936   1.251   2.824
 7774SOL    HW224222   5.022   1.356   2.916
 7775SOL     OW24223   3.691   1.746   1.186
 7775SOL    HW124224   3.657   1.837   1.209
 7775SOL    HW224225   3.614   1.683   1.177
 7776SOL     OW24226   2.774   1.412   3.810
 7776SOL    HW124227   2.819   1.323   3.808
 7776SOL    HW224228   2.838   1.481   3.843
 7777SOL     OW24229   5.057   5.082   3.378
 7777SOL    HW124230   4.998   5.097   3.457
 7777SOL    HW224231   5.149   5.057   3.408
 7778SOL     OW24232   1.079   3.228   1.841
 7778SOL    HW124233   0.984   3.234   1.811
 7778SOL    HW224234   1.139   3.251   1.764
 7779SOL     OW24235   2.827   0.628   2.965
 7779SOL    HW124236   2.835   0.671   3.055
 7779SOL    HW224237   2.819   0.698   2.895
 7780SOL     OW24238   6.568   5.634   4.063
 7780SOL    HW124239   6.543   5.717   4.012
 7780SOL    HW224240   6.510   5.627   4.144
 7781SOL     OW24241   3.149   3.051   1.073
 7781SOL    HW124242   3.062   3.041   1.121
 7781SOL    HW224243   3.219   2.995   1.118
 7782SOL     OW24244   5.174   5.029   3.886
 7782SOL    HW124245   5.120   5.005   3.967
 7782SOL    HW224246   5.271   5.022   3.908
 7783SOL     OW24247   0.481   6.407   3.928
 7783SOL    HW124248   0.533   6.410   4.013
 7783SOL    HW224249   0.483   6.497   3.885
 7784SOL     OW24250   1.191   2.864   2.362
 7784SOL    HW124251   1.110   2.923   2.353
 7784SOL    HW224252   1.245   2.892   2.441
 7785SOL     OW24253   5.960   6.585   2.443
 7785SOL    HW124254   5.879   6.531   2.467
 7785SOL    HW224255   5.974   6.582   2.344
 7786SOL     OW24256   5.631   0.633   6.945
 7786SOL    HW124257   5.598   0.539   6.940
 7786SOL    HW224258   5.569   0.693   6.896
 7787SOL     OW24259   0.978   2.411   1.272
 7787SOL    HW124260   1.057   2.456   1.313
 7787SOL    HW224261   0.974   2.432   1.174
 7788SOL     OW24262   1.121   4.095   2.200
 7788SOL    HW124263   1.144   4.141   2.115
 7788SOL    HW224264   1.197   4.034   2.226
 7789SOL     OW24265   3.578   0.316   6.061
 7789SOL    HW124266   3.652   0.316   5.993
 7789SOL    HW224267   3.614   0.349   6.148
 7790SOL     OW24268   4.012   5.302   4.291
 7790SOL    HW124269   4.040   5.241   4.364
 7790SOL    HW224270   4.092   5.326   4.235
 7791SOL     OW24271   2.418   6.511   1.419
 7791SOL    HW124272   2.495   6.573   1.434
 7791SOL    HW224273   2.413   6.487   1.322
 7792SOL     OW24274   1.338   1.252   2.285
 7792SOL    HW124275   1.365   1.188   2.214
 7792SOL    HW224276   1.336   1.205   2.373
 7793SOL     OW24277   5.481   1.537   0.518
 7793SOL    HW124278   5.392   1.538   0.564
 7793SOL    HW224279   5.543   1.600   0.565
 7794SOL     OW24280   1.315   1.208   2.722
 7794SOL    HW124281   1.314   1.308   2.727
 7794SOL    HW224282   1.221   1.174   2.720
 7795SOL     OW24283   4.558   3.787   1.143
 7795SOL    HW124284   4.568   3.742   1.232
 7795SOL    HW224285   4.544   3.885   1.156
 7796SOL     OW24286   4.366   1.423   1.180
 7796SOL    HW124287   4.301   1.418   1.105
 7796SOL    HW224288   4.375   1.518   1.211
 7797SOL     OW24289   1.511   6.329   3.238
 7797SOL    HW124290   1.475   6.271   3.311
 7797SOL    HW224291   1.459   6.414   3.235
 7798SOL     OW24292   1.655   3.108   1.032
 7798SOL    HW124293   1.607   3.067   0.954
 7798SOL    HW224294   1.611   3.194   1.057
 7799SOL     OW24295   2.192   5.832   4.058
 7799SOL    HW124296   2.146   5.764   4.115
 7799SOL    HW224297   2.291   5.815   4.060
 7800SOL     OW24298   0.581   0.704   2.323
 7800SOL    HW124299   0.673   0.736   2.344
 7800SOL    HW224300   0.528   0.695   2.407
 7801SOL     OW24301   2.464   2.139   0.785
 7801SOL    HW124302   2.414   2.080   0.722
 7801SOL    HW224303   2.453   2.104   0.879
 7802SOL     OW24304   6.533   5.117   3.615
 7802SOL    HW124305   6.599   5.044   3.600
 7802SOL    HW224306   6.581   5.200   3.645
 7803SOL     OW24307   3.516   2.370   6.435
 7803SOL    HW124308   3.495   2.376   6.337
 7803SOL    HW224309   3.548   2.277   6.456
 7804SOL     OW24310   3.158   1.237   5.698
 7804SOL    HW124311   3.137   1.335   5.711
 7804SOL    HW224312   3.089   1.197   5.638
 7805SOL     OW24313   6.341   1.930   6.690
 7805SOL    HW124314   6.393   1.994   6.746
 7805SOL    HW224315   6.287   1.869   6.749
 7806SOL     OW24316   6.210   2.252   5.074
 7806SOL    HW124317   6.112   2.235   5.063
 7806SOL    HW224318   6.232   2.255   5.171
 7807SOL     OW24319   1.924   5.749   5.274
 7807SOL    HW124320   1.926   5.831   5.331
 7807SOL    HW224321   2.012   5.703   5.278
 7808SOL     OW24322   0.017   2.759   4.475
 7808SOL    HW124323   7.006   2.686   4.417
 7808SOL    HW224324   6.968   2.800   4.528
 7809SOL     OW24325   3.339   0.628   3.312
 7809SOL    HW124326   3.374   0.658   3.223
 7809SOL    HW224327   3.364   0.533   3.327
 7810SOL     OW24328   2.370   6.780   5.972
 7810SOL    HW124329   2.323   6.771   5.885
 7810SOL    HW224330   2.463   6.815   5.956
 7811SOL     OW24331   1.402   5.271   2.999
 7811SOL    HW124332   1.332   5.303   3.063
 7811SOL    HW224333   1.392   5.318   2.911
 7812SOL     OW24334   3.077   0.802   5.838
 7812SOL    HW124335   3.028   0.791   5.924
 7812SOL    HW224336   3.101   0.712   5.802
 7813SOL     OW24337   5.813   1.141   0.396
 7813SOL    HW124338   5.727   1.162   0.349
 7813SOL    HW224339   5.806   1.052   0.439
 7814SOL     OW24340   0.123   2.526   1.470
 7814SOL    HW124341   0.101   2.584   1.391
 7814SOL    HW224342   0.178   2.449   1.439
 7815SOL     OW24343   5.072   6.149   3.140
 7815SOL    HW124344   5.023   6.215   3.083
 7815SOL    HW224345   5.081   6.185   3.232
 7816SOL     OW24346   1.440   1.699   5.575
 7816SOL    HW124347   1.372   1.667   5.640
 7816SOL    HW224348   1.438   1.799   5.571
 7817SOL     OW24349   4.779   0.853   5.512
 7817SOL    HW124350   4.841   0.791   5.562
 7817SOL    HW224351   4.817   0.871   5.421
 7818SOL     OW24352   5.094   0.855   2.716
 7818SOL    HW124353   5.125   0.938   2.762
 7818SOL    HW224354   4.994   0.849   2.719
 7819SOL     OW24355   2.513   2.389   4.516
 7819SOL    HW124356   2.528   2.298   4.556
 7819SOL    HW224357   2.420   2.419   4.538
 7820SOL     OW24358   1.695   0.708   6.024
 7820SOL    HW124359   1.672   0.758   5.940
 7820SOL    HW224360   1.727   0.773   6.093
 7821SOL     OW24361   3.755   5.736   6.525
 7821SOL    HW124362   3.812   5.662   6.489
 7821SOL    HW224363   3.681   5.698   6.579
 7822SOL     OW24364   0.566   1.154   4.558
 7822SOL    HW124365   0.616   1.141   4.643
 7822SOL    HW224366   0.548   1.251   4.544
 7823SOL     OW24367   2.619   2.614   5.921
 7823SOL    HW124368   2.566   2.664   5.853
 7823SOL    HW224369   2.715   2.611   5.893
 7824SOL     OW24370   6.128   3.984   2.581
 7824SOL    HW124371   6.152   3.969   2.486
 7824SOL    HW224372   6.035   4.020   2.587
 7825SOL     OW24373   3.537   2.940   3.926
 7825SOL    HW124374   3.447   2.901   3.907
 7825SOL    HW224375   3.528   3.017   3.989
 7826SOL     OW24376   6.298   6.513   0.904
 7826SOL    HW124377   6.219   6.496   0.846
 7826SOL    HW224378   6.271   6.569   0.982
 7827SOL     OW24379   5.044   3.798   0.738
 7827SOL    HW124380   5.052   3.840   0.828
 7827SOL    HW224381   5.019   3.868   0.671
 7828SOL     OW24382   0.631   5.962   0.237
 7828SOL    HW124383   0.691   5.983   0.314
 7828SOL    HW224384   0.661   5.876   0.195
 7829SOL     OW24385   3.139   4.027   3.048
 7829SOL    HW124386   3.171   3.985   2.963
 7829SOL    HW224387   3.069   4.095   3.027
 7830SOL     OW24388   0.063   4.513   6.842
 7830SOL    HW124389   0.084   4.609   6.828
 7830SOL    HW224390   7.024   4.483   6.771
 7831SOL     OW24391   2.831   2.857   6.903
 7831SOL    HW124392   2.887   2.837   6.822
 7831SOL    HW224393   2.886   2.907   6.969
 7832SOL     OW24394   3.664   2.688   5.705
 7832SOL    HW124395   3.638   2.779   5.736
 7832SOL    HW224396   3.609   2.619   5.753
 7833SOL     OW24397   6.461   0.017   1.424
 7833SOL    HW124398   6.500   6.986   1.497
 7833SOL    HW224399   6.406   0.090   1.465
 7834SOL     OW24400   5.166   1.096   1.265
 7834SOL    HW124401   5.129   1.087   1.172
 7834SOL    HW224402   5.239   1.029   1.278
 7835SOL     OW24403   2.492   2.587   4.302
 7835SOL    HW124404   2.526   2.525   4.373
 7835SOL    HW224405   2.563   2.602   4.234
 7836SOL     OW24406   2.437   0.499   6.781
 7836SOL    HW124407   2.525   0.463   6.813
 7836SOL    HW224408   2.437   0.505   6.681
 7837SOL     OW24409   5.417   6.501   2.154
 7837SOL    HW124410   5.322   6.508   2.124
 7837SOL    HW224411   5.452   6.410   2.130
 7838SOL     OW24412   3.541   5.700   4.119
 7838SOL    HW124413   3.525   5.630   4.189
 7838SOL    HW224414   3.460   5.708   4.061
 7839SOL     OW24415   6.892   5.676   2.971
 7839SOL    HW124416   6.942   5.760   2.951
 7839SOL    HW224417   6.797   5.698   2.993
 7840SOL     OW24418   4.405   2.661   6.148
 7840SOL    HW124419   4.452   2.578   6.119
 7840SOL    HW224420   4.395   2.723   6.070
 7841SOL     OW24421   1.126   2.214   5.779
 7841SOL    HW124422   1.114   2.131   5.833
 7841SOL    HW224423   1.057   2.281   5.804
 7842SOL     OW24424   1.900   1.115   2.574
 7842SOL    HW124425   1.855   1.097   2.662
 7842SOL    HW224426   1.898   1.213   2.556
 7843SOL     OW24427   0.304   2.366   1.774
 7843SOL    HW124428   0.360   2.368   1.691
 7843SOL    HW224429   0.295   2.459   1.811
 7844SOL     OW24430   3.077   1.878   3.324
 7844SOL    HW124431   3.132   1.822   3.261
 7844SOL    HW224432   3.086   1.842   3.417
 7845SOL     OW24433   1.057   0.792   4.284
 7845SOL    HW124434   1.150   0.760   4.303
 7845SOL    HW224435   0.995   0.755   4.352
 7846SOL     OW24436   4.970   6.861   2.515
 7846SOL    HW124437   4.979   6.899   2.607
 7846SOL    HW224438   4.986   6.934   2.448
 7847SOL     OW24439   0.590   6.749   6.614
 7847SOL    HW124440   0.545   6.833   6.582
 7847SOL    HW224441   0.551   6.670   6.566
 7848SOL     OW24442   4.449   3.924   1.479
 7848SOL    HW124443   4.525   3.862   1.460
 7848SOL    HW224444   4.484   4.016   1.493
 7849SOL     OW24445   5.713   4.044   5.123
 7849SOL    HW124446   5.692   3.948   5.139
 7849SOL    HW224447   5.769   4.053   5.040
 7850SOL     OW24448   1.225   2.760   5.062
 7850SOL    HW124449   1.253   2.665   5.050
 7850SOL    HW224450   1.176   2.770   5.148
 7851SOL     OW24451   2.972   6.737   0.809
 7851SOL    HW124452   3.063   6.722   0.849
 7851SOL    HW224453   2.978   6.809   0.740
 7852SOL     OW24454   2.578   6.645   0.575
 7852SOL    HW124455   2.517   6.695   0.636
 7852SOL    HW224456   2.634   6.582   0.629
 7853SOL     OW24457   1.872   1.312   0.181
 7853SOL    HW124458   1.818   1.248   0.236
 7853SOL    HW224459   1.815   1.348   0.107
 7854SOL     OW24460   3.963   3.952   4.113
 7854SOL    HW124461   4.027   3.965   4.038
 7854SOL    HW224462   3.885   3.899   4.080
 7855SOL     OW24463   3.080   0.045   4.743
 7855SOL    HW124464   3.110   0.025   4.650
 7855SOL    HW224465   3.136   0.118   4.781
 7856SOL     OW24466   3.029   3.263   6.386
 7856SOL    HW124467   3.022   3.317   6.470
 7856SOL    HW224468   2.945   3.275   6.332
 7857SOL     OW24469   0.120   2.509   4.880
 7857SOL    HW124470   0.202   2.475   4.835
 7857SOL    HW224471   0.040   2.462   4.843
 7858SOL     OW24472   5.218   2.885   3.115
 7858SOL    HW124473   5.163   2.820   3.063
 7858SOL    HW224474   5.240   2.963   3.056
 7859SOL     OW24475   6.970   0.195   0.452
 7859SOL    HW124476   0.006   0.119   0.432
 7859SOL    HW224477   6.933   0.185   0.544
 7860SOL     OW24478   4.577   6.308   1.291
 7860SOL    HW124479   4.620   6.398   1.289
 7860SOL    HW224480   4.645   6.238   1.268
 7861SOL     OW24481   6.276   3.631   0.756
 7861SOL    HW124482   6.223   3.549   0.737
 7861SOL    HW224483   6.353   3.637   0.692
 7862SOL     OW24484   2.660   4.511   1.658
 7862SOL    HW124485   2.733   4.554   1.711
 7862SOL    HW224486   2.663   4.412   1.671
 7863SOL     OW24487   4.443   6.087   2.753
 7863SOL    HW124488   4.403   6.175   2.782
 7863SOL    HW224489   4.501   6.051   2.825
 7864SOL     OW24490   1.673   5.652   5.204
 7864SOL    HW124491   1.682   5.561   5.246
 7864SOL    HW224492   1.759   5.702   5.214
 7865SOL     OW24493   4.508   0.863   3.321
 7865SOL    HW124494   4.521   0.824   3.412
 7865SOL    HW224495   4.455   0.799   3.264
 7866SOL     OW24496   3.184   0.481   5.456
 7866SOL    HW124497   3.089   0.461   5.432
 7866SOL    HW224498   3.221   0.407   5.512
 7867SOL     OW24499   6.599   3.163   0.917
 7867SOL    HW124500   6.610   3.112   1.003
 7867SOL    HW224501   6.679   3.221   0.903
 7868SOL     OW24502   4.764   6.559   0.996
 7868SOL    HW124503   4.675   6.563   0.951
 7868SOL    HW224504   4.835   6.548   0.927
 7869SOL     OW24505   5.931   1.698   4.060
 7869SOL    HW124506   5.912   1.659   4.151
 7869SOL    HW224507   5.992   1.777   4.070
 7870SOL     OW24508   6.649   0.271   3.494
 7870SOL    HW124509   6.692   0.336   3.556
 7870SOL    HW224510   6.710   0.193   3.480
 7871SOL     OW24511   5.713   3.064   3.270
 7871SOL    HW124512   5.682   2.978   3.230
 7871SOL    HW224513   5.805   3.053   3.307
 7872SOL     OW24514   6.160   3.724   3.851
 7872SOL    HW124515   6.109   3.801   3.890
 7872SOL    HW224516   6.256   3.750   3.841
 7873SOL     OW24517   6.655   5.829   4.987
 7873SOL    HW124518   6.600   5.746   4.977
 7873SOL    HW224519   6.734   5.811   5.045
 7874SOL     OW24520   6.111   6.768   0.133
 7874SOL    HW124521   6.097   6.867   0.139
 7874SOL    HW224522   6.144   6.744   0.042
 7875SOL     OW24523   5.558   2.749   0.357
 7875SOL    HW124524   5.501   2.714   0.431
 7875SOL    HW224525   5.504   2.807   0.298
 7876SOL     OW24526   6.930   1.737   4.690
 7876SOL    HW124527   6.852   1.703   4.638
 7876SOL    HW224528   6.911   1.727   4.788
 7877SOL     OW24529   5.846   3.925   1.687
 7877SOL    HW124530   5.872   3.974   1.770
 7877SOL    HW224531   5.748   3.907   1.689
 7878SOL     OW24532   3.756   4.103   2.230
 7878SOL    HW124533   3.788   4.098   2.325
 7878SOL    HW224534   3.830   4.074   2.169
 7879SOL     OW24535   6.776   1.148   4.978
 7879SOL    HW124536   6.696   1.093   5.001
 7879SOL    HW224537   6.830   1.165   5.061
 7880SOL     OW24538   1.984   5.982   6.617
 7880SOL    HW124539   2.019   6.020   6.703
 7880SOL    HW224540   2.037   6.020   6.540
 7881SOL     OW24541   0.442   5.183   5.004
 7881SOL    HW124542   0.454   5.197   5.103
 7881SOL    HW224543   0.491   5.255   4.954
 7882SOL     OW24544   1.404   4.965   1.169
 7882SOL    HW124545   1.416   5.031   1.094
 7882SOL    HW224546   1.434   5.007   1.255
 7883SOL     OW24547   2.865   2.270   2.661
 7883SOL    HW124548   2.857   2.174   2.634
 7883SOL    HW224549   2.904   2.323   2.586
 7884SOL     OW24550   0.159   1.891   5.588
 7884SOL    HW124551   0.249   1.849   5.574
 7884SOL    HW224552   0.118   1.855   5.672
 7885SOL     OW24553   6.046   5.182   2.766
 7885SOL    HW124554   5.950   5.177   2.738
 7885SOL    HW224555   6.104   5.136   2.699
 7886SOL     OW24556   3.840   4.881   2.987
 7886SOL    HW124557   3.843   4.980   2.977
 7886SOL    HW224558   3.790   4.840   2.911
 7887SOL     OW24559   0.334   3.109   0.452
 7887SOL    HW124560   0.240   3.139   0.432
 7887SOL    HW224561   0.369   3.057   0.374
 7888SOL     OW24562   0.575   1.634   5.162
 7888SOL    HW124563   0.614   1.712   5.114
 7888SOL    HW224564   0.602   1.549   5.115
 7889SOL     OW24565   5.187   4.972   0.109
 7889SOL    HW124566   5.090   4.968   0.085
 7889SOL    HW224567   5.215   5.068   0.114
 7890SOL     OW24568   1.831   2.663   1.960
 7890SOL    HW124569   1.834   2.699   2.053
 7890SOL    HW224570   1.817   2.564   1.964
 7891SOL     OW24571   5.700   1.249   4.195
 7891SOL    HW124572   5.694   1.185   4.273
 7891SOL    HW224573   5.649   1.212   4.118
 7892SOL     OW24574   0.875   2.029   4.373
 7892SOL    HW124575   0.807   2.066   4.309
 7892SOL    HW224576   0.937   1.968   4.324
 7893SOL     OW24577   5.223   6.036   0.735
 7893SOL    HW124578   5.202   6.133   0.745
 7893SOL    HW224579   5.185   5.985   0.812
 7894SOL     OW24580   3.089   0.052   6.545
 7894SOL    HW124581   3.138   0.075   6.461
 7894SOL    HW224582   2.992   0.041   6.525
 7895SOL     OW24583   5.418   6.595   2.763
 7895SOL    HW124584   5.508   6.637   2.775
 7895SOL    HW224585   5.423   6.525   2.692
 7896SOL     OW24586   2.924   2.386   1.184
 7896SOL    HW124587   2.963   2.384   1.275
 7896SOL    HW224588   2.825   2.369   1.189
 7897SOL     OW24589   5.477   1.069   1.516
 7897SOL    HW124590   5.479   1.001   1.443
 7897SOL    HW224591   5.388   1.067   1.561
 7898SOL     OW24592   4.345   6.802   2.912
 7898SOL    HW124593   4.439   6.828   2.933
 7898SOL    HW224594   4.282   6.870   2.951
 7899SOL     OW24595   6.356   4.920   3.106
 7899SOL    HW124596   6.360   4.830   3.061
 7899SOL    HW224597   6.388   4.990   3.042
 7900SOL     OW24598   0.177   3.419   0.418
 7900SOL    HW124599   0.143   3.329   0.389
 7900SOL    HW224600   0.269   3.410   0.456
 7901SOL     OW24601   0.498   2.380   6.432
 7901SOL    HW124602   0.508   2.432   6.348
 7901SOL    HW224603   0.589   2.358   6.469
 7902SOL     OW24604   1.848   0.276   1.525
 7902SOL    HW124605   1.781   0.350   1.531
 7902SOL    HW224606   1.852   0.242   1.431
 7903SOL     OW24607   3.146   2.117   5.985
 7903SOL    HW124608   3.162   2.057   5.907
 7903SOL    HW224609   3.072   2.180   5.963
 7904SOL     OW24610   5.584   3.622   2.593
 7904SOL    HW124611   5.587   3.621   2.693
 7904SOL    HW224612   5.496   3.589   2.562
 7905SOL     OW24613   6.233   2.011   1.714
 7905SOL    HW124614   6.143   2.017   1.671
 7905SOL    HW224615   6.296   1.963   1.652
 7906SOL     OW24616   0.141   5.986   6.182
 7906SOL    HW124617   0.187   6.074   6.168
 7906SOL    HW224618   0.193   5.914   6.136
 7907SOL     OW24619   5.629   5.586   3.260
 7907SOL    HW124620   5.715   5.590   3.312
 7907SOL    HW224621   5.556   5.551   3.318
 7908SOL     OW24622   1.862   6.993   6.261
 7908SOL    HW124623   1.787   6.952   6.314
 7908SOL    HW224624   1.880   6.937   6.180
 7909SOL     OW24625   6.773   4.146   2.037
 7909SOL    HW124626   6.864   4.188   2.029
 7909SOL    HW224627   6.758   4.118   2.132
 7910SOL     OW24628   1.391   4.175   4.861
 7910SOL    HW124629   1.320   4.177   4.790
 7910SOL    HW224630   1.348   4.165   4.951
 7911SOL     OW24631   6.323   3.635   5.973
 7911SOL    HW124632   6.404   3.631   5.914
 7911SOL    HW224633   6.247   3.589   5.928
 7912SOL     OW24634   5.265   5.498   1.683
 7912SOL    HW124635   5.260   5.428   1.611
 7912SOL    HW224636   5.211   5.577   1.656
 7913SOL     OW24637   1.404   4.844   6.533
 7913SOL    HW124638   1.424   4.759   6.483
 7913SOL    HW224639   1.350   4.822   6.615
 7914SOL     OW24640   1.077   0.100   4.718
 7914SOL    HW124641   1.144   0.174   4.721
 7914SOL    HW224642   0.999   0.123   4.775
 7915SOL     OW24643   3.370   5.774   2.139
 7915SOL    HW124644   3.388   5.868   2.170
 7915SOL    HW224645   3.385   5.710   2.214
 7916SOL     OW24646   1.577   0.899   4.081
 7916SOL    HW124647   1.570   0.981   4.025
 7916SOL    HW224648   1.673   0.883   4.106
 7917SOL     OW24649   4.978   1.929   2.811
 7917SOL    HW124650   4.878   1.934   2.810
 7917SOL    HW224651   5.012   1.971   2.895
 7918SOL     OW24652   1.437   2.541   2.597
 7918SOL    HW124653   1.415   2.638   2.585
 7918SOL    HW224654   1.401   2.509   2.685
 7919SOL     OW24655   0.698   7.005   4.829
 7919SOL    HW124656   0.617   6.948   4.810
 7919SOL    HW224657   0.673   0.076   4.822
 7920SOL     OW24658   5.273   6.920   0.884
 7920SOL    HW124659   5.250   6.899   0.789
 7920SOL    HW224660   5.190   6.918   0.940
 7921SOL     OW24661   5.669   3.534   1.020
 7921SOL    HW124662   5.644   3.469   0.948
 7921SOL    HW224663   5.663   3.627   0.984
 7922SOL     OW24664   2.324   6.229   3.616
 7922SOL    HW124665   2.237   6.271   3.592
 7922SOL    HW224666   2.376   6.210   3.533
 7923SOL     OW24667   4.934   0.157   1.144
 7923SOL    HW124668   4.902   0.162   1.049
 7923SOL    HW224669   5.032   0.136   1.145
 7924SOL     OW24670   5.407   6.045   6.910
 7924SOL    HW124671   5.436   6.137   6.934
 7924SOL    HW224672   5.487   5.987   6.895
 7925SOL     OW24673   2.312   4.983   6.120
 7925SOL    HW124674   2.356   4.966   6.032
 7925SOL    HW224675   2.370   5.043   6.175
 7926SOL     OW24676   4.155   6.152   6.093
 7926SOL    HW124677   4.139   6.071   6.036
 7926SOL    HW224678   4.091   6.224   6.066
 7927SOL     OW24679   5.185   0.244   3.198
 7927SOL    HW124680   5.206   0.324   3.141
 7927SOL    HW224681   5.242   0.246   3.280
 7928SOL     OW24682   5.494   2.060   4.050
 7928SOL    HW124683   5.451   2.015   3.972
 7928SOL    HW224684   5.526   1.992   4.115
 7929SOL     OW24685   4.453   3.728   5.295
 7929SOL    HW124686   4.489   3.812   5.336
 7929SOL    HW224687   4.524   3.687   5.237
 7930SOL     OW24688   4.065   5.164   0.956
 7930SOL    HW124689   4.125   5.143   1.033
 7930SOL    HW224690   4.112   5.142   0.870
 7931SOL     OW24691   5.026   0.471   0.389
 7931SOL    HW124692   5.002   0.384   0.432
 7931SOL    HW224693   5.080   0.527   0.452
 7932SOL     OW24694   0.897   3.643   0.720
 7932SOL    HW124695   0.819   3.700   0.695
 7932SOL    HW224696   0.982   3.695   0.711
 7933SOL     OW24697   1.322   1.137   0.605
 7933SOL    HW124698   1.291   1.111   0.513
 7933SOL    HW224699   1.415   1.174   0.599
 7934SOL     OW24700   6.447   5.468   0.569
 7934SOL    HW124701   6.453   5.564   0.596
 7934SOL    HW224702   6.393   5.460   0.485
 7935SOL     OW24703   5.990   3.704   3.231
 7935SOL    HW124704   5.933   3.786   3.224
 7935SOL    HW224705   6.000   3.662   3.141
 7936SOL     OW24706   2.242   5.827   3.569
 7936SOL    HW124707   2.264   5.873   3.654
 7936SOL    HW224708   2.183   5.886   3.513
 7937SOL     OW24709   3.633   1.367   1.156
 7937SOL    HW124710   3.569   1.433   1.194
 7937SOL    HW224711   3.632   1.283   1.211
 7938SOL     OW24712   2.284   6.760   3.437
 7938SOL    HW124713   2.207   6.751   3.374
 7938SOL    HW224714   2.272   6.843   3.492
 7939SOL     OW24715   1.606   6.951   3.056
 7939SOL    HW124716   1.575   6.994   3.141
 7939SOL    HW224717   1.697   6.913   3.070
 7940SOL     OW24718   6.470   1.757   5.060
 7940SOL    HW124719   6.445   1.674   5.009
 7940SOL    HW224720   6.443   1.837   5.007
 7941SOL     OW24721   3.513   0.682   0.887
 7941SOL    HW124722   3.527   0.591   0.927
 7941SOL    HW224723   3.417   0.707   0.896
 7942SOL     OW24724   1.407   3.894   1.156
 7942SOL    HW124725   1.327   3.840   1.182
 7942SOL    HW224726   1.441   3.944   1.236
 7943SOL     OW24727   1.981   5.228   0.126
 7943SOL    HW124728   1.950   5.272   0.042
 7943SOL    HW224729   2.077   5.204   0.117
 7944SOL     OW24730   0.861   2.077   0.774
 7944SOL    HW124731   0.846   2.173   0.752
 7944SOL    HW224732   0.959   2.060   0.781
 7945SOL     OW24733   6.551   4.459   3.364
 7945SOL    HW124734   6.586   4.463   3.458
 7945SOL    HW224735   6.453   4.480   3.364
 7946SOL     OW24736   5.024   1.455   5.548
 7946SOL    HW124737   5.090   1.437   5.621
 7946SOL    HW224738   4.950   1.387   5.552
 7947SOL     OW24739   0.973   3.845   6.812
 7947SOL    HW124740   0.991   3.840   6.911
 7947SOL    HW224741   0.880   3.876   6.797
 7948SOL     OW24742   1.557   5.594   1.598
 7948SOL    HW124743   1.657   5.591   1.605
 7948SOL    HW224744   1.526   5.688   1.611
 7949SOL     OW24745   3.128   5.374   5.222
 7949SOL    HW124746   3.041   5.327   5.206
 7949SOL    HW224747   3.153   5.366   5.319
 7950SOL     OW24748   6.436   2.694   5.719
 7950SOL    HW124749   6.522   2.656   5.753
 7950SOL    HW224750   6.452   2.787   5.686
 7951SOL     OW24751   3.689   0.369   2.613
 7951SOL    HW124752   3.764   0.312   2.581
 7951SOL    HW224753   3.644   0.412   2.534
 7952SOL     OW24754   0.164   3.068   5.085
 7952SOL    HW124755   0.154   3.120   5.000
 7952SOL    HW224756   0.218   3.122   5.150
 7953SOL     OW24757   1.333   0.297   0.308
 7953SOL    HW124758   1.316   0.233   0.233
 7953SOL    HW224759   1.431   0.300   0.328
 7954SOL     OW24760   3.817   2.667   0.545
 7954SOL    HW124761   3.834   2.707   0.455
 7954SOL    HW224762   3.892   2.691   0.607
 7955SOL     OW24763   6.884   0.646   6.295
 7955SOL    HW124764   6.877   0.639   6.195
 7955SOL    HW224765   6.899   0.555   6.333
 7956SOL     OW24766   7.016   0.346   0.708
 7956SOL    HW124767   0.031   0.324   0.797
 7956SOL    HW224768   6.922   0.310   0.704
 7957SOL     OW24769   5.570   1.637   5.871
 7957SOL    HW124770   5.473   1.622   5.890
 7957SOL    HW224771   5.619   1.650   5.957
 7958SOL     OW24772   4.629   2.554   6.695
 7958SOL    HW124773   4.705   2.542   6.631
 7958SOL    HW224774   4.556   2.606   6.650
 7959SOL     OW24775   5.084   2.998   6.726
 7959SOL    HW124776   5.006   2.969   6.671
 7959SOL    HW224777   5.129   3.075   6.681
 7960SOL     OW24778   1.015   2.005   5.027
 7960SOL    HW124779   0.950   2.025   5.100
 7960SOL    HW224780   0.969   1.956   4.953
 7961SOL     OW24781   6.245   7.005   6.231
 7961SOL    HW124782   6.243   0.075   6.262
 7961SOL    HW224783   6.244   6.945   6.311
 7962SOL     OW24784   5.312   0.100   4.847
 7962SOL    HW124785   5.320   0.088   4.748
 7962SOL    HW224786   5.393   0.060   4.891
 7963SOL     OW24787   5.522   5.993   2.716
 7963SOL    HW124788   5.543   5.905   2.759
 7963SOL    HW224789   5.472   6.050   2.779
 7964SOL     OW24790   0.171   3.822   1.431
 7964SOL    HW124791   0.208   3.768   1.355
 7964SOL    HW224792   0.073   3.807   1.437
 7965SOL     OW24793   4.026   1.634   6.617
 7965SOL    HW124794   4.087   1.555   6.632
 7965SOL    HW224795   4.081   1.717   6.611
 7966SOL     OW24796   5.856   3.389   5.241
 7966SOL    HW124797   5.842   3.319   5.171
 7966SOL    HW224798   5.854   3.347   5.332
 7967SOL     OW24799   1.987   4.070   1.805
 7967SOL    HW124800   2.009   4.053   1.901
 7967SOL    HW224801   2.006   3.987   1.751
 7968SOL     OW24802   2.330   2.109   4.003
 7968SOL    HW124803   2.236   2.075   3.996
 7968SOL    HW224804   2.344   2.183   3.937
 7969SOL     OW24805   2.788   4.013   6.603
 7969SOL    HW124806   2.729   4.045   6.529
 7969SOL    HW224807   2.859   3.953   6.566
 7970SOL     OW24808   6.711   3.362   2.828
 7970SOL    HW124809   6.808   3.362   2.851
 7970SOL    HW224810   6.657   3.348   2.911
 7971SOL     OW24811   2.643   0.376   6.898
 7971SOL    HW124812   2.666   0.330   6.812
 7971SOL    HW224813   2.727   0.407   6.942
 7972SOL     OW24814   3.977   3.884   4.629
 7972SOL    HW124815   4.052   3.931   4.583
 7972SOL    HW224816   3.903   3.867   4.565
 7973SOL     OW24817   0.214   5.182   2.051
 7973SOL    HW124818   0.121   5.190   2.014
 7973SOL    HW224819   0.244   5.270   2.087
 7974SOL     OW24820   6.734   2.560   4.440
 7974SOL    HW124821   6.739   2.590   4.535
 7974SOL    HW224822   6.827   2.547   4.404
 7975SOL     OW24823   3.883   7.022   6.629
 7975SOL    HW124824   3.799   0.010   6.681
 7975SOL    HW224825   3.921   0.085   6.603
 7976SOL     OW24826   0.603   0.154   0.840
 7976SOL    HW124827   0.620   0.190   0.931
 7976SOL    HW224828   0.676   0.182   0.778
 7977SOL     OW24829   4.748   5.157   2.762
 7977SOL    HW124830   4.788   5.113   2.843
 7977SOL    HW224831   4.650   5.140   2.760
 7978SOL     OW24832   0.131   4.290   0.930
 7978SOL    HW124833   0.132   4.275   0.831
 7978SOL    HW224834   0.222   4.318   0.961
 7979SOL     OW24835   3.509   2.482   5.773
 7979SOL    HW124836   3.450   2.420   5.721
 7979SOL    HW224837   3.464   2.506   5.859
 7980SOL     OW24838   3.999   6.219   2.789
 7980SOL    HW124839   3.914   6.200   2.740
 7980SOL    HW224840   3.997   6.312   2.825
 7981SOL     OW24841   0.808   2.890   4.363
 7981SOL    HW124842   0.844   2.825   4.295
 7981SOL    HW224843   0.766   2.839   4.439
 7982SOL     OW24844   6.483   0.022   0.267
 7982SOL    HW124845   6.541   0.057   0.340
 7982SOL    HW224846   6.393   0.066   0.271
 7983SOL     OW24847   3.358   1.378   1.348
 7983SOL    HW124848   3.400   1.288   1.363
 7983SOL    HW224849   3.277   1.367   1.291
 7984SOL     OW24850   6.166   2.745   2.860
 7984SOL    HW124851   6.181   2.814   2.930
 7984SOL    HW224852   6.099   2.678   2.894
 7985SOL     OW24853   3.180   3.417   5.670
 7985SOL    HW124854   3.180   3.329   5.718
 7985SOL    HW224855   3.273   3.440   5.642
 7986SOL     OW24856   2.357   1.057   3.815
 7986SOL    HW124857   2.410   1.075   3.731
 7986SOL    HW224858   2.264   1.091   3.803
 7987SOL     OW24859   1.486   3.146   5.987
 7987SOL    HW124860   1.546   3.089   5.931
 7987SOL    HW224861   1.391   3.129   5.961
 7988SOL     OW24862   6.368   0.231   1.565
 7988SOL    HW124863   6.325   0.192   1.647
 7988SOL    HW224864   6.355   0.330   1.564
 7989SOL     OW24865   0.888   4.719   1.396
 7989SOL    HW124866   0.916   4.780   1.470
 7989SOL    HW224867   0.791   4.733   1.376
 7990SOL     OW24868   4.010   5.462   5.218
 7990SOL    HW124869   3.998   5.549   5.266
 7990SOL    HW224870   4.007   5.387   5.284
 7991SOL     OW24871   5.391   0.765   4.490
 7991SOL    HW124872   5.345   0.854   4.491
 7991SOL    HW224873   5.332   0.697   4.447
 7992SOL     OW24874   2.200   0.254   0.113
 7992SOL    HW124875   2.288   0.223   0.078
 7992SOL    HW224876   2.164   0.325   0.052
 7993SOL     OW24877   6.178   5.736   0.559
 7993SOL    HW124878   6.267   5.692   0.549
 7993SOL    HW224879   6.159   5.793   0.479
 7994SOL     OW24880   0.833   1.568   4.683
 7994SOL    HW124881   0.928   1.562   4.712
 7994SOL    HW224882   0.815   1.658   4.644
 7995SOL     OW24883   0.323   6.289   1.077
 7995SOL    HW124884   0.291   6.254   0.989
 7995SOL    HW224885   0.423   6.296   1.075
 7996SOL     OW24886   2.287   6.785   3.969
 7996SOL    HW124887   2.345   6.790   4.051
 7996SOL    HW224888   2.298   6.696   3.926
 7997SOL     OW24889   2.965   0.917   5.600
 7997SOL    HW124890   3.044   0.928   5.539
 7997SOL    HW224891   2.993   0.867   5.682
 7998SOL     OW24892   2.267   1.408   1.529
 7998SOL    HW124893   2.307   1.471   1.463
 7998SOL    HW224894   2.235   1.326   1.482
 7999SOL     OW24895   6.995   1.049   2.173
 7999SOL    HW124896   0.067   1.029   2.158
 7999SOL    HW224897   6.953   0.973   2.222
 8000SOL     OW24898   4.624   5.844   1.268
 8000SOL    HW124899   4.713   5.880   1.295
 8000SOL    HW224900   4.584   5.901   1.197
 8001SOL     OW24901   5.379   4.995   2.369
 8001SOL    HW124902   5.336   4.958   2.452
 8001SOL    HW224903   5.310   5.042   2.314
 8002SOL     OW24904   1.519   0.885   5.168
 8002SOL    HW124905   1.435   0.886   5.222
 8002SOL    HW224906   1.533   0.793   5.131
 8003SOL     OW24907   2.396   5.375   2.787
 8003SOL    HW124908   2.444   5.462   2.800
 8003SOL    HW224909   2.396   5.352   2.689
 8004SOL     OW24910   2.108   3.546   4.021
 8004SOL    HW124911   2.116   3.446   4.030
 8004SOL    HW224912   2.016   3.569   3.990
 8005SOL     OW24913   2.758   0.491   4.115
 8005SOL    HW124914   2.677   0.449   4.076
 8005SOL    HW224915   2.741   0.588   4.133
 8006SOL     OW24916   4.903   4.953   6.374
 8006SOL    HW124917   4.994   4.994   6.373
 8006SOL    HW224918   4.839   5.014   6.420
 8007SOL     OW24919   0.051   0.806   1.212
 8007SOL    HW124920   0.003   0.720   1.227
 8007SOL    HW224921   0.147   0.795   1.237
 8008SOL     OW24922   5.220   5.332   0.959
 8008SOL    HW124923   5.300   5.374   1.002
 8008SOL    HW224924   5.203   5.374   0.870
 8009SOL     OW24925   6.385   0.718   0.997
 8009SOL    HW124926   6.466   0.767   0.963
 8009SOL    HW224927   6.359   0.755   1.086
 8010SOL     OW24928   2.755   0.216   6.664
 8010SOL    HW124929   2.823   0.160   6.617
 8010SOL    HW224930   2.665   0.174   6.654
 8011SOL     OW24931   3.864   2.099   2.199
 8011SOL    HW124932   3.921   2.055   2.130
 8011SOL    HW224933   3.781   2.135   2.156
 8012SOL     OW24934   6.305   0.622   5.647
 8012SOL    HW124935   6.387   0.673   5.621
 8012SOL    HW224936   6.224   0.672   5.617
 8013SOL     OW24937   3.682   0.328   3.264
 8013SOL    HW124938   3.644   0.264   3.331
 8013SOL    HW224939   3.745   0.279   3.204
 8014SOL     OW24940   2.418   2.620   3.209
 8014SOL    HW124941   2.390   2.709   3.244
 8014SOL    HW224942   2.488   2.581   3.269
 8015SOL     OW24943   3.320   5.720   4.759
 8015SOL    HW124944   3.293   5.706   4.855
 8015SOL    HW224945   3.419   5.731   4.754
 8016SOL     OW24946   3.073   3.008   5.139
 8016SOL    HW124947   3.017   3.089   5.158
 8016SOL    HW224948   3.033   2.929   5.186
 8017SOL     OW24949   5.192   6.446   1.877
 8017SOL    HW124950   5.232   6.355   1.864
 8017SOL    HW224951   5.163   6.457   1.972
 8018SOL     OW24952   3.006   2.639   1.073
 8018SOL    HW124953   2.941   2.564   1.089
 8018SOL    HW224954   3.045   2.667   1.161
 8019SOL     OW24955   2.819   3.489   1.335
 8019SOL    HW124956   2.843   3.444   1.421
 8019SOL    HW224957   2.872   3.573   1.326
 8020SOL     OW24958   0.982   0.217   0.139
 8020SOL    HW124959   1.003   0.208   0.236
 8020SOL    HW224960   0.885   0.199   0.123
 8021SOL     OW24961   0.816   2.358   0.807
 8021SOL    HW124962   0.875   2.365   0.888
 8021SOL    HW224963   0.726   2.395   0.829
 8022SOL     OW24964   4.519   0.496   2.792
 8022SOL    HW124965   4.449   0.567   2.780
 8022SOL    HW224966   4.475   0.409   2.814
 8023SOL     OW24967   3.636   4.970   2.270
 8023SOL    HW124968   3.638   4.909   2.191
 8023SOL    HW224969   3.617   5.064   2.239
 8024SOL     OW24970   2.932   0.786   6.052
 8024SOL    HW124971   2.853   0.846   6.042
 8024SOL    HW224972   2.906   0.706   6.105
 8025SOL     OW24973   1.386   6.975   1.368
 8025SOL    HW124974   1.404   0.024   1.432
 8025SOL    HW224975   1.339   7.010   1.287
 8026SOL     OW24976   0.349   6.491   5.625
 8026SOL    HW124977   0.255   6.513   5.597
 8026SOL    HW224978   0.361   6.516   5.721
 8027SOL     OW24979   4.110   6.874   6.525
 8027SOL    HW124980   4.143   6.963   6.493
 8027SOL    HW224981   4.019   6.886   6.566
 8028SOL     OW24982   4.163   5.859   6.441
 8028SOL    HW124983   4.137   5.811   6.525
 8028SOL    HW224984   4.083   5.872   6.384
 8029SOL     OW24985   1.292   7.014   1.883
 8029SOL    HW124986   1.336   6.990   1.796
 8029SOL    HW224987   1.331   6.959   1.957
 8030SOL     OW24988   0.901   3.740   1.079
 8030SOL    HW124989   0.922   3.793   0.997
 8030SOL    HW224990   0.803   3.741   1.095
 8031SOL     OW24991   6.934   0.845   3.902
 8031SOL    HW124992   6.866   0.916   3.920
 8031SOL    HW224993   6.968   0.855   3.808
 8032SOL     OW24994   0.013   3.129   1.232
 8032SOL    HW124995   6.975   3.087   1.296
 8032SOL    HW224996   0.019   3.073   1.149
 8033SOL     OW24997   4.362   4.934   0.875
 8033SOL    HW124998   4.319   4.846   0.856
 8033SOL    HW224999   4.390   4.938   0.971
 8034SOL     OW25000   1.760   1.415   4.885
 8034SOL    HW125001   1.686   1.348   4.888
 8034SOL    HW225002   1.801   1.416   4.794
 8035SOL     OW25003   5.442   0.473   4.825
 8035SOL    HW125004   5.393   0.444   4.743
 8035SOL    HW225005   5.390   0.445   4.906
 8036SOL     OW25006   5.304   4.487   4.606
 8036SOL    HW125007   5.339   4.553   4.539
 8036SOL    HW225008   5.380   4.432   4.640
 8037SOL     OW25009   2.550   1.191   6.701
 8037SOL    HW125010   2.637   1.151   6.729
 8037SOL    HW225011   2.557   1.224   6.607
 8038SOL     OW25012   6.351   5.513   1.583
 8038SOL    HW125013   6.408   5.449   1.635
 8038SOL    HW225014   6.314   5.582   1.646
 8039SOL     OW25015   1.944   2.799   5.022
 8039SOL    HW125016   1.903   2.870   5.079
 8039SOL    HW225017   2.030   2.768   5.064
 8040SOL     OW25018   0.648   6.486   5.613
 8040SOL    HW125019   0.553   6.499   5.585
 8040SOL    HW225020   0.700   6.570   5.594
 8041SOL     OW25021   3.154   1.747   2.756
 8041SOL    HW125022   3.077   1.701   2.800
 8041SOL    HW225023   3.170   1.707   2.666
 8042SOL     OW25024   4.568   3.790   6.003
 8042SOL    HW125025   4.514   3.851   6.061
 8042SOL    HW225026   4.663   3.823   5.999
 8043SOL     OW25027   5.083   5.317   6.918
 8043SOL    HW125028   5.173   5.342   6.881
 8043SOL    HW225029   5.079   5.340   7.015
 8044SOL     OW25030   1.074   2.883   1.432
 8044SOL    HW125031   1.119   2.794   1.428
 8044SOL    HW225032   1.129   2.945   1.488
 8045SOL     OW25033   5.859   2.980   5.019
 8045SOL    HW125034   5.844   3.018   5.111
 8045SOL    HW225035   5.816   2.891   5.012
 8046SOL     OW25036   0.604   4.118   0.980
 8046SOL    HW125037   0.522   4.135   0.925
 8046SOL    HW225038   0.626   4.201   1.032
 8047SOL     OW25039   3.095   6.281   6.677
 8047SOL    HW125040   3.017   6.325   6.722
 8047SOL    HW225041   3.146   6.349   6.625
 8048SOL     OW25042   4.543   2.010   6.514
 8048SOL    HW125043   4.557   1.938   6.583
 8048SOL    HW225044   4.469   2.070   6.543
 8049SOL     OW25045   2.359   1.649   1.060
 8049SOL    HW125046   2.296   1.677   0.988
 8049SOL    HW225047   2.430   1.590   1.021
 8050SOL     OW25048   6.880   5.448   5.784
 8050SOL    HW125049   6.966   5.440   5.834
 8050SOL    HW225050   6.815   5.501   5.838
 8051SOL     OW25051   3.955   6.683   3.091
 8051SOL    HW125052   4.048   6.678   3.127
 8051SOL    HW225053   3.933   6.598   3.042
 8052SOL     OW25054   2.374   1.458   2.866
 8052SOL    HW125055   2.413   1.427   2.953
 8052SOL    HW225056   2.317   1.385   2.828
 8053SOL     OW25057   1.405   1.403   6.571
 8053SOL    HW125058   1.472   1.440   6.508
 8053SOL    HW225059   1.439   1.410   6.665
 8054SOL     OW25060   5.087   3.801   5.296
 8054SOL    HW125061   5.167   3.850   5.333
 8054SOL    HW225062   5.065   3.837   5.205
 8055SOL     OW25063   0.117   1.043   6.532
 8055SOL    HW125064   0.020   1.063   6.522
 8055SOL    HW225065   0.140   1.038   6.629
 8056SOL     OW25066   1.932   2.336   2.911
 8056SOL    HW125067   2.019   2.363   2.870
 8056SOL    HW225068   1.910   2.242   2.884
 8057SOL     OW25069   3.356   1.953   1.568
 8057SOL    HW125070   3.354   1.924   1.664
 8057SOL    HW225071   3.439   1.917   1.525
 8058SOL     OW25072   3.511   6.655   1.915
 8058SOL    HW125073   3.564   6.733   1.882
 8058SOL    HW225074   3.425   6.648   1.864
 8059SOL     OW25075   4.594   3.922   5.434
 8059SOL    HW125076   4.558   4.002   5.483
 8059SOL    HW225077   4.583   3.841   5.491
 8060SOL     OW25078   0.289   1.489   5.182
 8060SOL    HW125079   0.379   1.450   5.202
 8060SOL    HW225080   0.268   1.477   5.085
 8061SOL     OW25081   6.628   0.897   1.303
 8061SOL    HW125082   6.686   0.846   1.239
 8061SOL    HW225083   6.634   0.995   1.282
 8062SOL     OW25084   4.664   4.657   6.160
 8062SOL    HW125085   4.648   4.661   6.258
 8062SOL    HW225086   4.577   4.641   6.112
 8063SOL     OW25087   2.694   4.666   2.696
 8063SOL    HW125088   2.721   4.627   2.608
 8063SOL    HW225089   2.599   4.697   2.691
 8064SOL     OW25090   6.818   2.813   0.127
 8064SOL    HW125091   6.750   2.865   0.178
 8064SOL    HW225092   6.860   2.745   0.187
 8065SOL     OW25093   4.544   0.368   6.355
 8065SOL    HW125094   4.544   0.366   6.255
 8065SOL    HW225095   4.531   0.275   6.390
 8066SOL     OW25096   6.764   0.996   6.030
 8066SOL    HW125097   6.762   1.096   6.035
 8066SOL    HW225098   6.674   0.960   6.055
 8067SOL     OW25099   5.412   0.490   4.289
 8067SOL    HW125100   5.345   0.487   4.215
 8067SOL    HW225101   5.500   0.521   4.254
 8068SOL     OW25102   0.055   4.545   0.963
 8068SOL    HW125103   0.150   4.577   0.956
 8068SOL    HW225104   0.053   4.446   0.955
 8069SOL     OW25105   1.166   2.770   1.747
 8069SOL    HW125106   1.085   2.828   1.740
 8069SOL    HW225107   1.155   2.689   1.689
 8070SOL     OW25108   4.978   4.461   1.581
 8070SOL    HW125109   4.941   4.534   1.638
 8070SOL    HW225110   5.076   4.451   1.599
 8071SOL     OW25111   1.978   0.210   6.242
 8071SOL    HW125112   1.944   0.259   6.323
 8071SOL    HW225113   1.946   0.115   6.245
 8072SOL     OW25114   2.695   2.525   5.596
 8072SOL    HW125115   2.606   2.495   5.631
 8072SOL    HW225116   2.683   2.563   5.504
 8073SOL     OW25117   5.293   6.761   6.917
 8073SOL    HW125118   5.374   6.820   6.919
 8073SOL    HW225119   5.298   6.697   6.994
 8074SOL     OW25120   6.120   0.667   0.941
 8074SOL    HW125121   6.215   0.661   0.973
 8074SOL    HW225122   6.081   0.755   0.968
 8075SOL     OW25123   0.262   0.268   1.338
 8075SOL    HW125124   0.183   0.219   1.303
 8075SOL    HW225125   0.346   0.229   1.300
 8076SOL     OW25126   6.683   5.859   0.595
 8076SOL    HW125127   6.732   5.937   0.634
 8076SOL    HW225128   6.667   5.874   0.498
 8077SOL     OW25129   6.510   4.305   1.028
 8077SOL    HW125130   6.416   4.331   1.007
 8077SOL    HW225131   6.547   4.367   1.097
 8078SOL     OW25132   6.021   2.050   1.532
 8078SOL    HW125133   5.949   1.986   1.506
 8078SOL    HW225134   6.069   2.081   1.450
 8079SOL     OW25135   6.967   0.774   0.150
 8079SOL    HW125136   6.999   0.781   0.244
 8079SOL    HW225137   6.970   0.679   0.121
 8080SOL     OW25138   0.711   3.523   3.790
 8080SOL    HW125139   0.639   3.508   3.721
 8080SOL    HW225140   0.692   3.608   3.840
 8081SOL     OW25141   5.991   0.278   5.565
 8081SOL    HW125142   6.064   0.287   5.632
 8081SOL    HW225143   6.025   0.229   5.485
 8082SOL     OW25144   4.834   1.847   4.755
 8082SOL    HW125145   4.788   1.759   4.762
 8082SOL    HW225146   4.854   1.882   4.847
 8083SOL     OW25147   6.830   2.885   4.176
 8083SOL    HW125148   6.909   2.937   4.143
 8083SOL    HW225149   6.827   2.796   4.132
 8084SOL     OW25150   5.373   1.771   7.013
 8084SOL    HW125151   5.419   1.837   6.953
 8084SOL    HW225152   5.343   1.817   0.071
 8085SOL     OW25153   1.478   6.166   4.592
 8085SOL    HW125154   1.552   6.153   4.527
 8085SOL    HW225155   1.502   6.239   4.656
 8086SOL     OW25156   6.931   2.546   2.007
 8086SOL    HW125157   6.976   2.460   2.030
 8086SOL    HW225158   6.838   2.546   2.044
 8087SOL     OW25159   6.325   0.531   6.036
 8087SOL    HW125160   6.235   0.552   5.998
 8087SOL    HW225161   6.384   0.498   5.962
 8088SOL     OW25162   6.725   6.788   5.105
 8088SOL    HW125163   6.662   6.730   5.157
 8088SOL    HW225164   6.809   6.802   5.158
 8089SOL     OW25165   6.498   1.162   0.154
 8089SOL    HW125166   6.509   1.193   0.249
 8089SOL    HW225167   6.418   1.103   0.147
 8090SOL     OW25168   4.451   2.085   4.658
 8090SOL    HW125169   4.420   2.168   4.611
 8090SOL    HW225170   4.455   2.009   4.593
 8091SOL     OW25171   0.970   3.286   5.504
 8091SOL    HW125172   1.068   3.306   5.501
 8091SOL    HW225173   0.935   3.276   5.410
 8092SOL     OW25174   4.467   0.145   5.414
 8092SOL    HW125175   4.482   0.208   5.338
 8092SOL    HW225176   4.372   0.113   5.412
 8093SOL     OW25177   4.035   0.176   3.444
 8093SOL    HW125178   4.118   0.231   3.442
 8093SOL    HW225179   4.028   0.130   3.532
 8094SOL     OW25180   2.007   4.583   3.674
 8094SOL    HW125181   1.937   4.531   3.626
 8094SOL    HW225182   2.021   4.671   3.629
 8095SOL     OW25183   1.020   5.729   4.336
 8095SOL    HW125184   1.051   5.821   4.361
 8095SOL    HW225185   1.094   5.680   4.290
 8096SOL     OW25186   0.894   4.791   0.692
 8096SOL    HW125187   0.804   4.834   0.709
 8096SOL    HW225188   0.965   4.843   0.740
 8097SOL     OW25189   4.642   0.005   0.318
 8097SOL    HW125190   4.668   0.098   0.293
 8097SOL    HW225191   4.723   6.972   0.318
 8098SOL     OW25192   2.371   6.361   4.729
 8098SOL    HW125193   2.439   6.427   4.696
 8098SOL    HW225194   2.372   6.280   4.669
 8099SOL     OW25195   2.075   3.473   2.493
 8099SOL    HW125196   2.115   3.552   2.447
 8099SOL    HW225197   2.077   3.394   2.432
 8100SOL     OW25198   0.033   6.654   0.628
 8100SOL    HW125199   0.133   6.657   0.636
 8100SOL    HW225200   0.005   6.563   0.595
 8101SOL     OW25201   2.904   4.964   0.312
 8101SOL    HW125202   2.998   4.943   0.337
 8101SOL    HW225203   2.861   4.883   0.271
 8102SOL     OW25204   1.620   4.554   4.062
 8102SOL    HW125205   1.691   4.483   4.061
 8102SOL    HW225206   1.566   4.547   3.978
 8103SOL     OW25207   4.601   0.396   1.640
 8103SOL    HW125208   4.519   0.363   1.591
 8103SOL    HW225209   4.585   0.390   1.738
 8104SOL     OW25210   1.319   6.404   0.096
 8104SOL    HW125211   1.311   6.501   0.121
 8104SOL    HW225212   1.369   6.356   0.168
 8105SOL     OW25213   6.860   0.155   2.707
 8105SOL    HW125214   6.895   0.129   2.618
 8105SOL    HW225215   6.776   0.104   2.727
 8106SOL     OW25216   3.483   6.249   6.594
 8106SOL    HW125217   3.534   6.266   6.510
 8106SOL    HW225218   3.492   6.328   6.655
 8107SOL     OW25219   0.736   6.356   0.259
 8107SOL    HW125220   0.762   6.285   0.325
 8107SOL    HW225221   0.808   6.424   0.253
 8108SOL     OW25222   1.813   0.913   0.757
 8108SOL    HW125223   1.836   0.926   0.661
 8108SOL    HW225224   1.782   0.999   0.797
 8109SOL     OW25225   0.195   3.759   2.220
 8109SOL    HW125226   0.218   3.823   2.146
 8109SOL    HW225227   0.236   3.670   2.200
 8110SOL     OW25228   4.559   4.544   6.953
 8110SOL    HW125229   4.588   4.453   6.924
 8110SOL    HW225230   4.482   4.536   7.016
 8111SOL     OW25231   5.495   2.017   2.270
 8111SOL    HW125232   5.476   2.081   2.196
 8111SOL    HW225233   5.517   2.067   2.354
 8112SOL     OW25234   1.893   4.442   6.706
 8112SOL    HW125235   1.926   4.350   6.726
 8112SOL    HW225236   1.796   4.449   6.728
 8113SOL     OW25237   5.441   5.042   6.352
 8113SOL    HW125238   5.439   4.960   6.296
 8113SOL    HW225239   5.523   5.095   6.330
 8114SOL     OW25240   2.191   3.069   2.709
 8114SOL    HW125241   2.219   3.165   2.699
 8114SOL    HW225242   2.115   3.064   2.775
 8115SOL     OW25243   2.365   1.456   6.164
 8115SOL    HW125244   2.342   1.361   6.140
 8115SOL    HW225245   2.342   1.516   6.087
 8116SOL     OW25246   4.142   3.362   2.244
 8116SOL    HW125247   4.234   3.371   2.208
 8116SOL    HW225248   4.116   3.265   2.246
 8117SOL     OW25249   0.943   0.486   3.886
 8117SOL    HW125250   0.861   0.543   3.883
 8117SOL    HW225251   0.917   0.391   3.901
 8118SOL     OW25252   6.808   2.403   6.369
 8118SOL    HW125253   6.805   2.309   6.402
 8118SOL    HW225254   6.716   2.432   6.342
 8119SOL     OW25255   5.476   4.638   6.668
 8119SOL    HW125256   5.535   4.656   6.747
 8119SOL    HW225257   5.386   4.677   6.685
 8120SOL     OW25258   2.308   6.648   2.415
 8120SOL    HW125259   2.247   6.726   2.432
 8120SOL    HW225260   2.333   6.606   2.502
 8121SOL     OW25261   0.946   2.730   3.003
 8121SOL    HW125262   0.928   2.767   2.912
 8121SOL    HW225263   1.019   2.784   3.047
 8122SOL     OW25264   1.151   4.865   1.226
 8122SOL    HW125265   1.245   4.891   1.201
 8122SOL    HW225266   1.105   4.942   1.268
 8123SOL     OW25267   6.900   1.314   5.825
 8123SOL    HW125268   6.806   1.291   5.852
 8123SOL    HW225269   6.941   1.374   5.894
 8124SOL     OW25270   6.184   6.086   5.369
 8124SOL    HW125271   6.188   6.121   5.462
 8124SOL    HW225272   6.270   6.041   5.347
 8125SOL     OW25273   0.318   6.489   1.965
 8125SOL    HW125274   0.262   6.410   1.942
 8125SOL    HW225275   0.409   6.479   1.924
 8126SOL     OW25276   3.097   5.431   4.487
 8126SOL    HW125277   3.037   5.410   4.564
 8126SOL    HW225278   3.133   5.346   4.449
 8127SOL     OW25279   4.373   1.198   5.804
 8127SOL    HW125280   4.281   1.171   5.830
 8127SOL    HW225281   4.369   1.262   5.728
 8128SOL     OW25282   3.607   3.192   1.019
 8128SOL    HW125283   3.633   3.161   1.111
 8128SOL    HW225284   3.571   3.115   0.967
 8129SOL     OW25285   6.647   2.747   3.168
 8129SOL    HW125286   6.661   2.728   3.070
 8129SOL    HW225287   6.634   2.845   3.181
 8130SOL     OW25288   6.874   6.496   0.261
 8130SOL    HW125289   6.904   6.454   0.347
 8130SOL    HW225290   6.948   6.551   0.223
 8131SOL     OW25291   2.156   2.738   0.805
 8131SOL    HW125292   2.115   2.824   0.836
 8131SOL    HW225293   2.240   2.757   0.755
 8132SOL     OW25294   5.873   1.608   4.315
 8132SOL    HW125295   5.951   1.579   4.371
 8132SOL    HW225296   5.789   1.603   4.369
 8133SOL     OW25297   3.668   5.706   1.275
 8133SOL    HW125298   3.576   5.734   1.303
 8133SOL    HW225299   3.666   5.612   1.242
 8134SOL     OW25300   5.892   1.601   6.827
 8134SOL    HW125301   5.801   1.560   6.828
 8134SOL    HW225302   5.961   1.529   6.821
 8135SOL     OW25303   2.428   6.104   2.148
 8135SOL    HW125304   2.440   6.022   2.204
 8135SOL    HW225305   2.377   6.081   2.065
 8136SOL     OW25306   4.738   4.795   2.329
 8136SOL    HW125307   4.811   4.781   2.396
 8136SOL    HW225308   4.685   4.876   2.354
 8137SOL     OW25309   4.545   0.942   5.575
 8137SOL    HW125310   4.637   0.914   5.549
 8137SOL    HW225311   4.495   0.972   5.494
 8138SOL     OW25312   6.108   0.575   2.505
 8138SOL    HW125313   6.152   0.594   2.592
 8138SOL    HW225314   6.077   0.480   2.504
 8139SOL     OW25315   0.707   1.428   4.298
 8139SOL    HW125316   0.633   1.394   4.240
 8139SOL    HW225317   0.789   1.374   4.281
 8140SOL     OW25318   4.796   2.697   2.983
 8140SOL    HW125319   4.714   2.640   2.990
 8140SOL    HW225320   4.823   2.705   2.887
 8141SOL     OW25321   5.691   4.237   3.663
 8141SOL    HW125322   5.595   4.240   3.690
 8141SOL    HW225323   5.736   4.322   3.691
 8142SOL     OW25324   0.187   6.156   0.539
 8142SOL    HW125325   0.247   6.086   0.500
 8142SOL    HW225326   0.157   6.218   0.467
 8143SOL     OW25327   6.690   2.473   6.048
 8143SOL    HW125328   6.738   2.407   5.991
 8143SOL    HW225329   6.750   2.550   6.067
 8144SOL     OW25330   4.807   6.283   0.017
 8144SOL    HW125331   4.834   6.221   6.969
 8144SOL    HW225332   4.847   6.373   0.001
 8145SOL     OW25333   4.931   6.401   4.351
 8145SOL    HW125334   4.919   6.317   4.404
 8145SOL    HW225335   4.995   6.462   4.399
 8146SOL     OW25336   3.244   1.816   3.595
 8146SOL    HW125337   3.177   1.742   3.607
 8146SOL    HW225338   3.197   1.904   3.599
 8147SOL     OW25339   4.788   1.652   3.719
 8147SOL    HW125340   4.812   1.557   3.741
 8147SOL    HW225341   4.802   1.709   3.799
 8148SOL     OW25342   0.292   3.572   3.122
 8148SOL    HW125343   0.201   3.612   3.115
 8148SOL    HW225344   0.313   3.554   3.218
 8149SOL     OW25345   3.741   5.302   4.008
 8149SOL    HW125346   3.740   5.281   4.106
 8149SOL    HW225347   3.654   5.275   3.968
 8150SOL     OW25348   1.465   6.211   1.272
 8150SOL    HW125349   1.519   6.293   1.254
 8150SOL    HW225350   1.463   6.193   1.370
 8151SOL     OW25351   0.885   1.831   4.849
 8151SOL    HW125352   0.849   1.890   4.777
 8151SOL    HW225353   0.974   1.795   4.821
 8152SOL     OW25354   0.966   0.770   3.199
 8152SOL    HW125355   0.920   0.848   3.156
 8152SOL    HW225356   1.055   0.799   3.234
 8153SOL     OW25357   2.356   5.906   0.424
 8153SOL    HW125358   2.390   5.917   0.517
 8153SOL    HW225359   2.417   5.954   0.361
 8154SOL     OW25360   2.182   6.053   3.781
 8154SOL    HW125361   2.242   6.116   3.731
 8154SOL    HW225362   2.173   6.083   3.875
 8155SOL     OW25363   3.449   3.831   4.777
 8155SOL    HW125364   3.409   3.899   4.838
 8155SOL    HW225365   3.412   3.842   4.685
 8156SOL     OW25366   0.693   6.537   4.943
 8156SOL    HW125367   0.761   6.601   4.908
 8156SOL    HW225368   0.703   6.449   4.896
 8157SOL     OW25369   5.691   2.476   6.820
 8157SOL    HW125370   5.697   2.407   6.748
 8157SOL    HW225371   5.598   2.480   6.855
 8158SOL     OW25372   1.120   5.911   2.370
 8158SOL    HW125373   1.043   5.945   2.425
 8158SOL    HW225374   1.204   5.915   2.423
 8159SOL     OW25375   0.466   6.357   0.218
 8159SOL    HW125376   0.469   6.316   0.127
 8159SOL    HW225377   0.559   6.363   0.255
 8160SOL     OW25378   5.108   2.059   0.964
 8160SOL    HW125379   5.030   2.083   1.020
 8160SOL    HW225380   5.192   2.062   1.019
 8161SOL     OW25381   4.200   3.836   1.390
 8161SOL    HW125382   4.225   3.798   1.300
 8161SOL    HW225383   4.282   3.871   1.435
 8162SOL     OW25384   6.302   1.226   1.958
 8162SOL    HW125385   6.396   1.200   1.980
 8162SOL    HW225386   6.250   1.144   1.932
 8163SOL     OW25387   2.379   2.752   5.072
 8163SOL    HW125388   2.301   2.724   5.128
 8163SOL    HW225389   2.387   2.851   5.073
 8164SOL     OW25390   5.382   4.601   1.547
 8164SOL    HW125391   5.325   4.525   1.578
 8164SOL    HW225392   5.354   4.685   1.595
 8165SOL     OW25393   1.435   3.565   1.829
 8165SOL    HW125394   1.347   3.584   1.787
 8165SOL    HW225395   1.422   3.545   1.926
 8166SOL     OW25396   2.821   6.944   1.925
 8166SOL    HW125397   2.757   6.937   2.002
 8166SOL    HW225398   2.770   6.953   1.840
 8167SOL     OW25399   5.734   2.929   4.608
 8167SOL    HW125400   5.683   2.907   4.525
 8167SOL    HW225401   5.728   2.852   4.672
 8168SOL     OW25402   2.691   1.618   2.438
 8168SOL    HW125403   2.665   1.615   2.535
 8168SOL    HW225404   2.730   1.708   2.417
 8169SOL     OW25405   5.646   4.096   5.739
 8169SOL    HW125406   5.649   4.030   5.664
 8169SOL    HW225407   5.635   4.189   5.702
 8170SOL     OW25408   1.096   5.058   3.788
 8170SOL    HW125409   1.148   4.978   3.817
 8170SOL    HW225410   1.060   5.106   3.869
 8171SOL     OW25411   1.919   0.893   6.734
 8171SOL    HW125412   1.980   0.816   6.756
 8171SOL    HW225413   1.826   0.858   6.723
 8172SOL     OW25414   6.867   6.392   2.280
 8172SOL    HW125415   6.908   6.476   2.315
 8172SOL    HW225416   6.916   6.313   2.317
 8173SOL     OW25417   6.879   3.046   0.479
 8173SOL    HW125418   6.902   2.949   0.486
 8173SOL    HW225419   6.792   3.056   0.431
 8174SOL     OW25420   5.087   6.368   2.834
 8174SOL    HW125421   5.118   6.389   2.742
 8174SOL    HW225422   5.132   6.428   2.900
 8175SOL     OW25423   1.241   2.430   3.187
 8175SOL    HW125424   1.317   2.491   3.163
 8175SOL    HW225425   1.237   2.420   3.286
 8176SOL     OW25426   3.792   5.534   3.704
 8176SOL    HW125427   3.848   5.565   3.781
 8176SOL    HW225428   3.815   5.589   3.623
 8177SOL     OW25429   1.762   6.478   5.952
 8177SOL    HW125430   1.703   6.509   6.026
 8177SOL    HW225431   1.858   6.497   5.976
 8178SOL     OW25432   1.808   6.633   6.365
 8178SOL    HW125433   1.737   6.598   6.304
 8178SOL    HW225434   1.883   6.567   6.371
 8179SOL     OW25435   4.358   0.368   6.783
 8179SOL    HW125436   4.269   0.411   6.763
 8179SOL    HW225437   4.362   0.345   6.880
 8180SOL     OW25438   4.869   4.575   4.791
 8180SOL    HW125439   4.967   4.571   4.808
 8180SOL    HW225440   4.853   4.603   4.696
 8181SOL     OW25441   2.379   2.164   2.456
 8181SOL    HW125442   2.478   2.178   2.449
 8181SOL    HW225443   2.358   2.068   2.436
 8182SOL     OW25444   5.382   2.968   5.383
 8182SOL    HW125445   5.412   2.920   5.301
 8182SOL    HW225446   5.286   2.995   5.372
 8183SOL     OW25447   1.953   3.351   3.185
 8183SOL    HW125448   1.902   3.433   3.212
 8183SOL    HW225449   1.927   3.275   3.244
 8184SOL     OW25450   6.314   6.254   4.428
 8184SOL    HW125451   6.371   6.226   4.505
 8184SOL    HW225452   6.363   6.320   4.372
 8185SOL     OW25453   0.882   2.133   3.562
 8185SOL    HW125454   0.849   2.225   3.542
 8185SOL    HW225455   0.834   2.066   3.505
 8186SOL     OW25456   4.545   3.776   6.535
 8186SOL    HW125457   4.541   3.680   6.510
 8186SOL    HW225458   4.529   3.833   6.454
 8187SOL     OW25459   2.277   1.462   5.826
 8187SOL    HW125460   2.212   1.416   5.766
 8187SOL    HW225461   2.367   1.420   5.817
 8188SOL     OW25462   5.290   3.174   2.703
 8188SOL    HW125463   5.226   3.135   2.637
 8188SOL    HW225464   5.357   3.230   2.654
 8189SOL     OW25465   6.656   5.210   3.126
 8189SOL    HW125466   6.562   5.221   3.092
 8189SOL    HW225467   6.719   5.210   3.049
 8190SOL     OW25468   5.737   3.508   3.024
 8190SOL    HW125469   5.717   3.415   3.057
 8190SOL    HW225470   5.669   3.535   2.957
 8191SOL     OW25471   5.630   4.943   1.601
 8191SOL    HW125472   5.576   4.876   1.651
 8191SOL    HW225473   5.721   4.906   1.581
 8192SOL     OW25474   1.563   1.897   0.966
 8192SOL    HW125475   1.593   1.945   0.884
 8192SOL    HW225476   1.610   1.935   1.046
 8193SOL     OW25477   3.685   6.278   5.647
 8193SOL    HW125478   3.640   6.300   5.734
 8193SOL    HW225479   3.784   6.286   5.659
 8194SOL     OW25480   1.792   1.055   2.809
 8194SOL    HW125481   1.803   0.973   2.866
 8194SOL    HW225482   1.699   1.058   2.774
 8195SOL     OW25483   5.917   1.358   1.686
 8195SOL    HW125484   5.972   1.435   1.717
 8195SOL    HW225485   5.889   1.373   1.591
 8196SOL     OW25486   2.653   1.188   1.123
 8196SOL    HW125487   2.662   1.282   1.155
 8196SOL    HW225488   2.627   1.188   1.026
 8197SOL     OW25489   0.549   6.822   0.997
 8197SOL    HW125490   0.490   6.741   0.989
 8197SOL    HW225491   0.640   6.793   1.027
 8198SOL     OW25492   3.184   1.321   3.088
 8198SOL    HW125493   3.218   1.342   2.997
 8198SOL    HW225494   3.086   1.339   3.092
 8199SOL     OW25495   5.867   4.568   1.269
 8199SOL    HW125496   5.772   4.570   1.299
 8199SOL    HW225497   5.928   4.565   1.348
 8200SOL     OW25498   3.981   4.485   1.635
 8200SOL    HW125499   3.893   4.512   1.596
 8200SOL    HW225500   3.999   4.388   1.613
 8201SOL     OW25501   0.885   1.026   5.211
 8201SOL    HW125502   0.953   1.029   5.285
 8201SOL    HW225503   0.915   1.085   5.137
 8202SOL     OW25504   1.557   3.248   4.148
 8202SOL    HW125505   1.615   3.290   4.078
 8202SOL    HW225506   1.607   3.174   4.192
 8203SOL     OW25507   6.692   4.329   6.091
 8203SOL    HW125508   6.766   4.262   6.088
 8203SOL    HW225509   6.693   4.383   6.007
 8204SOL     OW25510   3.238   6.761   0.942
 8204SOL    HW125511   3.226   6.837   0.878
 8204SOL    HW225512   3.335   6.740   0.952
 8205SOL     OW25513   3.804   6.977   2.936
 8205SOL    HW125514   3.886   6.941   2.892
 8205SOL    HW225515   3.771   6.911   3.005
 8206SOL     OW25516   3.532   2.096   4.720
 8206SOL    HW125517   3.470   2.172   4.740
 8206SOL    HW225518   3.523   2.027   4.791
 8207SOL     OW25519   2.803   5.596   0.132
 8207SOL    HW125520   2.852   5.570   0.214
 8207SOL    HW225521   2.729   5.659   0.156
 8208SOL     OW25522   1.294   6.114   1.090
 8208SOL    HW125523   1.333   6.025   1.066
 8208SOL    HW225524   1.338   6.149   1.173
 8209SOL     OW25525   0.766   5.755   4.929
 8209SOL    HW125526   0.859   5.723   4.909
 8209SOL    HW225527   0.743   5.832   4.869
 8210SOL     OW25528   2.287   0.469   1.071
 8210SOL    HW125529   2.373   0.444   1.026
 8210SOL    HW225530   2.306   0.504   1.162
 8211SOL     OW25531   3.033   3.937   3.899
 8211SOL    HW125532   2.985   4.016   3.861
 8211SOL    HW225533   3.114   3.967   3.949
 8212SOL     OW25534   4.189   4.474   6.910
 8212SOL    HW125535   4.204   4.525   6.994
 8212SOL    HW225536   4.204   4.376   6.927
 8213SOL     OW25537   4.855   4.064   2.059
 8213SOL    HW125538   4.807   4.143   2.096
 8213SOL    HW225539   4.808   4.032   1.976
 8214SOL     OW25540   4.151   5.212   3.634
 8214SOL    HW125541   4.190   5.304   3.633
 8214SOL    HW225542   4.081   5.206   3.705
 8215SOL     OW25543   2.689   6.179   5.403
 8215SOL    HW125544   2.744   6.173   5.319
 8215SOL    HW225545   2.593   6.160   5.381
 8216SOL     OW25546   6.006   5.366   0.407
 8216SOL    HW125547   5.989   5.270   0.382
 8216SOL    HW225548   5.937   5.425   0.365
 8217SOL     OW25549   3.304   6.200   3.395
 8217SOL    HW125550   3.349   6.287   3.375
 8217SOL    HW225551   3.221   6.218   3.448
 8218SOL     OW25552   2.461   6.012   4.019
 8218SOL    HW125553   2.545   6.008   4.075
 8218SOL    HW225554   2.463   5.938   3.952
 8219SOL     OW25555   3.465   3.486   3.928
 8219SOL    HW125556   3.564   3.488   3.933
 8219SOL    HW225557   3.432   3.568   3.881
 8220SOL     OW25558   4.425   4.349   6.015
 8220SOL    HW125559   4.449   4.442   6.040
 8220SOL    HW225560   4.327   4.333   6.034
 8221SOL     OW25561   6.991   3.912   3.713
 8221SOL    HW125562   6.894   3.907   3.688
 8221SOL    HW225563   7.001   3.964   3.798
 8222SOL     OW25564   5.079   2.133   6.321
 8222SOL    HW125565   5.151   2.179   6.373
 8222SOL    HW225566   5.106   2.128   6.225
 8223SOL     OW25567   1.336   6.109   5.547
 8223SOL    HW125568   1.434   6.090   5.556
 8223SOL    HW225569   1.284   6.024   5.559
 8224SOL     OW25570   5.512   0.497   5.637
 8224SOL    HW125571   5.579   0.431   5.603
 8224SOL    HW225572   5.480   0.469   5.727
 8225SOL     OW25573   6.160   2.588   0.344
 8225SOL    HW125574   6.133   2.541   0.429
 8225SOL    HW225575   6.246   2.637   0.359
 8226SOL     OW25576   3.696   0.431   6.839
 8226SOL    HW125577   3.732   0.356   6.894
 8226SOL    HW225578   3.682   0.511   6.897
 8227SOL     OW25579   5.610   4.046   2.094
 8227SOL    HW125580   5.531   3.986   2.102
 8227SOL    HW225581   5.611   4.109   2.172
 8228SOL     OW25582   2.753   1.559   4.241
 8228SOL    HW125583   2.664   1.517   4.255
 8228SOL    HW225584   2.796   1.578   4.329
 8229SOL     OW25585   4.126   4.264   0.551
 8229SOL    HW125586   4.167   4.187   0.601
 8229SOL    HW225587   4.031   4.275   0.580
 8230SOL     OW25588   6.610   0.678   6.410
 8230SOL    HW125589   6.707   0.679   6.434
 8230SOL    HW225590   6.556   0.722   6.482
 8231SOL     OW25591   3.548   1.775   1.482
 8231SOL    HW125592   3.632   1.806   1.526
 8231SOL    HW225593   3.511   1.696   1.531
 8232SOL     OW25594   3.832   6.420   4.196
 8232SOL    HW125595   3.870   6.489   4.257
 8232SOL    HW225596   3.794   6.464   4.115
 8233SOL     OW25597   3.142   0.607   6.424
 8233SOL    HW125598   3.217   0.673   6.419
 8233SOL    HW225599   3.171   0.520   6.385
 8234SOL     OW25600   0.672   2.818   6.786
 8234SOL    HW125601   0.722   2.752   6.841
 8234SOL    HW225602   0.583   2.836   6.829
 8235SOL     OW25603   1.100   6.311   0.207
 8235SOL    HW125604   1.178   6.354   0.161
 8235SOL    HW225605   1.095   6.215   0.182
 8236SOL     OW25606   1.393   6.980   0.944
 8236SOL    HW125607   1.410   0.009   0.862
 8236SOL    HW225608   1.391   0.015   1.024
 8237SOL     OW25609   4.102   4.883   5.461
 8237SOL    HW125610   4.178   4.939   5.496
 8237SOL    HW225611   4.100   4.796   5.509
 8238SOL     OW25612   6.555   5.014   6.667
 8238SOL    HW125613   6.618   4.949   6.710
 8238SOL    HW225614   6.465   4.971   6.657
 8239SOL     OW25615   4.322   2.376   3.821
 8239SOL    HW125616   4.357   2.332   3.738
 8239SOL    HW225617   4.367   2.465   3.833
 8240SOL     OW25618   3.829   3.689   5.276
 8240SOL    HW125619   3.853   3.718   5.369
 8240SOL    HW225620   3.883   3.609   5.251
 8241SOL     OW25621   0.638   2.986   5.881
 8241SOL    HW125622   0.586   2.986   5.795
 8241SOL    HW225623   0.704   3.062   5.880
 8242SOL     OW25624   0.698   3.076   3.383
 8242SOL    HW125625   0.773   3.011   3.369
 8242SOL    HW225626   0.682   3.126   3.298
 8243SOL     OW25627   2.056   5.607   3.797
 8243SOL    HW125628   1.987   5.536   3.785
 8243SOL    HW225629   2.135   5.569   3.846
 8244SOL     OW25630   5.644   0.347   4.383
 8244SOL    HW125631   5.709   0.271   4.371
 8244SOL    HW225632   5.601   0.339   4.473
 8245SOL     OW25633   6.010   4.337   2.479
 8245SOL    HW125634   6.090   4.395   2.495
 8245SOL    HW225635   5.980   4.296   2.565
 8246SOL     OW25636   2.207   4.700   0.118
 8246SOL    HW125637   2.265   4.649   0.055
 8246SOL    HW225638   2.242   4.794   0.126
 8247SOL     OW25639   1.969   4.807   3.271
 8247SOL    HW125640   2.011   4.841   3.355
 8247SOL    HW225641   2.024   4.733   3.233
 8248SOL     OW25642   6.400   6.969   2.235
 8248SOL    HW125643   6.360   6.892   2.185
 8248SOL    HW225644   6.467   6.935   2.301
 8249SOL     OW25645   3.514   6.998   5.536
 8249SOL    HW125646   3.489   0.070   5.539
 8249SOL    HW225647   3.433   6.944   5.512
 8250SOL     OW25648   1.143   1.406   7.006
 8250SOL    HW125649   1.138   1.394   6.907
 8250SOL    HW225650   1.072   1.471   0.009
 8251SOL     OW25651   1.148   2.094   6.547
 8251SOL    HW125652   1.228   2.098   6.608
 8251SOL    HW225653   1.065   2.102   6.602
 8252SOL     OW25654   0.861   1.433   6.505
 8252SOL    HW125655   0.861   1.357   6.440
 8252SOL    HW225656   0.818   1.404   6.591
 8253SOL     OW25657   0.252   4.268   5.355
 8253SOL    HW125658   0.267   4.367   5.356
 8253SOL    HW225659   0.292   4.229   5.272
 8254SOL     OW25660   4.912   4.391   0.081
 8254SOL    HW125661   4.898   4.452   0.159
 8254SOL    HW225662   4.850   4.313   0.088
 8255SOL     OW25663   1.716   6.373   5.527
 8255SOL    HW125664   1.767   6.299   5.572
 8255SOL    HW225665   1.664   6.424   5.595
 8256SOL     OW25666   1.629   5.798   2.539
 8256SOL    HW125667   1.594   5.803   2.446
 8256SOL    HW225668   1.608   5.709   2.578
 8257SOL     OW25669   4.788   4.565   3.651
 8257SOL    HW125670   4.847   4.534   3.725
 8257SOL    HW225671   4.692   4.559   3.679
 8258SOL     OW25672   0.180   3.242   4.836
 8258SOL    HW125673   0.118   3.182   4.785
 8258SOL    HW225674   0.259   3.263   4.779
 8259SOL     OW25675   5.974   3.242   4.075
 8259SOL    HW125676   5.879   3.273   4.076
 8259SOL    HW225677   6.033   3.317   4.107
 8260SOL     OW25678   4.823   2.447   6.559
 8260SOL    HW125679   4.771   2.382   6.503
 8260SOL    HW225680   4.864   2.398   6.636
 8261SOL     OW25681   5.318   2.552   2.655
 8261SOL    HW125682   5.359   2.468   2.689
 8261SOL    HW225683   5.344   2.566   2.559
 8262SOL     OW25684   5.018   4.370   1.979
 8262SOL    HW125685   4.927   4.364   1.940
 8262SOL    HW225686   5.015   4.348   2.077
 8263SOL     OW25687   6.659   1.372   6.907
 8263SOL    HW125688   6.647   1.458   6.958
 8263SOL    HW225689   6.587   1.365   6.838
 8264SOL     OW25690   3.506   1.308   1.619
 8264SOL    HW125691   3.550   1.396   1.600
 8264SOL    HW225692   3.406   1.320   1.618
 8265SOL     OW25693   5.010   5.594   6.802
 8265SOL    HW125694   4.935   5.631   6.856
 8265SOL    HW225695   5.094   5.594   6.858
 8266SOL     OW25696   4.858   2.692   2.671
 8266SOL    HW125697   4.957   2.695   2.688
 8266SOL    HW225698   4.830   2.774   2.621
 8267SOL     OW25699   1.962   3.106   2.856
 8267SOL    HW125700   1.890   3.064   2.911
 8267SOL    HW225701   1.940   3.096   2.759
 8268SOL     OW25702   2.831   5.188   1.344
 8268SOL    HW125703   2.875   5.212   1.257
 8268SOL    HW225704   2.828   5.268   1.403
 8269SOL     OW25705   6.743   1.927   3.329
 8269SOL    HW125706   6.798   1.953   3.409
 8269SOL    HW225707   6.650   1.907   3.359
 8270SOL     OW25708   3.798   4.852   0.030
 8270SOL    HW125709   3.750   4.936   0.007
 8270SOL    HW225710   3.798   4.840   0.129
 8271SOL     OW25711   2.800   0.140   4.961
 8271SOL    HW125712   2.868   0.153   5.032
 8271SOL    HW225713   2.796   0.043   4.936
 8272SOL     OW25714   0.792   0.830   1.954
 8272SOL    HW125715   0.830   0.917   1.923
 8272SOL    HW225716   0.808   0.819   2.052
 8273SOL     OW25717   5.180   0.208   6.069
 8273SOL    HW125718   5.095   0.259   6.084
 8273SOL    HW225719   5.177   0.164   5.980
 8274SOL     OW25720   5.454   6.557   3.926
 8274SOL    HW125721   5.447   6.581   3.829
 8274SOL    HW225722   5.405   6.472   3.943
 8275SOL     OW25723   4.963   0.414   4.396
 8275SOL    HW125724   4.885   0.416   4.334
 8275SOL    HW225725   5.015   0.499   4.389
 8276SOL     OW25726   5.431   2.727   0.854
 8276SOL    HW125727   5.423   2.676   0.940
 8276SOL    HW225728   5.527   2.741   0.833
 8277SOL     OW25729   1.572   6.981   2.159
 8277SOL    HW125730   1.615   6.968   2.069
 8277SOL    HW225731   1.476   6.953   2.154
 8278SOL     OW25732   1.901   0.587   1.320
 8278SOL    HW125733   1.884   0.538   1.235
 8278SOL    HW225734   1.847   0.547   1.393
 8279SOL     OW25735   6.196   4.844   5.662
 8279SOL    HW125736   6.153   4.792   5.588
 8279SOL    HW225737   6.165   4.939   5.658
 8280SOL     OW25738   0.531   4.821   0.007
 8280SOL    HW125739   0.549   4.741   6.975
 8280SOL    HW225740   0.546   4.799   0.103
 8281SOL     OW25741   3.110   4.860   0.102
 8281SOL    HW125742   3.203   4.897   0.110
 8281SOL    HW225743   3.112   4.761   0.111
 8282SOL     OW25744   4.487   3.216   0.580
 8282SOL    HW125745   4.536   3.302   0.597
 8282SOL    HW225746   4.406   3.212   0.639
 8283SOL     OW25747   0.746   1.445   3.593
 8283SOL    HW125748   0.693   1.528   3.578
 8283SOL    HW225749   0.789   1.416   3.507
 8284SOL     OW25750   4.834   2.474   0.921
 8284SOL    HW125751   4.799   2.500   0.831
 8284SOL    HW225752   4.895   2.546   0.955
 8285SOL     OW25753   0.319   4.995   6.970
 8285SOL    HW125754   0.393   4.930   6.983
 8285SOL    HW225755   0.237   4.946   6.938
 8286SOL     OW25756   6.149   2.112   6.603
 8286SOL    HW125757   6.194   2.175   6.539
 8286SOL    HW225758   6.219   2.059   6.651
 8287SOL     OW25759   0.400   1.006   2.890
 8287SOL    HW125760   0.418   1.078   2.957
 8287SOL    HW225761   0.402   0.917   2.935
 8288SOL     OW25762   2.626   6.580   2.604
 8288SOL    HW125763   2.672   6.498   2.637
 8288SOL    HW225764   2.579   6.625   2.680
 8289SOL     OW25765   6.072   7.023   0.227
 8289SOL    HW125766   6.105   7.010   0.320
 8289SOL    HW225767   5.973   0.013   0.228
 8290SOL     OW25768   4.538   2.789   1.747
 8290SOL    HW125769   4.509   2.835   1.663
 8290SOL    HW225770   4.565   2.857   1.815
 8291SOL     OW25771   5.454   5.580   5.279
 8291SOL    HW125772   5.357   5.556   5.275
 8291SOL    HW225773   5.495   5.541   5.361
 8292SOL     OW25774   6.794   3.805   5.701
 8292SOL    HW125775   6.875   3.795   5.643
 8292SOL    HW225776   6.711   3.801   5.644
 8293SOL     OW25777   2.692   5.458   4.324
 8293SOL    HW125778   2.735   5.394   4.261
 8293SOL    HW225779   2.763   5.513   4.368
 8294SOL     OW25780   6.619   3.282   5.716
 8294SOL    HW125781   6.593   3.287   5.620
 8294SOL    HW225782   6.717   3.263   5.723
 8295SOL     OW25783   4.295   4.696   1.210
 8295SOL    HW125784   4.301   4.609   1.259
 8295SOL    HW225785   4.366   4.758   1.244
 8296SOL     OW25786   3.076   0.546   2.236
 8296SOL    HW125787   3.021   0.628   2.247
 8296SOL    HW225788   3.058   0.505   2.146
 8297SOL     OW25789   5.956   4.654   1.864
 8297SOL    HW125790   5.999   4.568   1.835
 8297SOL    HW225791   5.950   4.656   1.963
 8298SOL     OW25792   6.843   6.284   0.743
 8298SOL    HW125793   6.903   6.263   0.820
 8298SOL    HW225794   6.839   6.205   0.682
 8299SOL     OW25795   0.896   1.704   0.031
 8299SOL    HW125796   0.984   1.740   7.025
 8299SOL    HW225797   0.822   1.749   7.006
 8300SOL     OW25798   4.497   6.380   4.751
 8300SOL    HW125799   4.571   6.423   4.700
 8300SOL    HW225800   4.429   6.344   4.687
 8301SOL     OW25801   6.307   5.024   0.047
 8301SOL    HW125802   6.269   5.090   0.112
 8301SOL    HW225803   6.335   4.942   0.096
 8302SOL     OW25804   3.551   6.417   5.824
 8302SOL    HW125805   3.481   6.449   5.759
 8302SOL    HW225806   3.589   6.496   5.872
 8303SOL     OW25807   0.196   4.633   4.156
 8303SOL    HW125808   0.262   4.685   4.102
 8303SOL    HW225809   0.164   4.689   4.232
 8304SOL     OW25810   5.699   2.950   3.901
 8304SOL    HW125811   5.796   2.967   3.883
 8304SOL    HW225812   5.645   2.976   3.822
 8305SOL     OW25813   4.587   6.063   5.527
 8305SOL    HW125814   4.592   6.054   5.626
 8305SOL    HW225815   4.621   6.153   5.499
 8306SOL     OW25816   5.354   1.375   3.787
 8306SOL    HW125817   5.451   1.394   3.772
 8306SOL    HW225818   5.322   1.311   3.718
 8307SOL     OW25819   6.718   5.036   4.213
 8307SOL    HW125820   6.654   5.111   4.230
 8307SOL    HW225821   6.760   5.048   4.123
 8308SOL     OW25822   2.235   5.158   0.042
 8308SOL    HW125823   2.286   5.072   0.037
 8308SOL    HW225824   2.299   5.235   0.035
 8309SOL     OW25825   5.823   5.169   2.623
 8309SOL    HW125826   5.817   5.246   2.560
 8309SOL    HW225827   5.731   5.138   2.646
 8310SOL     OW25828   1.820   5.929   2.698
 8310SOL    HW125829   1.866   5.861   2.754
 8310SOL    HW225830   1.771   5.883   2.624
 8311SOL     OW25831   4.823   6.573   2.177
 8311SOL    HW125832   4.729   6.606   2.182
 8311SOL    HW225833   4.885   6.651   2.166
 8312SOL     OW25834   6.981   0.520   0.936
 8312SOL    HW125835   6.924   0.540   0.856
 8312SOL    HW225836   0.026   0.454   0.911
 8313SOL     OW25837   4.964   2.490   5.719
 8313SOL    HW125838   4.924   2.461   5.632
 8313SOL    HW225839   4.985   2.410   5.775
 8314SOL     OW25840   5.235   6.255   4.538
 8314SOL    HW125841   5.318   6.205   4.514
 8314SOL    HW225842   5.243   6.291   4.631
 8315SOL     OW25843   3.444   1.681   0.983
 8315SOL    HW125844   3.388   1.764   0.976
 8315SOL    HW225845   3.424   1.634   1.069
 8316SOL     OW25846   1.507   1.750   4.643
 8316SOL    HW125847   1.466   1.841   4.639
 8316SOL    HW225848   1.561   1.742   4.727
 8317SOL     OW25849   2.206   1.863   6.546
 8317SOL    HW125850   2.192   1.853   6.645
 8317SOL    HW225851   2.303   1.853   6.525
 8318SOL     OW25852   4.028   6.265   5.143
 8318SOL    HW125853   3.930   6.271   5.126
 8318SOL    HW225854   4.045   6.205   5.221
 8319SOL     OW25855   3.027   5.969   6.238
 8319SOL    HW125856   2.980   6.056   6.228
 8319SOL    HW225857   2.974   5.897   6.191
 8320SOL     OW25858   4.004   5.331   5.464
 8320SOL    HW125859   3.967   5.336   5.558
 8320SOL    HW225860   4.101   5.353   5.466
 8321SOL     OW25861   0.473   0.039   0.397
 8321SOL    HW125862   0.456   0.019   0.493
 8321SOL    HW225863   0.386   0.060   0.351
 8322SOL     OW25864   2.760   0.269   2.191
 8322SOL    HW125865   2.704   0.322   2.254
 8322SOL    HW225866   2.813   0.202   2.242
 8323SOL     OW25867   5.666   5.251   6.803
 8323SOL    HW125868   5.682   5.230   6.707
 8323SOL    HW225869   5.586   5.201   6.835
 8324SOL     OW25870   6.422   6.025   5.897
 8324SOL    HW125871   6.466   6.115   5.887
 8324SOL    HW225872   6.340   6.022   5.840
 8325SOL     OW25873   1.773   6.003   4.949
 8325SOL    HW125874   1.727   5.931   5.001
 8325SOL    HW225875   1.769   6.089   5.001
 8326SOL     OW25876   2.969   1.035   6.305
 8326SOL    HW125877   3.029   1.099   6.257
 8326SOL    HW225878   2.996   0.941   6.283
 8327SOL     OW25879   0.682   5.838   5.497
 8327SOL    HW125880   0.780   5.847   5.479
 8327SOL    HW225881   0.635   5.813   5.413
 8328SOL     OW25882   1.052   0.215   0.409
 8328SOL    HW125883   1.151   0.203   0.397
 8328SOL    HW225884   1.012   0.130   0.442
 8329SOL     OW25885   1.880   2.345   5.526
 8329SOL    HW125886   1.966   2.304   5.554
 8329SOL    HW225887   1.846   2.405   5.599
 8330SOL     OW25888   3.534   6.629   0.106
 8330SOL    HW125889   3.577   6.617   0.196
 8330SOL    HW225890   3.600   6.672   0.044
 8331SOL     OW25891   2.081   2.187   5.728
 8331SOL    HW125892   2.040   2.120   5.790
 8331SOL    HW225893   2.171   2.214   5.762
 8332SOL     OW25894   5.466   4.380   1.174
 8332SOL    HW125895   5.420   4.291   1.182
 8332SOL    HW225896   5.398   4.451   1.156
 8333SOL     OW25897   2.685   4.238   6.285
 8333SOL    HW125898   2.770   4.252   6.336
 8333SOL    HW225899   2.609   4.276   6.338
 8334SOL     OW25900   3.225   2.750   5.295
 8334SOL    HW125901   3.146   2.692   5.275
 8334SOL    HW225902   3.304   2.692   5.316
 8335SOL     OW25903   5.821   3.206   6.976
 8335SOL    HW125904   5.809   3.274   0.023
 8335SOL    HW225905   5.773   3.236   6.894
 8336SOL     OW25906   0.905   4.454   3.902
 8336SOL    HW125907   0.952   4.542   3.905
 8336SOL    HW225908   0.871   4.437   3.810
 8337SOL     OW25909   6.094   6.898   4.139
 8337SOL    HW125910   6.179   6.882   4.090
 8337SOL    HW225911   6.022   6.923   4.074
 8338SOL     OW25912   2.574   5.149   1.012
 8338SOL    HW125913   2.539   5.064   1.052
 8338SOL    HW225914   2.666   5.166   1.047
 8339SOL     OW25915   7.013   0.174   1.711
 8339SOL    HW125916   6.986   0.080   1.731
 8339SOL    HW225917   0.086   0.178   1.698
 8340SOL     OW25918   6.066   2.492   6.021
 8340SOL    HW125919   6.082   2.448   6.110
 8340SOL    HW225920   6.022   2.427   5.959
 8341SOL     OW25921   3.215   0.394   0.888
 8341SOL    HW125922   3.165   0.397   0.975
 8341SOL    HW225923   3.151   0.409   0.813
 8342SOL     OW25924   3.815   0.858   1.376
 8342SOL    HW125925   3.825   0.931   1.309
 8342SOL    HW225926   3.786   0.897   1.464
 8343SOL     OW25927   4.744   6.166   2.980
 8343SOL    HW125928   4.659   6.114   2.987
 8343SOL    HW225929   4.725   6.262   2.999
 8344SOL     OW25930   2.151   4.501   5.008
 8344SOL    HW125931   2.068   4.476   5.058
 8344SOL    HW225932   2.186   4.420   4.960
 8345SOL     OW25933   6.410   0.101   4.137
 8345SOL    HW125934   6.427   0.119   4.233
 8345SOL    HW225935   6.367   0.011   4.127
 8346SOL     OW25936   5.366   4.470   3.152
 8346SOL    HW125937   5.301   4.401   3.183
 8346SOL    HW225938   5.403   4.519   3.231
 8347SOL     OW25939   0.971   0.911   6.496
 8347SOL    HW125940   1.031   0.959   6.433
 8347SOL    HW225941   1.026   0.856   6.560
 8348SOL     OW25942   3.159   6.432   0.684
 8348SOL    HW125943   3.183   6.528   0.701
 8348SOL    HW225944   3.132   6.388   0.770
 8349SOL     OW25945   4.500   5.670   1.471
 8349SOL    HW125946   4.550   5.712   1.395
 8349SOL    HW225947   4.410   5.711   1.478
 8350SOL     OW25948   2.113   0.422   6.534
 8350SOL    HW125949   2.204   0.454   6.508
 8350SOL    HW225950   2.121   0.339   6.589
 8351SOL     OW25951   0.030   3.655   3.054
 8351SOL    HW125952   0.006   3.711   2.974
 8351SOL    HW225953   0.001   3.702   3.137
 8352SOL     OW25954   2.301   0.400   5.908
 8352SOL    HW125955   2.275   0.350   5.825
 8352SOL    HW225956   2.280   0.343   5.988
 8353SOL     OW25957   0.647   5.695   2.408
 8353SOL    HW125958   0.729   5.710   2.353
 8353SOL    HW225959   0.594   5.780   2.412
 8354SOL     OW25960   4.791   2.927   3.840
 8354SOL    HW125961   4.868   2.889   3.892
 8354SOL    HW225962   4.813   3.020   3.810
 8355SOL     OW25963   3.557   4.831   5.926
 8355SOL    HW125964   3.655   4.844   5.912
 8355SOL    HW225965   3.509   4.917   5.908
 8356SOL     OW25966   3.265   2.907   2.278
 8356SOL    HW125967   3.244   2.892   2.375
 8356SOL    HW225968   3.181   2.930   2.229
 8357SOL     OW25969   2.751   6.614   4.792
 8357SOL    HW125970   2.697   6.558   4.854
 8357SOL    HW225971   2.693   6.685   4.751
 8358SOL     OW25972   0.283   0.631   4.357
 8358SOL    HW125973   0.297   0.695   4.433
 8358SOL    HW225974   0.247   0.545   4.393
 8359SOL     OW25975   4.643   2.327   4.997
 8359SOL    HW125976   4.654   2.284   4.908
 8359SOL    HW225977   4.666   2.262   5.069
 8360SOL     OW25978   2.891   0.345   2.591
 8360SOL    HW125979   2.975   0.397   2.580
 8360SOL    HW225980   2.896   0.262   2.536
 8361SOL     OW25981   4.471   1.067   0.123
 8361SOL    HW125982   4.565   1.069   0.089
 8361SOL    HW225983   4.454   0.980   0.169
 8362SOL     OW25984   0.772   4.608   1.690
 8362SOL    HW125985   0.699   4.573   1.749
 8362SOL    HW225986   0.811   4.533   1.636
 8363SOL     OW25987   2.874   1.993   0.850
 8363SOL    HW125988   2.920   2.056   0.912
 8363SOL    HW225989   2.841   2.044   0.770
 8364SOL     OW25990   0.444   1.179   3.457
 8364SOL    HW125991   0.519   1.163   3.521
 8364SOL    HW225992   0.477   1.236   3.381
 8365SOL     OW25993   1.986   2.588   0.977
 8365SOL    HW125994   1.961   2.645   1.055
 8365SOL    HW225995   2.059   2.632   0.925
 8366SOL     OW25996   4.828   6.004   1.713
 8366SOL    HW125997   4.749   5.943   1.718
 8366SOL    HW225998   4.853   6.033   1.806
 8367SOL     OW25999   1.969   4.838   3.551
 8367SOL    HW126000   1.878   4.853   3.591
 8367SOL    HW226001   2.038   4.885   3.606
 8368SOL     OW26002   0.837   3.261   6.591
 8368SOL    HW126003   0.752   3.262   6.539
 8368SOL    HW226004   0.867   3.166   6.604
 8369SOL     OW26005   0.894   0.542   0.243
 8369SOL    HW126006   0.802   0.504   0.258
 8369SOL    HW226007   0.957   0.504   0.311
 8370SOL     OW26008   2.796   2.926   1.073
 8370SOL    HW126009   2.846   2.959   0.992
 8370SOL    HW226010   2.849   2.949   1.155
 8371SOL     OW26011   3.093   4.161   5.565
 8371SOL    HW126012   3.037   4.242   5.579
 8371SOL    HW226013   3.043   4.096   5.506
 8372SOL     OW26014   1.866   6.852   3.073
 8372SOL    HW126015   1.866   6.811   2.981
 8372SOL    HW226016   1.885   6.949   3.065
 8373SOL     OW26017   5.606   0.572   4.046
 8373SOL    HW126018   5.542   0.508   4.002
 8373SOL    HW226019   5.565   0.663   4.050
 8374SOL     OW26020   0.824   1.912   3.834
 8374SOL    HW126021   0.743   1.932   3.780
 8374SOL    HW226022   0.870   1.998   3.859
 8375SOL     OW26023   2.226   2.601   6.028
 8375SOL    HW126024   2.173   2.551   5.960
 8375SOL    HW226025   2.238   2.695   5.998
 8376SOL     OW26026   0.815   1.143   3.878
 8376SOL    HW126027   0.855   1.057   3.847
 8376SOL    HW226028   0.862   1.173   3.961
 8377SOL     OW26029   4.054   5.072   1.360
 8377SOL    HW126030   4.125   5.053   1.292
 8377SOL    HW226031   3.994   5.144   1.326
 8378SOL     OW26032   4.511   5.833   5.189
 8378SOL    HW126033   4.555   5.791   5.110
 8378SOL    HW226034   4.454   5.765   5.235
 8379SOL     OW26035   5.554   2.859   1.971
 8379SOL    HW126036   5.482   2.795   1.945
 8379SOL    HW226037   5.643   2.820   1.947
 8380SOL     OW26038   1.625   4.750   3.031
 8380SOL    HW126039   1.531   4.772   3.054
 8380SOL    HW226040   1.645   4.783   2.939
 8381SOL     OW26041   1.216   2.238   2.487
 8381SOL    HW126042   1.188   2.321   2.439
 8381SOL    HW226043   1.166   2.230   2.573
 8382SOL     OW26044   1.553   0.332   1.738
 8382SOL    HW126045   1.521   0.352   1.830
 8382SOL    HW226046   1.637   0.277   1.742
 8383SOL     OW26047   2.244   6.610   5.189
 8383SOL    HW126048   2.293   6.567   5.113
 8383SOL    HW226049   2.249   6.709   5.180
 8384SOL     OW26050   0.472   4.198   3.782
 8384SOL    HW126051   0.514   4.110   3.804
 8384SOL    HW226052   0.401   4.184   3.713
 8385SOL     OW26053   4.334   2.348   2.382
 8385SOL    HW126054   4.253   2.406   2.381
 8385SOL    HW226055   4.322   2.273   2.317
 8386SOL     OW26056   6.536   5.111   2.114
 8386SOL    HW126057   6.579   5.147   2.197
 8386SOL    HW226058   6.436   5.113   2.125
 8387SOL     OW26059   0.356   1.990   3.622
 8387SOL    HW126060   0.392   2.005   3.530
 8387SOL    HW226061   0.281   2.053   3.639
 8388SOL     OW26062   3.887   6.006   2.255
 8388SOL    HW126063   3.930   6.016   2.165
 8388SOL    HW226064   3.875   6.096   2.296
 8389SOL     OW26065   1.589   2.469   4.464
 8389SOL    HW126066   1.505   2.450   4.514
 8389SOL    HW226067   1.645   2.534   4.516
 8390SOL     OW26068   1.380   6.584   6.497
 8390SOL    HW126069   1.281   6.572   6.486
 8390SOL    HW226070   1.407   6.674   6.463
 8391SOL     OW26071   4.722   6.406   0.669
 8391SOL    HW126072   4.731   6.306   0.664
 8391SOL    HW226073   4.785   6.442   0.737
 8392SOL     OW26074   3.587   5.838   0.633
 8392SOL    HW126075   3.569   5.912   0.568
 8392SOL    HW226076   3.523   5.763   0.617
 8393SOL     OW26077   1.631   6.350   1.664
 8393SOL    HW126078   1.555   6.391   1.614
 8393SOL    HW226079   1.717   6.370   1.617
 8394SOL     OW26080   1.752   1.381   3.441
 8394SOL    HW126081   1.806   1.452   3.486
 8394SOL    HW226082   1.668   1.365   3.493
 8395SOL     OW26083   2.139   5.878   6.327
 8395SOL    HW126084   2.070   5.945   6.300
 8395SOL    HW226085   2.099   5.787   6.326
 8396SOL     OW26086   4.659   1.917   0.894
 8396SOL    HW126087   4.713   1.956   0.819
 8396SOL    HW226088   4.693   1.825   0.915
 8397SOL     OW26089   0.511   4.489   3.315
 8397SOL    HW126090   0.548   4.404   3.280
 8397SOL    HW226091   0.475   4.475   3.407
 8398SOL     OW26092   5.411   1.120   6.792
 8398SOL    HW126093   5.401   1.152   6.698
 8398SOL    HW226094   5.358   1.178   6.853
 8399SOL     OW26095   5.839   6.188   5.497
 8399SOL    HW126096   5.878   6.212   5.408
 8399SOL    HW226097   5.761   6.126   5.483
 8400SOL     OW26098   5.905   6.102   3.322
 8400SOL    HW126099   5.912   6.051   3.237
 8400SOL    HW226100   5.997   6.122   3.357
 8401SOL     OW26101   2.634   3.574   5.478
 8401SOL    HW126102   2.718   3.558   5.529
 8401SOL    HW226103   2.646   3.653   5.418
 8402SOL     OW26104   5.122   1.190   4.768
 8402SOL    HW126105   5.094   1.205   4.863
 8402SOL    HW226106   5.213   1.230   4.754
 8403SOL     OW26107   0.654   1.786   6.165
 8403SOL    HW126108   0.628   1.871   6.211
 8403SOL    HW226109   0.700   1.726   6.230
 8404SOL     OW26110   4.934   5.177   5.339
 8404SOL    HW126111   4.845   5.223   5.337
 8404SOL    HW226112   5.006   5.244   5.360
 8405SOL     OW26113   0.678   2.528   6.250
 8405SOL    HW126114   0.753   2.536   6.184
 8405SOL    HW226115   0.714   2.534   6.343
 8406SOL     OW26116   5.706   4.273   1.323
 8406SOL    HW126117   5.624   4.297   1.271
 8406SOL    HW226118   5.782   4.257   1.261
 8407SOL     OW26119   5.602   3.855   2.439
 8407SOL    HW126120   5.599   3.949   2.473
 8407SOL    HW226121   5.594   3.791   2.516
 8408SOL     OW26122   4.684   4.188   4.047
 8408SOL    HW126123   4.777   4.188   4.010
 8408SOL    HW226124   4.674   4.112   4.112
 8409SOL     OW26125   1.757   2.243   3.836
 8409SOL    HW126126   1.817   2.164   3.825
 8409SOL    HW226127   1.662   2.215   3.816
 8410SOL     OW26128   1.988   4.966   2.620
 8410SOL    HW126129   1.925   5.040   2.640
 8410SOL    HW226130   1.993   4.904   2.699
 8411SOL     OW26131   1.701   3.523   3.035
 8411SOL    HW126132   1.684   3.430   3.068
 8411SOL    HW226133   1.794   3.530   3.000
 8412SOL     OW26134   5.875   2.634   2.379
 8412SOL    HW126135   5.868   2.669   2.286
 8412SOL    HW226136   5.925   2.701   2.436
 8413SOL     OW26137   2.075   5.884   1.856
 8413SOL    HW126138   1.996   5.890   1.917
 8413SOL    HW226139   2.044   5.890   1.761
 8414SOL     OW26140   6.095   0.206   4.093
 8414SOL    HW126141   6.175   0.209   4.153
 8414SOL    HW226142   6.013   0.227   4.147
 8415SOL     OW26143   0.760   5.050   1.087
 8415SOL    HW126144   0.827   4.978   1.067
 8415SOL    HW226145   0.709   5.072   1.004
 8416SOL     OW26146   4.352   4.589   3.046
 8416SOL    HW126147   4.266   4.632   3.071
 8416SOL    HW226148   4.398   4.645   2.976
 8417SOL     OW26149   0.987   5.618   0.299
 8417SOL    HW126150   0.894   5.630   0.333
 8417SOL    HW226151   0.994   5.531   0.250
 8418SOL     OW26152   5.237   5.697   2.780
 8418SOL    HW126153   5.146   5.659   2.768
 8418SOL    HW226154   5.231   5.786   2.826
 8419SOL     OW26155   3.275   1.377   3.516
 8419SOL    HW126156   3.353   1.388   3.455
 8419SOL    HW226157   3.302   1.398   3.610
 8420SOL     OW26158   4.890   1.910   5.333
 8420SOL    HW126159   4.838   1.886   5.251
 8420SOL    HW226160   4.975   1.956   5.306
 8421SOL     OW26161   0.169   0.944   0.619
 8421SOL    HW126162   0.190   1.039   0.640
 8421SOL    HW226163   0.232   0.884   0.668
 8422SOL     OW26164   2.810   0.937   1.115
 8422SOL    HW126165   2.729   0.989   1.089
 8422SOL    HW226166   2.892   0.983   1.079
 8423SOL     OW26167   1.914   4.492   1.080
 8423SOL    HW126168   2.009   4.505   1.051
 8423SOL    HW226169   1.894   4.555   1.155
 8424SOL     OW26170   2.746   2.127   1.970
 8424SOL    HW126171   2.828   2.176   1.998
 8424SOL    HW226172   2.764   2.077   1.886
 8425SOL     OW26173   0.625   5.043   5.856
 8425SOL    HW126174   0.649   4.948   5.876
 8425SOL    HW226175   0.666   5.102   5.925
 8426SOL     OW26176   3.838   3.335   2.412
 8426SOL    HW126177   3.834   3.344   2.312
 8426SOL    HW226178   3.917   3.279   2.437
 8427SOL     OW26179   2.363   1.267   6.916
 8427SOL    HW126180   2.433   1.216   6.867
 8427SOL    HW226181   2.355   1.233   7.009
 8428SOL     OW26182   6.288   3.936   1.096
 8428SOL    HW126183   6.268   3.844   1.062
 8428SOL    HW226184   6.375   3.935   1.145
 8429SOL     OW26185   1.443   6.720   2.993
 8429SOL    HW126186   1.397   6.731   3.081
 8429SOL    HW226187   1.504   6.798   2.978
 8430SOL     OW26188   3.692   6.294   2.679
 8430SOL    HW126189   3.605   6.331   2.649
 8430SOL    HW226190   3.699   6.198   2.651
 8431SOL     OW26191   2.989   3.255   2.177
 8431SOL    HW126192   2.946   3.207   2.101
 8431SOL    HW226193   3.083   3.224   2.189
 8432SOL     OW26194   5.077   5.667   0.230
 8432SOL    HW126195   5.161   5.716   0.251
 8432SOL    HW226196   5.022   5.659   0.312
 8433SOL     OW26197   6.891   1.715   4.121
 8433SOL    HW126198   6.856   1.625   4.147
 8433SOL    HW226199   6.963   1.704   4.053
 8434SOL     OW26200   5.268   6.345   6.762
 8434SOL    HW126201   5.279   6.443   6.749
 8434SOL    HW226202   5.330   6.313   6.833
 8435SOL     OW26203   4.524   3.431   0.904
 8435SOL    HW126204   4.566   3.391   0.986
 8435SOL    HW226205   4.525   3.363   0.831
 8436SOL     OW26206   3.013   4.290   1.691
 8436SOL    HW126207   2.983   4.373   1.738
 8436SOL    HW226208   3.110   4.274   1.708
 8437SOL     OW26209   6.948   2.373   0.739
 8437SOL    HW126210   6.860   2.410   0.711
 8437SOL    HW226211   6.946   2.351   0.837
 8438SOL     OW26212   2.177   5.652   1.562
 8438SOL    HW126213   2.161   5.587   1.488
 8438SOL    HW226214   2.195   5.603   1.647
 8439SOL     OW26215   5.438   0.274   1.662
 8439SOL    HW126216   5.528   0.308   1.690
 8439SOL    HW226217   5.425   0.292   1.564
 8440SOL     OW26218   1.034   3.473   4.067
 8440SOL    HW126219   1.050   3.519   3.980
 8440SOL    HW226220   1.020   3.542   4.139
 8441SOL     OW26221   3.716   5.966   1.293
 8441SOL    HW126222   3.734   5.867   1.290
 8441SOL    HW226223   3.799   6.014   1.320
 8442SOL     OW26224   2.417   2.892   0.889
 8442SOL    HW126225   2.501   2.938   0.860
 8442SOL    HW226226   2.405   2.808   0.836
 8443SOL     OW26227   6.786   2.380   1.419
 8443SOL    HW126228   6.691   2.401   1.394
 8443SOL    HW226229   6.821   2.450   1.481
 8444SOL     OW26230   4.888   2.437   3.365
 8444SOL    HW126231   4.922   2.384   3.443
 8444SOL    HW226232   4.965   2.484   3.321
 8445SOL     OW26233   4.196   5.762   2.104
 8445SOL    HW126234   4.294   5.746   2.098
 8445SOL    HW226235   4.178   5.852   2.143
 8446SOL     OW26236   6.334   4.146   3.233
 8446SOL    HW126237   6.326   4.149   3.332
 8446SOL    HW226238   6.355   4.052   3.204
 8447SOL     OW26239   4.712   4.636   1.023
 8447SOL    HW126240   4.621   4.632   1.065
 8447SOL    HW226241   4.779   4.663   1.091
 8448SOL     OW26242   1.752   4.614   5.809
 8448SOL    HW126243   1.781   4.672   5.732
 8448SOL    HW226244   1.725   4.672   5.885
 8449SOL     OW26245   1.466   0.531   5.297
 8449SOL    HW126246   1.374   0.506   5.265
 8449SOL    HW226247   1.516   0.574   5.222
 8450SOL     OW26248   1.658   5.686   0.624
 8450SOL    HW126249   1.562   5.669   0.603
 8450SOL    HW226250   1.667   5.776   0.667
 8451SOL     OW26251   2.786   4.328   1.247
 8451SOL    HW126252   2.831   4.275   1.174
 8451SOL    HW226253   2.763   4.267   1.323
 8452SOL     OW26254   6.557   5.897   2.621
 8452SOL    HW126255   6.526   5.953   2.543
 8452SOL    HW226256   6.489   5.901   2.694
 8453SOL     OW26257   0.325   4.693   5.140
 8453SOL    HW126258   0.364   4.784   5.154
 8453SOL    HW226259   0.319   4.674   5.042
 8454SOL     OW26260   1.861   6.851   5.376
 8454SOL    HW126261   1.908   6.888   5.296
 8454SOL    HW226262   1.777   6.805   5.348
 8455SOL     OW26263   6.113   2.400   0.555
 8455SOL    HW126264   6.114   2.324   0.490
 8455SOL    HW226265   6.206   2.423   0.581
 8456SOL     OW26266   6.353   4.472   3.772
 8456SOL    HW126267   6.438   4.519   3.749
 8456SOL    HW226268   6.374   4.380   3.807
 8457SOL     OW26269   5.923   6.159   6.456
 8457SOL    HW126270   5.860   6.235   6.475
 8457SOL    HW226271   6.015   6.195   6.445
 8458SOL     OW26272   1.156   1.877   1.053
 8458SOL    HW126273   1.161   1.949   0.983
 8458SOL    HW226274   1.062   1.871   1.087
 8459SOL     OW26275   2.754   5.220   3.149
 8459SOL    HW126276   2.809   5.164   3.211
 8459SOL    HW226277   2.785   5.206   3.055
 8460SOL     OW26278   3.801   1.410   0.956
 8460SOL    HW126279   3.873   1.341   0.952
 8460SOL    HW226280   3.735   1.386   1.028
 8461SOL     OW26281   5.545   4.496   2.960
 8461SOL    HW126282   5.578   4.412   2.917
 8461SOL    HW226283   5.488   4.474   3.039
 8462SOL     OW26284   1.832   4.241   0.757
 8462SOL    HW126285   1.771   4.320   0.750
 8462SOL    HW226286   1.907   4.263   0.820
 8463SOL     OW26287   0.266   6.541   1.527
 8463SOL    HW126288   0.205   6.510   1.454
 8463SOL    HW226289   0.341   6.594   1.487
 8464SOL     OW26290   0.376   3.250   6.693
 8464SOL    HW126291   0.366   3.274   6.596
 8464SOL    HW226292   0.424   3.323   6.740
 8465SOL     OW26293   5.868   4.830   0.361
 8465SOL    HW126294   5.879   4.731   0.348
 8465SOL    HW226295   5.807   4.866   0.291
 8466SOL     OW26296   0.513   1.569   4.831
 8466SOL    HW126297   0.545   1.663   4.836
 8466SOL    HW226298   0.591   1.506   4.831
 8467SOL     OW26299   3.047   1.449   0.720
 8467SOL    HW126300   3.093   1.436   0.808
 8467SOL    HW226301   2.966   1.506   0.732
 8468SOL     OW26302   6.579   3.827   1.147
 8468SOL    HW126303   6.515   3.755   1.173
 8468SOL    HW226304   6.672   3.789   1.142
 8469SOL     OW26305   3.565   3.012   5.287
 8469SOL    HW126306   3.539   2.951   5.362
 8469SOL    HW226307   3.510   2.991   5.206
 8470SOL     OW26308   2.105   5.510   1.304
 8470SOL    HW126309   2.077   5.440   1.239
 8470SOL    HW226310   2.185   5.560   1.268
 8471SOL     OW26311   4.114   1.853   3.871
 8471SOL    HW126312   4.132   1.765   3.827
 8471SOL    HW226313   4.195   1.881   3.922
 8472SOL     OW26314   5.620   1.706   6.709
 8472SOL    HW126315   5.686   1.762   6.760
 8472SOL    HW226316   5.566   1.652   6.774
 8473SOL     OW26317   4.783   5.108   5.663
 8473SOL    HW126318   4.853   5.170   5.698
 8473SOL    HW226319   4.822   5.018   5.647
 8474SOL     OW26320   3.664   3.416   5.886
 8474SOL    HW126321   3.630   3.337   5.834
 8474SOL    HW226322   3.733   3.464   5.832
 8475SOL     OW26323   0.239   1.838   2.533
 8475SOL    HW126324   0.152   1.871   2.494
 8475SOL    HW226325   0.223   1.753   2.582
 8476SOL     OW26326   6.790   1.035   2.523
 8476SOL    HW126327   6.830   1.126   2.534
 8476SOL    HW226328   6.725   1.037   2.448
 8477SOL     OW26329   5.407   6.620   1.107
 8477SOL    HW126330   5.419   6.541   1.166
 8477SOL    HW226331   5.310   6.631   1.085
 8478SOL     OW26332   1.784   6.545   6.778
 8478SOL    HW126333   1.823   6.480   6.713
 8478SOL    HW226334   1.798   6.511   6.871
 8479SOL     OW26335   1.094   2.327   0.085
 8479SOL    HW126336   1.140   2.240   0.099
 8479SOL    HW226337   1.008   2.312   0.036
 8480SOL     OW26338   3.270   4.474   1.635
 8480SOL    HW126339   3.292   4.553   1.693
 8480SOL    HW226340   3.205   4.501   1.565
 8481SOL     OW26341   5.037   3.632   2.321
 8481SOL    HW126342   5.004   3.564   2.388
 8481SOL    HW226343   5.004   3.607   2.230
 8482SOL     OW26344   4.637   0.504   5.746
 8482SOL    HW126345   4.710   0.524   5.811
 8482SOL    HW226346   4.603   0.589   5.706
 8483SOL     OW26347   4.455   5.327   3.546
 8483SOL    HW126348   4.464   5.425   3.566
 8483SOL    HW226349   4.426   5.316   3.451
 8484SOL     OW26350   6.160   6.693   5.502
 8484SOL    HW126351   6.215   6.663   5.580
 8484SOL    HW226352   6.107   6.616   5.467
 8485SOL     OW26353   3.835   0.308   5.194
 8485SOL    HW126354   3.911   0.372   5.205
 8485SOL    HW226355   3.772   0.317   5.271
 8486SOL     OW26356   4.865   2.730   4.881
 8486SOL    HW126357   4.781   2.761   4.927
 8486SOL    HW226358   4.876   2.781   4.795
 8487SOL     OW26359   0.006   1.517   5.329
 8487SOL    HW126360   6.988   1.473   5.408
 8487SOL    HW226361   0.096   1.552   5.356
 8488SOL     OW26362   4.413   5.399   2.980
 8488SOL    HW126363   4.363   5.313   2.981
 8488SOL    HW226364   4.420   5.432   2.886
 8489SOL     OW26365   6.487   2.353   2.013
 8489SOL    HW126366   6.409   2.322   1.960
 8489SOL    HW226367   6.522   2.439   1.976
 8490SOL     OW26368   3.842   6.482   0.303
 8490SOL    HW126369   3.902   6.409   0.271
 8490SOL    HW226370   3.875   6.516   0.391
 8491SOL     OW26371   3.134   6.005   1.991
 8491SOL    HW126372   3.224   5.967   2.013
 8491SOL    HW226373   3.129   6.099   2.024
 8492SOL     OW26374   5.633   6.929   4.077
 8492SOL    HW126375   5.604   6.853   4.136
 8492SOL    HW226376   5.728   6.916   4.051
 8493SOL     OW26377   4.883   0.423   5.880
 8493SOL    HW126378   4.906   0.437   5.976
 8493SOL    HW226379   4.966   0.420   5.825
 8494SOL     OW26380   0.164   3.619   2.477
 8494SOL    HW126381   0.169   3.646   2.381
 8494SOL    HW226382   0.068   3.608   2.504
 8495SOL     OW26383   5.043   5.915   4.953
 8495SOL    HW126384   5.059   5.903   5.051
 8495SOL    HW226385   5.118   5.872   4.902
 8496SOL     OW26386   3.979   2.172   2.452
 8496SOL    HW126387   3.929   2.145   2.369
 8496SOL    HW226388   3.927   2.144   2.532
 8497SOL     OW26389   6.608   0.632   3.317
 8497SOL    HW126390   6.576   0.633   3.222
 8497SOL    HW226391   6.532   0.612   3.378
 8498SOL     OW26392   5.397   6.494   4.873
 8498SOL    HW126393   5.397   6.408   4.924
 8498SOL    HW226394   5.362   6.567   4.931
 8499SOL     OW26395   6.207   6.981   5.965
 8499SOL    HW126396   6.127   6.923   5.948
 8499SOL    HW226397   6.210   7.006   6.062
 8500SOL     OW26398   1.025   0.776   6.181
 8500SOL    HW126399   0.927   0.759   6.191
 8500SOL    HW226400   1.057   0.740   6.093
 8501SOL     OW26401   3.494   1.133   5.080
 8501SOL    HW126402   3.562   1.151   5.009
 8501SOL    HW226403   3.499   1.204   5.150
 8502SOL     OW26404   6.411   3.250   0.459
 8502SOL    HW126405   6.460   3.332   0.430
 8502SOL    HW226406   6.472   3.193   0.514
 8503SOL     OW26407   4.514   1.951   5.766
 8503SOL    HW126408   4.592   2.001   5.729
 8503SOL    HW226409   4.429   1.988   5.729
 8504SOL     OW26410   1.401   0.992   3.234
 8504SOL    HW126411   1.431   1.026   3.323
 8504SOL    HW226412   1.439   1.050   3.161
 8505SOL     OW26413   6.022   1.917   2.893
 8505SOL    HW126414   5.944   1.907   2.956
 8505SOL    HW226415   6.079   1.993   2.924
 8506SOL     OW26416   1.699   0.852   4.800
 8506SOL    HW126417   1.659   0.944   4.799
 8506SOL    HW226418   1.752   0.838   4.716
 8507SOL     OW26419   4.518   4.723   6.758
 8507SOL    HW126420   4.552   4.656   6.823
 8507SOL    HW226421   4.418   4.717   6.753
 8508SOL     OW26422   4.111   0.510   6.744
 8508SOL    HW126423   4.060   0.520   6.658
 8508SOL    HW226424   4.065   0.562   6.816
 8509SOL     OW26425   4.085   1.829   2.389
 8509SOL    HW126426   4.088   1.907   2.326
 8509SOL    HW226427   3.989   1.808   2.411
 8510SOL     OW26428   0.707   2.142   4.912
 8510SOL    HW126429   0.715   2.168   5.008
 8510SOL    HW226430   0.614   2.159   4.880
 8511SOL     OW26431   5.525   2.316   4.163
 8511SOL    HW126432   5.444   2.341   4.216
 8511SOL    HW226433   5.522   2.219   4.140
 8512SOL     OW26434   1.988   6.538   6.144
 8512SOL    HW126435   1.955   6.632   6.156
 8512SOL    HW226436   2.088   6.538   6.147
 8513SOL     OW26437   4.046   5.858   6.824
 8513SOL    HW126438   4.049   5.778   6.764
 8513SOL    HW226439   4.026   5.940   6.770
 8514SOL     OW26440   4.280   5.415   4.636
 8514SOL    HW126441   4.195   5.413   4.689
 8514SOL    HW226442   4.263   5.458   4.548
 8515SOL     OW26443   5.323   3.361   1.867
 8515SOL    HW126444   5.346   3.265   1.858
 8515SOL    HW226445   5.369   3.413   1.795
 8516SOL     OW26446   6.679   2.492   1.742
 8516SOL    HW126447   6.617   2.546   1.685
 8516SOL    HW226448   6.765   2.542   1.754
 8517SOL     OW26449   0.971   3.793   4.641
 8517SOL    HW126450   0.908   3.723   4.675
 8517SOL    HW226451   1.056   3.750   4.611
 8518SOL     OW26452   3.746   6.009   0.876
 8518SOL    HW126453   3.752   5.942   0.802
 8518SOL    HW226454   3.693   6.088   0.845
 8519SOL     OW26455   2.801   5.452   3.470
 8519SOL    HW126456   2.868   5.516   3.507
 8519SOL    HW226457   2.746   5.498   3.401
 8520SOL     OW26458   3.736   5.519   6.877
 8520SOL    HW126459   3.717   5.617   6.889
 8520SOL    HW226460   3.812   5.492   6.936
 8521SOL     OW26461   1.048   0.845   2.902
 8521SOL    HW126462   1.008   0.915   2.961
 8521SOL    HW226463   0.977   0.780   2.875
 8522SOL     OW26464   2.477   6.394   4.269
 8522SOL    HW126465   2.554   6.387   4.332
 8522SOL    HW226466   2.433   6.304   4.260
 8523SOL     OW26467   1.721   5.943   6.678
 8523SOL    HW126468   1.650   5.952   6.608
 8523SOL    HW226469   1.811   5.938   6.634
 8524SOL     OW26470   1.610   1.451   6.758
 8524SOL    HW126471   1.650   1.493   6.677
 8524SOL    HW226472   1.677   1.389   6.799
 8525SOL     OW26473   5.616   4.515   4.426
 8525SOL    HW126474   5.628   4.585   4.355
 8525SOL    HW226475   5.655   4.428   4.394
 8526SOL     OW26476   0.038   2.998   2.080
 8526SOL    HW126477   0.117   3.056   2.060
 8526SOL    HW226478   6.983   3.034   2.033
 8527SOL     OW26479   4.907   0.666   5.091
 8527SOL    HW126480   4.957   0.733   5.037
 8527SOL    HW226481   4.808   0.680   5.079
 8528SOL     OW26482   5.236   0.236   0.223
 8528SOL    HW126483   5.177   0.316   0.215
 8528SOL    HW226484   5.315   0.258   0.281
 8529SOL     OW26485   6.974   0.344   4.460
 8529SOL    HW126486   6.888   0.307   4.496
 8529SOL    HW226487   6.975   0.333   4.360
 8530SOL     OW26488   1.907   5.002   6.203
 8530SOL    HW126489   1.942   5.046   6.120
 8530SOL    HW226490   1.983   4.969   6.258
 8531SOL     OW26491   3.628   5.912   2.840
 8531SOL    HW126492   3.657   5.951   2.927
 8531SOL    HW226493   3.609   5.815   2.852
 8532SOL     OW26494   1.245   4.108   6.882
 8532SOL    HW126495   1.205   4.072   6.798
 8532SOL    HW226496   1.281   4.033   6.937
 8533SOL     OW26497   3.326   0.404   6.002
 8533SOL    HW126498   3.421   0.382   6.023
 8533SOL    HW226499   3.321   0.458   5.918
 8534SOL     OW26500   2.664   2.380   1.147
 8534SOL    HW126501   2.570   2.399   1.175
 8534SOL    HW226502   2.667   2.364   1.048
 8535SOL     OW26503   0.212   2.385   6.139
 8535SOL    HW126504   0.207   2.483   6.122
 8535SOL    HW226505   0.180   2.365   6.231
 8536SOL     OW26506   6.377   0.675   6.263
 8536SOL    HW126507   6.468   0.674   6.305
 8536SOL    HW226508   6.370   0.601   6.196
 8537SOL     OW26509   3.869   6.105   3.174
 8537SOL    HW126510   3.902   6.066   3.088
 8537SOL    HW226511   3.917   6.062   3.251
 8538SOL     OW26512   4.223   1.127   5.048
 8538SOL    HW126513   4.230   1.153   5.145
 8538SOL    HW226514   4.313   1.106   5.012
 8539SOL     OW26515   0.507   3.183   2.842
 8539SOL    HW126516   0.503   3.278   2.810
 8539SOL    HW226517   0.472   3.178   2.936
 8540SOL     OW26518   4.591   6.250   6.012
 8540SOL    HW126519   4.528   6.242   6.089
 8540SOL    HW226520   4.684   6.235   6.043
 8541SOL     OW26521   3.359   5.799   5.678
 8541SOL    HW126522   3.339   5.893   5.705
 8541SOL    HW226523   3.458   5.783   5.680
 8542SOL     OW26524   1.687   5.098   5.857
 8542SOL    HW126525   1.626   5.024   5.830
 8542SOL    HW226526   1.758   5.062   5.918
 8543SOL     OW26527   3.598   1.633   5.577
 8543SOL    HW126528   3.559   1.676   5.659
 8543SOL    HW226529   3.696   1.615   5.592
 8544SOL     OW26530   4.933   3.767   5.499
 8544SOL    HW126531   4.982   3.768   5.586
 8544SOL    HW226532   4.996   3.791   5.425
 8545SOL     OW26533   2.227   0.658   5.946
 8545SOL    HW126534   2.256   0.563   5.937
 8545SOL    HW226535   2.127   0.663   5.946
 8546SOL     OW26536   2.538   1.406   3.947
 8546SOL    HW126537   2.625   1.392   3.900
 8546SOL    HW226538   2.533   1.346   4.027
 8547SOL     OW26539   5.895   5.294   5.478
 8547SOL    HW126540   5.810   5.288   5.531
 8547SOL    HW226541   5.964   5.343   5.531
 8548SOL     OW26542   1.274   4.449   4.396
 8548SOL    HW126543   1.372   4.456   4.377
 8548SOL    HW226544   1.242   4.534   4.439
 8549SOL     OW26545   3.276   0.380   3.703
 8549SOL    HW126546   3.316   0.288   3.701
 8549SOL    HW226547   3.346   0.447   3.679
 8550SOL     OW26548   0.466   3.365   4.863
 8550SOL    HW126549   0.482   3.323   4.773
 8550SOL    HW226550   0.533   3.330   4.928
 8551SOL     OW26551   3.529   1.747   3.606
 8551SOL    HW126552   3.599   1.797   3.555
 8551SOL    HW226553   3.438   1.782   3.579
 8552SOL     OW26554   4.311   1.188   1.925
 8552SOL    HW126555   4.232   1.242   1.898
 8552SOL    HW226556   4.295   1.146   2.014
 8553SOL     OW26557   5.335   3.545   0.665
 8553SOL    HW126558   5.424   3.540   0.621
 8553SOL    HW226559   5.270   3.592   0.604
 8554SOL     OW26560   0.674   1.101   0.202
 8554SOL    HW126561   0.595   1.044   0.184
 8554SOL    HW226562   0.757   1.055   0.170
 8555SOL     OW26563   3.454   1.768   3.894
 8555SOL    HW126564   3.501   1.848   3.930
 8555SOL    HW226565   3.486   1.751   3.800
 8556SOL     OW26566   0.529   4.140   5.469
 8556SOL    HW126567   0.590   4.188   5.533
 8556SOL    HW226568   0.517   4.195   5.387
 8557SOL     OW26569   5.952   0.764   0.737
 8557SOL    HW126570   5.958   0.681   0.792
 8557SOL    HW226571   6.021   0.829   0.769
 8558SOL     OW26572   2.687   6.003   3.279
 8558SOL    HW126573   2.731   5.917   3.306
 8558SOL    HW226574   2.600   6.012   3.329
 8559SOL     OW26575   1.445   3.154   3.573
 8559SOL    HW126576   1.398   3.073   3.537
 8559SOL    HW226577   1.382   3.232   3.573
 8560SOL     OW26578   3.535   4.329   1.562
 8560SOL    HW126579   3.538   4.264   1.638
 8560SOL    HW226580   3.466   4.399   1.580
 8561SOL     OW26581   3.823   0.672   2.146
 8561SOL    HW126582   3.730   0.644   2.170
 8561SOL    HW226583   3.854   0.743   2.209
 8562SOL     OW26584   5.380   3.388   6.169
 8562SOL    HW126585   5.440   3.352   6.240
 8562SOL    HW226586   5.290   3.345   6.176
 8563SOL     OW26587   0.591   4.626   3.000
 8563SOL    HW126588   0.628   4.533   3.008
 8563SOL    HW226589   0.512   4.636   3.060
 8564SOL     OW26590   4.330   6.201   6.806
 8564SOL    HW126591   4.298   6.159   6.721
 8564SOL    HW226592   4.321   6.137   6.881
 8565SOL     OW26593   0.879   4.760   1.103
 8565SOL    HW126594   0.912   4.772   1.196
 8565SOL    HW226595   0.948   4.793   1.039
 8566SOL     OW26596   1.952   0.918   3.156
 8566SOL    HW126597   2.038   0.966   3.175
 8566SOL    HW226598   1.903   0.968   3.084
 8567SOL     OW26599   1.530   3.425   0.574
 8567SOL    HW126600   1.489   3.368   0.645
 8567SOL    HW226601   1.577   3.366   0.508
 8568SOL     OW26602   5.846   6.602   6.550
 8568SOL    HW126603   5.786   6.674   6.518
 8568SOL    HW226604   5.906   6.572   6.475
 8569SOL     OW26605   4.357   1.637   6.169
 8569SOL    HW126606   4.457   1.643   6.174
 8569SOL    HW226607   4.331   1.551   6.126
 8570SOL     OW26608   1.803   2.444   4.232
 8570SOL    HW126609   1.718   2.486   4.263
 8570SOL    HW226610   1.873   2.455   4.303
 8571SOL     OW26611   1.168   0.937   3.713
 8571SOL    HW126612   1.134   0.984   3.632
 8571SOL    HW226613   1.093   0.926   3.779
 8572SOL     OW26614   2.587   3.273   6.085
 8572SOL    HW126615   2.635   3.264   5.997
 8572SOL    HW226616   2.653   3.268   6.160
 8573SOL     OW26617   1.905   5.974   6.196
 8573SOL    HW126618   1.929   6.071   6.195
 8573SOL    HW226619   1.899   5.940   6.102
 8574SOL     OW26620   5.855   2.368   5.413
 8574SOL    HW126621   5.872   2.325   5.501
 8574SOL    HW226622   5.889   2.462   5.414
 8575SOL     OW26623   2.604   6.632   4.124
 8575SOL    HW126624   2.560   6.557   4.173
 8575SOL    HW226625   2.703   6.626   4.136
 8576SOL     OW26626   1.240   3.562   4.830
 8576SOL    HW126627   1.259   3.575   4.928
 8576SOL    HW226628   1.272   3.472   4.801
 8577SOL     OW26629   1.866   1.039   0.506
 8577SOL    HW126630   1.810   1.084   0.437
 8577SOL    HW226631   1.938   1.101   0.537
 8578SOL     OW26632   1.544   0.184   5.706
 8578SOL    HW126633   1.527   0.265   5.650
 8578SOL    HW226634   1.574   0.109   5.647
 8579SOL     OW26635   2.900   0.121   2.456
 8579SOL    HW126636   2.930   0.050   2.392
 8579SOL    HW226637   2.815   0.091   2.500
 8580SOL     OW26638   1.453   0.625   1.912
 8580SOL    HW126639   1.484   0.692   1.844
 8580SOL    HW226640   1.353   0.624   1.915
 8581SOL     OW26641   4.104   3.377   3.903
 8581SOL    HW126642   4.100   3.285   3.864
 8581SOL    HW226643   4.051   3.378   3.988
 8582SOL     OW26644   5.016   5.819   5.883
 8582SOL    HW126645   4.958   5.844   5.805
 8582SOL    HW226646   5.069   5.898   5.912
 8583SOL     OW26647   3.260   0.639   2.844
 8583SOL    HW126648   3.162   0.656   2.860
 8583SOL    HW226649   3.305   0.620   2.931
 8584SOL     OW26650   5.459   2.622   5.386
 8584SOL    HW126651   5.518   2.552   5.344
 8584SOL    HW226652   5.365   2.610   5.354
 8585SOL     OW26653   4.549   2.510   2.958
 8585SOL    HW126654   4.582   2.464   3.040
 8585SOL    HW226655   4.450   2.525   2.965
 8586SOL     OW26656   6.421   0.003   5.781
 8586SOL    HW126657   6.476   6.952   5.748
 8586SOL    HW226658   6.341   6.994   5.829
 8587SOL     OW26659   6.710   0.222   0.920
 8587SOL    HW126660   6.697   0.286   0.995
 8587SOL    HW226661   6.647   0.145   0.930
 8588SOL     OW26662   1.817   1.828   5.602
 8588SOL    HW126663   1.909   1.819   5.641
 8588SOL    HW226664   1.816   1.793   5.509
 8589SOL     OW26665   6.023   3.138   6.785
 8589SOL    HW126666   6.038   3.236   6.774
 8589SOL    HW226667   5.938   3.122   6.834
 8590SOL     OW26668   0.982   1.044   3.056
 8590SOL    HW126669   0.893   1.090   3.050
 8590SOL    HW226670   1.053   1.111   3.079
 8591SOL     OW26671   0.528   4.088   5.925
 8591SOL    HW126672   0.442   4.045   5.897
 8591SOL    HW226673   0.582   4.110   5.844
 8592SOL     OW26674   6.985   2.178   4.488
 8592SOL    HW126675   7.004   2.108   4.558
 8592SOL    HW226676   0.030   2.175   4.418
 8593SOL     OW26677   6.532   1.182   0.421
 8593SOL    HW126678   6.489   1.120   0.487
 8593SOL    HW226679   6.618   1.217   0.459
 8594SOL     OW26680   6.361   2.908   6.353
 8594SOL    HW126681   6.303   2.836   6.392
 8594SOL    HW226682   6.408   2.871   6.273
 8595SOL     OW26683   5.773   6.410   2.524
 8595SOL    HW126684   5.771   6.312   2.545
 8595SOL    HW226685   5.680   6.442   2.505
 8596SOL     OW26686   0.466   2.761   5.237
 8596SOL    HW126687   0.431   2.670   5.259
 8596SOL    HW226688   0.542   2.784   5.299
 8597SOL     OW26689   6.261   2.261   5.613
 8597SOL    HW126690   6.243   2.199   5.689
 8597SOL    HW226691   6.290   2.350   5.649
 8598SOL     OW26692   6.777   0.792   5.838
 8598SOL    HW126693   6.868   0.805   5.798
 8598SOL    HW226694   6.758   0.866   5.903
 8599SOL     OW26695   5.633   4.308   5.208
 8599SOL    HW126696   5.633   4.216   5.167
 8599SOL    HW226697   5.634   4.299   5.308
 8600SOL     OW26698   3.905   2.926   1.939
 8600SOL    HW126699   3.921   2.829   1.923
 8600SOL    HW226700   3.820   2.954   1.895
 8601SOL     OW26701   4.711   5.167   1.874
 8601SOL    HW126702   4.692   5.075   1.839
 8601SOL    HW226703   4.655   5.184   1.955
 8602SOL     OW26704   1.662   6.263   5.008
 8602SOL    HW126705   1.642   6.332   5.078
 8602SOL    HW226706   1.716   6.305   4.935
 8603SOL     OW26707   0.925   1.019   0.086
 8603SOL    HW126708   0.927   0.996   7.015
 8603SOL    HW226709   0.992   1.091   0.105
 8604SOL     OW26710   1.794   5.412   6.107
 8604SOL    HW126711   1.749   5.501   6.098
 8604SOL    HW226712   1.859   5.415   6.183
 8605SOL     OW26713   6.736   4.598   3.980
 8605SOL    HW126714   6.636   4.601   3.977
 8605SOL    HW226715   6.768   4.517   3.931
 8606SOL     OW26716   0.856   0.232   6.238
 8606SOL    HW126717   0.932   0.252   6.176
 8606SOL    HW226718   0.859   0.296   6.315
 8607SOL     OW26719   2.904   2.807   1.576
 8607SOL    HW126720   2.959   2.727   1.601
 8607SOL    HW226721   2.860   2.791   1.488
 8608SOL     OW26722   2.137   5.338   2.302
 8608SOL    HW126723   2.072   5.297   2.238
 8608SOL    HW226724   2.123   5.298   2.393
 8609SOL     OW26725   4.750   2.376   4.146
 8609SOL    HW126726   4.748   2.325   4.232
 8609SOL    HW226727   4.828   2.346   4.091
 8610SOL     OW26728   6.968   5.333   2.461
 8610SOL    HW126729   6.903   5.357   2.533
 8610SOL    HW226730   6.972   5.234   2.451
 8611SOL     OW26731   2.093   1.600   5.419
 8611SOL    HW126732   2.183   1.559   5.404
 8611SOL    HW226733   2.086   1.630   5.514
 8612SOL     OW26734   3.395   3.044   5.943
 8612SOL    HW126735   3.475   3.021   5.888
 8612SOL    HW226736   3.332   2.965   5.945
 8613SOL     OW26737   3.004   3.169   3.517
 8613SOL    HW126738   2.983   3.187   3.614
 8613SOL    HW226739   3.098   3.138   3.509
 8614SOL     OW26740   0.295   3.352   3.914
 8614SOL    HW126741   0.294   3.444   3.953
 8614SOL    HW226742   0.285   3.284   3.987
 8615SOL     OW26743   3.893   0.880   5.195
 8615SOL    HW126744   3.800   0.843   5.198
 8615SOL    HW226745   3.941   0.842   5.116
 8616SOL     OW26746   6.026   3.999   5.273
 8616SOL    HW126747   6.087   4.057   5.220
 8616SOL    HW226748   5.936   3.997   5.229
 8617SOL     OW26749   0.779   0.296   4.225
 8617SOL    HW126750   0.864   0.316   4.177
 8617SOL    HW226751   0.782   0.335   4.317
 8618SOL     OW26752   6.513   5.241   0.276
 8618SOL    HW126753   6.525   5.246   0.375
 8618SOL    HW226754   6.432   5.186   0.255
 8619SOL     OW26755   5.670   5.258   6.513
 8619SOL    HW126756   5.588   5.315   6.500
 8619SOL    HW226757   5.729   5.267   6.433
 8620SOL     OW26758   1.410   6.260   4.060
 8620SOL    HW126759   1.424   6.217   3.970
 8620SOL    HW226760   1.455   6.349   4.062
 8621SOL     OW26761   6.408   3.640   1.542
 8621SOL    HW126762   6.344   3.596   1.479
 8621SOL    HW226763   6.405   3.739   1.527
 8622SOL     OW26764   0.689   6.153   1.897
 8622SOL    HW126765   0.748   6.159   1.816
 8622SOL    HW226766   0.599   6.120   1.869
 8623SOL     OW26767   2.044   2.000   3.333
 8623SOL    HW126768   2.074   2.049   3.252
 8623SOL    HW226769   2.112   1.931   3.358
 8624SOL     OW26770   3.058   3.317   6.097
 8624SOL    HW126771   3.071   3.416   6.104
 8624SOL    HW226772   3.146   3.271   6.105
 8625SOL     OW26773   4.468   3.524   6.224
 8625SOL    HW126774   4.498   3.523   6.128
 8625SOL    HW226775   4.513   3.449   6.273
 8626SOL     OW26776   4.933   1.689   0.529
 8626SOL    HW126777   4.948   1.758   0.458
 8626SOL    HW226778   4.997   1.613   0.516
 8627SOL     OW26779   0.046   0.259   2.383
 8627SOL    HW126780   0.058   0.321   2.461
 8627SOL    HW226781   0.104   0.289   2.308
 8628SOL     OW26782   1.063   6.292   0.482
 8628SOL    HW126783   0.974   6.247   0.482
 8628SOL    HW226784   1.085   6.324   0.390
 8629SOL     OW26785   7.025   0.914   4.641
 8629SOL    HW126786   6.998   0.895   4.547
 8629SOL    HW226787   0.092   0.953   4.641
 8630SOL     OW26788   5.150   2.963   1.860
 8630SOL    HW126789   5.104   3.047   1.887
 8630SOL    HW226790   5.241   2.984   1.824
 8631SOL     OW26791   1.328   6.083   6.935
 8631SOL    HW126792   1.339   6.004   6.874
 8631SOL    HW226793   1.357   6.166   6.887
 8632SOL     OW26794   6.179   5.957   3.687
 8632SOL    HW126795   6.164   6.053   3.710
 8632SOL    HW226796   6.090   5.912   3.675
 8633SOL     OW26797   6.731   4.027   5.882
 8633SOL    HW126798   6.725   3.935   5.843
 8633SOL    HW226799   6.699   4.093   5.815
 8634SOL     OW26800   4.894   4.554   6.605
 8634SOL    HW126801   4.943   4.548   6.692
 8634SOL    HW226802   4.883   4.463   6.566
 8635SOL     OW26803   5.448   2.192   6.647
 8635SOL    HW126804   5.354   2.222   6.665
 8635SOL    HW226805   5.453   2.153   6.555
 8636SOL     OW26806   4.534   5.803   0.148
 8636SOL    HW126807   4.585   5.815   0.233
 8636SOL    HW226808   4.459   5.739   0.163
 8637SOL     OW26809   3.140   2.430   0.747
 8637SOL    HW126810   3.240   2.432   0.746
 8637SOL    HW226811   3.105   2.520   0.771
 8638SOL     OW26812   4.707   2.226   4.355
 8638SOL    HW126813   4.720   2.299   4.423
 8638SOL    HW226814   4.720   2.137   4.399
 8639SOL     OW26815   3.795   4.058   0.511
 8639SOL    HW126816   3.816   4.092   0.420
 8639SOL    HW226817   3.808   3.959   0.514
 8640SOL     OW26818   3.020   2.606   6.471
 8640SOL    HW126819   3.081   2.572   6.398
 8640SOL    HW226820   2.979   2.528   6.518
 8641SOL     OW26821   3.458   4.945   3.152
 8641SOL    HW126822   3.461   4.927   3.053
 8641SOL    HW226823   3.500   5.034   3.170
 8642SOL     OW26824   2.264   6.265   3.193
 8642SOL    HW126825   2.214   6.272   3.279
 8642SOL    HW226826   2.212   6.312   3.121
 8643SOL     OW26827   3.588   6.225   1.207
 8643SOL    HW126828   3.503   6.219   1.260
 8643SOL    HW226829   3.646   6.147   1.229
 8644SOL     OW26830   5.266   2.346   6.422
 8644SOL    HW126831   5.234   2.296   6.503
 8644SOL    HW226832   5.362   2.372   6.434
 8645SOL     OW26833   5.057   5.437   2.492
 8645SOL    HW126834   5.127   5.369   2.515
 8645SOL    HW226835   5.100   5.517   2.451
 8646SOL     OW26836   6.711   1.866   4.267
 8646SOL    HW126837   6.615   1.839   4.271
 8646SOL    HW226838   6.763   1.794   4.221
 8647SOL     OW26839   1.811   4.685   1.657
 8647SOL    HW126840   1.800   4.606   1.598
 8647SOL    HW226841   1.906   4.689   1.691
 8648SOL     OW26842   5.778   5.606   6.276
 8648SOL    HW126843   5.842   5.676   6.308
 8648SOL    HW226844   5.698   5.604   6.336
 8649SOL     OW26845   5.378   2.665   1.960
 8649SOL    HW126846   5.315   2.675   1.883
 8649SOL    HW226847   5.328   2.633   2.041
 8650SOL     OW26848   1.165   0.965   4.961
 8650SOL    HW126849   1.109   0.969   4.878
 8650SOL    HW226850   1.238   0.899   4.949
 8651SOL     OW26851   4.904   1.278   1.540
 8651SOL    HW126852   4.917   1.375   1.564
 8651SOL    HW226853   4.831   1.240   1.597
 8652SOL     OW26854   6.551   3.209   4.911
 8652SOL    HW126855   6.553   3.118   4.869
 8652SOL    HW226856   6.486   3.267   4.862
 8653SOL     OW26857   4.664   0.524   0.209
 8653SOL    HW126858   4.633   0.561   0.122
 8653SOL    HW226859   4.752   0.566   0.233
 8654SOL     OW26860   0.187   4.388   3.151
 8654SOL    HW126861   0.253   4.462   3.158
 8654SOL    HW226862   0.108   4.419   3.098
 8655SOL     OW26863   1.301   6.946   5.072
 8655SOL    HW126864   1.271   6.853   5.095
 8655SOL    HW226865   1.335   6.948   4.977
 8656SOL     OW26866   3.517   6.034   0.441
 8656SOL    HW126867   3.534   6.004   0.347
 8656SOL    HW226868   3.454   6.111   0.441
 8657SOL     OW26869   3.075   1.873   2.453
 8657SOL    HW126870   3.091   1.774   2.453
 8657SOL    HW226871   3.138   1.917   2.389
 8658SOL     OW26872   6.359   4.077   0.846
 8658SOL    HW126873   6.302   4.059   0.926
 8658SOL    HW226874   6.345   4.172   0.817
 8659SOL     OW26875   3.571   0.217   3.721
 8659SOL    HW126876   3.649   0.252   3.773
 8659SOL    HW226877   3.502   0.180   3.783
 8660SOL     OW26878   6.976   4.786   0.924
 8660SOL    HW126879   7.009   4.702   0.967
 8660SOL    HW226880   6.879   4.776   0.900
 8661SOL     OW26881   5.708   3.333   1.530
 8661SOL    HW126882   5.689   3.290   1.442
 8661SOL    HW226883   5.682   3.271   1.604
 8662SOL     OW26884   1.674   2.619   2.545
 8662SOL    HW126885   1.738   2.619   2.621
 8662SOL    HW226886   1.592   2.567   2.570
 8663SOL     OW26887   2.995   5.277   2.022
 8663SOL    HW126888   2.906   5.246   2.055
 8663SOL    HW226889   3.047   5.199   1.989
 8664SOL     OW26890   3.080   5.819   4.355
 8664SOL    HW126891   3.118   5.804   4.264
 8664SOL    HW226892   3.153   5.848   4.417
 8665SOL     OW26893   0.806   3.582   6.689
 8665SOL    HW126894   0.876   3.542   6.629
 8665SOL    HW226895   0.850   3.624   6.768
 8666SOL     OW26896   5.000   7.023   2.748
 8666SOL    HW126897   5.046   0.017   2.835
 8666SOL    HW226898   5.048   0.044   2.674
 8667SOL     OW26899   4.146   1.997   2.599
 8667SOL    HW126900   4.139   1.918   2.539
 8667SOL    HW226901   4.106   2.077   2.555
 8668SOL     OW26902   3.597   1.993   3.213
 8668SOL    HW126903   3.633   1.915   3.162
 8668SOL    HW226904   3.499   2.003   3.196
 8669SOL     OW26905   0.462   6.011   5.518
 8669SOL    HW126906   0.548   5.964   5.501
 8669SOL    HW226907   0.474   6.077   5.592
 8670SOL     OW26908   0.008   5.034   4.753
 8670SOL    HW126909   0.073   5.041   4.829
 8670SOL    HW226910   0.007   4.941   4.718
 8671SOL     OW26911   0.439   3.864   3.562
 8671SOL    HW126912   0.495   3.792   3.521
 8671SOL    HW226913   0.492   3.911   3.632
 8672SOL     OW26914   6.697   1.522   2.475
 8672SOL    HW126915   6.697   1.534   2.376
 8672SOL    HW226916   6.614   1.564   2.514
 8673SOL     OW26917   0.056   1.460   1.782
 8673SOL    HW126918   0.151   1.430   1.797
 8673SOL    HW226919   0.038   1.542   1.837
 8674SOL     OW26920   0.146   2.938   4.303
 8674SOL    HW126921   0.095   2.883   4.369
 8674SOL    HW226922   0.242   2.911   4.304
 8675SOL     OW26923   5.053   2.443   5.100
 8675SOL    HW126924   4.959   2.453   5.131
 8675SOL    HW226925   5.059   2.463   5.002
 8676SOL     OW26926   4.964   3.148   0.889
 8676SOL    HW126927   5.021   3.228   0.865
 8676SOL    HW226928   4.869   3.167   0.865
 8677SOL     OW26929   3.080   0.916   0.256
 8677SOL    HW126930   3.047   0.935   0.164
 8677SOL    HW226931   3.143   0.838   0.253
 8678SOL     OW26932   3.312   1.819   0.002
 8678SOL    HW126933   3.379   1.882   0.041
 8678SOL    HW226934   3.220   1.850   0.023
 8679SOL     OW26935   1.682   2.020   6.879
 8679SOL    HW126936   1.778   1.998   6.891
 8679SOL    HW226937   1.641   1.957   6.813
 8680SOL     OW26938   0.511   0.160   1.687
 8680SOL    HW126939   0.582   0.105   1.731
 8680SOL    HW226940   0.507   0.249   1.731
 8681SOL     OW26941   5.378   5.122   0.978
 8681SOL    HW126942   5.374   5.049   0.909
 8681SOL    HW226943   5.307   5.190   0.958
 8682SOL     OW26944   1.717   1.522   1.917
 8682SOL    HW126945   1.708   1.493   1.821
 8682SOL    HW226946   1.681   1.614   1.927
 8683SOL     OW26947   2.320   4.522   4.489
 8683SOL    HW126948   2.325   4.524   4.389
 8683SOL    HW226949   2.262   4.447   4.518
 8684SOL     OW26950   2.163   3.836   3.653
 8684SOL    HW126951   2.193   3.930   3.634
 8684SOL    HW226952   2.157   3.785   3.567
 8685SOL     OW26953   4.982   3.313   5.679
 8685SOL    HW126954   5.002   3.411   5.692
 8685SOL    HW226955   4.897   3.303   5.628
 8686SOL     OW26956   1.177   4.661   2.426
 8686SOL    HW126957   1.231   4.586   2.464
 8686SOL    HW226958   1.082   4.651   2.456
 8687SOL     OW26959   6.256   3.843   5.335
 8687SOL    HW126960   6.171   3.888   5.306
 8687SOL    HW226961   6.234   3.766   5.394
 8688SOL     OW26962   1.341   3.324   4.764
 8688SOL    HW126963   1.391   3.324   4.850
 8688SOL    HW226964   1.296   3.235   4.751
 8689SOL     OW26965   5.443   3.293   1.188
 8689SOL    HW126966   5.539   3.275   1.210
 8689SOL    HW226967   5.424   3.263   1.094
 8690SOL     OW26968   1.679   2.337   2.074
 8690SOL    HW126969   1.640   2.271   2.139
 8690SOL    HW226970   1.614   2.412   2.060
 8691SOL     OW26971   3.025   1.014   7.023
 8691SOL    HW126972   3.118   1.048   7.011
 8691SOL    HW226973   3.000   0.957   6.945
 8692SOL     OW26974   5.780   2.427   4.162
 8692SOL    HW126975   5.697   2.375   4.143
 8692SOL    HW226976   5.773   2.469   4.253
 8693SOL     OW26977   0.393   6.888   5.226
 8693SOL    HW126978   0.461   6.831   5.180
 8693SOL    HW226979   0.437   6.971   5.260
 8694SOL     OW26980   4.099   3.836   5.521
 8694SOL    HW126981   4.105   3.906   5.450
 8694SOL    HW226982   4.152   3.864   5.601
 8695SOL     OW26983   4.122   4.211   1.545
 8695SOL    HW126984   4.148   4.195   1.450
 8695SOL    HW226985   4.107   4.124   1.591
 8696SOL     OW26986   2.761   5.058   6.841
 8696SOL    HW126987   2.781   5.110   6.759
 8696SOL    HW226988   2.667   5.023   6.837
 8697SOL     OW26989   0.696   2.706   4.555
 8697SOL    HW126990   0.633   2.628   4.557
 8697SOL    HW226991   0.731   2.723   4.647
 8698SOL     OW26992   6.044   4.210   6.458
 8698SOL    HW126993   6.142   4.200   6.474
 8698SOL    HW226994   6.028   4.222   6.360
 8699SOL     OW26995   2.198   1.908   1.407
 8699SOL    HW126996   2.291   1.942   1.396
 8699SOL    HW226997   2.192   1.855   1.492
 8700SOL     OW26998   0.464   2.122   4.746
 8700SOL    HW126999   0.516   2.128   4.661
 8700SOL    HW227000   0.376   2.169   4.735
 8701SOL     OW27001   2.503   3.278   6.837
 8701SOL    HW127002   2.507   3.178   6.844
 8701SOL    HW227003   2.472   3.316   6.924
 8702SOL     OW27004   5.898   4.406   0.653
 8702SOL    HW127005   5.813   4.459   0.649
 8702SOL    HW227006   5.975   4.468   0.673
 8703SOL     OW27007   2.102   5.172   1.121
 8703SOL    HW127008   2.027   5.128   1.170
 8703SOL    HW227009   2.072   5.262   1.089
 8704SOL     OW27010   6.545   1.247   3.569
 8704SOL    HW127011   6.477   1.296   3.515
 8704SOL    HW227012   6.516   1.152   3.581
 8705SOL     OW27013   3.720   2.193   0.268
 8705SOL    HW127014   3.789   2.120   0.265
 8705SOL    HW227015   3.639   2.159   0.314
 8706SOL     OW27016   4.642   2.914   5.264
 8706SOL    HW127017   4.666   2.865   5.180
 8706SOL    HW227018   4.544   2.907   5.279
 8707SOL     OW27019   1.567   1.123   4.336
 8707SOL    HW127020   1.480   1.084   4.306
 8707SOL    HW227021   1.561   1.223   4.332
 8708SOL     OW27022   5.307   2.552   1.036
 8708SOL    HW127023   5.313   2.465   1.085
 8708SOL    HW227024   5.247   2.542   0.957
 8709SOL     OW27025   6.492   6.370   4.253
 8709SOL    HW127026   6.539   6.345   4.168
 8709SOL    HW227027   6.556   6.418   4.313
 8710SOL     OW27028   2.342   2.837   3.383
 8710SOL    HW127029   2.415   2.903   3.401
 8710SOL    HW227030   2.299   2.811   3.469
 8711SOL     OW27031   1.204   2.049   2.279
 8711SOL    HW127032   1.236   2.068   2.372
 8711SOL    HW227033   1.128   1.984   2.283
 8712SOL     OW27034   1.574   3.724   4.075
 8712SOL    HW127035   1.567   3.821   4.051
 8712SOL    HW227036   1.482   3.686   4.085
 8713SOL     OW27037   0.074   4.592   3.697
 8713SOL    HW127038   0.004   4.624   3.760
 8713SOL    HW227039   0.164   4.617   3.733
 8714SOL     OW27040   0.814   4.632   6.112
 8714SOL    HW127041   0.729   4.668   6.150
 8714SOL    HW227042   0.865   4.583   6.183
 8715SOL     OW27043   1.812   4.957   1.703
 8715SOL    HW127044   1.911   4.947   1.718
 8715SOL    HW227045   1.769   4.867   1.705
 8716SOL     OW27046   5.302   0.079   2.939
 8716SOL    HW127047   5.251   0.135   3.004
 8716SOL    HW227048   5.350   0.138   2.874
 8717SOL     OW27049   4.063   2.380   6.786
 8717SOL    HW127050   4.045   2.475   6.809
 8717SOL    HW227051   4.117   2.337   6.858
 8718SOL     OW27052   2.983   5.058   5.935
 8718SOL    HW127053   2.967   5.086   5.840
 8718SOL    HW227054   3.028   5.132   5.984
 8719SOL     OW27055   3.083   2.052   4.314
 8719SOL    HW127056   3.052   2.102   4.395
 8719SOL    HW227057   3.003   2.019   4.263
 8720SOL     OW27058   0.085   6.721   5.072
 8720SOL    HW127059   0.109   6.813   5.041
 8720SOL    HW227060   0.010   6.727   5.138
 8721SOL     OW27061   0.493   0.469   1.733
 8721SOL    HW127062   0.540   0.484   1.820
 8721SOL    HW227063   0.416   0.533   1.726
 8722SOL     OW27064   3.665   0.973   0.339
 8722SOL    HW127065   3.708   0.908   0.402
 8722SOL    HW227066   3.566   0.970   0.351
 8723SOL     OW27067   3.625   6.962   2.713
 8723SOL    HW127068   3.682   6.952   2.631
 8723SOL    HW227069   3.682   6.951   2.794
 8724SOL     OW27070   4.848   0.554   5.356
 8724SOL    HW127071   4.867   0.612   5.277
 8724SOL    HW227072   4.926   0.494   5.374
 8725SOL     OW27073   6.779   1.292   2.665
 8725SOL    HW127074   6.765   1.360   2.593
 8725SOL    HW227075   6.692   1.274   2.711
 8726SOL     OW27076   6.896   1.010   0.693
 8726SOL    HW127077   6.979   0.969   0.731
 8726SOL    HW227078   6.825   0.940   0.685
 8727SOL     OW27079   4.901   5.711   6.112
 8727SOL    HW127080   4.816   5.762   6.126
 8727SOL    HW227081   4.947   5.745   6.029
 8728SOL     OW27082   5.563   6.737   4.330
 8728SOL    HW127083   5.598   6.690   4.411
 8728SOL    HW227084   5.553   6.672   4.255
 8729SOL     OW27085   5.725   6.361   6.478
 8729SOL    HW127086   5.661   6.305   6.530
 8729SOL    HW227087   5.758   6.436   6.536
 8730SOL     OW27088   4.062   4.862   1.563
 8730SOL    HW127089   4.033   4.943   1.512
 8730SOL    HW227090   4.152   4.878   1.604
 8731SOL     OW27091   0.151   2.391   4.056
 8731SOL    HW127092   0.207   2.368   3.976
 8731SOL    HW227093   0.075   2.326   4.063
 8732SOL     OW27094   5.414   6.259   5.341
 8732SOL    HW127095   5.492   6.200   5.363
 8732SOL    HW227096   5.329   6.215   5.369
 8733SOL     OW27097   5.794   4.426   2.353
 8733SOL    HW127098   5.888   4.399   2.378
 8733SOL    HW227099   5.764   4.500   2.413
 8734SOL     OW27100   0.444   6.148   1.732
 8734SOL    HW127101   0.402   6.099   1.656
 8734SOL    HW227102   0.375   6.163   1.803
 8735SOL     OW27103   1.368   2.114   6.953
 8735SOL    HW127104   1.432   2.037   6.952
 8735SOL    HW227105   1.365   2.155   6.862
 8736SOL     OW27106   1.221   5.966   3.952
 8736SOL    HW127107   1.226   5.956   4.051
 8736SOL    HW227108   1.230   5.876   3.909
 8737SOL     OW27109   0.464   5.517   6.953
 8737SOL    HW127110   0.439   5.612   6.973
 8737SOL    HW227111   0.538   5.488   7.013
 8738SOL     OW27112   2.119   2.197   2.556
 8738SOL    HW127113   2.092   2.293   2.556
 8738SOL    HW227114   2.213   2.190   2.523
 8739SOL     OW27115   4.394   4.697   3.582
 8739SOL    HW127116   4.444   4.610   3.583
 8739SOL    HW227117   4.458   4.771   3.602
 8740SOL     OW27118   1.807   0.729   3.798
 8740SOL    HW127119   1.839   0.663   3.866
 8740SOL    HW227120   1.712   0.711   3.776
 8741SOL     OW27121   2.134   2.150   3.113
 8741SOL    HW127122   2.219   2.184   3.153
 8741SOL    HW227123   2.152   2.116   3.020
 8742SOL     OW27124   1.513   2.863   0.935
 8742SOL    HW127125   1.429   2.879   0.883
 8742SOL    HW227126   1.493   2.866   1.033
 8743SOL     OW27127   1.929   3.221   0.446
 8743SOL    HW127128   1.893   3.298   0.499
 8743SOL    HW227129   1.979   3.160   0.507
 8744SOL     OW27130   2.614   3.821   5.680
 8744SOL    HW127131   2.593   3.918   5.673
 8744SOL    HW227132   2.685   3.806   5.749
 8745SOL     OW27133   5.644   1.455   6.887
 8745SOL    HW127134   5.682   1.364   6.901
 8745SOL    HW227135   5.549   1.457   6.918
 8746SOL     OW27136   4.747   4.791   4.511
 8746SOL    HW127137   4.741   4.692   4.505
 8746SOL    HW227138   4.702   4.832   4.432
 8747SOL     OW27139   0.517   6.576   1.435
 8747SOL    HW127140   0.581   6.565   1.359
 8747SOL    HW227141   0.511   6.491   1.486
 8748SOL     OW27142   6.129   1.378   4.870
 8748SOL    HW127143   6.194   1.447   4.903
 8748SOL    HW227144   6.179   1.307   4.821
 8749SOL     OW27145   2.306   1.068   4.068
 8749SOL    HW127146   2.371   1.131   4.112
 8749SOL    HW227147   2.327   1.061   3.971
 8750SOL     OW27148   4.075   3.629   2.208
 8750SOL    HW127149   4.084   3.531   2.226
 8750SOL    HW227150   4.101   3.648   2.113
 8751SOL     OW27151   2.071   6.348   6.748
 8751SOL    HW127152   1.989   6.323   6.697
 8751SOL    HW227153   2.116   6.265   6.781
 8752SOL     OW27154   1.302   2.971   6.858
 8752SOL    HW127155   1.335   3.047   6.913
 8752SOL    HW227156   1.245   3.007   6.783
 8753SOL     OW27157   1.881   1.886   1.065
 8753SOL    HW127158   1.847   1.793   1.048
 8753SOL    HW227159   1.911   1.926   0.978
 8754SOL     OW27160   1.809   6.296   6.655
 8754SOL    HW127161   1.757   6.246   6.724
 8754SOL    HW227162   1.763   6.288   6.566
 8755SOL     OW27163   0.248   1.733   1.847
 8755SOL    HW127164   0.154   1.736   1.879
 8755SOL    HW227165   0.300   1.666   1.902
 8756SOL     OW27166   1.952   1.537   2.318
 8756SOL    HW127167   1.940   1.527   2.219
 8756SOL    HW227168   1.917   1.626   2.347
 8757SOL     OW27169   5.233   5.724   4.841
 8757SOL    HW127170   5.243   5.637   4.889
 8757SOL    HW227171   5.314   5.740   4.785
 8758SOL     OW27172   3.607   4.761   6.693
 8758SOL    HW127173   3.613   4.853   6.733
 8758SOL    HW227174   3.619   4.692   6.764
 8759SOL     OW27175   6.757   1.286   1.473
 8759SOL    HW127176   6.856   1.281   1.463
 8759SOL    HW227177   6.726   1.380   1.453
 8760SOL     OW27178   1.426   2.731   4.608
 8760SOL    HW127179   1.438   2.773   4.698
 8760SOL    HW227180   1.464   2.792   4.538
 8761SOL     OW27181   5.224   3.124   3.633
 8761SOL    HW127182   5.127   3.124   3.658
 8761SOL    HW227183   5.232   3.135   3.534
 8762SOL     OW27184   3.895   6.277   2.430
 8762SOL    HW127185   3.894   6.371   2.394
 8762SOL    HW227186   3.824   6.267   2.500
 8763SOL     OW27187   0.023   1.819   5.174
 8763SOL    HW127188   7.017   1.810   5.268
 8763SOL    HW227189   0.119   1.791   5.168
 8764SOL     OW27190   2.379   5.247   6.234
 8764SOL    HW127191   2.468   5.202   6.222
 8764SOL    HW227192   2.370   5.276   6.329
 8765SOL     OW27193   4.473   6.863   3.475
 8765SOL    HW127194   4.494   6.915   3.392
 8765SOL    HW227195   4.449   6.927   3.549
 8766SOL     OW27196   6.354   6.941   4.970
 8766SOL    HW127197   6.359   6.903   5.062
 8766SOL    HW227198   6.419   7.017   4.962
 8767SOL     OW27199   2.198   1.236   4.875
 8767SOL    HW127200   2.169   1.295   4.950
 8767SOL    HW227201   2.186   1.285   4.788
 8768SOL     OW27202   6.581   2.205   0.955
 8768SOL    HW127203   6.512   2.276   0.939
 8768SOL    HW227204   6.598   2.154   0.871
 8769SOL     OW27205   6.830   0.100   0.165
 8769SOL    HW127206   6.836   0.192   0.126
 8769SOL    HW227207   6.896   0.091   0.239
 8770SOL     OW27208   4.514   2.189   0.515
 8770SOL    HW127209   4.446   2.150   0.452
 8770SOL    HW227210   4.476   2.272   0.557
 8771SOL     OW27211   1.015   2.858   6.732
 8771SOL    HW127212   0.995   2.799   6.810
 8771SOL    HW227213   1.067   2.807   6.664
 8772SOL     OW27214   0.566   6.587   3.701
 8772SOL    HW127215   0.541   6.680   3.674
 8772SOL    HW227216   0.569   6.529   3.620
 8773SOL     OW27217   6.134   1.533   4.237
 8773SOL    HW127218   6.134   1.442   4.279
 8773SOL    HW227219   6.220   1.545   4.186
 8774SOL     OW27220   1.063   2.420   6.721
 8774SOL    HW127221   1.113   2.468   6.793
 8774SOL    HW227222   1.122   2.406   6.642
 8775SOL     OW27223   4.308   1.692   2.313
 8775SOL    HW127224   4.277   1.598   2.305
 8775SOL    HW227225   4.238   1.747   2.358
 8776SOL     OW27226   5.585   3.090   1.629
 8776SOL    HW127227   5.632   3.002   1.633
 8776SOL    HW227228   5.499   3.079   1.580
 8777SOL     OW27229   6.161   2.337   3.765
 8777SOL    HW127230   6.123   2.365   3.854
 8777SOL    HW227231   6.109   2.380   3.692
 8778SOL     OW27232   1.820   4.349   6.088
 8778SOL    HW127233   1.914   4.316   6.097
 8778SOL    HW227234   1.810   4.436   6.136
 8779SOL     OW27235   3.631   6.620   3.416
 8779SOL    HW127236   3.594   6.646   3.504
 8779SOL    HW227237   3.612   6.691   3.349
 8780SOL     OW27238   0.734   3.144   4.338
 8780SOL    HW127239   0.738   3.044   4.328
 8780SOL    HW227240   0.756   3.168   4.432
 8781SOL     OW27241   3.978   1.312   2.209
 8781SOL    HW127242   3.946   1.223   2.175
 8781SOL    HW227243   3.999   1.371   2.131
 8782SOL     OW27244   6.360   2.369   7.013
 8782SOL    HW127245   6.436   2.366   6.949
 8782SOL    HW227246   6.279   2.404   6.967
 8783SOL     OW27247   3.593   3.897   6.364
 8783SOL    HW127248   3.640   3.864   6.446
 8783SOL    HW227249   3.639   3.979   6.331
 8784SOL     OW27250   4.337   1.389   5.594
 8784SOL    HW127251   4.329   1.456   5.667
 8784SOL    HW227252   4.352   1.437   5.507
 8785SOL     OW27253   6.780   0.065   5.940
 8785SOL    HW127254   6.834   0.144   5.910
 8785SOL    HW227255   6.686   0.093   5.956
 8786SOL     OW27256   5.354   2.510   3.075
 8786SOL    HW127257   5.315   2.424   3.044
 8786SOL    HW227258   5.451   2.497   3.098
 8787SOL     OW27259   3.273   5.431   2.682
 8787SOL    HW127260   3.333   5.414   2.604
 8787SOL    HW227261   3.194   5.369   2.678
 8788SOL     OW27262   0.127   6.925   3.858
 8788SOL    HW127263   0.154   7.021   3.862
 8788SOL    HW227264   0.128   6.887   3.950
 8789SOL     OW27265   2.494   3.663   0.036
 8789SOL    HW127266   2.535   3.725   0.102
 8789SOL    HW227267   2.400   3.691   0.017
 8790SOL     OW27268   4.761   3.172   5.256
 8790SOL    HW127269   4.853   3.172   5.219
 8790SOL    HW227270   4.720   3.081   5.247
 8791SOL     OW27271   3.927   6.576   5.555
 8791SOL    HW127272   3.975   6.624   5.482
 8791SOL    HW227273   3.835   6.552   5.524
 8792SOL     OW27274   5.359   4.484   0.827
 8792SOL    HW127275   5.384   4.502   0.732
 8792SOL    HW227276   5.442   4.478   0.883
 8793SOL     OW27277   6.488   0.473   5.826
 8793SOL    HW127278   6.579   0.451   5.791
 8793SOL    HW227279   6.426   0.492   5.750
 8794SOL     OW27280   0.416   2.847   3.170
 8794SOL    HW127281   0.511   2.853   3.141
 8794SOL    HW227282   0.362   2.802   3.099
 8795SOL     OW27283   1.894   0.519   6.730
 8795SOL    HW127284   1.986   0.495   6.698
 8795SOL    HW227285   1.848   0.573   6.661
 8796SOL     OW27286   5.885   5.108   4.248
 8796SOL    HW127287   5.800   5.160   4.255
 8796SOL    HW227288   5.962   5.167   4.271
 8797SOL     OW27289   5.374   5.966   5.494
 8797SOL    HW127290   5.359   5.949   5.592
 8797SOL    HW227291   5.293   5.936   5.442
 8798SOL     OW27292   1.450   5.164   0.115
 8798SOL    HW127293   1.484   5.110   0.193
 8798SOL    HW227294   1.488   5.127   0.030
 8799SOL     OW27295   1.450   6.162   2.165
 8799SOL    HW127296   1.410   6.232   2.105
 8799SOL    HW227297   1.549   6.162   2.154
 8800SOL     OW27298   6.798   6.115   4.650
 8800SOL    HW127299   6.869   6.109   4.579
 8800SOL    HW227300   6.757   6.025   4.664
 8801SOL     OW27301   5.245   3.488   6.878
 8801SOL    HW127302   5.239   3.514   6.975
 8801SOL    HW227303   5.341   3.490   6.850
 8802SOL     OW27304   1.224   6.839   7.021
 8802SOL    HW127305   1.253   6.791   0.078
 8802SOL    HW227306   1.141   6.892   0.014
 8803SOL     OW27307   4.748   4.706   5.406
 8803SOL    HW127308   4.754   4.777   5.336
 8803SOL    HW227309   4.784   4.742   5.492
 8804SOL     OW27310   2.246   6.443   1.652
 8804SOL    HW127311   2.286   6.480   1.568
 8804SOL    HW227312   2.155   6.483   1.666
 8805SOL     OW27313   5.001   5.033   0.867
 8805SOL    HW127314   4.979   5.109   0.927
 8805SOL    HW227315   5.066   5.064   0.797
 8806SOL     OW27316   1.586   1.266   1.918
 8806SOL    HW127317   1.613   1.354   1.956
 8806SOL    HW227318   1.496   1.276   1.874
 8807SOL     OW27319   5.534   2.431   1.879
 8807SOL    HW127320   5.504   2.492   1.952
 8807SOL    HW227321   5.552   2.340   1.917
 8808SOL     OW27322   1.800   1.341   0.879
 8808SOL    HW127323   1.779   1.360   0.784
 8808SOL    HW227324   1.791   1.425   0.933
 8809SOL     OW27325   1.096   3.305   2.794
 8809SOL    HW127326   1.045   3.316   2.879
 8809SOL    HW227327   1.057   3.364   2.723
 8810SOL     OW27328   6.061   2.484   3.553
 8810SOL    HW127329   6.131   2.547   3.520
 8810SOL    HW227330   5.982   2.536   3.586
 8811SOL     OW27331   3.625   5.674   3.027
 8811SOL    HW127332   3.555   5.675   3.098
 8811SOL    HW227333   3.699   5.613   3.054
 8812SOL     OW27334   5.235   0.699   0.316
 8812SOL    HW127335   5.255   0.681   0.220
 8812SOL    HW227336   5.163   0.768   0.322
 8813SOL     OW27337   1.627   2.795   1.467
 8813SOL    HW127338   1.558   2.724   1.452
 8813SOL    HW227339   1.705   2.755   1.515
 8814SOL     OW27340   5.875   0.006   4.995
 8814SOL    HW127341   5.946   0.021   4.925
 8814SOL    HW227342   5.884   6.939   5.032
 8815SOL     OW27343   4.479   0.400   1.299
 8815SOL    HW127344   4.577   0.379   1.289
 8815SOL    HW227345   4.442   0.426   1.210
 8816SOL     OW27346   0.220   0.791   2.780
 8816SOL    HW127347   0.291   0.748   2.836
 8816SOL    HW227348   0.235   0.890   2.777
 8817SOL     OW27349   0.853   2.545   4.416
 8817SOL    HW127350   0.792   2.604   4.470
 8817SOL    HW227351   0.798   2.486   4.357
 8818SOL     OW27352   1.411   5.567   6.125
 8818SOL    HW127353   1.417   5.612   6.036
 8818SOL    HW227354   1.343   5.493   6.120
 8819SOL     OW27355   5.507   6.653   6.564
 8819SOL    HW127356   5.437   6.713   6.602
 8819SOL    HW227357   5.464   6.576   6.517
 8820SOL     OW27358   3.206   6.599   5.937
 8820SOL    HW127359   3.116   6.629   5.904
 8820SOL    HW227360   3.275   6.618   5.867
 8821SOL     OW27361   1.446   5.249   5.371
 8821SOL    HW127362   1.348   5.229   5.371
 8821SOL    HW227363   1.494   5.178   5.320
 8822SOL     OW27364   0.564   0.818   5.413
 8822SOL    HW127365   0.515   0.899   5.381
 8822SOL    HW227366   0.612   0.841   5.499
 8823SOL     OW27367   4.265   2.328   3.271
 8823SOL    HW127368   4.267   2.304   3.174
 8823SOL    HW227369   4.295   2.250   3.325
 8824SOL     OW27370   1.482   0.299   4.137
 8824SOL    HW127371   1.399   0.287   4.192
 8824SOL    HW227372   1.482   0.390   4.096
 8825SOL     OW27373   1.282   6.974   0.321
 8825SOL    HW127374   1.303   6.976   0.223
 8825SOL    HW227375   1.198   6.922   0.336
 8826SOL     OW27376   0.534   3.389   0.186
 8826SOL    HW127377   0.565   3.300   0.151
 8826SOL    HW227378   0.485   3.375   0.272
 8827SOL     OW27379   5.483   5.800   3.931
 8827SOL    HW127380   5.399   5.748   3.948
 8827SOL    HW227381   5.562   5.745   3.955
 8828SOL     OW27382   4.921   2.761   5.704
 8828SOL    HW127383   4.947   2.666   5.718
 8828SOL    HW227384   4.922   2.783   5.607
 8829SOL     OW27385   6.403   0.800   3.061
 8829SOL    HW127386   6.445   0.712   3.039
 8829SOL    HW227387   6.316   0.785   3.108
 8830SOL     OW27388   2.705   1.228   2.745
 8830SOL    HW127389   2.670   1.183   2.663
 8830SOL    HW227390   2.805   1.236   2.738
 8831SOL     OW27391   0.846   2.205   2.572
 8831SOL    HW127392   0.883   2.291   2.608
 8831SOL    HW227393   0.795   2.158   2.644
 8832SOL     OW27394   6.099   0.029   4.839
 8832SOL    HW127395   6.192   7.018   4.844
 8832SOL    HW227396   6.103   0.128   4.821
 8833SOL     OW27397   4.794   2.596   0.642
 8833SOL    HW127398   4.724   2.635   0.582
 8833SOL    HW227399   4.856   2.668   0.672
 8834SOL     OW27400   6.217   4.471   5.635
 8834SOL    HW127401   6.167   4.520   5.707
 8834SOL    HW227402   6.315   4.488   5.646
 8835SOL     OW27403   6.250   0.965   5.333
 8835SOL    HW127404   6.165   0.960   5.280
 8835SOL    HW227405   6.310   1.034   5.294
 8836SOL     OW27406   4.461   1.787   0.565
 8836SOL    HW127407   4.378   1.748   0.524
 8836SOL    HW227408   4.448   1.796   0.664
 8837SOL     OW27409   5.695   4.956   0.521
 8837SOL    HW127410   5.766   4.904   0.474
 8837SOL    HW227411   5.687   4.924   0.615
 8838SOL     OW27412   1.423   3.255   2.048
 8838SOL    HW127413   1.405   3.348   2.080
 8838SOL    HW227414   1.343   3.198   2.065
 8839SOL     OW27415   4.677   4.593   1.699
 8839SOL    HW127416   4.720   4.683   1.712
 8839SOL    HW227417   4.713   4.529   1.767
 8840SOL     OW27418   0.350   6.934   1.425
 8840SOL    HW127419   0.421   6.895   1.366
 8840SOL    HW227420   0.384   7.017   1.469
 8841SOL     OW27421   4.688   1.933   0.407
 8841SOL    HW127422   4.721   2.003   0.471
 8841SOL    HW227423   4.592   1.912   0.429
 8842SOL     OW27424   3.752   3.026   3.686
 8842SOL    HW127425   3.794   2.988   3.769
 8842SOL    HW227426   3.681   2.963   3.653
 8843SOL     OW27427   2.456   6.108   4.609
 8843SOL    HW127428   2.476   6.038   4.678
 8843SOL    HW227429   2.386   6.074   4.546
 8844SOL     OW27430   4.000   2.811   5.272
 8844SOL    HW127431   4.060   2.741   5.234
 8844SOL    HW227432   3.927   2.832   5.206
 8845SOL     OW27433   0.673   3.730   2.486
 8845SOL    HW127434   0.587   3.747   2.437
 8845SOL    HW227435   0.749   3.734   2.422
 8846SOL     OW27436   6.100   5.314   4.549
 8846SOL    HW127437   6.050   5.228   4.560
 8846SOL    HW227438   6.191   5.295   4.511
 8847SOL     OW27439   0.793   2.459   3.860
 8847SOL    HW127440   0.840   2.547   3.858
 8847SOL    HW227441   0.733   2.454   3.940
 8848SOL     OW27442   5.841   2.820   1.066
 8848SOL    HW127443   5.826   2.726   1.097
 8848SOL    HW227444   5.805   2.831   0.974
 8849SOL     OW27445   3.432   5.112   4.911
 8849SOL    HW127446   3.529   5.136   4.916
 8849SOL    HW227447   3.391   5.121   5.002
 8850SOL     OW27448   4.196   2.108   1.092
 8850SOL    HW127449   4.250   2.105   1.008
 8850SOL    HW227450   4.256   2.093   1.171
 8851SOL     OW27451   6.972   5.497   3.405
 8851SOL    HW127452   0.034   5.466   3.368
 8851SOL    HW227453   6.901   5.428   3.385
 8852SOL     OW27454   5.848   4.083   4.869
 8852SOL    HW127455   5.831   4.013   4.800
 8852SOL    HW227456   5.802   4.168   4.842
 8853SOL     OW27457   4.719   1.845   4.234
 8853SOL    HW127458   4.667   1.760   4.224
 8853SOL    HW227459   4.655   1.922   4.243
 8854SOL     OW27460   3.634   0.516   6.367
 8854SOL    HW127461   3.598   0.570   6.443
 8854SOL    HW227462   3.593   0.547   6.281
 8855SOL     OW27463   6.557   5.181   5.977
 8855SOL    HW127464   6.606   5.234   5.908
 8855SOL    HW227465   6.459   5.186   5.957
 8856SOL     OW27466   5.381   1.929   5.747
 8856SOL    HW127467   5.451   1.863   5.775
 8856SOL    HW227468   5.291   1.887   5.754
 8857SOL     OW27469   1.459   2.821   4.329
 8857SOL    HW127470   1.531   2.889   4.314
 8857SOL    HW227471   1.476   2.741   4.271
 8858SOL     OW27472   0.604   3.547   5.585
 8858SOL    HW127473   0.530   3.603   5.549
 8858SOL    HW227474   0.643   3.591   5.666
 8859SOL     OW27475   2.427   5.989   4.885
 8859SOL    HW127476   2.399   5.903   4.842
 8859SOL    HW227477   2.347   6.032   4.928
 8860SOL     OW27478   2.196   1.174   1.361
 8860SOL    HW127479   2.154   1.143   1.276
 8860SOL    HW227480   2.133   1.157   1.437
 8861SOL     OW27481   1.920   1.508   6.909
 8861SOL    HW127482   2.018   1.509   6.928
 8861SOL    HW227483   1.898   1.430   6.850
 8862SOL     OW27484   0.161   2.897   3.849
 8862SOL    HW127485   0.201   2.847   3.925
 8862SOL    HW227486   0.183   2.850   3.763
 8863SOL     OW27487   1.583   5.624   4.946
 8863SOL    HW127488   1.570   5.652   5.041
 8863SOL    HW227489   1.581   5.704   4.886
 8864SOL     OW27490   2.078   4.396   5.550
 8864SOL    HW127491   2.058   4.380   5.453
 8864SOL    HW227492   2.173   4.426   5.560
 8865SOL     OW27493   2.807   2.045   5.983
 8865SOL    HW127494   2.787   1.966   6.042
 8865SOL    HW227495   2.779   2.024   5.890
 8866SOL     OW27496   5.133   0.118   5.813
 8866SOL    HW127497   5.165   0.060   5.738
 8866SOL    HW227498   5.034   0.110   5.822
 8867SOL     OW27499   5.757   0.835   2.912
 8867SOL    HW127500   5.658   0.830   2.910
 8867SOL    HW227501   5.793   0.766   2.975
 8868SOL     OW27502   5.807   2.945   0.598
 8868SOL    HW127503   5.904   2.959   0.579
 8868SOL    HW227504   5.753   3.015   0.552
 8869SOL     OW27505   2.069   2.048   3.928
 8869SOL    HW127506   2.027   2.031   4.018
 8869SOL    HW227507   2.004   2.023   3.856
 8870SOL     OW27508   3.838   6.642   1.696
 8870SOL    HW127509   3.809   6.617   1.603
 8870SOL    HW227510   3.933   6.674   1.694
 8871SOL     OW27511   1.381   2.161   4.221
 8871SOL    HW127512   1.419   2.249   4.192
 8871SOL    HW227513   1.298   2.142   4.169
 8872SOL     OW27514   1.231   1.594   2.521
 8872SOL    HW127515   1.271   1.552   2.603
 8872SOL    HW227516   1.160   1.659   2.547
 8873SOL     OW27517   0.005   5.782   4.577
 8873SOL    HW127518   6.992   5.732   4.500
 8873SOL    HW227519   0.028   5.875   4.548
 8874SOL     OW27520   1.247   1.476   5.938
 8874SOL    HW127521   1.311   1.552   5.955
 8874SOL    HW227522   1.279   1.423   5.859
 8875SOL     OW27523   1.578   1.394   4.326
 8875SOL    HW127524   1.520   1.430   4.399
 8875SOL    HW227525   1.556   1.440   4.240
 8876SOL     OW27526   2.766   1.377   4.772
 8876SOL    HW127527   2.673   1.368   4.808
 8876SOL    HW227528   2.775   1.464   4.723
 8877SOL     OW27529   2.855   6.497   4.556
 8877SOL    HW127530   2.808   6.540   4.633
 8877SOL    HW227531   2.948   6.473   4.583
 8878SOL     OW27532   5.629   4.480   5.922
 8878SOL    HW127533   5.688   4.428   5.984
 8878SOL    HW227534   5.618   4.430   5.836
 8879SOL     OW27535   6.177   5.699   4.835
 8879SOL    HW127536   6.108   5.658   4.776
 8879SOL    HW227537   6.187   5.644   4.918
 8880SOL     OW27538   1.272   6.944   4.773
 8880SOL    HW127539   1.363   6.939   4.732
 8880SOL    HW227540   1.217   7.014   4.726
 8881SOL     OW27541   7.014   1.938   2.437
 8881SOL    HW127542   6.951   2.004   2.478
 8881SOL    HW227543   6.965   1.880   2.372
 8882SOL     OW27544   5.352   2.130   0.756
 8882SOL    HW127545   5.405   2.056   0.797
 8882SOL    HW227546   5.258   2.127   0.790
 8883SOL     OW27547   6.195   1.255   5.454
 8883SOL    HW127548   6.114   1.204   5.484
 8883SOL    HW227549   6.217   1.230   5.360
 8884SOL     OW27550   0.216   1.324   6.634
 8884SOL    HW127551   0.270   1.243   6.655
 8884SOL    HW227552   0.201   1.329   6.535
 8885SOL     OW27553   6.055   4.005   1.189
 8885SOL    HW127554   6.047   4.101   1.214
 8885SOL    HW227555   6.151   3.982   1.172
 8886SOL     OW27556   3.713   5.898   6.093
 8886SOL    HW127557   3.719   5.959   6.172
 8886SOL    HW227558   3.660   5.817   6.118
 8887SOL     OW27559   1.461   0.943   0.797
 8887SOL    HW127560   1.389   0.995   0.750
 8887SOL    HW227561   1.520   1.006   0.847
 8888SOL     OW27562   2.405   2.239   3.170
 8888SOL    HW127563   2.461   2.160   3.145
 8888SOL    HW227564   2.450   2.290   3.243
 8889SOL     OW27565   3.499   1.392   5.209
 8889SOL    HW127566   3.536   1.382   5.301
 8889SOL    HW227567   3.554   1.458   5.158
 8890SOL     OW27568   6.811   5.047   3.846
 8890SOL    HW127569   6.766   4.962   3.818
 8890SOL    HW227570   6.767   5.125   3.802
 8891SOL     OW27571   3.766   1.725   6.066
 8891SOL    HW127572   3.820   1.780   6.131
 8891SOL    HW227573   3.820   1.647   6.036
 8892SOL     OW27574   1.181   7.024   3.235
 8892SOL    HW127575   1.085   0.028   3.231
 8892SOL    HW227576   1.231   0.035   3.156
 8893SOL     OW27577   0.032   0.798   0.410
 8893SOL    HW127578   7.013   0.722   0.456
 8893SOL    HW227579   0.076   0.856   0.479
 8894SOL     OW27580   4.613   2.444   5.594
 8894SOL    HW127581   4.625   2.490   5.683
 8894SOL    HW227582   4.607   2.513   5.522
 8895SOL     OW27583   1.221   1.319   3.434
 8895SOL    HW127584   1.308   1.317   3.385
 8895SOL    HW227585   1.225   1.388   3.507
 8896SOL     OW27586   1.329   4.124   5.124
 8896SOL    HW127587   1.399   4.056   5.103
 8896SOL    HW227588   1.353   4.173   5.208
 8897SOL     OW27589   0.926   2.296   1.748
 8897SOL    HW127590   0.972   2.224   1.801
 8897SOL    HW227591   0.993   2.346   1.694
 8898SOL     OW27592   6.665   2.432   5.450
 8898SOL    HW127593   6.646   2.452   5.354
 8898SOL    HW227594   6.594   2.473   5.507
 8899SOL     OW27595   3.479   6.056   2.481
 8899SOL    HW127596   3.430   6.095   2.558
 8899SOL    HW227597   3.572   6.033   2.510
 8900SOL     OW27598   6.766   2.009   3.620
 8900SOL    HW127599   6.751   2.104   3.647
 8900SOL    HW227600   6.843   1.971   3.672
 8901SOL     OW27601   2.036   0.242   2.413
 8901SOL    HW127602   2.018   0.190   2.330
 8901SOL    HW227603   2.011   0.338   2.398
 8902SOL     OW27604   3.666   6.648   6.009
 8902SOL    HW127605   3.762   6.669   5.992
 8902SOL    HW227606   3.610   6.727   5.984
 8903SOL     OW27607   6.877   1.059   3.303
 8903SOL    HW127608   6.792   1.012   3.326
 8903SOL    HW227609   6.855   1.143   3.252
 8904SOL     OW27610   1.848   3.564   3.946
 8904SOL    HW127611   1.770   3.625   3.932
 8904SOL    HW227612   1.852   3.497   3.871
 8905SOL     OW27613   1.833   4.286   4.778
 8905SOL    HW127614   1.851   4.377   4.742
 8905SOL    HW227615   1.881   4.218   4.723
 8906SOL     OW27616   2.133   5.251   4.709
 8906SOL    HW127617   2.168   5.180   4.771
 8906SOL    HW227618   2.163   5.232   4.616
 8907SOL     OW27619   3.669   2.951   6.508
 8907SOL    HW127620   3.598   3.022   6.511
 8907SOL    HW227621   3.651   2.889   6.431
 8908SOL     OW27622   0.567   3.460   2.764
 8908SOL    HW127623   0.618   3.546   2.770
 8908SOL    HW227624   0.481   3.476   2.715
 8909SOL     OW27625   3.087   6.856   5.330
 8909SOL    HW127626   2.998   6.898   5.350
 8909SOL    HW227627   3.150   6.926   5.297
 8910SOL     OW27628   4.138   2.765   0.043
 8910SOL    HW127629   4.111   2.861   0.031
 8910SOL    HW227630   4.144   2.745   0.141
 8911SOL     OW27631   5.133   2.978   4.491
 8911SOL    HW127632   5.106   3.053   4.431
 8911SOL    HW227633   5.119   2.891   4.444
 8912SOL     OW27634   4.059   0.830   0.379
 8912SOL    HW127635   4.091   0.844   0.472
 8912SOL    HW227636   4.052   0.919   0.333
 8913SOL     OW27637   4.228   4.065   1.257
 8913SOL    HW127638   4.318   4.069   1.213
 8913SOL    HW227639   4.209   3.972   1.288
 8914SOL     OW27640   5.235   3.614   3.656
 8914SOL    HW127641   5.279   3.641   3.742
 8914SOL    HW227642   5.288   3.541   3.613
 8915SOL     OW27643   0.765   5.524   2.103
 8915SOL    HW127644   0.793   5.611   2.143
 8915SOL    HW227645   0.814   5.449   2.146
 8916SOL     OW27646   5.697   3.613   1.621
 8916SOL    HW127647   5.764   3.654   1.559
 8916SOL    HW227648   5.700   3.513   1.613
 8917SOL     OW27649   5.939   4.159   5.611
 8917SOL    HW127650   5.926   4.089   5.681
 8917SOL    HW227651   6.036   4.170   5.591
 8918SOL     OW27652   4.651   4.175   5.926
 8918SOL    HW127653   4.565   4.219   5.951
 8918SOL    HW227654   4.726   4.213   5.981
 8919SOL     OW27655   2.072   3.310   1.341
 8919SOL    HW127656   2.154   3.274   1.296
 8919SOL    HW227657   1.995   3.250   1.320
 8920SOL     OW27658   6.430   5.683   5.487
 8920SOL    HW127659   6.404   5.602   5.540
 8920SOL    HW227660   6.488   5.743   5.543
 8921SOL     OW27661   1.239   5.660   3.217
 8921SOL    HW127662   1.198   5.585   3.270
 8921SOL    HW227663   1.196   5.746   3.243
 8922SOL     OW27664   0.370   2.443   6.685
 8922SOL    HW127665   0.421   2.427   6.600
 8922SOL    HW227666   0.397   2.374   6.753
 8923SOL     OW27667   2.320   4.576   4.209
 8923SOL    HW127668   2.284   4.660   4.250
 8923SOL    HW227669   2.257   4.546   4.137
 8924SOL     OW27670   2.432   6.587   4.570
 8924SOL    HW127671   2.418   6.579   4.471
 8924SOL    HW227672   2.499   6.659   4.588
 8925SOL     OW27673   4.426   5.639   0.944
 8925SOL    HW127674   4.357   5.674   1.008
 8925SOL    HW227675   4.514   5.630   0.992
 8926SOL     OW27676   5.553   6.899   6.955
 8926SOL    HW127677   5.617   6.953   6.901
 8926SOL    HW227678   5.547   6.938   0.022
 8927SOL     OW27679   2.948   2.221   4.861
 8927SOL    HW127680   2.887   2.299   4.846
 8927SOL    HW227681   3.012   2.244   4.935
 8928SOL     OW27682   1.953   0.699   5.289
 8928SOL    HW127683   1.864   0.718   5.331
 8928SOL    HW227684   2.003   0.785   5.276
 8929SOL     OW27685   4.704   4.798   3.004
 8929SOL    HW127686   4.762   4.726   2.968
 8929SOL    HW227687   4.610   4.787   2.970
 8930SOL     OW27688   0.207   5.599   5.300
 8930SOL    HW127689   0.209   5.501   5.324
 8930SOL    HW227690   0.275   5.647   5.355
 8931SOL     OW27691   5.259   1.116   1.634
 8931SOL    HW127692   5.261   1.145   1.730
 8931SOL    HW227693   5.170   1.139   1.595
 8932SOL     OW27694   4.453   0.841   0.265
 8932SOL    HW127695   4.397   0.889   0.332
 8932SOL    HW227696   4.402   0.763   0.229
 8933SOL     OW27697   1.884   6.853   5.677
 8933SOL    HW127698   1.851   6.933   5.729
 8933SOL    HW227699   1.914   6.883   5.587
 8934SOL     OW27700   3.263   6.629   4.008
 8934SOL    HW127701   3.287   6.535   3.983
 8934SOL    HW227702   3.225   6.630   4.100
 8935SOL     OW27703   5.848   2.061   2.396
 8935SOL    HW127704   5.847   2.061   2.496
 8935SOL    HW227705   5.904   1.985   2.363
 8936SOL     OW27706   1.077   3.821   1.763
 8936SOL    HW127707   1.005   3.780   1.819
 8936SOL    HW227708   1.151   3.853   1.822
 8937SOL     OW27709   3.022   6.323   5.105
 8937SOL    HW127710   3.033   6.368   5.016
 8937SOL    HW227711   3.074   6.373   5.174
 8938SOL     OW27712   4.998   6.768   2.133
 8938SOL    HW127713   5.058   6.834   2.178
 8938SOL    HW227714   4.931   6.817   2.076
 8939SOL     OW27715   6.581   2.959   4.789
 8939SOL    HW127716   6.677   2.957   4.760
 8939SOL    HW227717   6.526   2.907   4.723
 8940SOL     OW27718   5.897   3.804   2.689
 8940SOL    HW127719   5.873   3.713   2.655
 8940SOL    HW227720   5.902   3.868   2.613
 8941SOL     OW27721   5.634   2.389   3.568
 8941SOL    HW127722   5.576   2.458   3.525
 8941SOL    HW227723   5.647   2.312   3.506
 8942SOL     OW27724   5.076   6.031   4.439
 8942SOL    HW127725   5.095   6.124   4.471
 8942SOL    HW227726   5.009   5.988   4.500
 8943SOL     OW27727   4.496   3.781   0.375
 8943SOL    HW127728   4.569   3.817   0.433
 8943SOL    HW227729   4.535   3.746   0.290
 8944SOL     OW27730   4.772   5.922   5.359
 8944SOL    HW127731   4.725   5.865   5.291
 8944SOL    HW227732   4.704   5.977   5.407
 8945SOL     OW27733   6.669   4.903   1.999
 8945SOL    HW127734   6.613   4.973   2.045
 8945SOL    HW227735   6.710   4.942   1.917
 8946SOL     OW27736   3.815   2.157   3.659
 8946SOL    HW127737   3.894   2.202   3.701
 8946SOL    HW227738   3.734   2.174   3.714
 8947SOL     OW27739   2.778   5.303   0.548
 8947SOL    HW127740   2.766   5.303   0.448
 8947SOL    HW227741   2.705   5.249   0.590
 8948SOL     OW27742   5.784   0.249   2.557
 8948SOL    HW127743   5.703   0.199   2.587
 8948SOL    HW227744   5.755   0.329   2.503
 8949SOL     OW27745   3.773   6.592   0.941
 8949SOL    HW127746   3.713   6.553   1.011
 8949SOL    HW227747   3.832   6.520   0.904
 8950SOL     OW27748   3.758   3.815   3.986
 8950SOL    HW127749   3.751   3.820   3.886
 8950SOL    HW227750   3.666   3.808   4.025
 8951SOL     OW27751   0.905   0.913   3.786
 8951SOL    HW127752   0.824   0.897   3.730
 8951SOL    HW227753   0.919   0.835   3.848
 8952SOL     OW27754   1.704   3.529   5.085
 8952SOL    HW127755   1.649   3.608   5.111
 8952SOL    HW227756   1.738   3.541   4.992
 8953SOL     OW27757   1.348   5.885   0.929
 8953SOL    HW127758   1.312   5.808   0.982
 8953SOL    HW227759   1.367   5.856   0.835
 8954SOL     OW27760   2.369   4.171   5.535
 8954SOL    HW127761   2.291   4.110   5.524
 8954SOL    HW227762   2.414   4.184   5.447
 8955SOL     OW27763   6.406   2.989   5.634
 8955SOL    HW127764   6.323   3.045   5.632
 8955SOL    HW227765   6.454   3.004   5.720
 8956SOL     OW27766   1.042   6.509   1.323
 8956SOL    HW127767   1.005   6.417   1.314
 8956SOL    HW227768   1.045   6.552   1.232
 8957SOL     OW27769   0.559   6.902   3.692
 8957SOL    HW127770   0.596   6.892   3.600
 8957SOL    HW227771   0.634   6.914   3.757
 8958SOL     OW27772   6.946   3.209   4.516
 8958SOL    HW127773   6.874   3.140   4.512
 8958SOL    HW227774   7.021   3.176   4.573
 8959SOL     OW27775   5.085   1.181   3.705
 8959SOL    HW127776   5.156   1.204   3.637
 8959SOL    HW227777   5.036   1.264   3.731
 8960SOL     OW27778   3.849   6.198   1.873
 8960SOL    HW127779   3.908   6.277   1.857
 8960SOL    HW227780   3.901   6.125   1.917
 8961SOL     OW27781   2.505   2.017   5.917
 8961SOL    HW127782   2.546   1.951   5.980
 8961SOL    HW227783   2.567   2.035   5.841
 8962SOL     OW27784   6.380   6.027   1.272
 8962SOL    HW127785   6.395   5.949   1.211
 8962SOL    HW227786   6.451   6.095   1.257
 8963SOL     OW27787   2.400   4.877   5.879
 8963SOL    HW127788   2.492   4.877   5.918
 8963SOL    HW227789   2.399   4.822   5.796
 8964SOL     OW27790   1.069   2.971   4.126
 8964SOL    HW127791   1.105   2.928   4.209
 8964SOL    HW227792   1.044   3.066   4.147
 8965SOL     OW27793   3.272   5.882   6.873
 8965SOL    HW127794   3.278   5.844   6.966
 8965SOL    HW227795   3.310   5.975   6.873
 8966SOL     OW27796   4.945   6.769   5.039
 8966SOL    HW127797   4.939   6.670   5.045
 8966SOL    HW227798   5.002   6.805   5.112
 8967SOL     OW27799   2.303   0.425   3.435
 8967SOL    HW127800   2.227   0.478   3.473
 8967SOL    HW227801   2.364   0.397   3.510
 8968SOL     OW27802   2.849   5.632   2.277
 8968SOL    HW127803   2.927   5.620   2.215
 8968SOL    HW227804   2.873   5.699   2.347
 8969SOL     OW27805   6.829   1.365   1.819
 8969SOL    HW127806   6.925   1.388   1.800
 8969SOL    HW227807   6.823   1.271   1.851
 8970SOL     OW27808   2.515   1.977   4.501
 8970SOL    HW127809   2.611   1.949   4.501
 8970SOL    HW227810   2.490   2.011   4.410
 8971SOL     OW27811   3.167   5.420   1.605
 8971SOL    HW127812   3.080   5.388   1.643
 8971SOL    HW227813   3.206   5.349   1.547
 8972SOL     OW27814   6.543   3.545   5.793
 8972SOL    HW127815   6.520   3.592   5.707
 8972SOL    HW227816   6.573   3.452   5.774
 8973SOL     OW27817   2.466   1.647   3.305
 8973SOL    HW127818   2.468   1.733   3.255
 8973SOL    HW227819   2.559   1.622   3.332
 8974SOL     OW27820   1.342   4.843   5.275
 8974SOL    HW127821   1.299   4.896   5.348
 8974SOL    HW227822   1.401   4.772   5.314
 8975SOL     OW27823   0.977   3.886   6.087
 8975SOL    HW127824   0.916   3.862   6.011
 8975SOL    HW227825   1.072   3.879   6.056
 8976SOL     OW27826   5.796   0.189   1.385
 8976SOL    HW127827   5.816   0.091   1.381
 8976SOL    HW227828   5.865   0.239   1.333
 8977SOL     OW27829   0.971   5.173   5.980
 8977SOL    HW127830   0.872   5.170   5.972
 8977SOL    HW227831   1.008   5.240   5.915
 8978SOL     OW27832   6.464   4.759   5.113
 8978SOL    HW127833   6.532   4.832   5.123
 8978SOL    HW227834   6.489   4.700   5.037
 8979SOL     OW27835   1.943   4.193   3.411
 8979SOL    HW127836   1.931   4.120   3.344
 8979SOL    HW227837   1.886   4.174   3.491
 8980SOL     OW27838   5.052   0.905   0.297
 8980SOL    HW127839   5.050   0.989   0.352
 8980SOL    HW227840   4.958   0.877   0.276
 8981SOL     OW27841   4.012   2.103   6.999
 8981SOL    HW127842   4.027   2.011   0.010
 8981SOL    HW227843   4.057   2.111   6.910
 8982SOL     OW27844   0.835   0.469   3.034
 8982SOL    HW127845   0.839   0.405   2.957
 8982SOL    HW227846   0.813   0.418   3.118
 8983SOL     OW27847   1.677   6.420   2.330
 8983SOL    HW127848   1.630   6.432   2.418
 8983SOL    HW227849   1.650   6.494   2.268
 8984SOL     OW27850   6.032   0.807   3.858
 8984SOL    HW127851   5.992   0.878   3.800
 8984SOL    HW227852   6.048   0.844   3.949
 8985SOL     OW27853   5.014   0.965   1.067
 8985SOL    HW127854   5.042   0.872   1.092
 8985SOL    HW227855   4.928   0.987   1.114
 8986SOL     OW27856   0.979   6.981   6.285
 8986SOL    HW127857   1.002   7.009   6.378
 8986SOL    HW227858   1.050   7.013   6.222
 8987SOL     OW27859   2.980   6.759   2.535
 8987SOL    HW127860   2.907   6.711   2.486
 8987SOL    HW227861   2.941   6.812   2.611
 8988SOL     OW27862   2.316   6.885   0.959
 8988SOL    HW127863   2.340   6.981   0.942
 8988SOL    HW227864   2.234   6.882   1.017
 8989SOL     OW27865   6.516   1.717   2.608
 8989SOL    HW127866   6.601   1.763   2.633
 8989SOL    HW227867   6.486   1.659   2.683
 8990SOL     OW27868   3.858   1.291   3.122
 8990SOL    HW127869   3.850   1.222   3.194
 8990SOL    HW227870   3.849   1.382   3.161
 8991SOL     OW27871   1.526   1.557   0.674
 8991SOL    HW127872   1.617   1.591   0.698
 8991SOL    HW227873   1.461   1.633   0.674
 8992SOL     OW27874   1.273   5.613   5.009
 8992SOL    HW127875   1.319   5.700   5.023
 8992SOL    HW227876   1.321   5.560   4.938
 8993SOL     OW27877   5.404   4.285   3.676
 8993SOL    HW127878   5.346   4.313   3.753
 8993SOL    HW227879   5.357   4.217   3.621
 8994SOL     OW27880   1.305   6.304   1.983
 8994SOL    HW127881   1.341   6.223   1.937
 8994SOL    HW227882   1.205   6.301   1.983
 8995SOL     OW27883   1.892   4.303   3.804
 8995SOL    HW127884   1.984   4.266   3.814
 8995SOL    HW227885   1.876   4.329   3.708
 8996SOL     OW27886   2.898   3.529   1.653
 8996SOL    HW127887   2.891   3.623   1.618
 8996SOL    HW227888   2.983   3.519   1.703
 8997SOL     OW27889   3.984   1.596   4.513
 8997SOL    HW127890   4.057   1.638   4.458
 8997SOL    HW227891   3.934   1.531   4.456
 8998SOL     OW27892   1.130   1.689   6.595
 8998SOL    HW127893   1.089   1.633   6.667
 8998SOL    HW227894   1.105   1.652   6.506
 8999SOL     OW27895   6.017   2.924   5.436
 8999SOL    HW127896   6.089   2.943   5.369
 8999SOL    HW227897   5.933   2.970   5.408
 9000SOL     OW27898   4.758   5.048   1.135
 9000SOL    HW127899   4.846   5.084   1.106
 9000SOL    HW227900   4.770   4.957   1.174
 9001SOL     OW27901   0.295   3.183   4.117
 9001SOL    HW127902   0.274   3.087   4.098
 9001SOL    HW227903   0.258   3.207   4.206
 9002SOL     OW27904   4.728   3.069   5.985
 9002SOL    HW127905   4.700   3.084   6.079
 9002SOL    HW227906   4.666   3.118   5.923
 9003SOL     OW27907   0.569   3.606   0.024
 9003SOL    HW127908   0.527   3.538   0.085
 9003SOL    HW227909   0.668   3.590   0.020
 9004SOL     OW27910   5.280   5.823   0.313
 9004SOL    HW127911   5.332   5.767   0.378
 9004SOL    HW227912   5.265   5.914   0.353
 9005SOL     OW27913   4.776   3.999   4.259
 9005SOL    HW127914   4.750   4.078   4.314
 9005SOL    HW227915   4.875   3.988   4.260
 9006SOL     OW27916   3.236   6.533   2.072
 9006SOL    HW127917   3.140   6.540   2.045
 9006SOL    HW227918   3.265   6.438   2.063
 9007SOL     OW27919   2.261   6.648   5.463
 9007SOL    HW127920   2.282   6.568   5.520
 9007SOL    HW227921   2.258   6.621   5.367
 9008SOL     OW27922   0.432   4.740   1.557
 9008SOL    HW127923   0.363   4.727   1.485
 9008SOL    HW227924   0.440   4.837   1.578
 9009SOL     OW27925   3.552   6.874   6.869
 9009SOL    HW127926   3.503   6.786   6.871
 9009SOL    HW227927   3.592   6.892   6.959
 9010SOL     OW27928   6.996   6.114   4.893
 9010SOL    HW127929   0.014   6.029   4.865
 9010SOL    HW227930   6.964   6.105   4.988
 9011SOL     OW27931   4.708   2.757   2.231
 9011SOL    HW127932   4.623   2.809   2.229
 9011SOL    HW227933   4.771   2.793   2.162
 9012SOL     OW27934   4.228   5.158   3.003
 9012SOL    HW127935   4.242   5.062   3.026
 9012SOL    HW227936   4.172   5.164   2.920
 9013SOL     OW27937   3.416   6.260   1.673
 9013SOL    HW127938   3.447   6.196   1.744
 9013SOL    HW227939   3.473   6.250   1.591
 9014SOL     OW27940   2.117   1.408   1.860
 9014SOL    HW127941   2.111   1.315   1.894
 9014SOL    HW227942   2.213   1.432   1.845
 9015SOL     OW27943   6.117   2.145   4.447
 9015SOL    HW127944   6.044   2.077   4.459
 9015SOL    HW227945   6.080   2.236   4.466
 9016SOL     OW27946   0.206   4.942   6.564
 9016SOL    HW127947   0.273   4.993   6.511
 9016SOL    HW227948   0.115   4.956   6.525
 9017SOL     OW27949   6.103   3.017   2.970
 9017SOL    HW127950   6.056   3.097   3.005
 9017SOL    HW227951   6.069   2.994   2.879
 9018SOL     OW27952   5.158   1.428   6.776
 9018SOL    HW127953   5.156   1.350   6.837
 9018SOL    HW227954   5.068   1.473   6.777
 9019SOL     OW27955   1.773   5.934   0.692
 9019SOL    HW127956   1.721   5.998   0.636
 9019SOL    HW227957   1.735   5.932   0.785
 9020SOL     OW27958   0.566   4.965   4.335
 9020SOL    HW127959   0.634   4.908   4.380
 9020SOL    HW227960   0.512   5.014   4.403
 9021SOL     OW27961   6.420   5.316   5.242
 9021SOL    HW127962   6.487   5.388   5.229
 9021SOL    HW227963   6.435   5.244   5.174
 9022SOL     OW27964   1.042   6.586   5.917
 9022SOL    HW127965   1.085   6.499   5.943
 9022SOL    HW227966   1.084   6.621   5.833
 9023SOL     OW27967   3.420   3.621   4.295
 9023SOL    HW127968   3.458   3.583   4.210
 9023SOL    HW227969   3.495   3.639   4.359
 9024SOL     OW27970   1.314   0.117   6.856
 9024SOL    HW127971   1.342   0.022   6.869
 9024SOL    HW227972   1.299   0.134   6.759
 9025SOL     OW27973   0.704   2.825   0.701
 9025SOL    HW127974   0.698   2.794   0.606
 9025SOL    HW227975   0.704   2.925   0.703
 9026SOL     OW27976   3.037   3.867   5.847
 9026SOL    HW127977   3.126   3.878   5.804
 9026SOL    HW227978   2.987   3.954   5.840
 9027SOL     OW27979   1.192   3.106   2.067
 9027SOL    HW127980   1.152   3.170   2.001
 9027SOL    HW227981   1.151   3.016   2.055
 9028SOL     OW27982   1.395   4.472   5.171
 9028SOL    HW127983   1.357   4.465   5.079
 9028SOL    HW227984   1.484   4.518   5.167
 9029SOL     OW27985   5.541   5.118   2.665
 9029SOL    HW127986   5.507   5.175   2.740
 9029SOL    HW227987   5.471   5.052   2.638
 9030SOL     OW27988   5.116   2.535   3.275
 9030SOL    HW127989   5.122   2.563   3.179
 9030SOL    HW227990   5.102   2.616   3.332
 9031SOL     OW27991   2.757   1.079   2.283
 9031SOL    HW127992   2.728   1.157   2.338
 9031SOL    HW227993   2.759   0.996   2.339
 9032SOL     OW27994   0.418   3.802   2.407
 9032SOL    HW127995   0.331   3.851   2.407
 9032SOL    HW227996   0.410   3.718   2.460
 9033SOL     OW27997   1.095   3.512   2.367
 9033SOL    HW127998   1.136   3.421   2.363
 9033SOL    HW227999   1.156   3.575   2.414
 9034SOL     OW28000   1.487   6.612   0.386
 9034SOL    HW128001   1.559   6.637   0.451
 9034SOL    HW228002   1.498   6.516   0.359
 9035SOL     OW28003   5.937   1.341   4.280
 9035SOL    HW128004   5.852   1.302   4.244
 9035SOL    HW228005   5.934   1.440   4.273
 9036SOL     OW28006   0.380   1.463   4.532
 9036SOL    HW128007   0.476   1.434   4.541
 9036SOL    HW228008   0.350   1.506   4.617
 9037SOL     OW28009   2.479   4.655   6.359
 9037SOL    HW128010   2.532   4.615   6.434
 9037SOL    HW228011   2.382   4.656   6.384
 9038SOL     OW28012   3.980   5.685   5.393
 9038SOL    HW128013   3.913   5.754   5.418
 9038SOL    HW228014   3.983   5.613   5.463
 9039SOL     OW28015   2.682   4.886   0.144
 9039SOL    HW128016   2.688   4.814   0.074
 9039SOL    HW228017   2.743   4.961   0.119
 9040SOL     OW28018   3.469   1.412   2.348
 9040SOL    HW128019   3.514   1.471   2.415
 9040SOL    HW228020   3.527   1.403   2.267
 9041SOL     OW28021   2.137   2.721   5.189
 9041SOL    HW128022   2.140   2.794   5.257
 9041SOL    HW228023   2.086   2.643   5.224
 9042SOL     OW28024   1.841   5.074   2.369
 9042SOL    HW128025   1.763   5.014   2.386
 9042SOL    HW228026   1.919   5.019   2.340
 9043SOL     OW28027   0.496   1.360   0.386
 9043SOL    HW128028   0.497   1.321   0.294
 9043SOL    HW228029   0.402   1.388   0.409
 9044SOL     OW28030   0.534   3.928   0.459
 9044SOL    HW128031   0.536   3.885   0.550
 9044SOL    HW228032   0.443   3.968   0.444
 9045SOL     OW28033   2.209   4.754   4.899
 9045SOL    HW128034   2.129   4.792   4.853
 9045SOL    HW228035   2.186   4.664   4.936
 9046SOL     OW28036   3.477   4.371   5.634
 9046SOL    HW128037   3.423   4.290   5.609
 9046SOL    HW228038   3.430   4.421   5.707
 9047SOL     OW28039   0.839   4.454   4.178
 9047SOL    HW128040   0.841   4.426   4.082
 9047SOL    HW228041   0.916   4.412   4.227
 9048SOL     OW28042   1.313   2.637   5.469
 9048SOL    HW128043   1.255   2.716   5.490
 9048SOL    HW228044   1.361   2.608   5.551
 9049SOL     OW28045   4.496   6.426   5.797
 9049SOL    HW128046   4.460   6.448   5.706
 9049SOL    HW228047   4.476   6.331   5.819
 9050SOL     OW28048   6.970   4.037   6.718
 9050SOL    HW128049   6.894   4.024   6.782
 9050SOL    HW228050   0.006   4.107   6.754
 9051SOL     OW28051   0.076   6.190   6.548
 9051SOL    HW128052   7.005   6.213   6.536
 9051SOL    HW228053   0.110   6.232   6.632
 9052SOL     OW28054   2.454   4.817   4.813
 9052SOL    HW128055   2.359   4.811   4.844
 9052SOL    HW228056   2.478   4.913   4.798
 9053SOL     OW28057   1.446   0.502   2.578
 9053SOL    HW128058   1.474   0.547   2.663
 9053SOL    HW228059   1.371   0.438   2.599
 9054SOL     OW28060   1.789   6.815   2.019
 9054SOL    HW128061   1.721   6.756   2.063
 9054SOL    HW228062   1.873   6.814   2.074
 9055SOL     OW28063   1.738   2.472   5.102
 9055SOL    HW128064   1.776   2.509   5.017
 9055SOL    HW228065   1.680   2.541   5.145
 9056SOL     OW28066   5.118   2.117   1.469
 9056SOL    HW128067   5.032   2.108   1.520
 9056SOL    HW228068   5.111   2.193   1.405
 9057SOL     OW28069   3.220   6.891   6.217
 9057SOL    HW128070   3.277   6.812   6.193
 9057SOL    HW228071   3.270   6.953   6.276
 9058SOL     OW28072   2.163   3.112   3.649
 9058SOL    HW128073   2.182   3.153   3.560
 9058SOL    HW228074   2.239   3.053   3.677
 9059SOL     OW28075   6.954   0.623   2.451
 9059SOL    HW128076   6.982   0.548   2.391
 9059SOL    HW228077   0.009   0.677   2.476
 9060SOL     OW28078   0.426   5.175   6.686
 9060SOL    HW128079   0.409   5.136   6.595
 9060SOL    HW228080   0.344   5.223   6.717
 9061SOL     OW28081   4.156   4.755   2.506
 9061SOL    HW128082   4.141   4.710   2.594
 9061SOL    HW228083   4.246   4.731   2.471
 9062SOL     OW28084   0.387   5.731   2.633
 9062SOL    HW128085   0.329   5.695   2.560
 9062SOL    HW228086   0.371   5.679   2.717
 9063SOL     OW28087   6.123   6.861   0.862
 9063SOL    HW128088   6.060   6.921   0.910
 9063SOL    HW228089   6.083   6.832   0.775
 9064SOL     OW28090   1.428   5.584   2.870
 9064SOL    HW128091   1.454   5.656   2.806
 9064SOL    HW228092   1.444   5.615   2.964
 9065SOL     OW28093   2.957   3.950   6.960
 9065SOL    HW128094   2.907   3.880   6.909
 9065SOL    HW228095   2.944   4.039   6.914
 9066SOL     OW28096   5.335   4.889   3.073
 9066SOL    HW128097   5.434   4.895   3.063
 9066SOL    HW228098   5.300   4.811   3.022
 9067SOL     OW28099   2.053   6.920   4.463
 9067SOL    HW128100   1.958   6.925   4.496
 9067SOL    HW228101   2.097   6.840   4.502
 9068SOL     OW28102   5.138   0.401   5.795
 9068SOL    HW128103   5.129   0.302   5.800
 9068SOL    HW228104   5.231   0.424   5.766
 9069SOL     OW28105   4.642   2.129   2.168
 9069SOL    HW128106   4.558   2.075   2.167
 9069SOL    HW228107   4.631   2.209   2.109
 9070SOL     OW28108   1.587   0.249   6.629
 9070SOL    HW128109   1.537   0.166   6.602
 9070SOL    HW228110   1.538   0.295   6.703
 9071SOL     OW28111   5.011   2.886   6.958
 9071SOL    HW128112   5.014   2.932   6.869
 9071SOL    HW228113   5.050   2.795   6.950
 9072SOL     OW28114   6.549   1.132   2.047
 9072SOL    HW128115   6.553   1.059   1.980
 9072SOL    HW228116   6.639   1.176   2.054
 9073SOL     OW28117   4.902   2.692   6.013
 9073SOL    HW128118   4.810   2.728   6.000
 9073SOL    HW228119   4.898   2.592   6.018
 9074SOL     OW28120   2.131   0.666   3.679
 9074SOL    HW128121   2.113   0.753   3.634
 9074SOL    HW228122   2.198   0.679   3.751
 9075SOL     OW28123   4.930   5.660   0.967
 9075SOL    HW128124   4.890   5.569   0.981
 9075SOL    HW228125   4.876   5.710   0.899
 9076SOL     OW28126   1.249   6.630   2.450
 9076SOL    HW128127   1.175   6.638   2.518
 9076SOL    HW228128   1.300   6.546   2.467
 9077SOL     OW28129   6.772   1.364   6.458
 9077SOL    HW128130   6.757   1.284   6.400
 9077SOL    HW228131   6.845   1.345   6.523
 9078SOL     OW28132   5.060   6.895   6.435
 9078SOL    HW128133   5.121   6.966   6.400
 9078SOL    HW228134   5.109   6.839   6.502
 9079SOL     OW28135   1.962   1.715   6.446
 9079SOL    HW128136   2.055   1.741   6.472
 9079SOL    HW228137   1.915   1.794   6.405
 9080SOL     OW28138   6.341   4.519   0.556
 9080SOL    HW128139   6.249   4.553   0.536
 9080SOL    HW228140   6.407   4.594   0.551
 9081SOL     OW28141   4.591   1.176   6.791
 9081SOL    HW128142   4.550   1.262   6.823
 9081SOL    HW228143   4.520   1.107   6.779
 9082SOL     OW28144   3.097   4.784   6.562
 9082SOL    HW128145   3.111   4.799   6.659
 9082SOL    HW228146   3.180   4.809   6.512
 9083SOL     OW28147   3.976   0.395   0.860
 9083SOL    HW128148   3.981   0.312   0.916
 9083SOL    HW228149   3.998   0.372   0.765
 9084SOL     OW28150   6.821   4.834   4.378
 9084SOL    HW128151   6.763   4.907   4.340
 9084SOL    HW228152   6.789   4.746   4.345
 9085SOL     OW28153   3.231   4.983   1.640
 9085SOL    HW128154   3.300   5.030   1.584
 9085SOL    HW228155   3.155   4.955   1.581
 9086SOL     OW28156   6.768   1.785   0.215
 9086SOL    HW128157   6.791   1.852   0.144
 9086SOL    HW228158   6.694   1.822   0.272
 9087SOL     OW28159   4.588   1.404   0.605
 9087SOL    HW128160   4.661   1.352   0.649
 9087SOL    HW228161   4.626   1.491   0.571
 9088SOL     OW28162   4.974   6.647   0.312
 9088SOL    HW128163   5.051   6.603   0.359
 9088SOL    HW228164   4.979   6.626   0.214
 9089SOL     OW28165   5.429   5.541   2.911
 9089SOL    HW128166   5.373   5.591   2.844
 9089SOL    HW228167   5.508   5.597   2.936
 9090SOL     OW28168   6.044   5.378   4.946
 9090SOL    HW128169   6.144   5.375   4.941
 9090SOL    HW228170   6.011   5.301   5.002
 9091SOL     OW28171   2.154   2.075   1.720
 9091SOL    HW128172   2.222   2.020   1.670
 9091SOL    HW228173   2.175   2.172   1.708
 9092SOL     OW28174   3.040   1.838   5.314
 9092SOL    HW128175   2.984   1.914   5.281
 9092SOL    HW228176   3.035   1.835   5.414
 9093SOL     OW28177   1.842   3.408   0.627
 9093SOL    HW128178   1.881   3.382   0.716
 9093SOL    HW228179   1.747   3.435   0.640
 9094SOL     OW28180   6.604   2.344   6.869
 9094SOL    HW128181   6.700   2.354   6.895
 9094SOL    HW228182   6.598   2.326   6.771
 9095SOL     OW28183   2.187   2.894   0.470
 9095SOL    HW128184   2.158   2.934   0.382
 9095SOL    HW228185   2.128   2.929   0.543
 9096SOL     OW28186   6.959   4.286   2.482
 9096SOL    HW128187   0.030   4.308   2.495
 9096SOL    HW228188   6.904   4.369   2.491
 9097SOL     OW28189   6.784   5.855   6.378
 9097SOL    HW128190   6.864   5.914   6.385
 9097SOL    HW228191   6.797   5.775   6.437
 9098SOL     OW28192   3.991   3.397   5.530
 9098SOL    HW128193   4.002   3.416   5.432
 9098SOL    HW228194   3.942   3.311   5.542
 9099SOL     OW28195   2.143   2.557   7.009
 9099SOL    HW128196   2.174   2.594   6.922
 9099SOL    HW228197   2.216   2.503   0.026
 9100SOL     OW28198   1.420   2.519   0.850
 9100SOL    HW128199   1.477   2.576   0.790
 9100SOL    HW228200   1.468   2.434   0.869
 9101SOL     OW28201   2.313   2.132   0.116
 9101SOL    HW128202   2.330   2.188   0.035
 9101SOL    HW228203   2.389   2.068   0.129
 9102SOL     OW28204   4.589   6.404   2.526
 9102SOL    HW128205   4.547   6.416   2.616
 9102SOL    HW228206   4.594   6.493   2.480
 9103SOL     OW28207   0.975   4.284   6.074
 9103SOL    HW128208   0.913   4.240   6.139
 9103SOL    HW228209   0.925   4.305   5.990
 9104SOL     OW28210   4.540   6.803   2.684
 9104SOL    HW128211   4.533   6.902   2.674
 9104SOL    HW228212   4.470   6.770   2.747
 9105SOL     OW28213   3.562   2.435   6.163
 9105SOL    HW128214   3.613   2.508   6.118
 9105SOL    HW228215   3.464   2.449   6.150
 9106SOL     OW28216   6.475   5.571   1.363
 9106SOL    HW128217   6.567   5.532   1.351
 9106SOL    HW228218   6.434   5.535   1.446
 9107SOL     OW28219   4.977   6.049   6.537
 9107SOL    HW128220   4.967   5.957   6.575
 9107SOL    HW228221   5.000   6.113   6.610
 9108SOL     OW28222   3.822   5.699   0.741
 9108SOL    HW128223   3.804   5.642   0.822
 9108SOL    HW228224   3.737   5.743   0.711
 9109SOL     OW28225   3.589   2.012   3.979
 9109SOL    HW128226   3.533   2.080   4.028
 9109SOL    HW228227   3.589   2.034   3.882
 9110SOL     OW28228   0.830   3.729   4.112
 9110SOL    HW128229   0.834   3.650   4.174
 9110SOL    HW228230   0.901   3.720   4.042
 9111SOL     OW28231   3.539   4.167   1.797
 9111SOL    HW128232   3.547   4.197   1.892
 9111SOL    HW228233   3.565   4.071   1.790
 9112SOL     OW28234   0.993   6.508   2.165
 9112SOL    HW128235   1.085   6.546   2.152
 9112SOL    HW228236   0.996   6.410   2.146
 9113SOL     OW28237   2.565   5.791   0.099
 9113SOL    HW128238   2.466   5.779   0.093
 9113SOL    HW228239   2.598   5.844   0.021
 9114SOL     OW28240   2.645   3.422   1.647
 9114SOL    HW128241   2.740   3.416   1.678
 9114SOL    HW228242   2.589   3.461   1.719
 9115SOL     OW28243   1.453   3.885   4.666
 9115SOL    HW128244   1.437   3.940   4.584
 9115SOL    HW228245   1.448   3.943   4.747
 9116SOL     OW28246   3.169   2.540   6.265
 9116SOL    HW128247   3.176   2.450   6.223
 9116SOL    HW228248   3.254   2.590   6.249
 9117SOL     OW28249   0.610   2.723   0.077
 9117SOL    HW128250   0.587   2.625   0.080
 9117SOL    HW228251   0.534   2.774   0.039
 9118SOL     OW28252   0.542   6.737   1.649
 9118SOL    HW128253   0.533   6.668   1.720
 9118SOL    HW228254   0.526   6.695   1.560
 9119SOL     OW28255   5.727   0.033   1.004
 9119SOL    HW128256   5.687   6.991   0.943
 9119SOL    HW228257   5.714   0.005   1.099
 9120SOL     OW28258   6.298   0.237   0.346
 9120SOL    HW128259   6.258   0.329   0.345
 9120SOL    HW228260   6.232   0.172   0.384
 9121SOL     OW28261   1.352   1.154   6.504
 9121SOL    HW128262   1.381   1.248   6.522
 9121SOL    HW228263   1.254   1.145   6.524
 9122SOL     OW28264   0.526   3.297   1.215
 9122SOL    HW128265   0.434   3.314   1.249
 9122SOL    HW228266   0.563   3.381   1.175
 9123SOL     OW28267   1.170   6.359   6.006
 9123SOL    HW128268   1.137   6.327   6.094
 9123SOL    HW228269   1.209   6.283   5.954
 9124SOL     OW28270   0.371   3.974   4.707
 9124SOL    HW128271   0.466   3.998   4.725
 9124SOL    HW228272   0.351   3.991   4.610
 9125SOL     OW28273   4.774   5.973   1.045
 9125SOL    HW128274   4.680   5.998   1.070
 9125SOL    HW228275   4.774   5.931   0.955
 9126SOL     OW28276   5.621   0.579   3.079
 9126SOL    HW128277   5.578   0.488   3.079
 9126SOL    HW228278   5.713   0.572   3.042
 9127SOL     OW28279   6.090   5.399   5.671
 9127SOL    HW128280   6.164   5.459   5.638
 9127SOL    HW228281   6.082   5.408   5.770
 9128SOL     OW28282   4.840   2.886   5.458
 9128SOL    HW128283   4.774   2.900   5.384
 9128SOL    HW228284   4.809   2.934   5.539
 9129SOL     OW28285   2.788   1.406   0.309
 9129SOL    HW128286   2.822   1.368   0.395
 9129SOL    HW228287   2.827   1.356   0.232
 9130SOL     OW28288   5.695   5.649   0.687
 9130SOL    HW128289   5.686   5.703   0.771
 9130SOL    HW228290   5.788   5.613   0.680
 9131SOL     OW28291   1.115   4.743   4.216
 9131SOL    HW128292   1.174   4.671   4.179
 9131SOL    HW228293   1.131   4.752   4.314
 9132SOL     OW28294   1.452   2.640   4.072
 9132SOL    HW128295   1.356   2.625   4.092
 9132SOL    HW228296   1.461   2.685   3.983
 9133SOL     OW28297   1.296   5.324   0.897
 9133SOL    HW128298   1.307   5.407   0.951
 9133SOL    HW228299   1.272   5.348   0.803
 9134SOL     OW28300   2.886   5.107   6.274
 9134SOL    HW128301   2.984   5.125   6.277
 9134SOL    HW228302   2.863   5.033   6.337
 9135SOL     OW28303   0.832   6.408   3.686
 9135SOL    HW128304   0.926   6.374   3.684
 9135SOL    HW228305   0.822   6.474   3.760
 9136SOL     OW28306   3.349   5.200   5.457
 9136SOL    HW128307   3.388   5.115   5.494
 9136SOL    HW228308   3.415   5.241   5.393
 9137SOL     OW28309   4.242   0.613   2.149
 9137SOL    HW128310   4.283   0.539   2.202
 9137SOL    HW228311   4.205   0.577   2.064
 9138SOL     OW28312   3.347   4.730   1.125
 9138SOL    HW128313   3.322   4.723   1.221
 9138SOL    HW228314   3.416   4.661   1.103
 9139SOL     OW28315   3.734   0.594   5.582
 9139SOL    HW128316   3.672   0.642   5.519
 9139SOL    HW228317   3.719   0.628   5.675
 9140SOL     OW28318   6.493   2.645   3.339
 9140SOL    HW128319   6.435   2.715   3.380
 9140SOL    HW228320   6.563   2.688   3.283
 9141SOL     OW28321   5.388   0.451   5.887
 9141SOL    HW128322   5.305   0.449   5.943
 9141SOL    HW228323   5.447   0.525   5.917
 9142SOL     OW28324   1.414   3.817   6.751
 9142SOL    HW128325   1.403   3.904   6.703
 9142SOL    HW228326   1.375   3.825   6.843
 9143SOL     OW28327   6.386   4.404   6.902
 9143SOL    HW128328   6.461   4.338   6.900
 9143SOL    HW228329   6.316   4.376   6.837
 9144SOL     OW28330   0.819   5.543   4.328
 9144SOL    HW128331   0.774   5.562   4.241
 9144SOL    HW228332   0.879   5.620   4.352
 9145SOL     OW28333   1.004   3.563   6.476
 9145SOL    HW128334   0.944   3.620   6.419
 9145SOL    HW228335   1.065   3.621   6.530
 9146SOL     OW28336   0.929   1.523   0.842
 9146SOL    HW128337   0.918   1.571   0.755
 9146SOL    HW228338   0.878   1.571   0.913
 9147SOL     OW28339   4.410   5.676   6.660
 9147SOL    HW128340   4.454   5.676   6.571
 9147SOL    HW228341   4.313   5.658   6.650
 9148SOL     OW28342   3.393   4.921   2.876
 9148SOL    HW128343   3.388   5.013   2.836
 9148SOL    HW228344   3.305   4.876   2.868
 9149SOL     OW28345   6.529   3.129   5.241
 9149SOL    HW128346   6.547   3.120   5.143
 9149SOL    HW228347   6.473   3.053   5.272
 9150SOL     OW28348   4.105   1.233   2.835
 9150SOL    HW128349   4.196   1.251   2.800
 9150SOL    HW228350   4.080   1.303   2.902
 9151SOL     OW28351   6.198   3.051   2.246
 9151SOL    HW128352   6.124   3.025   2.183
 9151SOL    HW228353   6.285   3.015   2.212
 9152SOL     OW28354   2.474   4.799   3.165
 9152SOL    HW128355   2.565   4.765   3.139
 9152SOL    HW228356   2.463   4.892   3.130
 9153SOL     OW28357   2.270   2.824   0.134
 9153SOL    HW128358   2.237   2.808   0.226
 9153SOL    HW228359   2.195   2.815   0.069
 9154SOL     OW28360   1.018   5.591   0.822
 9154SOL    HW128361   1.039   5.496   0.845
 9154SOL    HW228362   1.039   5.608   0.726
 9155SOL     OW28363   1.499   4.776   0.281
 9155SOL    HW128364   1.572   4.720   0.244
 9155SOL    HW228365   1.423   4.717   0.311
 9156SOL     OW28366   4.893   2.682   1.598
 9156SOL    HW128367   4.877   2.780   1.611
 9156SOL    HW228368   4.839   2.650   1.520
 9157SOL     OW28369   5.659   3.510   5.580
 9157SOL    HW128370   5.659   3.561   5.494
 9157SOL    HW228371   5.639   3.573   5.655
 9158SOL     OW28372   1.270   4.548   4.111
 9158SOL    HW128373   1.344   4.522   4.172
 9158SOL    HW228374   1.203   4.474   4.108
 9159SOL     OW28375   0.035   4.932   1.743
 9159SOL    HW128376   0.082   4.938   1.654
 9159SOL    HW228377   0.082   4.865   1.801
 9160SOL     OW28378   0.486   0.085   1.179
 9160SOL    HW128379   0.558   0.127   1.124
 9160SOL    HW228380   0.523   0.003   1.224
 9161SOL     OW28381   5.285   4.200   2.521
 9161SOL    HW128382   5.281   4.117   2.577
 9161SOL    HW228383   5.242   4.182   2.433
 9162SOL     OW28384   4.838   2.731   3.422
 9162SOL    HW128385   4.830   2.784   3.337
 9162SOL    HW228386   4.819   2.635   3.402
 9163SOL     OW28387   3.750   0.979   4.844
 9163SOL    HW128388   3.683   1.050   4.823
 9163SOL    HW228389   3.834   1.022   4.879
 9164SOL     OW28390   2.664   0.617   0.847
 9164SOL    HW128391   2.603   0.690   0.818
 9164SOL    HW228392   2.613   0.531   0.851
 9165SOL     OW28393   4.734   6.149   0.715
 9165SOL    HW128394   4.802   6.077   0.696
 9165SOL    HW228395   4.644   6.108   0.727
 9166SOL     OW28396   3.039   5.659   1.087
 9166SOL    HW128397   3.079   5.584   1.034
 9166SOL    HW228398   2.942   5.667   1.063
 9167SOL     OW28399   0.388   3.557   4.576
 9167SOL    HW128400   0.288   3.561   4.584
 9167SOL    HW228401   0.413   3.484   4.512
 9168SOL     OW28402   3.640   0.664   0.645
 9168SOL    HW128403   3.585   0.674   0.728
 9168SOL    HW228404   3.587   0.616   0.575
 9169SOL     OW28405   0.210   6.782   3.473
 9169SOL    HW128406   0.116   6.750   3.471
 9169SOL    HW228407   0.212   6.881   3.483
 9170SOL     OW28408   6.445   5.604   0.007
 9170SOL    HW128409   6.490   5.680   6.986
 9170SOL    HW228410   6.445   5.523   6.973
 9171SOL     OW28411   3.621   5.643   5.342
 9171SOL    HW128412   3.703   5.654   5.286
 9171SOL    HW228413   3.556   5.716   5.321
 9172SOL     OW28414   2.234   2.425   4.151
 9172SOL    HW128415   2.276   2.491   4.213
 9172SOL    HW228416   2.278   2.432   4.061
 9173SOL     OW28417   0.128   5.259   5.225
 9173SOL    HW128418   0.075   5.248   5.141
 9173SOL    HW228419   0.080   5.215   5.301
 9174SOL     OW28420   0.387   5.810   6.341
 9174SOL    HW128421   0.330   5.836   6.420
 9174SOL    HW228422   0.434   5.890   6.306
 9175SOL     OW28423   2.475   6.263   5.831
 9175SOL    HW128424   2.497   6.308   5.917
 9175SOL    HW228425   2.392   6.207   5.843
 9176SOL     OW28426   1.498   2.476   5.615
 9176SOL    HW128427   1.461   2.385   5.631
 9176SOL    HW228428   1.593   2.480   5.646
 9177SOL     OW28429   1.399   4.401   2.986
 9177SOL    HW128430   1.344   4.445   3.057
 9177SOL    HW228431   1.350   4.321   2.950
 9178SOL     OW28432   2.002   4.186   0.534
 9178SOL    HW128433   2.072   4.257   0.524
 9178SOL    HW228434   1.958   4.195   0.623
 9179SOL     OW28435   2.729   4.847   5.489
 9179SOL    HW128436   2.697   4.769   5.542
 9179SOL    HW228437   2.772   4.815   5.404
 9180SOL     OW28438   5.116   2.009   2.605
 9180SOL    HW128439   5.046   2.069   2.567
 9180SOL    HW228440   5.084   1.969   2.690
 9181SOL     OW28441   4.164   1.071   2.406
 9181SOL    HW128442   4.248   1.043   2.451
 9181SOL    HW228443   4.176   1.067   2.307
 9182SOL     OW28444   2.336   6.649   1.837
 9182SOL    HW128445   2.281   6.608   1.765
 9182SOL    HW228446   2.432   6.624   1.825
 9183SOL     OW28447   5.039   5.539   5.764
 9183SOL    HW128448   5.136   5.516   5.752
 9183SOL    HW228449   5.032   5.625   5.816
 9184SOL     OW28450   4.886   6.910   0.259
 9184SOL    HW128451   4.916   6.815   0.262
 9184SOL    HW228452   4.822   6.922   0.183
 9185SOL     OW28453   5.175   1.532   4.440
 9185SOL    HW128454   5.250   1.563   4.382
 9185SOL    HW228455   5.189   1.565   4.533
 9186SOL     OW28456   5.349   0.649   6.234
 9186SOL    HW128457   5.346   0.550   6.248
 9186SOL    HW228458   5.275   0.676   6.172
 9187SOL     OW28459   2.448   6.164   3.392
 9187SOL    HW128460   2.441   6.064   3.398
 9187SOL    HW228461   2.402   6.195   3.309
 9188SOL     OW28462   2.661   5.488   0.775
 9188SOL    HW128463   2.582   5.428   0.760
 9188SOL    HW228464   2.735   5.461   0.713
 9189SOL     OW28465   5.187   4.823   1.958
 9189SOL    HW128466   5.112   4.887   1.971
 9189SOL    HW228467   5.273   4.866   1.989
 9190SOL     OW28468   1.426   6.309   6.562
 9190SOL    HW128469   1.445   6.400   6.526
 9190SOL    HW228470   1.413   6.315   6.661
 9191SOL     OW28471   0.064   1.125   5.778
 9191SOL    HW128472   7.009   1.172   5.814
 9191SOL    HW228473   0.056   1.117   5.679
 9192SOL     OW28474   0.879   3.741   5.395
 9192SOL    HW128475   0.830   3.827   5.408
 9192SOL    HW228476   0.819   3.675   5.348
 9193SOL     OW28477   3.141   3.892   0.567
 9193SOL    HW128478   3.073   3.913   0.497
 9193SOL    HW228479   3.120   3.804   0.609
 9194SOL     OW28480   3.144   1.015   4.248
 9194SOL    HW128481   3.165   0.921   4.222
 9194SOL    HW228482   3.215   1.076   4.215
 9195SOL     OW28483   1.541   1.144   3.961
 9195SOL    HW128484   1.594   1.108   3.885
 9195SOL    HW228485   1.523   1.241   3.946
 9196SOL     OW28486   5.016   1.096   6.038
 9196SOL    HW128487   5.102   1.140   6.062
 9196SOL    HW228488   5.019   1.064   5.944
 9197SOL     OW28489   2.364   3.580   0.675
 9197SOL    HW128490   2.343   3.520   0.598
 9197SOL    HW228491   2.435   3.646   0.647
 9198SOL     OW28492   0.939   4.623   4.672
 9198SOL    HW128493   0.881   4.653   4.596
 9198SOL    HW228494   0.916   4.528   4.695
 9199SOL     OW28495   5.841   4.465   5.007
 9199SOL    HW128496   5.905   4.537   4.981
 9199SOL    HW228497   5.866   4.429   5.096
 9200SOL     OW28498   2.669   6.655   0.174
 9200SOL    HW128499   2.646   6.701   0.260
 9200SOL    HW228500   2.741   6.706   0.128
 9201SOL     OW28501   2.131   4.533   0.653
 9201SOL    HW128502   2.159   4.531   0.749
 9201SOL    HW228503   2.032   4.536   0.647
 9202SOL     OW28504   2.464   0.708   3.602
 9202SOL    HW128505   2.562   0.721   3.615
 9202SOL    HW228506   2.441   0.719   3.506
 9203SOL     OW28507   6.971   6.481   1.086
 9203SOL    HW128508   6.922   6.417   1.026
 9203SOL    HW228509   6.987   6.567   1.037
 9204SOL     OW28510   6.110   0.813   5.517
 9204SOL    HW128511   6.101   0.726   5.468
 9204SOL    HW228512   6.155   0.880   5.457
 9205SOL     OW28513   6.941   5.519   2.241
 9205SOL    HW128514   6.916   5.447   2.306
 9205SOL    HW228515   0.006   5.499   2.202
 9206SOL     OW28516   3.683   6.889   0.088
 9206SOL    HW128517   3.772   6.848   0.073
 9206SOL    HW228518   3.693   6.972   0.142
 9207SOL     OW28519   5.690   5.846   6.000
 9207SOL    HW128520   5.697   5.869   5.903
 9207SOL    HW228521   5.691   5.930   6.054
 9208SOL     OW28522   1.286   3.757   2.487
 9208SOL    HW128523   1.263   3.822   2.560
 9208SOL    HW228524   1.307   3.668   2.528
 9209SOL     OW28525   2.410   6.038   6.673
 9209SOL    HW128526   2.423   6.027   6.772
 9209SOL    HW228527   2.367   6.127   6.655
 9210SOL     OW28528   6.359   0.803   4.012
 9210SOL    HW128529   6.307   0.718   4.000
 9210SOL    HW228530   6.377   0.844   3.923
 9211SOL     OW28531   0.626   1.690   3.069
 9211SOL    HW128532   0.647   1.768   3.010
 9211SOL    HW228533   0.703   1.627   3.070
 9212SOL     OW28534   3.701   5.329   4.550
 9212SOL    HW128535   3.721   5.280   4.465
 9212SOL    HW228536   3.610   5.370   4.544
 9213SOL     OW28537   6.024   3.843   6.913
 9213SOL    HW128538   6.120   3.869   6.918
 9213SOL    HW228539   5.979   3.864   7.000
 9214SOL     OW28540   0.373   5.325   0.295
 9214SOL    HW128541   0.305   5.280   0.354
 9214SOL    HW228542   0.416   5.257   0.237
 9215SOL     OW28543   1.235   1.210   0.885
 9215SOL    HW128544   1.205   1.165   0.801
 9215SOL    HW228545   1.159   1.261   0.925
 9216SOL     OW28546   1.960   0.355   3.784
 9216SOL    HW128547   1.969   0.412   3.702
 9216SOL    HW228548   1.865   0.329   3.796
 9217SOL     OW28549   0.348   2.283   0.537
 9217SOL    HW128550   0.348   2.330   0.449
 9217SOL    HW228551   0.254   2.263   0.564
 9218SOL     OW28552   2.516   1.269   0.612
 9218SOL    HW128553   2.499   1.351   0.557
 9218SOL    HW228554   2.566   1.202   0.558
 9219SOL     OW28555   5.889   1.900   0.403
 9219SOL    HW128556   5.855   1.809   0.426
 9219SOL    HW228557   5.964   1.924   0.465
 9220SOL     OW28558   2.970   6.531   0.366
 9220SOL    HW128559   2.973   6.487   0.456
 9220SOL    HW228560   2.910   6.611   0.369
 9221SOL     OW28561   2.811   4.769   4.784
 9221SOL    HW128562   2.807   4.726   4.874
 9221SOL    HW228563   2.734   4.738   4.728
 9222SOL     OW28564   3.052   1.969   6.836
 9222SOL    HW128565   2.993   1.895   6.803
 9222SOL    HW228566   3.125   1.986   6.770
 9223SOL     OW28567   2.842   3.108   5.286
 9223SOL    HW128568   2.743   3.112   5.273
 9223SOL    HW228569   2.869   3.015   5.311
 9224SOL     OW28570   2.359   4.664   5.220
 9224SOL    HW128571   2.396   4.574   5.239
 9224SOL    HW228572   2.353   4.678   5.122
 9225SOL     OW28573   1.669   6.176   6.849
 9225SOL    HW128574   1.581   6.219   6.829
 9225SOL    HW228575   1.676   6.090   6.799
 9226SOL     OW28576   4.503   6.038   1.099
 9226SOL    HW128577   4.404   6.026   1.106
 9226SOL    HW228578   4.523   6.110   1.033
 9227SOL     OW28579   1.273   6.537   1.437
 9227SOL    HW128580   1.185   6.519   1.393
 9227SOL    HW228581   1.267   6.621   1.491
 9228SOL     OW28582   0.812   6.545   6.386
 9228SOL    HW128583   0.774   6.633   6.357
 9228SOL    HW228584   0.771   6.519   6.474
 9229SOL     OW28585   1.035   6.098   5.102
 9229SOL    HW128586   0.936   6.087   5.102
 9229SOL    HW228587   1.064   6.144   5.186
 9230SOL     OW28588   4.907   1.767   3.488
 9230SOL    HW128589   4.903   1.867   3.489
 9230SOL    HW228590   4.863   1.731   3.570
 9231SOL     OW28591   2.080   3.542   3.601
 9231SOL    HW128592   2.119   3.561   3.511
 9231SOL    HW228593   2.142   3.576   3.672
 9232SOL     OW28594   4.444   5.442   1.329
 9232SOL    HW128595   4.477   5.522   1.380
 9232SOL    HW228596   4.424   5.368   1.392
 9233SOL     OW28597   5.629   4.761   6.905
 9233SOL    HW128598   5.650   4.825   6.831
 9233SOL    HW228599   5.590   4.811   6.982
 9234SOL     OW28600   1.774   5.895   3.885
 9234SOL    HW128601   1.737   5.962   3.821
 9234SOL    HW228602   1.844   5.840   3.839
 9235SOL     OW28603   0.992   2.526   3.149
 9235SOL    HW128604   0.983   2.604   3.087
 9235SOL    HW228605   1.086   2.493   3.148
 9236SOL     OW28606   3.391   2.517   6.628
 9236SOL    HW128607   3.341   2.455   6.689
 9236SOL    HW228608   3.420   2.468   6.547
 9237SOL     OW28609   1.539   3.711   3.145
 9237SOL    HW128610   1.462   3.684   3.202
 9237SOL    HW228611   1.581   3.630   3.104
 9238SOL     OW28612   4.462   3.590   6.922
 9238SOL    HW128613   4.441   3.503   6.965
 9238SOL    HW228614   4.551   3.585   6.878
 9239SOL     OW28615   2.298   2.941   6.555
 9239SOL    HW128616   2.390   2.949   6.593
 9239SOL    HW228617   2.302   2.903   6.463
 9240SOL     OW28618   4.740   0.695   2.458
 9240SOL    HW128619   4.763   0.777   2.511
 9240SOL    HW228620   4.756   0.713   2.361
 9241SOL     OW28621   0.520   5.429   6.073
 9241SOL    HW128622   0.524   5.496   6.147
 9241SOL    HW228623   0.436   5.443   6.020
 9242SOL     OW28624   5.330   6.210   1.867
 9242SOL    HW128625   5.339   6.220   1.768
 9242SOL    HW228626   5.421   6.208   1.909
 9243SOL     OW28627   5.803   0.045   4.412
 9243SOL    HW128628   5.859   7.001   4.458
 9243SOL    HW228629   5.777   0.012   4.322
 9244SOL     OW28630   3.857   6.051   0.123
 9244SOL    HW128631   3.830   5.993   0.199
 9244SOL    HW228632   3.892   5.993   0.048
 9245SOL     OW28633   0.317   6.881   1.760
 9245SOL    HW128634   0.263   6.803   1.791
 9245SOL    HW228635   0.398   6.848   1.711
 9246SOL     OW28636   0.071   4.952   3.748
 9246SOL    HW128637   0.028   5.020   3.808
 9246SOL    HW228638   0.021   4.866   3.755
 9247SOL     OW28639   1.295   0.422   3.288
 9247SOL    HW128640   1.315   0.501   3.230
 9247SOL    HW228641   1.203   0.432   3.327
 9248SOL     OW28642   4.181   1.779   6.323
 9248SOL    HW128643   4.245   1.718   6.277
 9248SOL    HW228644   4.215   1.802   6.414
 9249SOL     OW28645   3.998   6.596   3.663
 9249SOL    HW128646   3.982   6.511   3.714
 9249SOL    HW228647   4.004   6.672   3.727
 9250SOL     OW28648   4.988   3.786   3.114
 9250SOL    HW128649   5.077   3.768   3.156
 9250SOL    HW228650   4.935   3.846   3.175
 9251SOL     OW28651   3.764   1.822   2.019
 9251SOL    HW128652   3.707   1.787   2.094
 9251SOL    HW228653   3.749   1.766   1.937
 9252SOL     OW28654   1.803   6.679   4.282
 9252SOL    HW128655   1.750   6.625   4.348
 9252SOL    HW228656   1.880   6.624   4.248
 9253SOL     OW28657   1.155   6.762   6.293
 9253SOL    HW128658   1.076   6.820   6.273
 9253SOL    HW228659   1.124   6.670   6.317
 9254SOL     OW28660   4.857   2.376   1.168
 9254SOL    HW128661   4.857   2.410   1.075
 9254SOL    HW228662   4.942   2.325   1.185
 9255SOL     OW28663   0.240   5.200   0.479
 9255SOL    HW128664   0.235   5.104   0.507
 9255SOL    HW228665   0.193   5.256   0.547
 9256SOL     OW28666   4.062   5.371   3.160
 9256SOL    HW128667   4.125   5.303   3.122
 9256SOL    HW228668   4.110   5.427   3.228
 9257SOL     OW28669   0.605   3.487   1.024
 9257SOL    HW128670   0.507   3.506   1.030
 9257SOL    HW228671   0.656   3.572   1.037
 9258SOL     OW28672   3.390   2.866   4.737
 9258SOL    HW128673   3.320   2.908   4.795
 9258SOL    HW228674   3.346   2.806   4.670
 9259SOL     OW28675   1.487   2.384   0.498
 9259SOL    HW128676   1.393   2.349   0.502
 9259SOL    HW228677   1.486   2.476   0.458
 9260SOL     OW28678   6.926   3.658   0.044
 9260SOL    HW128679   7.024   3.679   0.049
 9260SOL    HW228680   6.875   3.729   0.093
 9261SOL     OW28681   2.830   6.864   5.672
 9261SOL    HW128682   2.866   6.790   5.728
 9261SOL    HW228683   2.785   6.826   5.592
 9262SOL     OW28684   5.901   0.091   6.171
 9262SOL    HW128685   5.852   0.156   6.230
 9262SOL    HW228686   5.991   0.071   6.210
 9263SOL     OW28687   6.144   4.181   2.236
 9263SOL    HW128688   6.049   4.204   2.215
 9263SOL    HW228689   6.148   4.087   2.271
 9264SOL     OW28690   5.727   2.652   0.109
 9264SOL    HW128691   5.691   2.708   0.034
 9264SOL    HW228692   5.666   2.659   0.188
 9265SOL     OW28693   1.835   2.241   5.238
 9265SOL    HW128694   1.836   2.241   5.338
 9265SOL    HW228695   1.796   2.327   5.206
 9266SOL     OW28696   2.793   6.353   2.494
 9266SOL    HW128697   2.760   6.307   2.577
 9266SOL    HW228698   2.740   6.319   2.415
 9267SOL     OW28699   2.929   4.810   6.038
 9267SOL    HW128700   2.856   4.808   6.105
 9267SOL    HW228701   2.937   4.902   6.000
 9268SOL     OW28702   1.380   1.054   2.957
 9268SOL    HW128703   1.406   1.121   2.887
 9268SOL    HW228704   1.370   0.964   2.915
 9269SOL     OW28705   4.180   1.174   5.346
 9269SOL    HW128706   4.263   1.127   5.377
 9269SOL    HW228707   4.122   1.193   5.425
 9270SOL     OW28708   1.529   0.425   5.581
 9270SOL    HW128709   1.554   0.399   5.488
 9270SOL    HW228710   1.592   0.496   5.614
 9271SOL     OW28711   0.374   5.139   5.847
 9271SOL    HW128712   0.455   5.087   5.822
 9271SOL    HW228713   0.375   5.158   5.945
 9272SOL     OW28714   2.159   5.331   6.638
 9272SOL    HW128715   2.145   5.406   6.703
 9272SOL    HW228716   2.164   5.245   6.688
 9273SOL     OW28717   3.615   6.279   6.078
 9273SOL    HW128718   3.660   6.200   6.037
 9273SOL    HW228719   3.559   6.324   6.008
 9274SOL     OW28720   5.042   2.171   2.207
 9274SOL    HW128721   4.961   2.118   2.232
 9274SOL    HW228722   5.038   2.260   2.252
 9275SOL     OW28723   7.012   0.378   6.037
 9275SOL    HW128724   6.995   0.289   6.080
 9275SOL    HW228725   0.069   0.418   6.077
 9276SOL     OW28726   4.260   6.688   4.320
 9276SOL    HW128727   4.314   6.640   4.390
 9276SOL    HW228728   4.321   6.739   4.260
 9277SOL     OW28729   4.769   2.570   6.942
 9277SOL    HW128730   4.755   2.472   6.956
 9277SOL    HW228731   4.716   2.600   6.862
 9278SOL     OW28732   1.243   2.406   1.374
 9278SOL    HW128733   1.276   2.399   1.280
 9278SOL    HW228734   1.252   2.318   1.420
 9279SOL     OW28735   2.305   6.369   0.501
 9279SOL    HW128736   2.274   6.391   0.409
 9279SOL    HW228737   2.388   6.314   0.496
 9280SOL     OW28738   1.507   0.402   2.960
 9280SOL    HW128739   1.536   0.469   2.892
 9280SOL    HW228740   1.585   0.374   3.016
 9281SOL     OW28741   2.114   2.379   0.361
 9281SOL    HW128742   2.096   2.451   0.428
 9281SOL    HW228743   2.031   2.324   0.349
 9282SOL     OW28744   3.968   1.262   6.775
 9282SOL    HW128745   3.978   1.167   6.745
 9282SOL    HW228746   3.925   1.316   6.703
 9283SOL     OW28747   5.103   2.364   2.993
 9283SOL    HW128748   5.031   2.381   2.925
 9283SOL    HW228749   5.081   2.281   3.044
 9284SOL     OW28750   3.800   3.919   1.961
 9284SOL    HW128751   3.727   3.920   1.892
 9284SOL    HW228752   3.764   3.886   2.048
 9285SOL     OW28753   6.619   3.092   6.378
 9285SOL    HW128754   6.706   3.045   6.393
 9285SOL    HW228755   6.545   3.025   6.374
 9286SOL     OW28756   5.649   5.302   4.294
 9286SOL    HW128757   5.619   5.397   4.305
 9286SOL    HW228758   5.583   5.252   4.238
 9287SOL     OW28759   2.831   6.900   2.741
 9287SOL    HW128760   2.861   6.816   2.787
 9287SOL    HW228761   2.816   6.971   2.809
 9288SOL     OW28762   4.652   2.265   6.445
 9288SOL    HW128763   4.607   2.182   6.479
 9288SOL    HW228764   4.588   2.318   6.389
 9289SOL     OW28765   5.584   4.113   2.521
 9289SOL    HW128766   5.578   4.148   2.428
 9289SOL    HW228767   5.604   4.189   2.584
 9290SOL     OW28768   4.489   2.164   3.936
 9290SOL    HW128769   4.426   2.238   3.915
 9290SOL    HW228770   4.580   2.186   3.900
 9291SOL     OW28771   1.100   2.261   5.159
 9291SOL    HW128772   1.165   2.218   5.096
 9291SOL    HW228773   1.009   2.225   5.142
 9292SOL     OW28774   0.466   3.865   0.084
 9292SOL    HW128775   0.496   3.898   0.173
 9292SOL    HW228776   0.503   3.773   0.068
 9293SOL     OW28777   6.228   3.908   5.985
 9293SOL    HW128778   6.233   3.972   6.062
 9293SOL    HW228779   6.275   3.823   6.009
 9294SOL     OW28780   5.429   5.822   6.573
 9294SOL    HW128781   5.490   5.890   6.613
 9294SOL    HW228782   5.356   5.800   6.637
 9295SOL     OW28783   4.781   2.906   3.203
 9295SOL    HW128784   4.763   2.841   3.130
 9295SOL    HW228785   4.761   2.999   3.171
 9296SOL     OW28786   6.269   0.309   5.253
 9296SOL    HW128787   6.314   0.367   5.321
 9296SOL    HW228788   6.194   0.360   5.211
 9297SOL     OW28789   0.710   0.557   1.946
 9297SOL    HW128790   0.741   0.651   1.948
 9297SOL    HW228791   0.785   0.496   1.969
 9298SOL     OW28792   0.836   6.817   5.007
 9298SOL    HW128793   0.765   6.870   4.959
 9298SOL    HW228794   0.920   6.818   4.954
 9299SOL     OW28795   1.987   2.980   4.289
 9299SOL    HW128796   1.962   2.928   4.371
 9299SOL    HW228797   2.068   3.035   4.307
 9300SOL     OW28798   5.958   4.843   3.422
 9300SOL    HW128799   5.955   4.745   3.443
 9300SOL    HW228800   6.052   4.870   3.404
 9301SOL     OW28801   6.626   4.863   1.196
 9301SOL    HW128802   6.620   4.787   1.261
 9301SOL    HW228803   6.541   4.869   1.144
 9302SOL     OW28804   1.590   2.137   2.228
 9302SOL    HW128805   1.584   2.115   2.326
 9302SOL    HW228806   1.523   2.082   2.178
 9303SOL     OW28807   4.955   4.030   0.585
 9303SOL    HW128808   4.969   4.119   0.630
 9303SOL    HW228809   4.921   4.045   0.492
 9304SOL     OW28810   4.605   3.867   0.875
 9304SOL    HW128811   4.524   3.822   0.835
 9304SOL    HW228812   4.618   3.835   0.969
 9305SOL     OW28813   4.979   3.791   1.981
 9305SOL    HW128814   4.950   3.878   2.020
 9305SOL    HW228815   5.034   3.807   1.900
 9306SOL     OW28816   6.890   5.786   4.115
 9306SOL    HW128817   6.856   5.841   4.191
 9306SOL    HW228818   6.821   5.785   4.042
 9307SOL     OW28819   2.065   0.871   5.635
 9307SOL    HW128820   2.143   0.888   5.694
 9307SOL    HW228821   2.050   0.773   5.625
 9308SOL     OW28822   6.812   2.467   0.178
 9308SOL    HW128823   6.770   2.377   0.194
 9308SOL    HW228824   6.745   2.527   0.135
 9309SOL     OW28825   5.055   3.030   6.246
 9309SOL    HW128826   5.077   3.022   6.149
 9309SOL    HW228827   5.005   2.948   6.276
 9310SOL     OW28828   3.481   0.097   1.421
 9310SOL    HW128829   3.526   0.010   1.401
 9310SOL    HW228830   3.384   0.081   1.441
 9311SOL     OW28831   6.961   3.579   1.826
 9311SOL    HW128832   0.015   3.520   1.810
 9311SOL    HW228833   6.913   3.595   1.739
 9312SOL     OW28834   1.863   3.904   4.951
 9312SOL    HW128835   1.950   3.912   4.903
 9312SOL    HW228836   1.805   3.983   4.928
 9313SOL     OW28837   6.486   6.615   2.429
 9313SOL    HW128838   6.461   6.559   2.350
 9313SOL    HW228839   6.578   6.591   2.460
 9314SOL     OW28840   6.632   4.129   0.392
 9314SOL    HW128841   6.721   4.085   0.387
 9314SOL    HW228842   6.562   4.062   0.416
 9315SOL     OW28843   0.269   6.221   6.350
 9315SOL    HW128844   0.235   6.302   6.302
 9315SOL    HW228845   0.211   6.203   6.430
 9316SOL     OW28846   3.209   5.165   4.538
 9316SOL    HW128847   3.118   5.140   4.572
 9316SOL    HW228848   3.276   5.097   4.568
 9317SOL     OW28849   4.441   4.087   5.587
 9317SOL    HW128850   4.361   4.063   5.642
 9317SOL    HW228851   4.500   4.149   5.640
 9318SOL     OW28852   6.685   6.524   6.242
 9318SOL    HW128853   6.625   6.604   6.243
 9318SOL    HW228854   6.642   6.450   6.293
 9319SOL     OW28855   6.245   3.785   4.578
 9319SOL    HW128856   6.183   3.717   4.617
 9319SOL    HW228857   6.236   3.785   4.479
 9320SOL     OW28858   4.066   3.033   5.895
 9320SOL    HW128859   4.104   2.986   5.816
 9320SOL    HW228860   3.976   2.994   5.917
 9321SOL     OW28861   6.050   6.268   4.526
 9321SOL    HW128862   6.060   6.229   4.617
 9321SOL    HW228863   6.140   6.280   4.485
 9322SOL     OW28864   1.177   5.977   0.737
 9322SOL    HW128865   1.220   6.059   0.699
 9322SOL    HW228866   1.223   5.952   0.822
 9323SOL     OW28867   0.556   1.350   6.538
 9323SOL    HW128868   0.505   1.275   6.580
 9323SOL    HW228869   0.561   1.335   6.439
 9324SOL     OW28870   1.592   5.136   6.893
 9324SOL    HW128871   1.528   5.137   6.816
 9324SOL    HW228872   1.672   5.192   6.869
 9325SOL     OW28873   0.311   2.650   6.882
 9325SOL    HW128874   0.301   2.590   6.960
 9325SOL    HW228875   0.365   2.605   6.811
 9326SOL     OW28876   2.384   5.869   1.579
 9326SOL    HW128877   2.337   5.782   1.594
 9326SOL    HW228878   2.468   5.872   1.633
 9327SOL     OW28879   2.600   1.769   3.655
 9327SOL    HW128880   2.603   1.670   3.638
 9327SOL    HW228881   2.675   1.813   3.606
 9328SOL     OW28882   2.750   0.871   2.480
 9328SOL    HW128883   2.819   0.901   2.546
 9328SOL    HW228884   2.659   0.897   2.512
 9329SOL     OW28885   0.673   3.868   1.916
 9329SOL    HW128886   0.618   3.848   1.996
 9329SOL    HW228887   0.738   3.793   1.900
 9330SOL     OW28888   5.022   6.274   6.702
 9330SOL    HW128889   5.121   6.289   6.711
 9330SOL    HW228890   4.976   6.361   6.688
 9331SOL     OW28891   0.761   1.856   0.345
 9331SOL    HW128892   0.704   1.787   0.300
 9331SOL    HW228893   0.835   1.882   0.284
 9332SOL     OW28894   3.680   3.958   5.313
 9332SOL    HW128895   3.587   3.927   5.331
 9332SOL    HW228896   3.716   4.004   5.395
 9333SOL     OW28897   4.924   6.176   0.963
 9333SOL    HW128898   4.838   6.215   0.929
 9333SOL    HW228899   4.904   6.102   1.027
 9334SOL     OW28900   2.445   6.826   4.193
 9334SOL    HW128901   2.494   6.741   4.177
 9334SOL    HW228902   2.507   6.895   4.229
 9335SOL     OW28903   0.399   1.570   2.003
 9335SOL    HW128904   0.380   1.478   1.969
 9335SOL    HW228905   0.495   1.593   1.984
 9336SOL     OW28906   3.007   0.167   5.139
 9336SOL    HW128907   3.104   0.143   5.130
 9336SOL    HW228908   2.984   0.174   5.236
 9337SOL     OW28909   4.822   6.790   2.832
 9337SOL    HW128910   4.749   6.751   2.777
 9337SOL    HW228911   4.862   6.868   2.784
 9338SOL     OW28912   2.649   6.842   2.121
 9338SOL    HW128913   2.604   6.776   2.061
 9338SOL    HW228914   2.623   6.825   2.216
 9339SOL     OW28915   3.771   5.701   1.526
 9339SOL    HW128916   3.744   5.694   1.430
 9339SOL    HW228917   3.822   5.620   1.552
 9340SOL     OW28918   6.624   2.785   0.601
 9340SOL    HW128919   6.582   2.753   0.515
 9340SOL    HW228920   6.722   2.770   0.597
 9341SOL     OW28921   0.741   3.923   5.655
 9341SOL    HW128922   0.761   3.993   5.587
 9341SOL    HW228923   0.647   3.933   5.687
 9342SOL     OW28924   1.856   0.543   7.000
 9342SOL    HW128925   1.793   0.621   7.006
 9342SOL    HW228926   1.887   0.532   6.906
 9343SOL     OW28927   5.808   6.335   3.659
 9343SOL    HW128928   5.888   6.361   3.714
 9343SOL    HW228929   5.798   6.399   3.583
 9344SOL     OW28930   5.207   6.544   0.470
 9344SOL    HW128931   5.158   6.467   0.429
 9344SOL    HW228932   5.305   6.523   0.473
 9345SOL     OW28933   0.399   2.432   0.764
 9345SOL    HW128934   0.396   2.372   0.684
 9345SOL    HW228935   0.486   2.481   0.766
 9346SOL     OW28936   5.837   0.871   0.509
 9346SOL    HW128937   5.856   0.838   0.601
 9346SOL    HW228938   5.799   0.797   0.453
 9347SOL     OW28939   1.875   6.377   2.091
 9347SOL    HW128940   1.967   6.348   2.117
 9347SOL    HW228941   1.811   6.359   2.166
 9348SOL     OW28942   2.975   5.182   0.695
 9348SOL    HW128943   2.951   5.248   0.624
 9348SOL    HW228944   2.901   5.116   0.705
 9349SOL     OW28945   1.409   6.399   2.486
 9349SOL    HW128946   1.381   6.411   2.581
 9349SOL    HW228947   1.446   6.306   2.474
 9350SOL     OW28948   0.338   3.141   5.762
 9350SOL    HW128949   0.391   3.069   5.718
 9350SOL    HW228950   0.241   3.116   5.762
 9351SOL     OW28951   3.158   6.563   6.537
 9351SOL    HW128952   3.219   6.642   6.538
 9351SOL    HW228953   3.187   6.499   6.466
 9352SOL     OW28954   2.738   4.755   6.211
 9352SOL    HW128955   2.654   4.793   6.250
 9352SOL    HW228956   2.781   4.694   6.278
 9353SOL     OW28957   5.991   0.881   1.074
 9353SOL    HW128958   5.921   0.951   1.090
 9353SOL    HW228959   5.990   0.815   1.149
 9354SOL     OW28960   1.083   1.106   6.032
 9354SOL    HW128961   1.170   1.056   6.025
 9354SOL    HW228962   1.097   1.191   6.083
 9355SOL     OW28963   1.116   1.548   4.992
 9355SOL    HW128964   1.116   1.573   4.895
 9355SOL    HW228965   1.071   1.619   5.046
 9356SOL     OW28966   3.750   0.311   3.924
 9356SOL    HW128967   3.740   0.411   3.921
 9356SOL    HW228968   3.706   0.276   4.007
 9357SOL     OW28969   1.844   2.103   0.317
 9357SOL    HW128970   1.760   2.103   0.263
 9357SOL    HW228971   1.829   2.152   0.403
 9358SOL     OW28972   0.801   2.049   1.037
 9358SOL    HW128973   0.839   1.960   1.060
 9358SOL    HW228974   0.805   2.062   0.938
 9359SOL     OW28975   1.098   0.667   5.194
 9359SOL    HW128976   1.008   0.707   5.215
 9359SOL    HW228977   1.105   0.650   5.096
 9360SOL     OW28978   0.142   0.669   5.593
 9360SOL    HW128979   0.120   0.596   5.658
 9360SOL    HW228980   0.219   0.641   5.537
 9361SOL     OW28981   2.091   5.645   4.209
 9361SOL    HW128982   2.160   5.589   4.255
 9361SOL    HW228983   2.001   5.626   4.248
 9362SOL     OW28984   1.684   0.359   2.528
 9362SOL    HW128985   1.709   0.387   2.435
 9362SOL    HW228986   1.598   0.403   2.554
 9363SOL     OW28987   2.095   2.603   2.460
 9363SOL    HW128988   2.125   2.697   2.476
 9363SOL    HW228989   2.175   2.544   2.450
 9364SOL     OW28990   0.211   1.981   6.642
 9364SOL    HW128991   0.157   1.958   6.562
 9364SOL    HW228992   0.292   2.034   6.614
 9365SOL     OW28993   2.610   1.135   5.494
 9365SOL    HW128994   2.546   1.204   5.527
 9365SOL    HW228995   2.687   1.128   5.558
 9366SOL     OW28996   3.426   6.742   2.297
 9366SOL    HW128997   3.382   6.742   2.386
 9366SOL    HW228998   3.358   6.761   2.226
 9367SOL     OW28999   6.841   0.280   1.294
 9367SOL    HW129000   6.792   0.281   1.381
 9367SOL    HW229001   6.933   0.244   1.309
 9368SOL     OW29002   2.227   0.700   3.191
 9368SOL    HW129003   2.206   0.603   3.199
 9368SOL    HW229004   2.203   0.732   3.100
 9369SOL     OW29005   3.845   5.189   1.181
 9369SOL    HW129006   3.797   5.103   1.166
 9369SOL    HW229007   3.901   5.210   1.101
 9370SOL     OW29008   4.660   2.598   5.355
 9370SOL    HW129009   4.581   2.658   5.348
 9370SOL    HW229010   4.699   2.584   5.264
 9371SOL     OW29011   4.266   4.690   0.805
 9371SOL    HW129012   4.359   4.667   0.777
 9371SOL    HW229013   4.201   4.641   0.747
 9372SOL     OW29014   4.557   6.808   1.187
 9372SOL    HW129015   4.538   6.752   1.107
 9372SOL    HW229016   4.656   6.811   1.203
 9373SOL     OW29017   0.425   2.308   1.533
 9373SOL    HW129018   0.524   2.295   1.527
 9373SOL    HW229019   0.386   2.314   1.441
 9374SOL     OW29020   6.975   4.979   6.421
 9374SOL    HW129021   6.936   5.033   6.495
 9374SOL    HW229022   6.907   4.912   6.389
 9375SOL     OW29023   1.876   1.295   6.761
 9375SOL    HW129024   1.826   1.275   6.676
 9375SOL    HW229025   1.969   1.260   6.754
 9376SOL     OW29026   3.093   3.648   0.150
 9376SOL    HW129027   3.131   3.702   0.225
 9376SOL    HW229028   3.099   3.550   0.173
 9377SOL     OW29029   1.061   0.432   3.457
 9377SOL    HW129030   0.988   0.364   3.463
 9377SOL    HW229031   1.021   0.524   3.461
 9378SOL     OW29032   3.907   1.476   5.323
 9378SOL    HW129033   3.940   1.387   5.292
 9378SOL    HW229034   3.843   1.464   5.399
 9379SOL     OW29035   4.267   0.492   4.775
 9379SOL    HW129036   4.263   0.586   4.743
 9379SOL    HW229037   4.337   0.483   4.845
 9380SOL     OW29038   5.133   6.318   1.047
 9380SOL    HW129039   5.061   6.259   1.011
 9380SOL    HW229040   5.208   6.261   1.083
 9381SOL     OW29041   5.090   0.894   4.782
 9381SOL    HW129042   5.090   0.826   4.709
 9381SOL    HW229043   5.173   0.949   4.777
 9382SOL     OW29044   3.087   5.475   6.711
 9382SOL    HW129045   3.151   5.473   6.789
 9382SOL    HW229046   3.009   5.415   6.731
 9383SOL     OW29047   6.393   3.948   1.523
 9383SOL    HW129048   6.308   4.000   1.535
 9383SOL    HW229049   6.471   4.008   1.538
 9384SOL     OW29050   3.749   0.045   0.811
 9384SOL    HW129051   3.676   0.111   0.830
 9384SOL    HW229052   3.836   0.082   0.844
 9385SOL     OW29053   4.195   2.298   4.040
 9385SOL    HW129054   4.123   2.351   4.083
 9385SOL    HW229055   4.230   2.347   3.960
 9386SOL     OW29056   5.416   0.227   0.927
 9386SOL    HW129057   5.512   0.247   0.943
 9386SOL    HW229058   5.405   0.179   0.840
 9387SOL     OW29059   2.382   2.049   6.726
 9387SOL    HW129060   2.306   1.989   6.750
 9387SOL    HW229061   2.466   1.995   6.719
 9388SOL     OW29062   2.596   6.797   4.654
 9388SOL    HW129063   2.659   6.818   4.580
 9388SOL    HW229064   2.547   6.879   4.681
 9389SOL     OW29065   2.318   4.066   2.029
 9389SOL    HW129066   2.271   3.984   2.062
 9389SOL    HW229067   2.394   4.088   2.091
 9390SOL     OW29068   5.988   5.265   3.752
 9390SOL    HW129069   5.943   5.177   3.765
 9390SOL    HW229070   5.975   5.322   3.833
 9391SOL     OW29071   0.645   4.852   3.940
 9391SOL    HW129072   0.643   4.907   3.856
 9391SOL    HW229073   0.705   4.896   4.007
 9392SOL     OW29074   3.838   5.126   2.436
 9392SOL    HW129075   3.780   5.044   2.440
 9392SOL    HW229076   3.871   5.138   2.342
 9393SOL     OW29077   1.788   5.006   7.002
 9393SOL    HW129078   1.709   5.065   6.984
 9393SOL    HW229079   1.845   5.049   0.047
 9394SOL     OW29080   4.404   0.405   0.074
 9394SOL    HW129081   4.369   0.492   0.110
 9394SOL    HW229082   4.495   0.419   0.036
 9395SOL     OW29083   0.928   1.456   1.685
 9395SOL    HW129084   0.945   1.511   1.603
 9395SOL    HW229085   0.958   1.362   1.668
 9396SOL     OW29086   1.146   0.982   6.315
 9396SOL    HW129087   1.240   0.946   6.312
 9396SOL    HW229088   1.089   0.930   6.252
 9397SOL     OW29089   3.301   1.764   5.347
 9397SOL    HW129090   3.289   1.672   5.385
 9397SOL    HW229091   3.218   1.792   5.300
 9398SOL     OW29092   6.580   2.241   6.570
 9398SOL    HW129093   6.515   2.199   6.507
 9398SOL    HW229094   6.671   2.204   6.555
 9399SOL     OW29095   1.323   2.259   4.474
 9399SOL    HW129096   1.368   2.258   4.385
 9399SOL    HW229097   1.382   2.304   4.541
 9400SOL     OW29098   6.250   0.970   1.083
 9400SOL    HW129099   6.285   0.980   1.176
 9400SOL    HW229100   6.154   0.943   1.086
 9401SOL     OW29101   0.018   1.950   3.470
 9401SOL    HW129102   0.041   2.047   3.480
 9401SOL    HW229103   0.061   1.914   3.388
 9402SOL     OW29104   3.324   6.200   5.394
 9402SOL    HW129105   3.327   6.157   5.304
 9402SOL    HW229106   3.374   6.143   5.459
 9403SOL     OW29107   5.341   2.041   1.097
 9403SOL    HW129108   5.413   1.977   1.074
 9403SOL    HW229109   5.321   2.036   1.195
 9404SOL     OW29110   2.722   2.339   0.882
 9404SOL    HW129111   2.745   2.242   0.877
 9404SOL    HW229112   2.764   2.388   0.805
 9405SOL     OW29113   6.104   5.687   5.259
 9405SOL    HW129114   6.124   5.592   5.283
 9405SOL    HW229115   6.171   5.719   5.192
 9406SOL     OW29116   1.437   1.062   1.272
 9406SOL    HW129117   1.522   1.114   1.283
 9406SOL    HW229118   1.459   0.971   1.237
 9407SOL     OW29119   1.548   4.731   4.568
 9407SOL    HW129120   1.559   4.668   4.645
 9407SOL    HW229121   1.527   4.679   4.485
 9408SOL     OW29122   5.919   4.988   3.669
 9408SOL    HW129123   5.954   4.942   3.588
 9408SOL    HW229124   5.819   4.984   3.669
 9409SOL     OW29125   5.945   5.527   1.439
 9409SOL    HW129126   6.039   5.494   1.431
 9409SOL    HW229127   5.946   5.625   1.461
 9410SOL     OW29128   4.456   0.057   0.516
 9410SOL    HW129129   4.430   0.148   0.484
 9410SOL    HW229130   4.524   0.018   0.453
 9411SOL     OW29131   3.172   3.572   4.015
 9411SOL    HW129132   3.085   3.588   3.968
 9411SOL    HW229133   3.246   3.610   3.960
 9412SOL     OW29134   4.084   6.774   1.673
 9412SOL    HW129135   4.061   6.803   1.580
 9412SOL    HW229136   4.183   6.773   1.684
 9413SOL     OW29137   3.847   4.858   3.450
 9413SOL    HW129138   3.922   4.794   3.434
 9413SOL    HW229139   3.780   4.850   3.376
 9414SOL     OW29140   1.961   0.943   2.257
 9414SOL    HW129141   1.893   0.883   2.215
 9414SOL    HW229142   1.915   1.010   2.315
 9415SOL     OW29143   5.078   0.343   0.831
 9415SOL    HW129144   5.159   0.378   0.879
 9415SOL    HW229145   5.005   0.411   0.836
 9416SOL     OW29146   6.437   4.680   5.386
 9416SOL    HW129147   6.435   4.694   5.287
 9416SOL    HW229148   6.364   4.732   5.429
 9417SOL     OW29149   3.804   6.348   3.058
 9417SOL    HW129150   3.723   6.374   3.110
 9417SOL    HW229151   3.852   6.274   3.105
 9418SOL     OW29152   3.013   2.188   4.572
 9418SOL    HW129153   3.003   2.205   4.670
 9418SOL    HW229154   2.952   2.249   4.521
 9419SOL     OW29155   2.538   2.160   6.158
 9419SOL    HW129156   2.528   2.259   6.153
 9419SOL    HW229157   2.561   2.124   6.067
 9420SOL     OW29158   5.595   3.242   5.886
 9420SOL    HW129159   5.604   3.156   5.836
 9420SOL    HW229160   5.510   3.288   5.859
 9421SOL     OW29161   3.599   6.564   0.357
 9421SOL    HW129162   3.690   6.526   0.347
 9421SOL    HW229163   3.540   6.499   0.405
 9422SOL     OW29164   2.151   6.262   5.934
 9422SOL    HW129165   2.155   6.353   5.891
 9422SOL    HW229166   2.143   6.193   5.863
 9423SOL     OW29167   4.644   4.829   0.438
 9423SOL    HW129168   4.664   4.871   0.350
 9423SOL    HW229169   4.573   4.760   0.426
 9424SOL     OW29170   6.151   0.213   3.431
 9424SOL    HW129171   6.244   0.182   3.411
 9424SOL    HW229172   6.119   0.169   3.515
 9425SOL     OW29173   6.741   5.714   1.392
 9425SOL    HW129174   6.828   5.737   1.435
 9425SOL    HW229175   6.666   5.730   1.457
 9426SOL     OW29176   4.234   2.125   6.304
 9426SOL    HW129177   4.261   2.038   6.262
 9426SOL    HW229178   4.261   2.126   6.400
 9427SOL     OW29179   3.769   5.587   2.321
 9427SOL    HW129180   3.746   5.513   2.384
 9427SOL    HW229181   3.867   5.586   2.303
 9428SOL     OW29182   0.354   6.409   4.816
 9428SOL    HW129183   0.267   6.363   4.796
 9428SOL    HW229184   0.427   6.366   4.764
 9429SOL     OW29185   2.874   2.239   4.061
 9429SOL    HW129186   2.783   2.199   4.065
 9429SOL    HW229187   2.891   2.292   4.144
 9430SOL     OW29188   1.397   6.912   4.067
 9430SOL    HW129189   1.475   6.849   4.066
 9430SOL    HW229190   1.410   6.983   3.998
 9431SOL     OW29191   1.286   4.901   4.811
 9431SOL    HW129192   1.296   4.965   4.887
 9431SOL    HW229193   1.210   4.839   4.829
 9432SOL     OW29194   6.794   1.277   3.171
 9432SOL    HW129195   6.706   1.321   3.154
 9432SOL    HW229196   6.837   1.320   3.251
 9433SOL     OW29197   3.797   5.395   2.017
 9433SOL    HW129198   3.738   5.472   1.991
 9433SOL    HW229199   3.891   5.428   2.029
 9434SOL     OW29200   5.012   5.660   5.478
 9434SOL    HW129201   4.934   5.631   5.422
 9434SOL    HW229202   5.015   5.604   5.561
 9435SOL     OW29203   6.532   3.909   6.465
 9435SOL    HW129204   6.478   3.830   6.495
 9435SOL    HW229205   6.570   3.889   6.374
 9436SOL     OW29206   2.874   1.937   2.603
 9436SOL    HW129207   2.806   1.936   2.530
 9436SOL    HW229208   2.964   1.915   2.565
 9437SOL     OW29209   4.876   1.365   3.781
 9437SOL    HW129210   4.783   1.341   3.806
 9437SOL    HW229211   4.931   1.376   3.864
 9438SOL     OW29212   5.254   0.434   3.024
 9438SOL    HW129213   5.222   0.486   2.946
 9438SOL    HW229214   5.353   0.447   3.035
 9439SOL     OW29215   1.880   4.631   1.319
 9439SOL    HW129216   1.861   4.551   1.376
 9439SOL    HW229217   1.976   4.657   1.330
 9440SOL     OW29218   2.150   5.438   5.125
 9440SOL    HW129219   2.144   5.456   5.027
 9440SOL    HW229220   2.068   5.390   5.155
 9441SOL     OW29221   6.649   6.262   4.044
 9441SOL    HW129222   6.679   6.349   4.005
 9441SOL    HW229223   6.729   6.205   4.062
 9442SOL     OW29224   6.425   2.400   0.867
 9442SOL    HW129225   6.395   2.480   0.816
 9442SOL    HW229226   6.475   2.429   0.949
 9443SOL     OW29227   1.831   4.414   1.459
 9443SOL    HW129228   1.854   4.371   1.371
 9443SOL    HW229229   1.776   4.351   1.514
 9444SOL     OW29230   2.162   5.791   5.840
 9444SOL    HW129231   2.232   5.767   5.908
 9444SOL    HW229232   2.097   5.715   5.831
 9445SOL     OW29233   0.971   0.751   4.033
 9445SOL    HW129234   1.016   0.761   4.122
 9445SOL    HW229235   0.876   0.726   4.047
 9446SOL     OW29236   5.480   5.268   3.871
 9446SOL    HW129237   5.529   5.291   3.787
 9446SOL    HW229238   5.381   5.275   3.855
 9447SOL     OW29239   5.696   5.222   2.024
 9447SOL    HW129240   5.711   5.141   1.968
 9447SOL    HW229241   5.607   5.215   2.070
 9448SOL     OW29242   4.712   2.498   6.288
 9448SOL    HW129243   4.788   2.485   6.351
 9448SOL    HW229244   4.730   2.451   6.202
 9449SOL     OW29245   4.610   6.807   3.022
 9449SOL    HW129246   4.665   6.777   2.945
 9449SOL    HW229247   4.662   6.873   3.077
 9450SOL     OW29248   0.716   0.221   2.305
 9450SOL    HW129249   0.777   0.195   2.230
 9450SOL    HW229250   0.621   0.220   2.273
 9451SOL     OW29251   3.970   5.719   0.493
 9451SOL    HW129252   3.914   5.697   0.573
 9451SOL    HW229253   4.003   5.634   0.451
 9452SOL     OW29254   6.299   2.877   6.014
 9452SOL    HW129255   6.260   2.856   5.924
 9452SOL    HW229256   6.279   2.972   6.037
 9453SOL     OW29257   6.779   4.767   2.425
 9453SOL    HW129258   6.723   4.699   2.379
 9453SOL    HW229259   6.866   4.778   2.376
 9454SOL     OW29260   5.246   5.369   0.415
 9454SOL    HW129261   5.177   5.316   0.365
 9454SOL    HW229262   5.211   5.392   0.506
 9455SOL     OW29263   4.893   0.694   1.398
 9455SOL    HW129264   4.987   0.712   1.369
 9455SOL    HW229265   4.840   0.660   1.321
 9456SOL     OW29266   6.425   2.919   2.198
 9456SOL    HW129267   6.396   2.839   2.146
 9456SOL    HW229268   6.512   2.899   2.245
 9457SOL     OW29269   6.641   6.493   4.453
 9457SOL    HW129270   6.571   6.470   4.520
 9457SOL    HW229271   6.666   6.590   4.463
 9458SOL     OW29272   0.055   4.145   0.184
 9458SOL    HW129273   0.080   4.241   0.189
 9458SOL    HW229274   7.016   4.132   0.108
 9459SOL     OW29275   4.959   4.259   5.183
 9459SOL    HW129276   4.913   4.338   5.223
 9459SOL    HW229277   4.906   4.226   5.105
 9460SOL     OW29278   1.931   3.015   3.142
 9460SOL    HW129279   1.928   2.930   3.091
 9460SOL    HW229280   2.025   3.048   3.146
 9461SOL     OW29281   1.755   1.759   1.487
 9461SOL    HW129282   1.665   1.758   1.445
 9461SOL    HW229283   1.795   1.850   1.480
 9462SOL     OW29284   0.045   1.146   5.504
 9462SOL    HW129285   7.013   1.227   5.514
 9462SOL    HW229286   0.136   1.173   5.471
 9463SOL     OW29287   6.697   5.411   0.694
 9463SOL    HW129288   6.606   5.431   0.657
 9463SOL    HW229289   6.712   5.312   0.693
 9464SOL     OW29290   1.117   0.502   2.167
 9464SOL    HW129291   1.139   0.561   2.246
 9464SOL    HW229292   1.198   0.450   2.141
 9465SOL     OW29293   0.340   6.032   6.992
 9465SOL    HW129294   0.325   6.002   0.061
 9465SOL    HW229295   0.370   6.128   6.992
 9466SOL     OW29296   4.157   4.325   6.015
 9466SOL    HW129297   4.100   4.393   5.970
 9466SOL    HW229298   4.107   4.286   6.092
 9467SOL     OW29299   1.563   3.708   1.355
 9467SOL    HW129300   1.603   3.751   1.274
 9467SOL    HW229301   1.522   3.778   1.413
 9468SOL     OW29302   6.456   1.793   1.314
 9468SOL    HW129303   6.507   1.721   1.267
 9468SOL    HW229304   6.396   1.752   1.384
 9469SOL     OW29305   6.229   6.581   1.855
 9469SOL    HW129306   6.312   6.553   1.808
 9469SOL    HW229307   6.186   6.501   1.897
 9470SOL     OW29308   3.785   3.469   1.113
 9470SOL    HW129309   3.708   3.422   1.069
 9470SOL    HW229310   3.871   3.432   1.077
 9471SOL     OW29311   6.476   2.873   4.570
 9471SOL    HW129312   6.453   2.968   4.550
 9471SOL    HW229313   6.500   2.826   4.485
 9472SOL     OW29314   2.555   4.242   6.009
 9472SOL    HW129315   2.578   4.278   6.100
 9472SOL    HW229316   2.619   4.168   5.986
 9473SOL     OW29317   2.966   3.045   1.720
 9473SOL    HW129318   2.987   3.128   1.668
 9473SOL    HW229319   2.935   2.973   1.657
 9474SOL     OW29320   6.261   4.311   0.702
 9474SOL    HW129321   6.295   4.388   0.647
 9474SOL    HW229322   6.205   4.251   0.644
 9475SOL     OW29323   6.051   3.421   6.815
 9475SOL    HW129324   6.086   3.399   6.907
 9475SOL    HW229325   5.972   3.482   6.823
 9476SOL     OW29326   3.827   4.046   1.061
 9476SOL    HW129327   3.824   3.967   1.122
 9476SOL    HW229328   3.914   4.093   1.071
 9477SOL     OW29329   1.403   5.908   0.500
 9477SOL    HW129330   1.380   5.817   0.533
 9477SOL    HW229331   1.319   5.959   0.480
 9478SOL     OW29332   6.928   3.211   5.647
 9478SOL    HW129333   6.980   3.239   5.727
 9478SOL    HW229334   6.879   3.126   5.667
 9479SOL     OW29335   4.563   1.113   1.933
 9479SOL    HW129336   4.630   1.181   1.964
 9479SOL    HW229337   4.472   1.154   1.934
 9480SOL     OW29338   5.306   0.557   0.562
 9480SOL    HW129339   5.393   0.510   0.549
 9480SOL    HW229340   5.289   0.618   0.484
 9481SOL     OW29341   4.375   0.034   3.651
 9481SOL    HW129342   4.400   0.128   3.676
 9481SOL    HW229343   4.276   0.023   3.658
 9482SOL     OW29344   6.198   4.194   5.591
 9482SOL    HW129345   6.250   4.139   5.656
 9482SOL    HW229346   6.187   4.287   5.626
 9483SOL     OW29347   6.042   5.198   6.475
 9483SOL    HW129348   6.130   5.216   6.432
 9483SOL    HW229349   5.996   5.123   6.428
 9484SOL     OW29350   1.592   5.247   4.036
 9484SOL    HW129351   1.691   5.239   4.024
 9484SOL    HW229352   1.571   5.335   4.080
 9485SOL     OW29353   0.489   1.337   5.277
 9485SOL    HW129354   0.562   1.347   5.210
 9485SOL    HW229355   0.505   1.255   5.332
 9486SOL     OW29356   6.825   5.647   6.548
 9486SOL    HW129357   6.738   5.646   6.597
 9486SOL    HW229358   6.847   5.553   6.519
 9487SOL     OW29359   3.287   3.247   3.384
 9487SOL    HW129360   3.262   3.319   3.449
 9487SOL    HW229361   3.295   3.287   3.293
 9488SOL     OW29362   1.215   0.906   2.539
 9488SOL    HW129363   1.160   0.980   2.500
 9488SOL    HW229364   1.199   0.822   2.488
 9489SOL     OW29365   6.823   4.201   6.561
 9489SOL    HW129366   6.881   4.129   6.599
 9489SOL    HW229367   6.878   4.283   6.543
 9490SOL     OW29368   5.647   3.588   5.316
 9490SOL    HW129369   5.727   3.532   5.293
 9490SOL    HW229370   5.656   3.677   5.272
 9491SOL     OW29371   4.814   6.903   2.008
 9491SOL    HW129372   4.785   6.827   1.950
 9491SOL    HW229373   4.799   6.989   1.960
 9492SOL     OW29374   4.887   3.337   3.875
 9492SOL    HW129375   4.963   3.333   3.939
 9492SOL    HW229376   4.874   3.432   3.844
 9493SOL     OW29377   3.011   6.369   2.301
 9493SOL    HW129378   3.005   6.300   2.229
 9493SOL    HW229379   2.922   6.379   2.345
 9494SOL     OW29380   5.105   2.389   2.588
 9494SOL    HW129381   5.196   2.391   2.629
 9494SOL    HW229382   5.036   2.414   2.656
 9495SOL     OW29383   5.071   3.104   1.167
 9495SOL    HW129384   5.049   3.047   1.088
 9495SOL    HW229385   5.089   3.197   1.137
 9496SOL     OW29386   6.325   3.310   1.208
 9496SOL    HW129387   6.368   3.332   1.120
 9496SOL    HW229388   6.243   3.256   1.191
 9497SOL     OW29389   4.804   4.033   4.987
 9497SOL    HW129390   4.786   3.977   4.906
 9497SOL    HW229391   4.785   4.129   4.966
 9498SOL     OW29392   0.789   6.100   5.912
 9498SOL    HW129393   0.747   6.014   5.885
 9498SOL    HW229394   0.884   6.101   5.883
 9499SOL     OW29395   5.810   6.722   3.809
 9499SOL    HW129396   5.713   6.737   3.828
 9499SOL    HW229397   5.828   6.737   3.712
 9500SOL     OW29398   3.111   1.924   0.580
 9500SOL    HW129399   3.026   1.914   0.529
 9500SOL    HW229400   3.116   2.016   0.619
 9501SOL     OW29401   1.603   3.426   5.387
 9501SOL    HW129402   1.546   3.508   5.387
 9501SOL    HW229403   1.685   3.443   5.332
 9502SOL     OW29404   5.859   4.453   3.750
 9502SOL    HW129405   5.958   4.462   3.738
 9502SOL    HW229406   5.815   4.541   3.728
 9503SOL     OW29407   6.281   0.970   0.143
 9503SOL    HW129408   6.220   1.007   0.214
 9503SOL    HW229409   6.243   0.991   0.053
 9504SOL     OW29410   6.635   5.032   2.810
 9504SOL    HW129411   6.666   4.941   2.836
 9504SOL    HW229412   6.709   5.098   2.826
 9505SOL     OW29413   4.879   3.153   0.181
 9505SOL    HW129414   4.850   3.111   0.267
 9505SOL    HW229415   4.975   3.180   0.187
 9506SOL     OW29416   3.731   1.482   1.567
 9506SOL    HW129417   3.787   1.401   1.584
 9506SOL    HW229418   3.777   1.541   1.500
 9507SOL     OW29419   6.644   6.158   1.977
 9507SOL    HW129420   6.694   6.133   1.894
 9507SOL    HW229421   6.576   6.228   1.955
 9508SOL     OW29422   5.298   1.451   2.064
 9508SOL    HW129423   5.200   1.471   2.068
 9508SOL    HW229424   5.345   1.503   2.135
 9509SOL     OW29425   5.985   1.509   3.879
 9509SOL    HW129426   5.961   1.414   3.899
 9509SOL    HW229427   5.957   1.568   3.954
 9510SOL     OW29428   1.546   3.688   2.174
 9510SOL    HW129429   1.571   3.730   2.262
 9510SOL    HW229430   1.529   3.760   2.107
 9511SOL     OW29431   0.615   1.795   0.669
 9511SOL    HW129432   0.576   1.887   0.672
 9511SOL    HW229433   0.605   1.758   0.577
 9512SOL     OW29434   6.179   2.604   1.472
 9512SOL    HW129435   6.134   2.611   1.561
 9512SOL    HW229436   6.252   2.672   1.467
 9513SOL     OW29437   4.822   3.990   4.697
 9513SOL    HW129438   4.806   4.087   4.680
 9513SOL    HW229439   4.849   3.944   4.612
 9514SOL     OW29440   3.452   3.423   1.053
 9514SOL    HW129441   3.511   3.349   1.021
 9514SOL    HW229442   3.384   3.387   1.116
 9515SOL     OW29443   6.933   6.271   2.979
 9515SOL    HW129444   6.877   6.227   2.909
 9515SOL    HW229445   7.006   6.209   3.007
 9516SOL     OW29446   0.682   3.316   6.856
 9516SOL    HW129447   0.749   3.307   6.782
 9516SOL    HW229448   0.603   3.369   6.823
 9517SOL     OW29449   1.129   6.643   1.865
 9517SOL    HW129450   1.104   6.555   1.825
 9517SOL    HW229451   1.216   6.634   1.913
 9518SOL     OW29452   0.219   0.543   1.353
 9518SOL    HW129453   0.139   0.546   1.294
 9518SOL    HW229454   0.245   0.447   1.369
 9519SOL     OW29455   1.848   2.873   6.029
 9519SOL    HW129456   1.906   2.812   5.975
 9519SOL    HW229457   1.775   2.910   5.970
 9520SOL     OW29458   4.404   6.997   2.067
 9520SOL    HW129459   4.368   0.060   2.037
 9520SOL    HW229460   4.328   6.937   2.093
 9521SOL     OW29461   5.321   5.011   3.309
 9521SOL    HW129462   5.360   5.101   3.294
 9521SOL    HW229463   5.325   4.958   3.225
 9522SOL     OW29464   3.347   5.352   5.889
 9522SOL    HW129465   3.315   5.416   5.820
 9522SOL    HW229466   3.269   5.302   5.927
 9523SOL     OW29467   1.539   0.061   5.129
 9523SOL    HW129468   1.464   7.021   5.121
 9523SOL    HW229469   1.539   0.101   5.221
 9524SOL     OW29470   6.191   3.341   0.334
 9524SOL    HW129471   6.261   3.306   0.396
 9524SOL    HW229472   6.141   3.416   0.377
 9525SOL     OW29473   3.918   0.080   4.158
 9525SOL    HW129474   4.002   0.027   4.169
 9525SOL    HW229475   3.924   0.164   4.213
 9526SOL     OW29476   4.617   5.241   0.318
 9526SOL    HW129477   4.539   5.225   0.379
 9526SOL    HW229478   4.617   5.172   0.245
 9527SOL     OW29479   6.779   1.304   0.523
 9527SOL    HW129480   6.745   1.387   0.568
 9527SOL    HW229481   6.864   1.275   0.567
 9528SOL     OW29482   5.680   1.146   1.366
 9528SOL    HW129483   5.736   1.064   1.366
 9528SOL    HW229484   5.629   1.152   1.452
 9529SOL     OW29485   1.971   2.712   5.843
 9529SOL    HW129486   1.994   2.782   5.776
 9529SOL    HW229487   2.023   2.629   5.824
 9530SOL     OW29488   2.086   1.218   3.803
 9530SOL    HW129489   2.150   1.293   3.820
 9530SOL    HW229490   2.004   1.254   3.757
 9531SOL     OW29491   2.679   6.234   3.832
 9531SOL    HW129492   2.585   6.219   3.802
 9531SOL    HW229493   2.714   6.318   3.791
 9532SOL     OW29494   3.517   1.151   1.385
 9532SOL    HW129495   3.500   1.053   1.378
 9532SOL    HW229496   3.535   1.175   1.480
 9533SOL     OW29497   0.383   1.739   4.274
 9533SOL    HW129498   0.361   1.647   4.305
 9533SOL    HW229499   0.338   1.806   4.333
 9534SOL     OW29500   5.216   0.869   4.038
 9534SOL    HW129501   5.120   0.840   4.041
 9534SOL    HW229502   5.229   0.949   4.097
 9535SOL     OW29503   2.741   1.614   4.613
 9535SOL    HW129504   2.788   1.700   4.595
 9535SOL    HW229505   2.642   1.628   4.605
 9536SOL     OW29506   2.102   5.547   6.835
 9536SOL    HW129507   2.094   5.571   6.932
 9536SOL    HW229508   2.118   5.630   6.781
 9537SOL     OW29509   2.081   7.021   0.386
 9537SOL    HW129510   2.094   6.958   0.310
 9537SOL    HW229511   2.163   7.022   0.443
 9538SOL     OW29512   5.697   4.220   2.949
 9538SOL    HW129513   5.759   4.144   2.967
 9538SOL    HW229514   5.744   4.306   2.966
 9539SOL     OW29515   0.818   3.496   7.013
 9539SOL    HW129516   0.771   3.420   6.968
 9539SOL    HW229517   0.917   3.477   7.015
 9540SOL     OW29518   5.848   3.097   5.307
 9540SOL    HW129519   5.852   3.180   5.364
 9540SOL    HW229520   5.762   3.049   5.324
 9541SOL     OW29521   6.307   1.983   3.546
 9541SOL    HW129522   6.395   1.936   3.554
 9541SOL    HW229523   6.321   2.075   3.508
 9542SOL     OW29524   4.962   3.558   4.521
 9542SOL    HW129525   4.909   3.498   4.582
 9542SOL    HW229526   5.039   3.597   4.571
 9543SOL     OW29527   4.139   1.901   0.527
 9543SOL    HW129528   4.054   1.863   0.491
 9543SOL    HW229529   4.168   1.978   0.469
 9544SOL     OW29530   5.134   0.141   1.493
 9544SOL    HW129531   5.105   0.235   1.475
 9544SOL    HW229532   5.061   0.092   1.542
 9545SOL     OW29533   1.400   6.611   4.528
 9545SOL    HW129534   1.310   6.605   4.485
 9545SOL    HW229535   1.398   6.565   4.617
 9546SOL     OW29536   2.987   3.919   1.849
 9546SOL    HW129537   2.975   3.828   1.888
 9546SOL    HW229538   3.035   3.977   1.914
 9547SOL     OW29539   5.395   6.256   2.506
 9547SOL    HW129540   5.454   6.200   2.448
 9547SOL    HW229541   5.388   6.349   2.468
 9548SOL     OW29542   6.115   6.375   2.013
 9548SOL    HW129543   6.036   6.338   2.061
 9548SOL    HW229544   6.197   6.326   2.042
 9549SOL     OW29545   1.951   5.868   6.943
 9549SOL    HW129546   1.855   5.861   6.971
 9549SOL    HW229547   2.005   5.800   6.993
 9550SOL     OW29548   1.616   0.278   0.323
 9550SOL    HW129549   1.642   0.186   0.352
 9550SOL    HW229550   1.696   0.338   0.324
 9551SOL     OW29551   1.166   5.679   4.577
 9551SOL    HW129552   1.155   5.593   4.626
 9551SOL    HW229553   1.107   5.680   4.497
 9552SOL     OW29554   6.935   5.427   3.073
 9552SOL    HW129555   0.008   5.412   3.063
 9552SOL    HW229556   6.918   5.523   3.091
 9553SOL     OW29557   5.884   4.543   6.594
 9553SOL    HW129558   5.818   4.618   6.607
 9553SOL    HW229559   5.836   4.465   6.554
 9554SOL     OW29560   1.429   2.546   1.651
 9554SOL    HW129561   1.387   2.482   1.716
 9554SOL    HW229562   1.452   2.496   1.568
 9555SOL     OW29563   0.088   2.421   6.760
 9555SOL    HW129564   0.046   2.450   6.674
 9555SOL    HW229565   0.181   2.387   6.742
 9556SOL     OW29566   6.002   6.897   1.218
 9556SOL    HW129567   6.015   6.865   1.312
 9556SOL    HW229568   5.921   6.853   1.178
 9557SOL     OW29569   5.067   1.835   1.965
 9557SOL    HW129570   5.137   1.819   2.035
 9557SOL    HW229571   5.101   1.900   1.897
 9558SOL     OW29572   6.916   3.842   1.469
 9558SOL    HW129573   6.862   3.922   1.492
 9558SOL    HW229574   6.882   3.763   1.521
 9559SOL     OW29575   0.893   4.860   3.571
 9559SOL    HW129576   0.926   4.934   3.512
 9559SOL    HW229577   0.841   4.795   3.516
 9560SOL     OW29578   3.687   1.944   5.928
 9560SOL    HW129579   3.641   2.001   5.995
 9560SOL    HW229580   3.721   1.861   5.972
 9561SOL     OW29581   3.581   5.020   6.774
 9561SOL    HW129582   3.590   5.119   6.766
 9561SOL    HW229583   3.485   4.996   6.788
 9562SOL     OW29584   6.637   5.480   3.758
 9562SOL    HW129585   6.669   5.425   3.836
 9562SOL    HW229586   6.707   5.482   3.687
 9563SOL     OW29587   0.748   0.726   6.222
 9563SOL    HW129588   0.701   0.675   6.294
 9563SOL    HW229589   0.688   0.799   6.188
 9564SOL     OW29590   0.398   0.261   5.934
 9564SOL    HW129591   0.326   0.194   5.916
 9564SOL    HW229592   0.486   0.214   5.945
 9565SOL     OW29593   2.772   5.332   5.227
 9565SOL    HW129594   2.793   5.237   5.200
 9565SOL    HW229595   2.754   5.335   5.325
 9566SOL     OW29596   2.519   5.798   5.079
 9566SOL    HW129597   2.426   5.788   5.113
 9566SOL    HW229598   2.524   5.873   5.014
 9567SOL     OW29599   6.134   5.483   4.203
 9567SOL    HW129600   6.128   5.518   4.110
 9567SOL    HW229601   6.155   5.557   4.266
 9568SOL     OW29602   6.162   3.263   5.362
 9568SOL    HW129603   6.156   3.187   5.296
 9568SOL    HW229604   6.200   3.343   5.316
 9569SOL     OW29605   5.189   0.107   1.130
 9569SOL    HW129606   5.261   0.119   1.061
 9569SOL    HW229607   5.225   0.130   1.220
 9570SOL     OW29608   0.376   2.893   6.476
 9570SOL    HW129609   0.462   2.937   6.502
 9570SOL    HW229610   0.321   2.876   6.557
 9571SOL     OW29611   3.597   1.620   0.412
 9571SOL    HW129612   3.554   1.548   0.468
 9571SOL    HW229613   3.542   1.703   0.418
 9572SOL     OW29614   0.586   3.338   0.774
 9572SOL    HW129615   0.607   3.382   0.861
 9572SOL    HW229616   0.654   3.365   0.705
 9573SOL     OW29617   4.674   1.891   1.955
 9573SOL    HW129618   4.642   1.797   1.942
 9573SOL    HW229619   4.649   1.923   2.047
 9574SOL     OW29620   1.737   1.440   3.981
 9574SOL    HW129621   1.655   1.478   4.023
 9574SOL    HW229622   1.768   1.361   4.034
 9575SOL     OW29623   3.413   1.621   2.850
 9575SOL    HW129624   3.389   1.718   2.852
 9575SOL    HW229625   3.382   1.582   2.763
 9576SOL     OW29626   4.027   3.297   5.971
 9576SOL    HW129627   4.035   3.198   5.957
 9576SOL    HW229628   4.018   3.316   6.068
 9577SOL     OW29629   0.602   5.262   3.548
 9577SOL    HW129630   0.611   5.326   3.472
 9577SOL    HW229631   0.568   5.174   3.514
 9578SOL     OW29632   6.709   4.816   0.858
 9578SOL    HW129633   6.696   4.721   0.832
 9578SOL    HW229634   6.630   4.847   0.911
 9579SOL     OW29635   1.180   4.824   2.851
 9579SOL    HW129636   1.171   4.898   2.783
 9579SOL    HW229637   1.261   4.770   2.830
 9580SOL     OW29638   3.933   4.083   5.110
 9580SOL    HW129639   3.868   4.159   5.111
 9580SOL    HW229640   3.953   4.058   5.015
 9581SOL     OW29641   0.789   0.062   6.512
 9581SOL    HW129642   0.807   0.112   6.427
 9581SOL    HW229643   0.756   6.996   6.491
 9582SOL     OW29644   4.120   5.803   3.535
 9582SOL    HW129645   4.219   5.819   3.536
 9582SOL    HW229646   4.079   5.854   3.459
 9583SOL     OW29647   0.997   4.574   2.854
 9583SOL    HW129648   1.037   4.665   2.862
 9583SOL    HW229649   1.069   4.504   2.859
 9584SOL     OW29650   5.439   4.305   6.674
 9584SOL    HW129651   5.496   4.348   6.603
 9584SOL    HW229652   5.497   4.255   6.738
 9585SOL     OW29653   6.242   0.947   2.781
 9585SOL    HW129654   6.182   0.917   2.707
 9585SOL    HW229655   6.286   0.866   2.822
 9586SOL     OW29656   4.402   4.623   2.412
 9586SOL    HW129657   4.369   4.664   2.328
 9586SOL    HW229658   4.473   4.556   2.392
 9587SOL     OW29659   4.519   6.421   1.547
 9587SOL    HW129660   4.554   6.351   1.486
 9587SOL    HW229661   4.473   6.378   1.625
 9588SOL     OW29662   6.412   1.312   3.797
 9588SOL    HW129663   6.360   1.398   3.801
 9588SOL    HW229664   6.435   1.291   3.702
 9589SOL     OW29665   4.217   1.791   5.144
 9589SOL    HW129666   4.134   1.738   5.166
 9589SOL    HW229667   4.194   1.888   5.142
 9590SOL     OW29668   0.349   4.970   4.543
 9590SOL    HW129669   0.389   4.962   4.635
 9590SOL    HW229670   0.319   4.880   4.511
 9591SOL     OW29671   6.986   4.759   2.245
 9591SOL    HW129672   0.048   4.727   2.208
 9591SOL    HW229673   6.912   4.734   2.182
 9592SOL     OW29674   4.078   5.337   0.715
 9592SOL    HW129675   4.096   5.408   0.646
 9592SOL    HW229676   4.151   5.269   0.711
 9593SOL     OW29677   2.203   2.523   3.783
 9593SOL    HW129678   2.168   2.429   3.775
 9593SOL    HW229679   2.167   2.579   3.709
 9594SOL     OW29680   5.758   0.127   0.435
 9594SOL    HW129681   5.753   0.193   0.360
 9594SOL    HW229682   5.765   0.176   0.522
 9595SOL     OW29683   2.263   4.828   5.422
 9595SOL    HW129684   2.167   4.858   5.413
 9595SOL    HW229685   2.290   4.778   5.340
 9596SOL     OW29686   5.638   4.880   2.422
 9596SOL    HW129687   5.660   4.912   2.514
 9596SOL    HW229688   5.554   4.924   2.390
 9597SOL     OW29689   1.558   4.152   1.886
 9597SOL    HW129690   1.514   4.233   1.848
 9597SOL    HW229691   1.561   4.159   1.986
 9598SOL     OW29692   0.345   6.333   5.235
 9598SOL    HW129693   0.411   6.265   5.203
 9598SOL    HW229694   0.323   6.395   5.159
 9599SOL     OW29695   3.592   2.107   5.600
 9599SOL    HW129696   3.496   2.127   5.581
 9599SOL    HW229697   3.621   2.157   5.682
 9600SOL     OW29698   1.525   5.503   6.883
 9600SOL    HW129699   1.583   5.476   6.959
 9600SOL    HW229700   1.568   5.579   6.834
 9601SOL     OW29701   1.499   6.968   4.657
 9601SOL    HW129702   1.518   0.041   4.659
 9601SOL    HW229703   1.489   6.939   4.562
 9602SOL     OW29704   0.995   5.489   6.074
 9602SOL    HW129705   1.028   5.579   6.046
 9602SOL    HW229706   0.902   5.475   6.040
 9603SOL     OW29707   1.502   5.267   2.204
 9603SOL    HW129708   1.448   5.278   2.287
 9603SOL    HW229709   1.485   5.344   2.142
 9604SOL     OW29710   6.841   0.579   6.026
 9604SOL    HW129711   6.795   0.604   5.941
 9604SOL    HW229712   6.903   0.503   6.010
 9605SOL     OW29713   3.624   4.341   0.827
 9605SOL    HW129714   3.535   4.374   0.857
 9605SOL    HW229715   3.625   4.241   0.829
 9606SOL     OW29716   6.488   1.769   4.623
 9606SOL    HW129717   6.485   1.866   4.600
 9606SOL    HW229718   6.569   1.728   4.583
 9607SOL     OW29719   0.007   3.269   3.161
 9607SOL    HW129720   0.049   3.280   3.251
 9607SOL    HW229721   0.015   3.354   3.110
 9608SOL     OW29722   5.390   0.923   1.271
 9608SOL    HW129723   5.345   0.843   1.310
 9608SOL    HW229724   5.471   0.894   1.220
 9609SOL     OW29725   1.000   1.864   4.219
 9609SOL    HW129726   1.081   1.815   4.186
 9609SOL    HW229727   0.926   1.799   4.236
 9610SOL     OW29728   4.847   1.189   6.323
 9610SOL    HW129729   4.882   1.239   6.402
 9610SOL    HW229730   4.861   1.244   6.240
 9611SOL     OW29731   4.908   5.526   1.583
 9611SOL    HW129732   4.842   5.601   1.590
 9611SOL    HW229733   4.968   5.542   1.504
 9612SOL     OW29734   4.843   3.828   3.601
 9612SOL    HW129735   4.849   3.864   3.694
 9612SOL    HW229736   4.773   3.878   3.550
 9613SOL     OW29737   5.305   0.752   5.227
 9613SOL    HW129738   5.237   0.823   5.206
 9613SOL    HW229739   5.388   0.769   5.174
 9614SOL     OW29740   3.401   2.823   0.015
 9614SOL    HW129741   3.329   2.787   0.075
 9614SOL    HW229742   3.360   2.874   6.966
 9615SOL     OW29743   6.492   6.437   3.663
 9615SOL    HW129744   6.517   6.522   3.711
 9615SOL    HW229745   6.421   6.390   3.715
 9616SOL     OW29746   6.960   2.079   1.290
 9616SOL    HW129747   6.947   2.166   1.244
 9616SOL    HW229748   6.992   2.095   1.383
 9617SOL     OW29749   0.837   3.795   3.668
 9617SOL    HW129750   0.762   3.804   3.603
 9617SOL    HW229751   0.899   3.872   3.657
 9618SOL     OW29752   5.225   4.025   1.960
 9618SOL    HW129753   5.284   3.975   2.023
 9618SOL    HW229754   5.259   4.119   1.950
 9619SOL     OW29755   1.156   0.445   1.136
 9619SOL    HW129756   1.216   0.515   1.097
 9619SOL    HW229757   1.153   0.456   1.236
 9620SOL     OW29758   3.847   1.253   6.110
 9620SOL    HW129759   3.766   1.271   6.166
 9620SOL    HW229760   3.919   1.318   6.135
 9621SOL     OW29761   6.458   1.022   0.636
 9621SOL    HW129762   6.457   1.047   0.733
 9621SOL    HW229763   6.397   0.944   0.622
 9622SOL     OW29764   6.709   6.795   4.846
 9622SOL    HW129765   6.613   6.809   4.823
 9622SOL    HW229766   6.720   6.797   4.946
 9623SOL     OW29767   2.406   5.835   6.305
 9623SOL    HW129768   2.426   5.906   6.238
 9623SOL    HW229769   2.324   5.859   6.357
 9624SOL     OW29770   4.222   4.879   6.665
 9624SOL    HW129771   4.250   4.783   6.667
 9624SOL    HW229772   4.142   4.891   6.724
 9625SOL     OW29773   5.445   4.673   5.933
 9625SOL    HW129774   5.487   4.583   5.945
 9625SOL    HW229775   5.424   4.687   5.836
 9626SOL     OW29776   2.698   2.738   6.591
 9626SOL    HW129777   2.696   2.702   6.497
 9626SOL    HW229778   2.792   2.764   6.614
 9627SOL     OW29779   6.715   5.999   0.055
 9627SOL    HW129780   6.643   6.068   0.046
 9627SOL    HW229781   6.703   5.929   7.010
 9628SOL     OW29782   6.203   1.523   5.430
 9628SOL    HW129783   6.206   1.423   5.433
 9628SOL    HW229784   6.199   1.559   5.523
 9629SOL     OW29785   0.895   5.729   3.978
 9629SOL    HW129786   0.834   5.664   4.023
 9629SOL    HW229787   0.851   5.764   3.896
 9630SOL     OW29788   6.509   0.215   5.949
 9630SOL    HW129789   6.465   0.146   5.892
 9630SOL    HW229790   6.512   0.302   5.900
 9631SOL     OW29791   4.549   6.155   0.497
 9631SOL    HW129792   4.603   6.213   0.558
 9631SOL    HW229793   4.609   6.090   0.451
 9632SOL     OW29794   2.842   6.000   2.633
 9632SOL    HW129795   2.817   6.095   2.617
 9632SOL    HW229796   2.891   5.965   2.554
 9633SOL     OW29797   3.160   2.984   5.436
 9633SOL    HW129798   3.210   2.961   5.519
 9633SOL    HW229799   3.195   2.929   5.360
 9634SOL     OW29800   6.296   4.544   3.349
 9634SOL    HW129801   6.321   4.619   3.411
 9634SOL    HW229802   6.200   4.520   3.362
 9635SOL     OW29803   0.635   5.370   4.374
 9635SOL    HW129804   0.539   5.389   4.354
 9635SOL    HW229805   0.691   5.447   4.345
 9636SOL     OW29806   4.973   3.879   3.838
 9636SOL    HW129807   4.952   3.801   3.897
 9636SOL    HW229808   5.066   3.911   3.858
 9637SOL     OW29809   3.396   2.797   6.647
 9637SOL    HW129810   3.380   2.699   6.647
 9637SOL    HW229811   3.406   2.829   6.552
 9638SOL     OW29812   0.474   4.514   6.150
 9638SOL    HW129813   0.517   4.510   6.240
 9638SOL    HW229814   0.419   4.432   6.135
 9639SOL     OW29815   5.411   3.093   1.833
 9639SOL    HW129816   5.462   3.053   1.908
 9639SOL    HW229817   5.468   3.096   1.751
 9640SOL     OW29818   3.504   0.150   3.464
 9640SOL    HW129819   3.534   0.173   3.557
 9640SOL    HW229820   3.510   0.052   3.450
 9641SOL     OW29821   0.777   2.260   4.590
 9641SOL    HW129822   0.752   2.348   4.629
 9641SOL    HW229823   0.874   2.243   4.607
 9642SOL     OW29824   0.607   2.405   4.949
 9642SOL    HW129825   0.627   2.427   5.045
 9642SOL    HW229826   0.674   2.450   4.890
 9643SOL     OW29827   6.342   5.231   4.441
 9643SOL    HW129828   6.401   5.151   4.447
 9643SOL    HW229829   6.394   5.309   4.407
 9644SOL     OW29830   0.703   4.709   3.391
 9644SOL    HW129831   0.635   4.635   3.391
 9644SOL    HW229832   0.660   4.795   3.365
 9645SOL     OW29833   0.491   5.024   0.277
 9645SOL    HW129834   0.510   4.926   0.275
 9645SOL    HW229835   0.574   5.075   0.252
 9646SOL     OW29836   2.797   4.986   0.735
 9646SOL    HW129837   2.868   4.952   0.796
 9646SOL    HW229838   2.718   4.924   0.737
 9647SOL     OW29839   5.426   6.885   3.046
 9647SOL    HW129840   5.388   6.961   2.994
 9647SOL    HW229841   5.352   6.828   3.082
 9648SOL     OW29842   3.686   2.275   0.970
 9648SOL    HW129843   3.746   2.297   1.046
 9648SOL    HW229844   3.663   2.359   0.920
 9649SOL     OW29845   0.282   5.821   0.604
 9649SOL    HW129846   0.304   5.751   0.672
 9649SOL    HW229847   0.364   5.874   0.583
 9650SOL     OW29848   6.927   5.452   5.099
 9650SOL    HW129849   6.913   5.470   5.196
 9650SOL    HW229850   6.849   5.401   5.062
 9651SOL     OW29851   3.512   1.204   6.797
 9651SOL    HW129852   3.581   1.216   6.869
 9651SOL    HW229853   3.484   1.294   6.764
 9652SOL     OW29854   0.095   3.697   0.305
 9652SOL    HW129855   0.101   3.709   0.206
 9652SOL    HW229856   0.122   3.604   0.329
 9653SOL     OW29857   5.617   3.769   5.087
 9653SOL    HW129858   5.661   3.697   5.034
 9653SOL    HW229859   5.520   3.773   5.063
 9654SOL     OW29860   4.142   3.440   4.716
 9654SOL    HW129861   4.237   3.410   4.719
 9654SOL    HW229862   4.133   3.518   4.655
 9655SOL     OW29863   4.870   0.176   0.873
 9655SOL    HW129864   4.956   0.224   0.857
 9655SOL    HW229865   4.796   0.225   0.826
 9656SOL     OW29866   5.361   4.684   5.655
 9656SOL    HW129867   5.308   4.768   5.641
 9656SOL    HW229868   5.302   4.605   5.637
 9657SOL     OW29869   5.273   5.275   2.530
 9657SOL    HW129870   5.243   5.191   2.577
 9657SOL    HW229871   5.366   5.261   2.494
 9658SOL     OW29872   5.310   1.049   2.785
 9658SOL    HW129873   5.286   1.107   2.707
 9658SOL    HW229874   5.378   1.097   2.841
 9659SOL     OW29875   3.944   3.095   0.673
 9659SOL    HW129876   3.865   3.154   0.691
 9659SOL    HW229877   3.918   2.999   0.682
 9660SOL     OW29878   2.533   0.066   1.801
 9660SOL    HW129879   2.455   0.091   1.744
 9660SOL    HW229880   2.552   6.994   1.791
 9661SOL     OW29881   3.868   4.055   2.467
 9661SOL    HW129882   3.950   3.998   2.466
 9661SOL    HW229883   3.800   4.016   2.529
 9662SOL     OW29884   3.949   0.754   4.926
 9662SOL    HW129885   3.932   0.656   4.922
 9662SOL    HW229886   3.892   0.801   4.858
 9663SOL     OW29887   1.319   5.899   2.562
 9663SOL    HW129888   1.380   5.970   2.526
 9663SOL    HW229889   1.304   5.915   2.660
 9664SOL     OW29890   2.013   4.558   2.960
 9664SOL    HW129891   2.073   4.566   3.041
 9664SOL    HW229892   2.069   4.552   2.878
 9665SOL     OW29893   6.159   3.763   6.385
 9665SOL    HW129894   6.097   3.700   6.431
 9665SOL    HW229895   6.236   3.712   6.347
 9666SOL     OW29896   5.238   4.267   1.018
 9666SOL    HW129897   5.174   4.202   0.976
 9666SOL    HW229898   5.278   4.325   0.948
 9667SOL     OW29899   6.251   6.325   0.161
 9667SOL    HW129900   6.294   6.390   0.099
 9667SOL    HW229901   6.219   6.373   0.243
 9668SOL     OW29902   2.250   0.223   0.617
 9668SOL    HW129903   2.258   0.210   0.518
 9668SOL    HW229904   2.324   0.281   0.649
 9669SOL     OW29905   3.308   0.009   0.266
 9669SOL    HW129906   3.333   6.938   0.267
 9669SOL    HW229907   3.208   0.018   0.276
 9670SOL     OW29908   0.759   0.004   2.525
 9670SOL    HW129909   0.678   0.001   2.584
 9670SOL    HW229910   0.739   0.059   2.444
 9671SOL     OW29911   1.129   5.939   6.309
 9671SOL    HW129912   1.199   6.003   6.342
 9671SOL    HW229913   1.045   5.954   6.360
 9672SOL     OW29914   0.448   4.507   5.279
 9672SOL    HW129915   0.415   4.582   5.221
 9672SOL    HW229916   0.404   4.513   5.368
 9673SOL     OW29917   2.324   2.820   5.909
 9673SOL    HW129918   2.379   2.791   5.831
 9673SOL    HW229919   2.270   2.901   5.883
 9674SOL     OW29920   1.688   6.986   3.764
 9674SOL    HW129921   1.776   0.007   3.750
 9674SOL    HW229922   1.704   6.888   3.776
 9675SOL     OW29923   6.538   4.094   6.126
 9675SOL    HW129924   6.454   4.109   6.076
 9675SOL    HW229925   6.595   4.176   6.121
 9676SOL     OW29926   0.979   3.022   6.494
 9676SOL    HW129927   1.056   3.015   6.558
 9676SOL    HW229928   0.911   2.952   6.517
 9677SOL     OW29929   0.570   4.948   2.570
 9677SOL    HW129930   0.478   4.909   2.573
 9677SOL    HW229931   0.606   4.940   2.478
 9678SOL     OW29932   5.008   3.368   6.469
 9678SOL    HW129933   4.966   3.282   6.495
 9678SOL    HW229934   4.939   3.440   6.467
 9679SOL     OW29935   1.683   1.141   4.632
 9679SOL    HW129936   1.767   1.195   4.637
 9679SOL    HW229937   1.673   1.105   4.539
 9680SOL     OW29938   4.492   6.968   2.327
 9680SOL    HW129939   4.460   7.004   2.240
 9680SOL    HW229940   4.573   6.911   2.312
 9681SOL     OW29941   0.349   2.560   1.219
 9681SOL    HW129942   0.389   2.611   1.295
 9681SOL    HW229943   0.295   2.484   1.255
 9682SOL     OW29944   3.687   6.204   5.261
 9682SOL    HW129945   3.618   6.216   5.190
 9682SOL    HW229946   3.698   6.107   5.282
 9683SOL     OW29947   3.318   5.807   3.897
 9683SOL    HW129948   3.373   5.747   3.839
 9683SOL    HW229949   3.257   5.862   3.840
 9684SOL     OW29950   1.079   2.629   6.433
 9684SOL    HW129951   1.112   2.537   6.412
 9684SOL    HW229952   1.154   2.695   6.419
 9685SOL     OW29953   3.678   4.587   1.638
 9685SOL    HW129954   3.652   4.620   1.729
 9685SOL    HW229955   3.630   4.501   1.620
 9686SOL     OW29956   0.873   1.693   5.683
 9686SOL    HW129957   0.816   1.747   5.745
 9686SOL    HW229958   0.905   1.611   5.731
 9687SOL     OW29959   5.711   0.761   3.872
 9687SOL    HW129960   5.706   0.664   3.894
 9687SOL    HW229961   5.804   0.794   3.885
 9688SOL     OW29962   0.495   5.214   2.362
 9688SOL    HW129963   0.466   5.302   2.325
 9688SOL    HW229964   0.576   5.182   2.313
 9689SOL     OW29965   1.725   5.290   1.306
 9689SOL    HW129966   1.743   5.386   1.329
 9689SOL    HW229967   1.691   5.242   1.387
 9690SOL     OW29968   6.214   4.797   4.444
 9690SOL    HW129969   6.228   4.889   4.482
 9690SOL    HW229970   6.251   4.793   4.352
 9691SOL     OW29971   3.686   3.809   2.202
 9691SOL    HW129972   3.654   3.888   2.255
 9691SOL    HW229973   3.711   3.735   2.263
 9692SOL     OW29974   5.945   5.131   0.613
 9692SOL    HW129975   5.984   5.220   0.637
 9692SOL    HW229976   5.862   5.116   0.667
 9693SOL     OW29977   4.291   3.523   6.479
 9693SOL    HW129978   4.294   3.436   6.528
 9693SOL    HW229979   4.381   3.541   6.438
 9694SOL     OW29980   2.884   6.121   0.791
 9694SOL    HW129981   2.953   6.179   0.834
 9694SOL    HW229982   2.834   6.173   0.722
 9695SOL     OW29983   2.163   2.750   3.556
 9695SOL    HW129984   2.122   2.824   3.610
 9695SOL    HW229985   2.095   2.678   3.543
 9696SOL     OW29986   4.902   3.978   3.307
 9696SOL    HW129987   4.855   3.975   3.394
 9696SOL    HW229988   4.907   4.072   3.274
 9697SOL     OW29989   6.195   0.079   2.342
 9697SOL    HW129990   6.188   0.084   2.441
 9697SOL    HW229991   6.274   0.022   2.317
 9698SOL     OW29992   6.808   2.572   1.044
 9698SOL    HW129993   6.865   2.512   0.988
 9698SOL    HW229994   6.774   2.648   0.988
 9699SOL     OW29995   1.619   6.652   2.180
 9699SOL    HW129996   1.597   6.694   2.268
 9699SOL    HW229997   1.539   6.653   2.121
 9700SOL     OW29998   6.051   0.486   5.829
 9700SOL    HW129999   6.084   0.394   5.809
 9700SOL    HW230000   6.128   0.549   5.837
 9701SOL     OW30001   5.885   3.910   6.678
 9701SOL    HW130002   5.928   3.887   6.765
 9701SOL    HW230003   5.794   3.869   6.674
 9702SOL     OW30004   2.998   3.680   1.959
 9702SOL    HW130005   3.003   3.596   1.905
 9702SOL    HW230006   2.936   3.666   2.036
 9703SOL     OW30007   0.043   4.722   2.632
 9703SOL    HW130008   0.062   4.731   2.534
 9703SOL    HW230009   0.008   4.809   2.667
 9704SOL     OW30010   0.695   5.134   2.212
 9704SOL    HW130011   0.786   5.176   2.218
 9704SOL    HW230012   0.702   5.038   2.240
 9705SOL     OW30013   6.938   4.056   5.655
 9705SOL    HW130014   6.897   3.975   5.697
 9705SOL    HW230015   0.007   4.066   5.687
 9706SOL     OW30016   0.532   6.868   2.338
 9706SOL    HW130017   0.464   6.897   2.272
 9706SOL    HW230018   0.622   6.862   2.293
 9707SOL     OW30019   1.189   4.746   2.000
 9707SOL    HW130020   1.156   4.673   2.060
 9707SOL    HW230021   1.288   4.751   2.005
 9708SOL     OW30022   2.646   1.062   1.693
 9708SOL    HW130023   2.633   0.986   1.757
 9708SOL    HW230024   2.705   1.131   1.735
 9709SOL     OW30025   4.244   1.453   2.200
 9709SOL    HW130026   4.226   1.448   2.101
 9709SOL    HW230027   4.301   1.375   2.227
 9710SOL     OW30028   4.963   4.448   4.475
 9710SOL    HW130029   4.868   4.477   4.465
 9710SOL    HW230030   5.022   4.528   4.483
 9711SOL     OW30031   2.956   0.059   6.961
 9711SOL    HW130032   3.000   7.022   6.896
 9711SOL    HW230033   2.896   0.122   6.911
 9712SOL     OW30034   4.694   0.020   5.554
 9712SOL    HW130035   4.682   6.998   5.642
 9712SOL    HW230036   4.605   0.035   5.512
 9713SOL     OW30037   1.079   0.567   3.022
 9713SOL    HW130038   0.992   0.520   3.041
 9713SOL    HW230039   1.078   0.657   3.066
 9714SOL     OW30040   2.408   2.536   3.958
 9714SOL    HW130041   2.440   2.618   4.005
 9714SOL    HW230042   2.324   2.557   3.908
 9715SOL     OW30043   6.893   1.593   6.366
 9715SOL    HW130044   6.987   1.568   6.342
 9715SOL    HW230045   6.841   1.510   6.388
 9716SOL     OW30046   1.883   6.057   0.385
 9716SOL    HW130047   1.926   6.123   0.446
 9716SOL    HW230048   1.784   6.055   0.403
 9717SOL     OW30049   4.445   2.067   6.062
 9717SOL    HW130050   4.533   2.049   6.017
 9717SOL    HW230051   4.388   1.986   6.058
 9718SOL     OW30052   2.952   2.101   6.479
 9718SOL    HW130053   2.954   2.001   6.468
 9718SOL    HW230054   2.859   2.131   6.496
 9719SOL     OW30055   3.911   0.073   5.559
 9719SOL    HW130056   3.971   0.019   5.618
 9719SOL    HW230057   3.856   0.011   5.503
 9720SOL     OW30058   2.156   2.381   1.912
 9720SOL    HW130059   2.124   2.376   2.007
 9720SOL    HW230060   2.241   2.434   1.909
 9721SOL     OW30061   0.478   2.000   1.589
 9721SOL    HW130062   0.428   2.081   1.560
 9721SOL    HW230063   0.493   1.939   1.511
 9722SOL     OW30064   3.484   2.870   5.498
 9722SOL    HW130065   3.524   2.779   5.509
 9722SOL    HW230066   3.402   2.877   5.555
 9723SOL     OW30067   5.540   1.336   5.145
 9723SOL    HW130068   5.564   1.308   5.237
 9723SOL    HW230069   5.622   1.338   5.088
 9724SOL     OW30070   1.723   4.895   1.334
 9724SOL    HW130071   1.695   4.954   1.410
 9724SOL    HW230072   1.787   4.826   1.368
 9725SOL     OW30073   5.505   5.543   4.140
 9725SOL    HW130074   5.481   5.500   4.227
 9725SOL    HW230075   5.421   5.564   4.089
 9726SOL     OW30076   6.978   6.909   3.656
 9726SOL    HW130077   0.010   6.892   3.735
 9726SOL    HW230078   6.966   6.825   3.604
 9727SOL     OW30079   6.429   3.097   1.368
 9727SOL    HW130080   6.462   3.133   1.455
 9727SOL    HW230081   6.386   3.170   1.316
 9728SOL     OW30082   5.566   1.820   5.287
 9728SOL    HW130083   5.531   1.887   5.353
 9728SOL    HW230084   5.515   1.828   5.201
 9729SOL     OW30085   0.220   3.987   2.415
 9729SOL    HW130086   0.155   4.031   2.477
 9729SOL    HW230087   0.175   3.911   2.368
 9730SOL     OW30088   1.047   5.876   3.294
 9730SOL    HW130089   1.109   5.954   3.285
 9730SOL    HW230090   0.998   5.881   3.381
 9731SOL     OW30091   6.264   1.654   1.430
 9731SOL    HW130092   6.281   1.556   1.419
 9731SOL    HW230093   6.266   1.677   1.528
 9732SOL     OW30094   6.912   2.534   3.188
 9732SOL    HW130095   6.845   2.467   3.220
 9732SOL    HW230096   7.004   2.496   3.194
 9733SOL     OW30097   5.400   5.731   0.059
 9733SOL    HW130098   5.338   5.797   0.100
 9733SOL    HW230099   5.494   5.765   0.068
 9734SOL     OW30100   4.017   3.600   6.955
 9734SOL    HW130101   4.049   3.538   0.000
 9734SOL    HW230102   3.936   3.562   6.911
 9735SOL     OW30103   1.294   1.562   0.386
 9735SOL    HW130104   1.198   1.589   0.391
 9735SOL    HW230105   1.333   1.590   0.299
 9736SOL     OW30106   5.199   2.612   6.332
 9736SOL    HW130107   5.242   2.671   6.399
 9736SOL    HW230108   5.216   2.516   6.355
 9737SOL     OW30109   5.213   3.428   5.332
 9737SOL    HW130110   5.268   3.369   5.391
 9737SOL    HW230111   5.273   3.485   5.277
 9738SOL     OW30112   2.611   6.298   1.398
 9738SOL    HW130113   2.548   6.363   1.442
 9738SOL    HW230114   2.661   6.247   1.468
 9739SOL     OW30115   5.426   6.463   0.649
 9739SOL    HW130116   5.467   6.544   0.691
 9739SOL    HW230117   5.479   6.382   0.676
 9740SOL     OW30118   6.628   0.836   0.923
 9740SOL    HW130119   6.707   0.832   0.985
 9740SOL    HW230120   6.659   0.818   0.830
 9741SOL     OW30121   2.379   2.668   2.939
 9741SOL    HW130122   2.438   2.627   2.869
 9741SOL    HW230123   2.405   2.632   3.029
 9742SOL     OW30124   4.288   0.182   0.186
 9742SOL    HW130125   4.353   0.242   0.139
 9742SOL    HW230126   4.313   0.176   0.283
 9743SOL     OW30127   6.243   3.843   4.277
 9743SOL    HW130128   6.330   3.794   4.274
 9743SOL    HW230129   6.177   3.798   4.217
 9744SOL     OW30130   1.563   2.847   2.103
 9744SOL    HW130131   1.630   2.913   2.071
 9744SOL    HW230132   1.493   2.834   2.033
 9745SOL     OW30133   1.297   6.791   5.853
 9745SOL    HW130134   1.325   6.757   5.942
 9745SOL    HW230135   1.283   6.890   5.858
 9746SOL     OW30136   3.377   6.133   5.817
 9746SOL    HW130137   3.298   6.077   5.844
 9746SOL    HW230138   3.431   6.156   5.897
 9747SOL     OW30139   4.355   1.687   3.433
 9747SOL    HW130140   4.446   1.696   3.391
 9747SOL    HW230141   4.337   1.768   3.489
 9748SOL     OW30142   0.498   2.239   2.288
 9748SOL    HW130143   0.561   2.195   2.223
 9748SOL    HW230144   0.444   2.308   2.241
 9749SOL     OW30145   6.699   0.213   1.515
 9749SOL    HW130146   6.612   0.165   1.518
 9749SOL    HW230147   6.768   0.161   1.565
 9750SOL     OW30148   5.725   2.117   4.624
 9750SOL    HW130149   5.791   2.074   4.562
 9750SOL    HW230150   5.752   2.099   4.719
 9751SOL     OW30151   2.806   5.511   1.003
 9751SOL    HW130152   2.875   5.516   0.930
 9751SOL    HW230153   2.715   5.513   0.962
 9752SOL     OW30154   4.153   3.921   0.857
 9752SOL    HW130155   4.087   3.852   0.827
 9752SOL    HW230156   4.178   3.903   0.952
 9753SOL     OW30157   6.336   6.649   3.233
 9753SOL    HW130158   6.399   6.598   3.293
 9753SOL    HW230159   6.309   6.591   3.156
 9754SOL     OW30160   3.339   0.436   1.843
 9754SOL    HW130161   3.254   0.427   1.895
 9754SOL    HW230162   3.319   0.424   1.746
 9755SOL     OW30163   3.027   4.070   1.160
 9755SOL    HW130164   2.951   4.113   1.112
 9755SOL    HW230165   3.008   4.070   1.259
 9756SOL     OW30166   4.711   6.898   0.032
 9756SOL    HW130167   4.716   6.965   6.983
 9756SOL    HW230168   4.615   6.877   0.051
 9757SOL     OW30169   5.069   4.009   4.237
 9757SOL    HW130170   5.083   4.069   4.316
 9757SOL    HW230171   5.081   4.063   4.153
 9758SOL     OW30172   3.454   0.971   1.648
 9758SOL    HW130173   3.447   0.874   1.626
 9758SOL    HW230174   3.424   0.987   1.742
 9759SOL     OW30175   6.498   1.903   0.805
 9759SOL    HW130176   6.442   1.983   0.785
 9759SOL    HW230177   6.462   1.823   0.756
 9760SOL     OW30178   4.735   0.912   6.689
 9760SOL    HW130179   4.653   0.953   6.729
 9760SOL    HW230180   4.808   0.981   6.685
 9761SOL     OW30181   1.132   2.217   2.077
 9761SOL    HW130182   1.161   2.153   2.148
 9761SOL    HW230183   1.114   2.167   1.992
 9762SOL     OW30184   3.934   0.945   5.914
 9762SOL    HW130185   3.835   0.945   5.907
 9762SOL    HW230186   3.961   0.963   6.009
 9763SOL     OW30187   5.599   1.942   1.068
 9763SOL    HW130188   5.608   1.844   1.086
 9763SOL    HW230189   5.678   1.990   1.106
 9764SOL     OW30190   0.652   2.363   3.477
 9764SOL    HW130191   0.582   2.355   3.406
 9764SOL    HW230192   0.736   2.399   3.436
 9765SOL     OW30193   5.952   2.395   0.902
 9765SOL    HW130194   5.886   2.343   0.849
 9765SOL    HW230195   6.045   2.372   0.873
 9766SOL     OW30196   0.267   2.451   2.877
 9766SOL    HW130197   0.272   2.551   2.869
 9766SOL    HW230198   0.211   2.426   2.956
 9767SOL     OW30199   3.607   1.675   4.532
 9767SOL    HW130200   3.649   1.745   4.474
 9767SOL    HW230201   3.541   1.622   4.478
 9768SOL     OW30202   4.897   2.710   6.577
 9768SOL    HW130203   4.886   2.613   6.554
 9768SOL    HW230204   4.917   2.761   6.493
 9769SOL     OW30205   3.817   0.988   5.460
 9769SOL    HW130206   3.743   0.938   5.505
 9769SOL    HW230207   3.817   0.968   5.362
 9770SOL     OW30208   2.201   3.246   5.448
 9770SOL    HW130209   2.286   3.287   5.417
 9770SOL    HW230210   2.199   3.245   5.548
 9771SOL     OW30211   3.420   0.985   1.947
 9771SOL    HW130212   3.370   0.917   2.000
 9771SOL    HW230213   3.439   1.064   2.004
 9772SOL     OW30214   0.307   0.653   1.790
 9772SOL    HW130215   0.275   0.627   1.882
 9772SOL    HW230216   0.228   0.668   1.731
 9773SOL     OW30217   4.490   6.279   1.991
 9773SOL    HW130218   4.586   6.251   1.988
 9773SOL    HW230219   4.471   6.323   2.078
 9774SOL     OW30220   1.581   5.216   4.845
 9774SOL    HW130221   1.614   5.125   4.872
 9774SOL    HW230222   1.581   5.223   4.746
 9775SOL     OW30223   1.522   1.040   3.486
 9775SOL    HW130224   1.575   1.108   3.537
 9775SOL    HW230225   1.486   0.972   3.550
 9776SOL     OW30226   1.448   5.862   1.737
 9776SOL    HW130227   1.467   5.959   1.749
 9776SOL    HW230228   1.371   5.836   1.795
 9777SOL     OW30229   4.562   1.860   5.278
 9777SOL    HW130230   4.489   1.915   5.319
 9777SOL    HW230231   4.623   1.826   5.350
 9778SOL     OW30232   1.522   3.491   2.825
 9778SOL    HW130233   1.581   3.477   2.905
 9778SOL    HW230234   1.534   3.583   2.790
 9779SOL     OW30235   2.179   1.080   2.568
 9779SOL    HW130236   2.183   1.136   2.651
 9779SOL    HW230237   2.084   1.070   2.539
 9780SOL     OW30238   1.467   1.681   1.138
 9780SOL    HW130239   1.481   1.753   1.070
 9780SOL    HW230240   1.384   1.630   1.115
 9781SOL     OW30241   1.697   0.968   2.347
 9781SOL    HW130242   1.653   0.959   2.257
 9781SOL    HW230243   1.697   1.063   2.375
 9782SOL     OW30244   6.870   2.347   6.952
 9782SOL    HW130245   6.956   2.368   6.904
 9782SOL    HW230246   6.876   2.379   0.021
 9783SOL     OW30247   4.820   1.389   2.311
 9783SOL    HW130248   4.757   1.394   2.389
 9783SOL    HW230249   4.851   1.294   2.299
 9784SOL     OW30250   2.053   1.461   0.366
 9784SOL    HW130251   2.050   1.397   0.443
 9784SOL    HW230252   2.009   1.419   0.286
 9785SOL     OW30253   1.443   3.475   4.553
 9785SOL    HW130254   1.428   3.425   4.638
 9785SOL    HW230255   1.468   3.569   4.573
 9786SOL     OW30256   2.923   4.311   0.068
 9786SOL    HW130257   2.831   4.281   0.093
 9786SOL    HW230258   2.965   4.359   0.145
 9787SOL     OW30259   2.606   3.066   0.850
 9787SOL    HW130260   2.581   3.155   0.813
 9787SOL    HW230261   2.704   3.064   0.871
 9788SOL     OW30262   2.365   7.008   2.746
 9788SOL    HW130263   2.390   0.028   2.831
 9788SOL    HW230264   2.278   6.960   2.757
 9789SOL     OW30265   4.596   1.731   0.145
 9789SOL    HW130266   4.636   1.805   0.199
 9789SOL    HW230267   4.522   1.688   0.197
 9790SOL     OW30268   4.694   6.053   5.053
 9790SOL    HW130269   4.742   6.126   5.101
 9790SOL    HW230270   4.595   6.067   5.061
 9791SOL     OW30271   0.100   1.085   1.242
 9791SOL    HW130272   0.102   0.989   1.268
 9791SOL    HW230273   0.008   1.110   1.211
 9792SOL     OW30274   3.517   3.551   0.493
 9792SOL    HW130275   3.575   3.470   0.486
 9792SOL    HW230276   3.516   3.583   0.587
 9793SOL     OW30277   5.967   1.087   1.745
 9793SOL    HW130278   6.040   1.078   1.813
 9793SOL    HW230279   5.969   1.179   1.705
 9794SOL     OW30280   4.298   5.815   4.894
 9794SOL    HW130281   4.320   5.889   4.958
 9794SOL    HW230282   4.382   5.786   4.848
 9795SOL     OW30283   1.698   4.161   2.855
 9795SOL    HW130284   1.783   4.209   2.880
 9795SOL    HW230285   1.680   4.088   2.921
 9796SOL     OW30286   3.759   3.539   4.987
 9796SOL    HW130287   3.777   3.442   4.970
 9796SOL    HW230288   3.826   3.595   4.938
 9797SOL     OW30289   3.673   5.389   0.114
 9797SOL    HW130290   3.660   5.386   0.015
 9797SOL    HW230291   3.690   5.296   0.148
 9798SOL     OW30292   0.174   4.017   6.470
 9798SOL    HW130293   0.110   4.046   6.542
 9798SOL    HW230294   0.145   3.929   6.432
 9799SOL     OW30295   3.516   6.643   6.388
 9799SOL    HW130296   3.454   6.686   6.454
 9799SOL    HW230297   3.467   6.622   6.304
 9800SOL     OW30298   6.919   4.352   4.650
 9800SOL    HW130299   6.900   4.257   4.676
 9800SOL    HW230300   6.961   4.399   4.727
 9801SOL     OW30301   3.997   0.128   0.862
 9801SOL    HW130302   4.032   0.061   0.927
 9801SOL    HW230303   4.050   0.123   0.777
 9802SOL     OW30304   3.924   2.859   0.337
 9802SOL    HW130305   4.001   2.796   0.348
 9802SOL    HW230306   3.845   2.810   0.303
 9803SOL     OW30307   2.563   3.753   0.665
 9803SOL    HW130308   2.654   3.722   0.639
 9803SOL    HW230309   2.571   3.831   0.727
 9804SOL     OW30310   1.031   4.168   2.745
 9804SOL    HW130311   1.028   4.164   2.645
 9804SOL    HW230312   0.984   4.251   2.775
 9805SOL     OW30313   6.835   5.010   4.981
 9805SOL    HW130314   6.816   5.095   4.933
 9805SOL    HW230315   6.928   5.013   5.018
 9806SOL     OW30316   3.364   0.867   6.743
 9806SOL    HW130317   3.342   0.896   6.650
 9806SOL    HW230318   3.360   0.946   6.804
 9807SOL     OW30319   3.647   3.243   4.635
 9807SOL    HW130320   3.665   3.149   4.664
 9807SOL    HW230321   3.549   3.261   4.638
 9808SOL     OW30322   2.452   5.898   2.681
 9808SOL    HW130323   2.489   5.818   2.729
 9808SOL    HW230324   2.422   5.966   2.748
 9809SOL     OW30325   6.236   3.509   1.387
 9809SOL    HW130326   6.268   3.439   1.324
 9809SOL    HW230327   6.144   3.486   1.420
 9810SOL     OW30328   4.247   2.972   0.882
 9810SOL    HW130329   4.269   2.957   0.786
 9810SOL    HW230330   4.303   2.912   0.939
 9811SOL     OW30331   5.396   3.764   4.115
 9811SOL    HW130332   5.372   3.749   4.019
 9811SOL    HW230333   5.313   3.755   4.172
 9812SOL     OW30334   3.284   5.134   6.598
 9812SOL    HW130335   3.287   5.232   6.621
 9812SOL    HW230336   3.280   5.081   6.683
 9813SOL     OW30337   4.534   0.706   2.011
 9813SOL    HW130338   4.631   0.714   1.989
 9813SOL    HW230339   4.482   0.681   1.929
 9814SOL     OW30340   6.569   1.470   6.113
 9814SOL    HW130341   6.606   1.551   6.068
 9814SOL    HW230342   6.620   1.453   6.198
 9815SOL     OW30343   5.747   2.485   4.691
 9815SOL    HW130344   5.825   2.430   4.720
 9815SOL    HW230345   5.759   2.512   4.596
 9816SOL     OW30346   3.475   0.514   0.463
 9816SOL    HW130347   3.479   0.414   0.457
 9816SOL    HW230348   3.502   0.553   0.375
 9817SOL     OW30349   6.298   0.276   1.237
 9817SOL    HW130350   6.290   0.180   1.212
 9817SOL    HW230351   6.223   0.301   1.299
 9818SOL     OW30352   3.749   2.372   5.372
 9818SOL    HW130353   3.747   2.466   5.337
 9818SOL    HW230354   3.771   2.374   5.470
 9819SOL     OW30355   2.630   0.779   1.773
 9819SOL    HW130356   2.570   0.719   1.721
 9819SOL    HW230357   2.611   0.768   1.871
 9820SOL     OW30358   3.718   2.728   0.233
 9820SOL    HW130359   3.682   2.637   0.248
 9820SOL    HW230360   3.680   2.766   0.149
 9821SOL     OW30361   0.536   6.391   6.750
 9821SOL    HW130362   0.520   6.295   6.727
 9821SOL    HW230363   0.606   6.429   6.690
 9822SOL     OW30364   0.214   0.936   2.189
 9822SOL    HW130365   0.276   1.013   2.205
 9822SOL    HW230366   0.266   0.851   2.191
 9823SOL     OW30367   3.271   6.813   2.047
 9823SOL    HW130368   3.289   6.715   2.042
 9823SOL    HW230369   3.286   6.854   1.957
 9824SOL     OW30370   2.258   3.962   5.382
 9824SOL    HW130371   2.300   3.898   5.446
 9824SOL    HW230372   2.318   3.974   5.303
 9825SOL     OW30373   4.006   4.759   5.229
 9825SOL    HW130374   3.927   4.714   5.272
 9825SOL    HW230375   4.053   4.815   5.298
 9826SOL     OW30376   5.562   6.773   5.394
 9826SOL    HW130377   5.524   6.841   5.331
 9826SOL    HW230378   5.487   6.723   5.438
 9827SOL     OW30379   0.807   5.545   4.638
 9827SOL    HW130380   0.889   5.525   4.692
 9827SOL    HW230381   0.812   5.496   4.551
 9828SOL     OW30382   2.447   1.521   6.912
 9828SOL    HW130383   2.462   1.562   6.822
 9828SOL    HW230384   2.420   1.425   6.901
 9829SOL     OW30385   2.844   4.096   1.721
 9829SOL    HW130386   2.920   4.161   1.709
 9829SOL    HW230387   2.870   4.027   1.789
 9830SOL     OW30388   6.137   1.658   0.862
 9830SOL    HW130389   6.207   1.599   0.902
 9830SOL    HW230390   6.069   1.681   0.932
 9831SOL     OW30391   6.270   6.406   1.282
 9831SOL    HW130392   6.201   6.441   1.219
 9831SOL    HW230393   6.360   6.441   1.254
 9832SOL     OW30394   3.094   3.590   0.637
 9832SOL    HW130395   3.029   3.618   0.707
 9832SOL    HW230396   3.135   3.502   0.664
 9833SOL     OW30397   4.996   4.503   6.853
 9833SOL    HW130398   5.094   4.490   6.842
 9833SOL    HW230399   4.966   4.459   6.938
 9834SOL     OW30400   1.976   2.571   3.563
 9834SOL    HW130401   1.951   2.536   3.473
 9834SOL    HW230402   1.895   2.573   3.622
 9835SOL     OW30403   5.234   1.893   4.165
 9835SOL    HW130404   5.266   1.958   4.234
 9835SOL    HW230405   5.278   1.804   4.180
 9836SOL     OW30406   5.522   5.233   1.618
 9836SOL    HW130407   5.592   5.302   1.596
 9836SOL    HW230408   5.566   5.143   1.625
 9837SOL     OW30409   2.850   5.815   6.079
 9837SOL    HW130410   2.789   5.752   6.030
 9837SOL    HW230411   2.855   5.901   6.029
 9838SOL     OW30412   6.839   6.367   5.054
 9838SOL    HW130413   6.894   6.448   5.036
 9838SOL    HW230414   6.786   6.381   5.138
 9839SOL     OW30415   5.800   3.181   2.852
 9839SOL    HW130416   5.756   3.105   2.898
 9839SOL    HW230417   5.731   3.245   2.818
 9840SOL     OW30418   5.827   0.051   0.089
 9840SOL    HW130419   5.770   0.110   0.145
 9840SOL    HW230420   5.866   0.104   0.014
 9841SOL     OW30421   2.316   2.910   4.696
 9841SOL    HW130422   2.312   2.971   4.617
 9841SOL    HW230423   2.349   2.960   4.776
 9842SOL     OW30424   3.294   3.293   4.018
 9842SOL    HW130425   3.354   3.355   3.967
 9842SOL    HW230426   3.204   3.291   3.974
 9843SOL     OW30427   5.887   4.460   2.913
 9843SOL    HW130428   5.912   4.398   2.838
 9843SOL    HW230429   5.970   4.498   2.954
 9844SOL     OW30430   4.765   0.114   1.893
 9844SOL    HW130431   4.675   0.137   1.857
 9844SOL    HW230432   4.806   0.195   1.935
 9845SOL     OW30433   1.527   1.536   4.114
 9845SOL    HW130434   1.509   1.625   4.155
 9845SOL    HW230435   1.442   1.484   4.106
 9846SOL     OW30436   3.011   3.136   4.206
 9846SOL    HW130437   3.089   3.078   4.184
 9846SOL    HW230438   3.033   3.192   4.286
 9847SOL     OW30439   2.152   4.342   4.650
 9847SOL    HW130440   2.187   4.328   4.743
 9847SOL    HW230441   2.091   4.267   4.625
 9848SOL     OW30442   6.433   4.061   0.161
 9848SOL    HW130443   6.394   4.138   0.211
 9848SOL    HW230444   6.417   3.976   0.212
 9849SOL     OW30445   6.905   6.048   5.142
 9849SOL    HW130446   6.831   6.115   5.136
 9849SOL    HW230447   6.931   6.036   5.237
 9850SOL     OW30448   4.850   0.539   3.275
 9850SOL    HW130449   4.943   0.570   3.256
 9850SOL    HW230450   4.784   0.604   3.237
 9851SOL     OW30451   5.171   2.522   5.569
 9851SOL    HW130452   5.091   2.537   5.626
 9851SOL    HW230453   5.254   2.546   5.620
 9852SOL     OW30454   5.468   1.669   4.346
 9852SOL    HW130455   5.468   1.683   4.445
 9852SOL    HW230456   5.488   1.573   4.327
 9853SOL     OW30457   0.879   5.332   1.112
 9853SOL    HW130458   0.859   5.235   1.097
 9853SOL    HW230459   0.877   5.352   1.209
 9854SOL     OW30460   3.583   6.900   3.932
 9854SOL    HW130461   3.606   6.827   3.996
 9854SOL    HW230462   3.494   6.938   3.954
 9855SOL     OW30463   1.858   4.569   0.665
 9855SOL    HW130464   1.818   4.541   0.752
 9855SOL    HW230465   1.788   4.610   0.607
 9856SOL     OW30466   3.921   3.263   1.332
 9856SOL    HW130467   3.862   3.344   1.336
 9856SOL    HW230468   3.864   3.182   1.314
 9857SOL     OW30469   6.407   4.442   2.668
 9857SOL    HW130470   6.387   4.534   2.702
 9857SOL    HW230471   6.389   4.375   2.740
 9858SOL     OW30472   3.351   1.578   1.577
 9858SOL    HW130473   3.346   1.523   1.494
 9858SOL    HW230474   3.260   1.590   1.615
 9859SOL     OW30475   0.372   6.631   0.997
 9859SOL    HW130476   0.326   6.594   1.078
 9859SOL    HW230477   0.423   6.558   0.952
 9860SOL     OW30478   1.063   1.077   2.739
 9860SOL    HW130479   1.075   1.005   2.806
 9860SOL    HW230480   1.037   1.037   2.651
 9861SOL     OW30481   2.936   6.510   3.777
 9861SOL    HW130482   3.012   6.572   3.755
 9861SOL    HW230483   2.973   6.426   3.818
 9862SOL     OW30484   0.182   1.943   1.129
 9862SOL    HW130485   0.172   2.037   1.162
 9862SOL    HW230486   0.278   1.927   1.103
 9863SOL     OW30487   3.815   0.245   0.581
 9863SOL    HW130488   3.738   0.284   0.631
 9863SOL    HW230489   3.801   0.147   0.568
 9864SOL     OW30490   4.361   6.089   3.450
 9864SOL    HW130491   4.317   6.170   3.490
 9864SOL    HW230492   4.438   6.118   3.394
 9865SOL     OW30493   1.980   3.209   4.062
 9865SOL    HW130494   2.034   3.223   3.979
 9865SOL    HW230495   1.953   3.113   4.068
 9866SOL     OW30496   3.066   4.914   3.544
 9866SOL    HW130497   3.098   5.007   3.559
 9866SOL    HW230498   3.135   4.862   3.495
 9867SOL     OW30499   3.641   6.903   6.425
 9867SOL    HW130500   3.594   6.818   6.401
 9867SOL    HW230501   3.726   6.882   6.473
 9868SOL     OW30502   1.241   4.961   5.505
 9868SOL    HW130503   1.172   4.922   5.566
 9868SOL    HW230504   1.255   5.057   5.527
 9869SOL     OW30505   1.609   4.548   2.837
 9869SOL    HW130506   1.626   4.562   2.935
 9869SOL    HW230507   1.696   4.541   2.788
 9870SOL     OW30508   3.943   5.463   1.621
 9870SOL    HW130509   3.977   5.482   1.529
 9870SOL    HW230510   4.016   5.478   1.687
 9871SOL     OW30511   1.813   2.472   5.753
 9871SOL    HW130512   1.804   2.401   5.822
 9871SOL    HW230513   1.824   2.561   5.798
 9872SOL     OW30514   1.514   3.856   3.381
 9872SOL    HW130515   1.549   3.808   3.301
 9872SOL    HW230516   1.525   3.799   3.462
 9873SOL     OW30517   1.788   1.639   0.739
 9873SOL    HW130518   1.790   1.734   0.707
 9873SOL    HW230519   1.862   1.625   0.804
 9874SOL     OW30520   1.284   3.596   5.100
 9874SOL    HW130521   1.214   3.648   5.148
 9874SOL    HW230522   1.373   3.612   5.144
 9875SOL     OW30523   1.189   1.214   3.120
 9875SOL    HW130524   1.242   1.248   3.198
 9875SOL    HW230525   1.231   1.131   3.084
 9876SOL     OW30526   6.938   5.759   2.565
 9876SOL    HW130527   6.880   5.720   2.637
 9876SOL    HW230528   6.883   5.772   2.482
 9877SOL     OW30529   4.104   0.367   1.386
 9877SOL    HW130530   4.174   0.354   1.457
 9877SOL    HW230531   4.030   0.302   1.401
 9878SOL     OW30532   0.095   0.864   5.167
 9878SOL    HW130533   0.001   0.846   5.196
 9878SOL    HW230534   0.151   0.783   5.182
 9879SOL     OW30535   5.245   5.465   4.886
 9879SOL    HW130536   5.200   5.380   4.913
 9879SOL    HW230537   5.328   5.444   4.835
 9880SOL     OW30538   1.077   2.071   4.040
 9880SOL    HW130539   1.032   2.002   4.097
 9880SOL    HW230540   1.011   2.110   3.977
 9881SOL     OW30541   0.675   1.369   5.760
 9881SOL    HW130542   0.734   1.444   5.789
 9881SOL    HW230543   0.592   1.406   5.719
 9882SOL     OW30544   2.319   2.385   3.443
 9882SOL    HW130545   2.373   2.469   3.453
 9882SOL    HW230546   2.225   2.408   3.419
 9883SOL     OW30547   2.973   1.302   2.618
 9883SOL    HW130548   3.064   1.265   2.602
 9883SOL    HW230549   2.945   1.358   2.540
 9884SOL     OW30550   3.212   0.385   4.010
 9884SOL    HW130551   3.308   0.402   3.989
 9884SOL    HW230552   3.158   0.390   3.926
 9885SOL     OW30553   6.597   3.403   4.314
 9885SOL    HW130554   6.685   3.405   4.361
 9885SOL    HW230555   6.545   3.324   4.344
 9886SOL     OW30556   0.065   2.908   1.505
 9886SOL    HW130557   0.124   2.907   1.423
 9886SOL    HW230558   0.080   2.824   1.557
 9887SOL     OW30559   4.610   6.546   6.023
 9887SOL    HW130560   4.555   6.490   5.961
 9887SOL    HW230561   4.699   6.566   5.982
 9888SOL     OW30562   6.457   4.810   5.766
 9888SOL    HW130563   6.364   4.844   5.752
 9888SOL    HW230564   6.523   4.881   5.740
 9889SOL     OW30565   0.584   5.757   0.778
 9889SOL    HW130566   0.621   5.673   0.739
 9889SOL    HW230567   0.516   5.734   0.849
 9890SOL     OW30568   0.878   2.666   0.492
 9890SOL    HW130569   0.929   2.596   0.440
 9890SOL    HW230570   0.934   2.747   0.502
 9891SOL     OW30571   5.280   1.211   1.923
 9891SOL    HW130572   5.303   1.298   1.966
 9891SOL    HW230573   5.188   1.183   1.952
 9892SOL     OW30574   1.115   0.061   6.587
 9892SOL    HW130575   1.210   0.078   6.562
 9892SOL    HW230576   1.080   0.138   6.641
 9893SOL     OW30577   2.133   0.914   0.203
 9893SOL    HW130578   2.136   0.818   0.231
 9893SOL    HW230579   2.153   0.973   0.282
 9894SOL     OW30580   2.053   0.860   1.282
 9894SOL    HW130581   2.001   0.785   1.323
 9894SOL    HW230582   2.140   0.824   1.247
 9895SOL     OW30583   4.442   3.025   5.643
 9895SOL    HW130584   4.494   2.945   5.615
 9895SOL    HW230585   4.423   3.083   5.563
 9896SOL     OW30586   6.496   6.567   5.867
 9896SOL    HW130587   6.485   6.551   5.965
 9896SOL    HW230588   6.584   6.530   5.836
 9897SOL     OW30589   5.106   4.825   4.878
 9897SOL    HW130590   5.120   4.741   4.826
 9897SOL    HW230591   5.164   4.824   4.960
 9898SOL     OW30592   2.528   0.084   6.137
 9898SOL    HW130593   2.603   0.018   6.131
 9898SOL    HW230594   2.441   0.035   6.140
 9899SOL     OW30595   0.294   4.470   0.233
 9899SOL    HW130596   0.248   4.556   0.254
 9899SOL    HW230597   0.322   4.469   0.137
 9900SOL     OW30598   2.230   4.222   3.331
 9900SOL    HW130599   2.160   4.284   3.297
 9900SOL    HW230600   2.209   4.128   3.302
 9901SOL     OW30601   2.063   2.888   5.625
 9901SOL    HW130602   1.994   2.960   5.628
 9901SOL    HW230603   2.153   2.927   5.645
 9902SOL     OW30604   2.736   4.519   0.768
 9902SOL    HW130605   2.660   4.562   0.816
 9902SOL    HW230606   2.715   4.422   0.753
 9903SOL     OW30607   5.384   1.271   4.818
 9903SOL    HW130608   5.404   1.173   4.814
 9903SOL    HW230609   5.456   1.322   4.771
 9904SOL     OW30610   6.112   2.126   0.440
 9904SOL    HW130611   6.055   2.132   0.358
 9904SOL    HW230612   6.206   2.106   0.414
 9905SOL     OW30613   4.731   0.278   0.298
 9905SOL    HW130614   4.823   0.241   0.282
 9905SOL    HW230615   4.724   0.368   0.255
 9906SOL     OW30616   3.071   3.405   4.896
 9906SOL    HW130617   3.138   3.380   4.966
 9906SOL    HW230618   3.065   3.504   4.890
 9907SOL     OW30619   1.543   6.728   1.526
 9907SOL    HW130620   1.511   6.822   1.517
 9907SOL    HW230621   1.632   6.718   1.481
 9908SOL     OW30622   5.140   3.859   1.777
 9908SOL    HW130623   5.171   3.921   1.850
 9908SOL    HW230624   5.214   3.847   1.711
 9909SOL     OW30625   2.141   0.458   5.005
 9909SOL    HW130626   2.058   0.423   4.961
 9909SOL    HW230627   2.179   0.533   4.949
 9910SOL     OW30628   6.607   4.569   3.698
 9910SOL    HW130629   6.635   4.639   3.633
 9910SOL    HW230630   6.687   4.537   3.748
 9911SOL     OW30631   2.481   5.916   2.403
 9911SOL    HW130632   2.474   5.937   2.501
 9911SOL    HW230633   2.392   5.886   2.369
 9912SOL     OW30634   4.456   0.800   6.267
 9912SOL    HW130635   4.466   0.718   6.210
 9912SOL    HW230636   4.514   0.790   6.348
 9913SOL     OW30637   5.192   3.588   0.398
 9913SOL    HW130638   5.122   3.517   0.412
 9913SOL    HW230639   5.148   3.677   0.388
 9914SOL     OW30640   0.077   3.975   4.600
 9914SOL    HW130641   0.118   3.891   4.635
 9914SOL    HW230642   0.103   3.988   4.504
 9915SOL     OW30643   4.496   1.612   3.707
 9915SOL    HW130644   4.588   1.634   3.675
 9915SOL    HW230645   4.475   1.517   3.687
 9916SOL     OW30646   1.299   3.015   1.600
 9916SOL    HW130647   1.307   2.927   1.648
 9916SOL    HW230648   1.327   3.089   1.662
 9917SOL     OW30649   6.150   4.205   5.127
 9917SOL    HW130650   6.230   4.212   5.186
 9917SOL    HW230651   6.178   4.219   5.032
 9918SOL     OW30652   4.900   3.234   2.278
 9918SOL    HW130653   4.946   3.160   2.229
 9918SOL    HW230654   4.833   3.277   2.218
 9919SOL     OW30655   5.410   5.784   0.558
 9919SOL    HW130656   5.401   5.765   0.656
 9919SOL    HW230657   5.450   5.875   0.546
 9920SOL     OW30658   4.997   1.500   2.542
 9920SOL    HW130659   4.968   1.493   2.447
 9920SOL    HW230660   4.996   1.409   2.584
 9921SOL     OW30661   4.270   4.996   6.418
 9921SOL    HW130662   4.267   4.935   6.339
 9921SOL    HW230663   4.227   4.951   6.496
 9922SOL     OW30664   0.058   6.079   1.545
 9922SOL    HW130665   0.078   6.161   1.492
 9922SOL    HW230666   0.144   6.033   1.569
 9923SOL     OW30667   5.770   4.758   0.742
 9923SOL    HW130668   5.706   4.693   0.701
 9923SOL    HW230669   5.741   4.781   0.835
 9924SOL     OW30670   1.629   3.677   4.603
 9924SOL    HW130671   1.580   3.755   4.642
 9924SOL    HW230672   1.657   3.697   4.509
 9925SOL     OW30673   5.104   2.456   4.365
 9925SOL    HW130674   5.179   2.478   4.427
 9925SOL    HW230675   5.017   2.484   4.407
 9926SOL     OW30676   3.389   5.077   1.386
 9926SOL    HW130677   3.428   5.168   1.399
 9926SOL    HW230678   3.314   5.081   1.319
 9927SOL     OW30679   4.926   7.011   3.959
 9927SOL    HW130680   4.895   6.929   4.007
 9927SOL    HW230681   4.916   0.065   4.019
 9928SOL     OW30682   4.985   4.356   2.256
 9928SOL    HW130683   4.997   4.271   2.308
 9928SOL    HW230684   5.041   4.428   2.296
 9929SOL     OW30685   1.000   4.318   3.029
 9929SOL    HW130686   1.026   4.410   3.059
 9929SOL    HW230687   1.082   4.266   3.006
 9930SOL     OW30688   5.908   1.037   3.091
 9930SOL    HW130689   5.974   1.085   3.034
 9930SOL    HW230690   5.841   0.991   3.033
 9931SOL     OW30691   1.160   5.578   5.574
 9931SOL    HW130692   1.227   5.541   5.639
 9931SOL    HW230693   1.174   5.536   5.485
 9932SOL     OW30694   0.874   5.991   4.655
 9932SOL    HW130695   0.880   5.983   4.556
 9932SOL    HW230696   0.825   6.074   4.680
 9933SOL     OW30697   6.727   6.695   2.966
 9933SOL    HW130698   6.707   6.792   2.981
 9933SOL    HW230699   6.643   6.642   2.976
 9934SOL     OW30700   0.085   1.990   4.955
 9934SOL    HW130701   0.023   2.069   4.958
 9934SOL    HW230702   0.050   1.918   5.015
 9935SOL     OW30703   2.346   0.387   6.319
 9935SOL    HW130704   2.278   0.360   6.251
 9935SOL    HW230705   2.420   0.319   6.320
 9936SOL     OW30706   1.582   3.657   3.632
 9936SOL    HW130707   1.681   3.665   3.616
 9936SOL    HW230708   1.565   3.611   3.719
 9937SOL     OW30709   6.401   2.271   5.957
 9937SOL    HW130710   6.349   2.325   5.890
 9937SOL    HW230711   6.438   2.331   6.027
 9938SOL     OW30712   6.496   6.559   2.924
 9938SOL    HW130713   6.456   6.512   2.845
 9938SOL    HW230714   6.506   6.495   3.000
 9939SOL     OW30715   3.195   3.444   3.578
 9939SOL    HW130716   3.106   3.454   3.622
 9939SOL    HW230717   3.243   3.532   3.580
 9940SOL     OW30718   0.494   1.369   1.170
 9940SOL    HW130719   0.477   1.408   1.080
 9940SOL    HW230720   0.544   1.283   1.159
 9941SOL     OW30721   2.910   5.612   4.394
 9941SOL    HW130722   2.967   5.691   4.374
 9941SOL    HW230723   2.967   5.537   4.429
 9942SOL     OW30724   2.617   5.426   3.965
 9942SOL    HW130725   2.675   5.494   3.920
 9942SOL    HW230726   2.655   5.335   3.949
 9943SOL     OW30727   0.303   0.058   4.773
 9943SOL    HW130728   0.214   0.094   4.744
 9943SOL    HW230729   0.365   0.134   4.792
 9944SOL     OW30730   1.434   4.621   6.370
 9944SOL    HW130731   1.362   4.561   6.334
 9944SOL    HW230732   1.491   4.654   6.295
 9945SOL     OW30733   0.215   5.728   6.615
 9945SOL    HW130734   0.285   5.691   6.676
 9945SOL    HW230735   0.175   5.653   6.561
 9946SOL     OW30736   5.454   0.785   4.156
 9946SOL    HW130737   5.374   0.812   4.103
 9946SOL    HW230738   5.425   0.736   4.238
 9947SOL     OW30739   6.126   4.571   3.911
 9947SOL    HW130740   6.105   4.663   3.876
 9947SOL    HW230741   6.206   4.535   3.862
 9948SOL     OW30742   5.359   3.939   3.578
 9948SOL    HW130743   5.287   4.009   3.582
 9948SOL    HW230744   5.317   3.849   3.584
 9949SOL     OW30745   6.103   5.389   1.745
 9949SOL    HW130746   6.119   5.390   1.646
 9949SOL    HW230747   6.152   5.313   1.786
 9950SOL     OW30748   3.572   6.445   6.778
 9950SOL    HW130749   3.629   6.395   6.843
 9950SOL    HW230750   3.630   6.496   6.714
 9951SOL     OW30751   6.401   2.961   3.007
 9951SOL    HW130752   6.349   3.000   2.931
 9951SOL    HW230753   6.484   2.918   2.972
 9952SOL     OW30754   0.209   3.843   6.259
 9952SOL    HW130755   0.299   3.875   6.289
 9952SOL    HW230756   0.214   3.813   6.164
 9953SOL     OW30757   5.384   3.400   3.892
 9953SOL    HW130758   5.433   3.384   3.806
 9953SOL    HW230759   5.373   3.313   3.940
 9954SOL     OW30760   4.655   0.453   4.648
 9954SOL    HW130761   4.662   0.379   4.715
 9954SOL    HW230762   4.568   0.447   4.600
 9955SOL     OW30763   0.393   4.802   4.055
 9955SOL    HW130764   0.488   4.798   4.025
 9955SOL    HW230765   0.383   4.877   4.121
 9956SOL     OW30766   1.435   6.317   0.349
 9956SOL    HW130767   1.402   6.301   0.442
 9956SOL    HW230768   1.425   6.234   0.295
 9957SOL     OW30769   5.835   5.386   2.412
 9957SOL    HW130770   5.917   5.412   2.464
 9957SOL    HW230771   5.839   5.429   2.322
 9958SOL     OW30772   3.159   4.312   1.041
 9958SOL    HW130773   3.134   4.236   1.102
 9958SOL    HW230774   3.076   4.355   1.006
 9959SOL     OW30775   3.334   4.078   0.932
 9959SOL    HW130776   3.350   3.980   0.931
 9959SOL    HW230777   3.401   4.122   0.992
 9960SOL     OW30778   0.854   0.653   2.494
 9960SOL    HW130779   0.774   0.606   2.529
 9960SOL    HW230780   0.931   0.589   2.489
 9961SOL     OW30781   2.113   3.654   4.700
 9961SOL    HW130782   2.110   3.592   4.778
 9961SOL    HW230783   2.208   3.666   4.671
 9962SOL     OW30784   5.563   6.067   4.735
 9962SOL    HW130785   5.647   6.120   4.723
 9962SOL    HW230786   5.496   6.096   4.667
 9963SOL     OW30787   3.398   1.818   0.413
 9963SOL    HW130788   3.307   1.855   0.395
 9963SOL    HW230789   3.410   1.807   0.512
 9964SOL     OW30790   5.952   6.624   4.917
 9964SOL    HW130791   5.971   6.677   4.835
 9964SOL    HW230792   5.854   6.607   4.923
 9965SOL     OW30793   5.477   6.680   0.807
 9965SOL    HW130794   5.380   6.693   0.782
 9965SOL    HW230795   5.485   6.670   0.906
 9966SOL     OW30796   6.428   1.149   2.778
 9966SOL    HW130797   6.507   1.090   2.797
 9966SOL    HW230798   6.344   1.095   2.785
 9967SOL     OW30799   1.084   5.648   0.565
 9967SOL    HW130800   1.044   5.636   0.474
 9967SOL    HW230801   1.114   5.743   0.576
 9968SOL     OW30802   3.665   3.561   3.097
 9968SOL    HW130803   3.644   3.517   3.184
 9968SOL    HW230804   3.763   3.552   3.079
 9969SOL     OW30805   1.484   3.038   1.370
 9969SOL    HW130806   1.436   3.002   1.450
 9969SOL    HW230807   1.562   3.093   1.399
 9970SOL     OW30808   6.274   4.805   2.219
 9970SOL    HW130809   6.296   4.740   2.146
 9970SOL    HW230810   6.212   4.875   2.184
 9971SOL     OW30811   2.965   6.643   6.726
 9971SOL    HW130812   2.947   6.551   6.761
 9971SOL    HW230813   3.047   6.642   6.670
 9972SOL     OW30814   6.963   5.097   1.411
 9972SOL    HW130815   6.872   5.064   1.387
 9972SOL    HW230816   6.956   5.190   1.449
 9973SOL     OW30817   5.444   6.473   3.646
 9973SOL    HW130818   5.410   6.558   3.605
 9973SOL    HW230819   5.474   6.411   3.573
 9974SOL     OW30820   2.182   0.393   4.517
 9974SOL    HW130821   2.236   0.310   4.507
 9974SOL    HW230822   2.157   0.428   4.426
 9975SOL     OW30823   6.975   4.328   1.144
 9975SOL    HW130824   0.026   4.317   1.081
 9975SOL    HW230825   6.962   4.244   1.197
 9976SOL     OW30826   3.548   6.695   4.178
 9976SOL    HW130827   3.517   6.602   4.163
 9976SOL    HW230828   3.490   6.740   4.246
 9977SOL     OW30829   6.463   4.963   3.845
 9977SOL    HW130830   6.491   5.011   3.762
 9977SOL    HW230831   6.389   5.014   3.890
 9978SOL     OW30832   6.765   3.003   4.434
 9978SOL    HW130833   6.775   2.948   4.352
 9978SOL    HW230834   6.772   2.944   4.515
 9979SOL     OW30835   0.988   3.784   5.020
 9979SOL    HW130836   0.910   3.800   5.080
 9979SOL    HW230837   1.027   3.694   5.039
 9980SOL     OW30838   2.809   6.150   5.128
 9980SOL    HW130839   2.769   6.144   5.037
 9980SOL    HW230840   2.880   6.220   5.128
 9981SOL     OW30841   3.789   2.178   3.147
 9981SOL    HW130842   3.853   2.201   3.221
 9981SOL    HW230843   3.713   2.126   3.185
 9982SOL     OW30844   6.331   6.883   2.556
 9982SOL    HW130845   6.380   6.845   2.634
 9982SOL    HW230846   6.387   6.874   2.474
 9983SOL     OW30847   6.712   0.475   1.621
 9983SOL    HW130848   6.712   0.376   1.606
 9983SOL    HW230849   6.650   0.518   1.555
 9984SOL     OW30850   3.335   0.831   6.367
 9984SOL    HW130851   3.433   0.851   6.367
 9984SOL    HW230852   3.290   0.885   6.438
 9985SOL     OW30853   1.720   1.230   1.298
 9985SOL    HW130854   1.736   1.162   1.226
 9985SOL    HW230855   1.733   1.322   1.260
 9986SOL     OW30856   5.134   3.975   4.587
 9986SOL    HW130857   5.060   3.923   4.545
 9986SOL    HW230858   5.140   4.065   4.543
 9987SOL     OW30859   0.019   4.060   5.288
 9987SOL    HW130860   0.097   4.018   5.242
 9987SOL    HW230861   0.038   4.068   5.386
 9988SOL     OW30862   6.613   1.103   4.181
 9988SOL    HW130863   6.659   1.125   4.268
 9988SOL    HW230864   6.542   1.034   4.198
 9989SOL     OW30865   2.099   2.425   4.750
 9989SOL    HW130866   2.001   2.440   4.759
 9989SOL    HW230867   2.148   2.507   4.778
 9990SOL     OW30868   0.997   4.830   1.602
 9990SOL    HW130869   1.018   4.910   1.659
 9990SOL    HW230870   0.944   4.764   1.655
 9991SOL     OW30871   3.620   1.994   3.502
 9991SOL    HW130872   3.691   2.052   3.539
 9991SOL    HW230873   3.646   1.962   3.411
 9992SOL     OW30874   5.964   5.406   6.189
 9992SOL    HW130875   6.026   5.393   6.267
 9992SOL    HW230876   5.919   5.496   6.197
 9993SOL     OW30877   1.230   0.665   2.377
 9993SOL    HW130878   1.313   0.711   2.344
 9993SOL    HW230879   1.253   0.605   2.453
 9994SOL     OW30880   6.115   4.089   3.911
 9994SOL    HW130881   6.158   4.143   3.983
 9994SOL    HW230882   6.021   4.122   3.896
 9995SOL     OW30883   5.589   1.849   4.565
 9995SOL    HW130884   5.643   1.765   4.570
 9995SOL    HW230885   5.648   1.928   4.580
 9996SOL     OW30886   3.120   3.157   0.300
 9996SOL    HW130887   3.176   3.174   0.380
 9996SOL    HW230888   3.033   3.115   0.328
 9997SOL     OW30889   2.557   1.002   4.294
 9997SOL    HW130890   2.622   0.928   4.308
 9997SOL    HW230891   2.475   0.985   4.347
 9998SOL     OW30892   6.097   6.117   4.803
 9998SOL    HW130893   6.044   6.037   4.776
 9998SOL    HW230894   6.194   6.091   4.811
 9999SOL     OW30895   0.136   0.996   4.915
 9999SOL    HW130896   0.094   0.916   4.872
 9999SOL    HW230897   0.133   0.986   5.015
10000SOL     OW30898   6.913   4.802   0.614
10000SOL    HW130899   6.848   4.816   0.689
10000SOL    HW230900   6.865   4.804   0.527
10001SOL     OW30901   3.774   0.601   3.852
10001SOL    HW130902   3.692   0.658   3.845
10001SOL    HW230903   3.840   0.645   3.912
10002SOL     OW30904   0.810   1.837   1.402
10002SOL    HW130905   0.834   1.796   1.490
10002SOL    HW230906   0.714   1.865   1.404
10003SOL     OW30907   5.293   4.298   1.950
10003SOL    HW130908   5.205   4.323   1.912
10003SOL    HW230909   5.307   4.344   2.038
10004SOL     OW30910   6.739   3.849   3.986
10004SOL    HW130911   6.806   3.920   3.966
10004SOL    HW230912   6.760   3.767   3.932
10005SOL     OW30913   4.530   0.472   3.685
10005SOL    HW130914   4.598   0.465   3.612
10005SOL    HW230915   4.473   0.390   3.685
10006SOL     OW30916   4.803   2.648   4.249
10006SOL    HW130917   4.883   2.669   4.192
10006SOL    HW230918   4.757   2.566   4.213
10007SOL     OW30919   5.286   5.082   4.321
10007SOL    HW130920   5.320   5.114   4.409
10007SOL    HW230921   5.337   5.127   4.248
10008SOL     OW30922   2.801   6.850   4.180
10008SOL    HW130923   2.727   6.890   4.126
10008SOL    HW230924   2.834   6.767   4.135
10009SOL     OW30925   1.987   4.095   1.425
10009SOL    HW130926   1.923   4.116   1.499
10009SOL    HW230927   1.968   4.155   1.347
10010SOL     OW30928   5.693   0.729   6.264
10010SOL    HW130929   5.724   0.761   6.353
10010SOL    HW230930   5.730   0.638   6.246
10011SOL     OW30931   6.991   6.612   3.810
10011SOL    HW130932   6.957   6.684   3.869
10011SOL    HW230933   0.048   6.572   3.850
10012SOL     OW30934   5.106   1.073   5.326
10012SOL    HW130935   5.110   1.002   5.396
10012SOL    HW230936   5.123   1.031   5.236
10013SOL     OW30937   1.123   0.420   1.422
10013SOL    HW130938   1.180   0.431   1.504
10013SOL    HW230939   1.048   0.357   1.442
10014SOL     OW30940   1.500   4.872   5.779
10014SOL    HW130941   1.502   4.837   5.685
10014SOL    HW230942   1.424   4.830   5.828
10015SOL     OW30943   2.460   6.004   6.105
10015SOL    HW130944   2.394   6.075   6.079
10015SOL    HW230945   2.477   5.944   6.027
10016SOL     OW30946   2.213   1.344   5.402
10016SOL    HW130947   2.303   1.387   5.403
10016SOL    HW230948   2.184   1.324   5.496
10017SOL     OW30949   6.809   2.180   3.227
10017SOL    HW130950   6.752   2.098   3.234
10017SOL    HW230951   6.762   2.248   3.171
10018SOL     OW30952   5.083   6.576   6.529
10018SOL    HW130953   5.112   6.526   6.448
10018SOL    HW230954   5.000   6.535   6.566
10019SOL     OW30955   0.906   0.630   3.565
10019SOL    HW130956   0.831   0.564   3.572
10019SOL    HW230957   0.909   0.686   3.647
10020SOL     OW30958   1.021   3.806   0.074
10020SOL    HW130959   1.023   3.716   0.117
10020SOL    HW230960   1.000   3.876   0.142
10021SOL     OW30961   4.795   3.111   1.303
10021SOL    HW130962   4.877   3.088   1.249
10021SOL    HW230963   4.759   3.028   1.345
10022SOL     OW30964   2.099   0.967   6.188
10022SOL    HW130965   2.020   0.914   6.220
10022SOL    HW230966   2.124   1.034   6.258
10023SOL     OW30967   0.074   3.184   0.354
10023SOL    HW130968   0.091   3.127   0.273
10023SOL    HW230969   7.010   3.162   0.392
10024SOL     OW30970   1.191   3.891   2.734
10024SOL    HW130971   1.133   3.847   2.802
10024SOL    HW230972   1.161   3.985   2.720
10025SOL     OW30973   1.223   1.677   0.712
10025SOL    HW130974   1.184   1.623   0.637
10025SOL    HW230975   1.213   1.627   0.798
10026SOL     OW30976   5.961   0.989   4.616
10026SOL    HW130977   5.993   1.060   4.553
10026SOL    HW230978   5.938   0.906   4.565
10027SOL     OW30979   5.538   3.086   6.106
10027SOL    HW130980   5.482   3.008   6.076
10027SOL    HW230981   5.552   3.148   6.028
10028SOL     OW30982   1.664   1.538   1.638
10028SOL    HW130983   1.565   1.541   1.645
10028SOL    HW230984   1.696   1.609   1.576
10029SOL     OW30985   3.535   1.409   4.408
10029SOL    HW130986   3.550   1.419   4.310
10029SOL    HW230987   3.440   1.385   4.424
10030SOL     OW30988   0.473   1.055   2.177
10030SOL    HW130989   0.525   1.138   2.158
10030SOL    HW230990   0.514   0.978   2.129
10031SOL     OW30991   0.158   5.322   3.062
10031SOL    HW130992   0.233   5.283   3.115
10031SOL    HW230993   0.163   5.291   2.967
10032SOL     OW30994   3.629   2.144   5.342
10032SOL    HW130995   3.642   2.126   5.439
10032SOL    HW230996   3.643   2.241   5.323
10033SOL     OW30997   5.868   2.652   3.632
10033SOL    HW130998   5.770   2.668   3.622
10033SOL    HW230999   5.915   2.739   3.650
10034SOL     OW31000   3.944   6.671   6.039
10034SOL    HW131001   3.935   6.691   5.941
10034SOL    HW231002   4.025   6.718   6.075
10035SOL     OW31003   0.383   6.681   4.125
10035SOL    HW131004   0.401   6.615   4.198
10035SOL    HW231005   0.445   6.758   4.134
10036SOL     OW31006   6.193   0.475   0.317
10036SOL    HW131007   6.162   0.461   0.223
10036SOL    HW231008   6.259   0.550   0.320
10037SOL     OW31009   0.157   6.823   1.254
10037SOL    HW131010   0.159   6.881   1.173
10037SOL    HW231011   0.230   6.850   1.317
10038SOL     OW31012   5.984   0.052   0.961
10038SOL    HW131013   6.029   0.085   1.044
10038SOL    HW231014   5.885   0.060   0.972
10039SOL     OW31015   4.027   0.997   2.930
10039SOL    HW131016   4.050   1.083   2.884
10039SOL    HW231017   4.037   1.008   3.028
10040SOL     OW31018   0.813   2.096   0.482
10040SOL    HW131019   0.782   2.006   0.449
10040SOL    HW231020   0.842   2.088   0.577
10041SOL     OW31021   1.262   6.669   0.232
10041SOL    HW131022   1.316   6.654   0.315
10041SOL    HW231023   1.180   6.723   0.255
10042SOL     OW31024   6.545   1.868   3.554
10042SOL    HW131025   6.546   1.787   3.613
10042SOL    HW231026   6.607   1.937   3.590
10043SOL     OW31027   2.533   2.774   5.701
10043SOL    HW131028   2.627   2.803   5.683
10043SOL    HW231029   2.475   2.800   5.624
10044SOL     OW31030   4.261   0.701   0.109
10044SOL    HW131031   4.306   0.742   0.029
10044SOL    HW231032   4.167   0.735   0.115
10045SOL     OW31033   2.478   0.636   1.341
10045SOL    HW131034   2.505   0.555   1.392
10045SOL    HW231035   2.381   0.630   1.317
10046SOL     OW31036   0.772   5.990   6.801
10046SOL    HW131037   0.872   5.982   6.800
10046SOL    HW231038   0.743   6.032   6.887
10047SOL     OW31039   1.896   3.696   0.907
10047SOL    HW131040   1.845   3.637   0.969
10047SOL    HW231041   1.833   3.741   0.843
10048SOL     OW31042   6.236   3.665   1.014
10048SOL    HW131043   6.150   3.624   1.047
10048SOL    HW231044   6.241   3.655   0.915
10049SOL     OW31045   6.473   2.027   4.544
10049SOL    HW131046   6.553   2.072   4.503
10049SOL    HW231047   6.419   2.095   4.594
10050SOL     OW31048   0.172   2.194   5.918
10050SOL    HW131049   0.226   2.110   5.916
10050SOL    HW231050   0.200   2.250   5.996
10051SOL     OW31051   1.719   0.310   3.132
10051SOL    HW131052   1.699   0.377   3.203
10051SOL    HW231053   1.796   0.253   3.162
10052SOL     OW31054   1.140   0.186   4.127
10052SOL    HW131055   1.181   0.194   4.218
10052SOL    HW231056   1.146   0.091   4.096
10053SOL     OW31057   6.026   5.646   2.400
10053SOL    HW131058   6.041   5.654   2.498
10053SOL    HW231059   6.060   5.729   2.354
10054SOL     OW31060   5.188   4.152   3.557
10054SOL    HW131061   5.100   4.170   3.601
10054SOL    HW231062   5.179   4.162   3.458
10055SOL     OW31063   1.792   1.734   6.995
10055SOL    HW131064   1.717   1.752   6.930
10055SOL    HW231065   1.813   1.637   6.995
10056SOL     OW31066   5.141   2.673   4.595
10056SOL    HW131067   5.215   2.614   4.562
10056SOL    HW231068   5.054   2.641   4.559
10057SOL     OW31069   5.776   4.319   4.794
10057SOL    HW131070   5.789   4.364   4.882
10057SOL    HW231071   5.832   4.364   4.725
10058SOL     OW31072   6.378   3.923   3.871
10058SOL    HW131073   6.303   3.989   3.880
10058SOL    HW231074   6.415   3.904   3.962
10059SOL     OW31075   5.514   6.186   5.726
10059SOL    HW131076   5.556   6.217   5.812
10059SOL    HW231077   5.448   6.113   5.746
10060SOL     OW31078   2.951   1.772   1.762
10060SOL    HW131079   2.889   1.739   1.834
10060SOL    HW231080   3.044   1.779   1.798
10061SOL     OW31081   4.224   6.754   3.515
10061SOL    HW131082   4.300   6.814   3.491
10061SOL    HW231083   4.144   6.808   3.539
10062SOL     OW31084   6.745   0.241   4.614
10062SOL    HW131085   6.670   0.289   4.569
10062SOL    HW231086   6.735   0.250   4.713
10063SOL     OW31087   3.965   2.211   3.338
10063SOL    HW131088   4.042   2.269   3.310
10063SOL    HW231089   3.924   2.248   3.420
10064SOL     OW31090   2.305   6.331   2.741
10064SOL    HW131091   2.281   6.273   2.663
10064SOL    HW231092   2.346   6.276   2.813
10065SOL     OW31093   6.430   1.929   1.543
10065SOL    HW131094   6.507   1.916   1.607
10065SOL    HW231095   6.455   1.893   1.454
10066SOL     OW31096   6.138   4.137   3.617
10066SOL    HW131097   6.147   4.106   3.712
10066SOL    HW231098   6.219   4.111   3.565
10067SOL     OW31099   5.432   3.494   5.167
10067SOL    HW131100   5.440   3.400   5.133
10067SOL    HW231101   5.513   3.517   5.221
10068SOL     OW31102   2.075   3.523   2.759
10068SOL    HW131103   2.075   3.496   2.662
10068SOL    HW231104   2.095   3.443   2.815
10069SOL     OW31105   2.926   5.330   1.709
10069SOL    HW131106   2.840   5.381   1.704
10069SOL    HW231107   2.908   5.233   1.721
10070SOL     OW31108   4.917   0.700   0.086
10070SOL    HW131109   4.864   0.760   0.146
10070SOL    HW231110   4.890   0.715   7.016
10071SOL     OW31111   5.149   0.965   5.092
10071SOL    HW131112   5.132   0.914   5.008
10071SOL    HW231113   5.197   1.050   5.071
10072SOL     OW31114   5.752   3.216   2.230
10072SOL    HW131115   5.766   3.124   2.196
10072SOL    HW231116   5.656   3.243   2.214
10073SOL     OW31117   5.618   5.789   5.275
10073SOL    HW131118   5.621   5.839   5.189
10073SOL    HW231119   5.560   5.708   5.265
10074SOL     OW31120   1.709   4.493   0.890
10074SOL    HW131121   1.630   4.432   0.895
10074SOL    HW231122   1.758   4.490   0.977
10075SOL     OW31123   0.769   3.235   1.335
10075SOL    HW131124   0.837   3.168   1.306
10075SOL    HW231125   0.694   3.237   1.270
10076SOL     OW31126   5.941   4.830   3.893
10076SOL    HW131127   5.949   4.892   3.815
10076SOL    HW231128   5.997   4.865   3.969
10077SOL     OW31129   4.233   3.742   6.877
10077SOL    HW131130   4.155   3.685   6.903
10077SOL    HW231131   4.318   3.688   6.887
10078SOL     OW31132   5.954   6.026   3.966
10078SOL    HW131133   5.890   6.010   3.891
10078SOL    HW231134   6.037   6.068   3.930
10079SOL     OW31135   6.025   4.718   3.026
10079SOL    HW131136   5.945   4.719   3.087
10079SOL    HW231137   6.108   4.702   3.080
10080SOL     OW31138   5.201   2.791   5.189
10080SOL    HW131139   5.178   2.774   5.093
10080SOL    HW231140   5.133   2.748   5.248
10081SOL     OW31141   1.482   5.128   0.942
10081SOL    HW131142   1.573   5.169   0.949
10081SOL    HW231143   1.415   5.200   0.925
10082SOL     OW31144   0.251   4.542   1.788
10082SOL    HW131145   0.214   4.537   1.881
10082SOL    HW231146   0.213   4.622   1.741
10083SOL     OW31147   3.325   6.176   2.731
10083SOL    HW131148   3.389   6.162   2.806
10083SOL    HW231149   3.232   6.155   2.761
10084SOL     OW31150   1.681   3.000   4.735
10084SOL    HW131151   1.636   3.061   4.670
10084SOL    HW231152   1.777   3.028   4.745
10085SOL     OW31153   3.674   6.857   1.761
10085SOL    HW131154   3.733   6.777   1.751
10085SOL    HW231155   3.682   6.893   1.854
10086SOL     OW31156   2.547   1.078   3.310
10086SOL    HW131157   2.561   1.121   3.221
10086SOL    HW231158   2.475   1.009   3.303
10087SOL     OW31159   1.695   5.660   6.163
10087SOL    HW131160   1.712   5.726   6.236
10087SOL    HW231161   1.597   5.643   6.155
10088SOL     OW31162   5.968   1.528   0.702
10088SOL    HW131163   6.031   1.552   0.775
10088SOL    HW231164   5.894   1.471   0.739
10089SOL     OW31165   3.589   6.742   2.935
10089SOL    HW131166   3.548   6.658   2.969
10089SOL    HW231167   3.521   6.816   2.938
10090SOL     OW31168   3.395   6.033   2.225
10090SOL    HW131169   3.441   6.089   2.156
10090SOL    HW231170   3.430   6.056   2.315
10091SOL     OW31171   5.299   6.040   3.011
10091SOL    HW131172   5.223   6.063   3.071
10091SOL    HW231173   5.384   6.079   3.048
10092SOL     OW31174   6.847   1.709   2.606
10092SOL    HW131175   6.834   1.790   2.548
10092SOL    HW231176   6.810   1.629   2.558
10093SOL     OW31177   4.518   4.203   6.284
10093SOL    HW131178   4.523   4.301   6.305
10093SOL    HW231179   4.532   4.189   6.186
10094SOL     OW31180   4.125   2.650   0.366
10094SOL    HW131181   4.098   2.566   0.319
10094SOL    HW231182   4.220   2.643   0.396
10095SOL     OW31183   4.380   2.756   5.287
10095SOL    HW131184   4.302   2.702   5.258
10095SOL    HW231185   4.362   2.795   5.378
10096SOL     OW31186   6.814   4.928   1.649
10096SOL    HW131187   6.912   4.922   1.667
10096SOL    HW231188   6.780   4.838   1.621
10097SOL     OW31189   0.961   0.934   1.263
10097SOL    HW131190   1.000   0.972   1.347
10097SOL    HW231191   0.875   0.888   1.285
10098SOL     OW31192   3.924   5.055   0.468
10098SOL    HW131193   4.021   5.062   0.443
10098SOL    HW231194   3.916   5.058   0.568
10099SOL     OW31195   6.882   6.188   3.265
10099SOL    HW131196   6.908   6.232   3.179
10099SOL    HW231197   6.892   6.253   3.340
10100SOL     OW31198   5.324   5.564   3.933
10100SOL    HW131199   5.301   5.476   3.892
10100SOL    HW231200   5.240   5.609   3.965
10101SOL     OW31201   0.145   2.017   6.344
10101SOL    HW131202   0.079   2.085   6.314
10101SOL    HW231203   0.235   2.060   6.356
10102SOL     OW31204   0.376   5.220   3.200
10102SOL    HW131205   0.474   5.234   3.184
10102SOL    HW231206   0.346   5.138   3.151
10103SOL     OW31207   0.046   0.697   6.847
10103SOL    HW131208   0.035   0.791   6.879
10103SOL    HW231209   0.004   0.634   6.912
10104SOL     OW31210   2.500   1.474   4.363
10104SOL    HW131211   2.449   1.560   4.363
10104SOL    HW231212   2.487   1.427   4.450
10105SOL     OW31213   3.515   1.656   4.126
10105SOL    HW131214   3.479   1.685   4.037
10105SOL    HW231215   3.441   1.659   4.194
10106SOL     OW31216   6.862   3.737   1.085
10106SOL    HW131217   6.926   3.813   1.093
10106SOL    HW231218   6.875   3.691   0.998
10107SOL     OW31219   4.601   5.503   5.539
10107SOL    HW131220   4.591   5.487   5.637
10107SOL    HW231221   4.656   5.429   5.499
10108SOL     OW31222   3.216   1.785   4.908
10108SOL    HW131223   3.221   1.806   5.005
10108SOL    HW231224   3.176   1.863   4.859
10109SOL     OW31225   1.286   2.874   0.787
10109SOL    HW131226   1.210   2.931   0.821
10109SOL    HW231227   1.307   2.900   0.693
10110SOL     OW31228   6.225   6.359   1.535
10110SOL    HW131229   6.232   6.260   1.543
10110SOL    HW231230   6.229   6.385   1.438
10111SOL     OW31231   6.100   2.363   2.101
10111SOL    HW131232   6.089   2.320   2.012
10111SOL    HW231233   6.126   2.294   2.168
10112SOL     OW31234   0.392   2.498   3.645
10112SOL    HW131235   0.445   2.425   3.689
10112SOL    HW231236   0.424   2.509   3.551
10113SOL     OW31237   6.998   7.013   6.495
10113SOL    HW131238   6.955   6.926   6.515
10113SOL    HW231239   0.063   6.998   6.456
10114SOL     OW31240   6.238   4.375   0.957
10114SOL    HW131241   6.151   4.423   0.962
10114SOL    HW231242   6.257   4.350   0.862
10115SOL     OW31243   3.434   1.746   6.612
10115SOL    HW131244   3.430   1.825   6.550
10115SOL    HW231245   3.529   1.716   6.622
10116SOL     OW31246   1.061   6.488   6.396
10116SOL    HW131247   1.077   6.395   6.365
10116SOL    HW231248   0.965   6.512   6.381
10117SOL     OW31249   0.729   4.207   1.256
10117SOL    HW131250   0.669   4.248   1.325
10117SOL    HW231251   0.782   4.279   1.212
10118SOL     OW31252   3.499   5.254   3.904
10118SOL    HW131253   3.471   5.176   3.960
10118SOL    HW231254   3.507   5.225   3.808
10119SOL     OW31255   5.627   5.853   6.840
10119SOL    HW131256   5.649   5.781   6.906
10119SOL    HW231257   5.708   5.872   6.784
10120SOL     OW31258   2.599   2.523   2.794
10120SOL    HW131259   2.549   2.498   2.712
10120SOL    HW231260   2.697   2.529   2.773
10121SOL     OW31261   6.597   5.782   1.611
10121SOL    HW131262   6.668   5.788   1.682
10121SOL    HW231263   6.531   5.712   1.636
10122SOL     OW31264   1.990   0.015   3.373
10122SOL    HW131265   2.054   7.012   3.444
10122SOL    HW231266   1.945   6.960   3.335
10123SOL     OW31267   6.369   6.854   6.658
10123SOL    HW131268   6.309   6.833   6.581
10123SOL    HW231269   6.464   6.850   6.629
10124SOL     OW31270   0.570   4.923   3.311
10124SOL    HW131271   0.600   5.009   3.268
10124SOL    HW231272   0.507   4.876   3.250
10125SOL     OW31273   2.000   2.760   4.008
10125SOL    HW131274   1.997   2.661   4.002
10125SOL    HW231275   1.987   2.789   4.103
10126SOL     OW31276   0.073   6.029   4.484
10126SOL    HW131277   0.081   6.030   4.384
10126SOL    HW231278   0.071   6.123   4.518
10127SOL     OW31279   2.447   1.045   4.958
10127SOL    HW131280   2.523   1.006   5.009
10127SOL    HW231281   2.422   0.985   4.882
10128SOL     OW31282   2.809   1.123   0.729
10128SOL    HW131283   2.841   1.036   0.691
10128SOL    HW231284   2.837   1.198   0.668
10129SOL     OW31285   6.414   1.425   5.823
10129SOL    HW131286   6.412   1.353   5.753
10129SOL    HW231287   6.503   1.470   5.822
10130SOL     OW31288   1.280   2.684   3.378
10130SOL    HW131289   1.240   2.631   3.452
10130SOL    HW231290   1.326   2.623   3.313
10131SOL     OW31291   2.747   1.052   5.089
10131SOL    HW131292   2.683   1.102   5.147
10131SOL    HW231293   2.801   1.117   5.036
10132SOL     OW31294   6.041   0.477   2.038
10132SOL    HW131295   5.953   0.486   1.991
10132SOL    HW231296   6.032   0.414   2.115
10133SOL     OW31297   4.665   5.677   1.702
10133SOL    HW131298   4.616   5.682   1.615
10133SOL    HW231299   4.646   5.590   1.746
10134SOL     OW31300   6.487   1.541   2.888
10134SOL    HW131301   6.403   1.584   2.923
10134SOL    HW231302   6.466   1.491   2.804
10135SOL     OW31303   6.511   6.848   3.208
10135SOL    HW131304   6.445   6.775   3.190
10135SOL    HW231305   6.550   6.837   3.299
10136SOL     OW31306   5.070   0.594   2.875
10136SOL    HW131307   5.065   0.554   2.784
10136SOL    HW231308   5.061   0.693   2.869
10137SOL     OW31309   5.951   5.924   2.549
10137SOL    HW131310   5.881   5.853   2.561
10137SOL    HW231311   6.040   5.887   2.576
10138SOL     OW31312   6.814   1.931   2.002
10138SOL    HW131313   6.805   2.024   2.036
10138SOL    HW231314   6.760   1.869   2.058
10139SOL     OW31315   4.234   2.557   0.980
10139SOL    HW131316   4.258   2.506   1.063
10139SOL    HW231317   4.306   2.624   0.961
10140SOL     OW31318   6.148   6.206   3.822
10140SOL    HW131319   6.135   6.296   3.781
10140SOL    HW231320   6.216   6.212   3.896
10141SOL     OW31321   0.788   2.005   4.681
10141SOL    HW131322   0.831   2.056   4.607
10141SOL    HW231323   0.765   2.066   4.756
10142SOL     OW31324   4.535   6.697   1.570
10142SOL    HW131325   4.456   6.752   1.597
10142SOL    HW231326   4.511   6.600   1.574
10143SOL     OW31327   6.919   3.416   0.157
10143SOL    HW131328   6.897   3.509   0.128
10143SOL    HW231329   6.997   3.383   0.103
10144SOL     OW31330   4.820   0.294   2.291
10144SOL    HW131331   4.808   0.297   2.192
10144SOL    HW231332   4.863   0.379   2.321
10145SOL     OW31333   6.385   0.439   5.444
10145SOL    HW131334   6.381   0.342   5.469
10145SOL    HW231335   6.351   0.493   5.521
10146SOL     OW31336   1.586   1.635   5.333
10146SOL    HW131337   1.576   1.630   5.234
10146SOL    HW231338   1.500   1.665   5.374
10147SOL     OW31339   3.370   4.668   0.711
10147SOL    HW131340   3.418   4.635   0.630
10147SOL    HW231341   3.271   4.668   0.694
10148SOL     OW31342   6.914   5.858   6.850
10148SOL    HW131343   6.927   5.793   6.925
10148SOL    HW231344   6.984   5.842   6.780
10149SOL     OW31345   3.787   3.022   4.217
10149SOL    HW131346   3.739   3.007   4.303
10149SOL    HW231347   3.734   3.084   4.160
10150SOL     OW31348   6.397   4.000   6.698
10150SOL    HW131349   6.450   4.038   6.623
10150SOL    HW231350   6.301   3.994   6.672
10151SOL     OW31351   0.485   0.331   0.056
10151SOL    HW131352   0.448   0.424   0.047
10151SOL    HW231353   0.461   0.278   7.001
10152SOL     OW31354   3.488   6.403   4.101
10152SOL    HW131355   3.489   6.333   4.172
10152SOL    HW231356   3.472   6.361   4.012
10153SOL     OW31357   4.839   4.345   1.019
10153SOL    HW131358   4.759   4.319   0.966
10153SOL    HW231359   4.826   4.436   1.058
10154SOL     OW31360   5.162   5.085   6.315
10154SOL    HW131361   5.132   5.088   6.220
10154SOL    HW231362   5.261   5.099   6.319
10155SOL     OW31363   4.781   2.539   5.118
10155SOL    HW131364   4.831   2.583   5.043
10155SOL    HW231365   4.720   2.469   5.080
10156SOL     OW31366   3.371   2.041   6.803
10156SOL    HW131367   3.471   2.043   6.802
10156SOL    HW231368   3.339   1.965   6.859
10157SOL     OW31369   6.846   5.765   2.315
10157SOL    HW131370   6.878   5.828   2.245
10157SOL    HW231371   6.899   5.681   2.311
10158SOL     OW31372   0.116   4.696   6.303
10158SOL    HW131373   0.047   4.664   6.238
10158SOL    HW231374   0.178   4.760   6.257
10159SOL     OW31375   3.958   3.189   1.596
10159SOL    HW131376   4.051   3.221   1.614
10159SOL    HW231377   3.918   3.244   1.522
10160SOL     OW31378   0.203   4.361   2.262
10160SOL    HW131379   0.269   4.287   2.278
10160SOL    HW231380   0.148   4.339   2.182
10161SOL     OW31381   6.508   2.542   0.417
10161SOL    HW131382   6.534   2.451   0.450
10161SOL    HW231383   6.544   2.555   0.325
10162SOL     OW31384   2.092   1.970   1.972
10162SOL    HW131385   1.998   1.980   2.005
10162SOL    HW231386   2.098   2.004   1.878
10163SOL     OW31387   3.729   5.197   5.097
10163SOL    HW131388   3.720   5.264   5.024
10163SOL    HW231389   3.809   5.139   5.080
10164SOL     OW31390   0.627   1.223   3.686
10164SOL    HW131391   0.696   1.176   3.741
10164SOL    HW231392   0.657   1.317   3.668
10165SOL     OW31393   2.172   3.185   3.355
10165SOL    HW131394   2.189   3.118   3.283
10165SOL    HW231395   2.158   3.275   3.315
10166SOL     OW31396   3.114   6.276   3.556
10166SOL    HW131397   3.130   6.323   3.643
10166SOL    HW231398   3.023   6.298   3.522
10167SOL     OW31399   3.724   1.248   0.273
10167SOL    HW131400   3.814   1.280   0.302
10167SOL    HW231401   3.694   1.174   0.333
10168SOL     OW31402   0.450   1.013   0.040
10168SOL    HW131403   0.480   0.931   0.088
10168SOL    HW231404   0.488   1.013   6.973
10169SOL     OW31405   4.499   5.111   2.797
10169SOL    HW131406   4.429   5.171   2.758
10169SOL    HW231407   4.479   5.094   2.893
10170SOL     OW31408   4.602   6.642   6.914
10170SOL    HW131409   4.630   6.736   6.933
10170SOL    HW231410   4.528   6.643   6.847
10171SOL     OW31411   1.489   4.336   3.242
10171SOL    HW131412   1.491   4.369   3.148
10171SOL    HW231413   1.527   4.243   3.245
10172SOL     OW31414   0.733   0.633   3.298
10172SOL    HW131415   0.734   0.534   3.283
10172SOL    HW231416   0.820   0.672   3.269
10173SOL     OW31417   4.388   2.348   4.584
10173SOL    HW131418   4.289   2.345   4.569
10173SOL    HW231419   4.428   2.421   4.529
10174SOL     OW31420   4.537   5.218   1.177
10174SOL    HW131421   4.620   5.163   1.168
10174SOL    HW231422   4.562   5.313   1.199
10175SOL     OW31423   6.729   6.805   4.307
10175SOL    HW131424   6.816   6.854   4.296
10175SOL    HW231425   6.714   6.785   4.404
10176SOL     OW31426   7.024   1.430   5.053
10176SOL    HW131427   7.014   1.484   5.136
10176SOL    HW231428   0.073   1.467   4.998
10177SOL     OW31429   3.137   1.100   4.891
10177SOL    HW131430   3.048   1.124   4.929
10177SOL    HW231431   3.134   1.107   4.791
10178SOL     OW31432   6.293   1.760   2.127
10178SOL    HW131433   6.321   1.840   2.180
10178SOL    HW231434   6.229   1.787   2.056
10179SOL     OW31435   0.041   6.007   1.203
10179SOL    HW131436   6.979   6.010   1.252
10179SOL    HW231437   0.077   5.914   1.205
10180SOL     OW31438   1.767   0.231   6.048
10180SOL    HW131439   1.698   0.197   6.112
10180SOL    HW231440   1.843   0.271   6.098
10181SOL     OW31441   0.558   3.765   2.133
10181SOL    HW131442   0.504   3.770   2.217
10181SOL    HW231443   0.593   3.672   2.121
10182SOL     OW31444   2.759   6.679   6.204
10182SOL    HW131445   2.771   6.615   6.128
10182SOL    HW231446   2.808   6.644   6.285
10183SOL     OW31447   3.924   5.897   6.346
10183SOL    HW131448   3.893   5.992   6.347
10183SOL    HW231449   3.873   5.845   6.415
10184SOL     OW31450   4.661   2.739   3.986
10184SOL    HW131451   4.700   2.756   4.076
10184SOL    HW231452   4.702   2.801   3.919
10185SOL     OW31453   3.028   4.709   1.678
10185SOL    HW131454   3.009   4.633   1.740
10185SOL    HW231455   3.119   4.745   1.698
10186SOL     OW31456   3.578   2.897   1.885
10186SOL    HW131457   3.588   2.799   1.870
10186SOL    HW231458   3.625   2.947   1.812
10187SOL     OW31459   1.245   3.395   5.399
10187SOL    HW131460   1.222   3.468   5.335
10187SOL    HW231461   1.330   3.419   5.447
10188SOL     OW31462   2.492   6.525   6.591
10188SOL    HW131463   2.508   6.482   6.680
10188SOL    HW231464   2.418   6.592   6.600
10189SOL     OW31465   2.361   1.604   5.409
10189SOL    HW131466   2.362   1.642   5.501
10189SOL    HW231467   2.454   1.580   5.382
10190SOL     OW31468   2.852   4.146   0.979
10190SOL    HW131469   2.796   4.201   0.917
10190SOL    HW231470   2.933   4.114   0.931
10191SOL     OW31471   6.121   0.609   0.074
10191SOL    HW131472   6.087   0.649   7.014
10191SOL    HW231473   6.210   0.648   0.096
10192SOL     OW31474   2.883   0.785   4.077
10192SOL    HW131475   2.866   0.748   4.168
10192SOL    HW231476   2.817   0.857   4.057
10193SOL     OW31477   3.717   3.712   3.582
10193SOL    HW131478   3.656   3.684   3.508
10193SOL    HW231479   3.745   3.632   3.635
10194SOL     OW31480   3.060   5.923   3.042
10194SOL    HW131481   3.013   5.952   3.125
10194SOL    HW231482   3.159   5.921   3.058
10195SOL     OW31483   5.152   6.959   2.231
10195SOL    HW131484   5.119   0.009   2.289
10195SOL    HW231485   5.155   6.990   2.136
10196SOL     OW31486   4.667   4.683   4.225
10196SOL    HW131487   4.662   4.757   4.157
10196SOL    HW231488   4.648   4.596   4.180
10197SOL     OW31489   5.716   1.774   2.579
10197SOL    HW131490   5.746   1.712   2.507
10197SOL    HW231491   5.652   1.726   2.640
10198SOL     OW31492   3.672   1.214   1.951
10198SOL    HW131493   3.719   1.135   1.990
10198SOL    HW231494   3.671   1.206   1.851
10199SOL     OW31495   1.158   1.800   6.953
10199SOL    HW131496   1.206   1.811   6.865
10199SOL    HW231497   1.224   1.776   7.024
10200SOL     OW31498   4.818   6.758   3.936
10200SOL    HW131499   4.852   6.677   3.889
10200SOL    HW231500   4.725   6.777   3.906
10201SOL     OW31501   0.722   5.439   3.296
10201SOL    HW131502   0.674   5.507   3.241
10201SOL    HW231503   0.804   5.480   3.336
10202SOL     OW31504   1.269   2.368   3.455
10202SOL    HW131505   1.356   2.393   3.497
10202SOL    HW231506   1.194   2.390   3.517
10203SOL     OW31507   6.083   2.498   1.241
10203SOL    HW131508   5.990   2.529   1.218
10203SOL    HW231509   6.118   2.549   1.319
10204SOL     OW31510   1.678   6.131   4.402
10204SOL    HW131511   1.607   6.071   4.365
10204SOL    HW231512   1.696   6.205   4.338
10205SOL     OW31513   3.717   6.789   0.752
10205SOL    HW131514   3.768   6.875   0.766
10205SOL    HW231515   3.723   6.734   0.835
10206SOL     OW31516   5.875   5.978   6.864
10206SOL    HW131517   5.907   5.952   6.773
10206SOL    HW231518   5.932   5.936   6.934
10207SOL     OW31519   3.409   1.473   2.043
10207SOL    HW131520   3.344   1.416   1.991
10207SOL    HW231521   3.495   1.424   2.051
10208SOL     OW31522   0.460   2.067   6.156
10208SOL    HW131523   0.545   2.074   6.208
10208SOL    HW231524   0.384   2.102   6.211
10209SOL     OW31525   3.697   6.254   7.010
10209SOL    HW131526   3.757   6.176   0.006
10209SOL    HW231527   3.620   6.255   0.048
10210SOL     OW31528   4.409   6.456   6.576
10210SOL    HW131529   4.345   6.528   6.601
10210SOL    HW231530   4.454   6.421   6.658
10211SOL     OW31531   4.079   5.177   4.522
10211SOL    HW131532   4.056   5.253   4.583
10211SOL    HW231533   4.018   5.100   4.541
10212SOL     OW31534   6.642   6.019   5.586
10212SOL    HW131535   6.698   5.998   5.666
10212SOL    HW231536   6.680   5.972   5.506
10213SOL     OW31537   3.729   6.905   4.578
10213SOL    HW131538   3.724   6.869   4.485
10213SOL    HW231539   3.811   6.961   4.588
10214SOL     OW31540   6.750   0.380   0.401
10214SOL    HW131541   6.677   0.365   0.468
10214SOL    HW231542   6.833   0.333   0.430
10215SOL     OW31543   4.972   2.754   0.335
10215SOL    HW131544   4.956   2.832   0.274
10215SOL    HW231545   4.885   2.712   0.358
10216SOL     OW31546   5.219   0.647   2.313
10216SOL    HW131547   5.282   0.644   2.390
10216SOL    HW231548   5.257   0.705   2.240
10217SOL     OW31549   2.908   1.763   6.681
10217SOL    HW131550   2.851   1.686   6.650
10217SOL    HW231551   3.004   1.736   6.676
10218SOL     OW31552   3.959   0.692   6.446
10218SOL    HW131553   3.989   0.676   6.352
10218SOL    HW231554   3.883   0.631   6.467
10219SOL     OW31555   0.376   5.315   1.031
10219SOL    HW131556   0.291   5.272   1.002
10219SOL    HW231557   0.411   5.270   1.113
10220SOL     OW31558   4.333   2.799   6.371
10220SOL    HW131559   4.237   2.825   6.367
10220SOL    HW231560   4.351   2.729   6.301
10221SOL     OW31561   2.236   6.844   5.056
10221SOL    HW131562   2.257   6.777   4.985
10221SOL    HW231563   2.316   6.902   5.072
10222SOL     OW31564   2.498   4.985   5.385
10222SOL    HW131565   2.573   4.964   5.448
10222SOL    HW231566   2.428   4.914   5.391
10223SOL     OW31567   2.280   5.665   6.077
10223SOL    HW131568   2.306   5.703   6.165
10223SOL    HW231569   2.247   5.571   6.089
10224SOL     OW31570   3.797   5.869   5.528
10224SOL    HW131571   3.858   5.929   5.581
10224SOL    HW231572   3.731   5.826   5.590
10225SOL     OW31573   5.038   0.050   4.902
10225SOL    HW131574   5.045   7.024   4.988
10225SOL    HW231575   5.129   0.078   4.873
10226SOL     OW31576   6.520   2.477   6.448
10226SOL    HW131577   6.603   2.532   6.457
10226SOL    HW231578   6.531   2.391   6.498
10227SOL     OW31579   4.472   4.677   5.375
10227SOL    HW131580   4.420   4.763   5.377
10227SOL    HW231581   4.569   4.697   5.389
10228SOL     OW31582   1.232   2.676   1.396
10228SOL    HW131583   1.222   2.577   1.386
10228SOL    HW231584   1.326   2.703   1.373
10229SOL     OW31585   2.991   0.696   1.826
10229SOL    HW131586   2.948   0.759   1.761
10229SOL    HW231587   3.061   0.745   1.879
10230SOL     OW31588   5.520   0.338   3.078
10230SOL    HW131589   5.579   0.303   3.005
10230SOL    HW231590   5.495   0.262   3.138
10231SOL     OW31591   4.920   6.771   4.773
10231SOL    HW131592   4.965   6.687   4.803
10231SOL    HW231593   4.910   6.834   4.850
10232SOL     OW31594   4.260   2.218   3.013
10232SOL    HW131595   4.250   2.127   3.053
10232SOL    HW231596   4.295   2.209   2.919
10233SOL     OW31597   5.381   6.598   5.479
10233SOL    HW131598   5.442   6.520   5.491
10233SOL    HW231599   5.295   6.582   5.528
10234SOL     OW31600   4.062   4.433   0.967
10234SOL    HW131601   4.161   4.428   0.981
10234SOL    HW231602   4.042   4.464   0.874
10235SOL     OW31603   4.931   0.258   6.990
10235SOL    HW131604   4.834   0.276   7.002
10235SOL    HW231605   4.983   0.312   0.030
10236SOL     OW31606   1.531   4.290   1.433
10236SOL    HW131607   1.568   4.355   1.367
10236SOL    HW231608   1.431   4.297   1.435
10237SOL     OW31609   5.910   2.345   2.859
10237SOL    HW131610   5.983   2.320   2.796
10237SOL    HW231611   5.830   2.375   2.807
10238SOL     OW31612   5.359   5.126   5.835
10238SOL    HW131613   5.452   5.093   5.851
10238SOL    HW231614   5.361   5.226   5.823
10239SOL     OW31615   5.517   4.015   4.076
10239SOL    HW131616   5.464   3.933   4.099
10239SOL    HW231617   5.521   4.026   3.977
10240SOL     OW31618   4.860   3.924   2.615
10240SOL    HW131619   4.829   4.017   2.633
10240SOL    HW231620   4.860   3.907   2.516
10241SOL     OW31621   1.461   2.553   2.077
10241SOL    HW131622   1.526   2.620   2.113
10241SOL    HW231623   1.368   2.588   2.088
10242SOL     OW31624   0.784   5.280   6.825
10242SOL    HW131625   0.733   5.205   6.866
10242SOL    HW231626   0.726   5.328   6.759
10243SOL     OW31627   0.057   5.581   3.968
10243SOL    HW131628   0.024   5.674   3.983
10243SOL    HW231629   0.122   5.556   4.040
10244SOL     OW31630   3.143   5.783   0.313
10244SOL    HW131631   3.181   5.871   0.344
10244SOL    HW231632   3.056   5.767   0.359
10245SOL     OW31633   3.665   3.692   1.191
10245SOL    HW131634   3.601   3.698   1.115
10245SOL    HW231635   3.729   3.616   1.175
10246SOL     OW31636   2.947   3.853   4.621
10246SOL    HW131637   3.019   3.921   4.639
10246SOL    HW231638   2.860   3.887   4.655
10247SOL     OW31639   1.194   5.356   6.594
10247SOL    HW131640   1.243   5.411   6.661
10247SOL    HW231641   1.159   5.415   6.521
10248SOL     OW31642   6.123   0.044   3.867
10248SOL    HW131643   6.212   0.037   3.821
10248SOL    HW231644   6.130   0.105   3.945
10249SOL     OW31645   4.695   1.335   5.836
10249SOL    HW131646   4.595   1.328   5.837
10249SOL    HW231647   4.730   1.292   5.753
10250SOL     OW31648   4.138   5.786   0.762
10250SOL    HW131649   4.052   5.756   0.723
10250SOL    HW231650   4.185   5.709   0.805
10251SOL     OW31651   3.781   4.465   1.364
10251SOL    HW131652   3.852   4.530   1.391
10251SOL    HW231653   3.823   4.385   1.321
10252SOL     OW31654   0.187   4.660   0.444
10252SOL    HW131655   0.123   4.665   0.368
10252SOL    HW231656   0.151   4.598   0.514
10253SOL     OW31657   5.528   4.258   0.194
10253SOL    HW131658   5.536   4.322   0.118
10253SOL    HW231659   5.616   4.214   0.210
10254SOL     OW31660   3.325   2.426   5.979
10254SOL    HW131661   3.292   2.374   6.059
10254SOL    HW231662   3.325   2.367   5.899
10255SOL     OW31663   2.918   4.795   3.989
10255SOL    HW131664   2.867   4.715   3.958
10255SOL    HW231665   2.864   4.844   4.057
10256SOL     OW31666   5.325   5.476   0.101
10256SOL    HW131667   5.243   5.479   0.159
10256SOL    HW231668   5.356   5.569   0.082
10257SOL     OW31669   1.652   4.117   4.918
10257SOL    HW131670   1.715   4.180   4.873
10257SOL    HW231671   1.558   4.143   4.896
10258SOL     OW31672   4.450   1.120   2.505
10258SOL    HW131673   4.421   1.026   2.524
10258SOL    HW231674   4.524   1.119   2.437
10259SOL     OW31675   5.866   3.511   3.943
10259SOL    HW131676   5.831   3.586   3.886
10259SOL    HW231677   5.792   3.447   3.961
10260SOL     OW31678   6.827   6.033   2.613
10260SOL    HW131679   6.884   5.964   2.658
10260SOL    HW231680   6.734   5.998   2.603
10261SOL     OW31681   2.249   6.920   2.282
10261SOL    HW131682   2.328   6.951   2.229
10261SOL    HW231683   2.255   6.957   2.375
10262SOL     OW31684   6.835   6.415   3.701
10262SOL    HW131685   6.882   6.494   3.741
10262SOL    HW231686   6.736   6.433   3.698
10263SOL     OW31687   6.869   3.392   5.171
10263SOL    HW131688   6.794   3.456   5.188
10263SOL    HW231689   6.852   3.344   5.085
10264SOL     OW31690   0.322   0.576   0.882
10264SOL    HW131691   0.422   0.579   0.891
10264SOL    HW231692   0.289   0.486   0.911
10265SOL     OW31693   5.348   2.552   4.491
10265SOL    HW131694   5.394   2.512   4.570
10265SOL    HW231695   5.416   2.579   4.423
10266SOL     OW31696   3.436   3.595   0.027
10266SOL    HW131697   3.376   3.632   6.982
10266SOL    HW231698   3.384   3.532   0.086
10267SOL     OW31699   0.121   0.794   6.319
10267SOL    HW131700   0.087   0.888   6.321
10267SOL    HW231701   0.067   0.740   6.255
10268SOL     OW31702   6.797   4.818   0.367
10268SOL    HW131703   6.722   4.752   0.362
10268SOL    HW231704   6.877   4.780   0.319
10269SOL     OW31705   4.513   1.710   5.878
10269SOL    HW131706   4.559   1.698   5.967
10269SOL    HW231707   4.506   1.807   5.857
10270SOL     OW31708   3.599   6.018   3.127
10270SOL    HW131709   3.554   5.979   3.208
10270SOL    HW231710   3.695   6.034   3.146
10271SOL     OW31711   1.501   4.517   1.252
10271SOL    HW131712   1.529   4.605   1.214
10271SOL    HW231713   1.415   4.489   1.211
10272SOL     OW31714   1.865   3.432   4.181
10272SOL    HW131715   1.899   3.347   4.141
10272SOL    HW231716   1.818   3.485   4.110
10273SOL     OW31717   4.575   6.789   3.774
10273SOL    HW131718   4.482   6.757   3.757
10273SOL    HW231719   4.639   6.742   3.713
10274SOL     OW31720   1.738   4.323   7.016
10274SOL    HW131721   1.820   4.380   7.015
10274SOL    HW231722   1.689   4.333   6.929
10275SOL     OW31723   0.280   5.707   1.850
10275SOL    HW131724   0.352   5.645   1.879
10275SOL    HW231725   0.276   5.708   1.750
10276SOL     OW31726   2.391   6.846   0.199
10276SOL    HW131727   2.375   6.792   0.281
10276SOL    HW231728   2.310   6.900   0.179
10277SOL     OW31729   6.557   5.650   2.279
10277SOL    HW131730   6.574   5.579   2.210
10277SOL    HW231731   6.644   5.686   2.313
10278SOL     OW31732   6.532   1.012   5.069
10278SOL    HW131733   6.542   0.927   5.018
10278SOL    HW231734   6.447   1.058   5.041
10279SOL     OW31735   3.894   6.243   3.964
10279SOL    HW131736   3.930   6.159   4.005
10279SOL    HW231737   3.892   6.316   4.033
10280SOL     OW31738   2.795   2.567   6.978
10280SOL    HW131739   2.814   2.662   6.954
10280SOL    HW231740   2.697   2.555   6.992
10281SOL     OW31741   4.472   1.125   4.457
10281SOL    HW131742   4.450   1.167   4.545
10281SOL    HW231743   4.561   1.081   4.463
10282SOL     OW31744   1.670   3.011   4.317
10282SOL    HW131745   1.766   3.007   4.288
10282SOL    HW231746   1.665   3.041   4.412
10283SOL     OW31747   1.365   5.587   6.590
10283SOL    HW131748   1.435   5.516   6.590
10283SOL    HW231749   1.354   5.623   6.497
10284SOL     OW31750   5.388   3.269   0.388
10284SOL    HW131751   5.301   3.273   0.339
10284SOL    HW231752   5.447   3.200   0.345
10285SOL     OW31753   4.886   1.521   0.787
10285SOL    HW131754   4.869   1.449   0.719
10285SOL    HW231755   4.905   1.607   0.741
10286SOL     OW31756   3.359   0.141   3.868
10286SOL    HW131757   3.291   0.076   3.899
10286SOL    HW231758   3.404   0.183   3.948
10287SOL     OW31759   2.073   3.803   2.283
10287SOL    HW131760   2.089   3.710   2.249
10287SOL    HW231761   2.160   3.845   2.307
10288SOL     OW31762   4.422   6.406   4.320
10288SOL    HW131763   4.505   6.447   4.282
10288SOL    HW231764   4.390   6.333   4.259
10289SOL     OW31765   2.595   1.480   2.208
10289SOL    HW131766   2.645   1.555   2.251
10289SOL    HW231767   2.497   1.500   2.207
10290SOL     OW31768   3.274   2.886   3.865
10290SOL    HW131769   3.288   2.820   3.791
10290SOL    HW231770   3.215   2.960   3.834
10291SOL     OW31771   4.098   6.978   3.664
10291SOL    HW131772   4.033   6.930   3.605
10291SOL    HW231773   4.049   7.022   3.739
10292SOL     OW31774   6.512   3.093   4.335
10292SOL    HW131775   6.454   3.023   4.293
10292SOL    HW231776   6.601   3.054   4.358
10293SOL     OW31777   1.557   4.583   3.412
10293SOL    HW131778   1.532   4.515   3.343
10293SOL    HW231779   1.566   4.673   3.370
10294SOL     OW31780   6.071   0.808   2.954
10294SOL    HW131781   6.124   0.738   2.908
10294SOL    HW231782   6.010   0.853   2.889
10295SOL     OW31783   1.585   3.961   3.000
10295SOL    HW131784   1.566   3.872   3.042
10295SOL    HW231785   1.529   3.973   2.919
10296SOL     OW31786   6.738   3.721   1.679
10296SOL    HW131787   6.736   3.795   1.745
10296SOL    HW231788   6.657   3.726   1.620
10297SOL     OW31789   3.647   4.602   5.786
10297SOL    HW131790   3.652   4.516   5.836
10297SOL    HW231791   3.571   4.657   5.822
10298SOL     OW31792   5.998   3.286   3.010
10298SOL    HW131793   6.002   3.386   3.014
10298SOL    HW231794   5.925   3.257   2.949
10299SOL     OW31795   4.021   5.418   2.592
10299SOL    HW131796   4.000   5.327   2.626
10299SOL    HW231797   3.978   5.432   2.502
10300SOL     OW31798   0.219   5.985   2.270
10300SOL    HW131799   0.156   6.051   2.229
10300SOL    HW231800   0.285   6.034   2.328
10301SOL     OW31801   4.370   0.580   1.800
10301SOL    HW131802   4.354   0.647   1.727
10301SOL    HW231803   4.290   0.575   1.859
10302SOL     OW31804   0.279   4.172   3.350
10302SOL    HW131805   0.264   4.252   3.292
10302SOL    HW231806   0.293   4.091   3.293
10303SOL     OW31807   4.871   3.762   1.256
10303SOL    HW131808   4.912   3.828   1.318
10303SOL    HW231809   4.941   3.700   1.221
10304SOL     OW31810   5.883   5.899   4.203
10304SOL    HW131811   5.893   5.932   4.109
10304SOL    HW231812   5.785   5.897   4.227
10305SOL     OW31813   2.232   5.057   1.479
10305SOL    HW131814   2.179   5.051   1.395
10305SOL    HW231815   2.321   5.099   1.460
10306SOL     OW31816   4.783   3.858   6.975
10306SOL    HW131817   4.852   3.818   0.010
10306SOL    HW231818   4.795   3.824   6.882
10307SOL     OW31819   3.223   2.277   6.195
10307SOL    HW131820   3.174   2.232   6.120
10307SOL    HW231821   3.233   2.214   6.271
10308SOL     OW31822   2.874   5.167   3.967
10308SOL    HW131823   2.785   5.144   4.005
10308SOL    HW231824   2.866   5.250   3.911
10309SOL     OW31825   6.954   6.412   3.445
10309SOL    HW131826   0.020   6.442   3.471
10309SOL    HW231827   6.903   6.385   3.527
10310SOL     OW31828   3.219   4.079   4.031
10310SOL    HW131829   3.194   4.095   4.127
10310SOL    HW231830   3.313   4.045   4.027
10311SOL     OW31831   1.138   6.732   0.765
10311SOL    HW131832   1.191   6.796   0.710
10311SOL    HW231833   1.069   6.781   0.818
10312SOL     OW31834   2.941   4.434   0.476
10312SOL    HW131835   2.923   4.525   0.513
10312SOL    HW231836   2.869   4.409   0.411
10313SOL     OW31837   6.743   5.761   3.831
10313SOL    HW131838   6.673   5.821   3.871
10313SOL    HW231839   6.699   5.687   3.781
10314SOL     OW31840   6.723   5.336   4.979
10314SOL    HW131841   6.657   5.260   4.979
10314SOL    HW231842   6.709   5.392   4.897
10315SOL     OW31843   4.065   6.147   5.406
10315SOL    HW131844   4.134   6.138   5.478
10315SOL    HW231845   3.991   6.207   5.438
10316SOL     OW31846   6.883   2.644   4.042
10316SOL    HW131847   6.833   2.561   4.067
10316SOL    HW231848   6.928   2.631   3.953
10317SOL     OW31849   6.148   4.255   6.167
10317SOL    HW131850   6.152   4.167   6.213
10317SOL    HW231851   6.237   4.301   6.175
10318SOL     OW31852   4.832   4.976   2.545
10318SOL    HW131853   4.811   5.026   2.628
10318SOL    HW231854   4.880   4.891   2.569
10319SOL     OW31855   5.572   6.894   3.769
10319SOL    HW131856   5.641   6.961   3.742
10319SOL    HW231857   5.506   6.936   3.831
10320SOL     OW31858   3.267   6.632   1.788
10320SOL    HW131859   3.182   6.683   1.799
10320SOL    HW231860   3.250   6.550   1.732
10321SOL     OW31861   4.358   6.317   4.975
10321SOL    HW131862   4.418   6.323   4.895
10321SOL    HW231863   4.336   6.222   4.993
10322SOL     OW31864   0.114   1.521   6.282
10322SOL    HW131865   0.165   1.536   6.366
10322SOL    HW231866   0.168   1.552   6.204
10323SOL     OW31867   0.340   2.065   5.198
10323SOL    HW131868   0.308   1.972   5.185
10323SOL    HW231869   0.310   2.122   5.121
10324SOL     OW31870   3.306   3.570   4.676
10324SOL    HW131871   3.341   3.476   4.686
10324SOL    HW231872   3.358   3.616   4.604
10325SOL     OW31873   0.762   2.953   3.870
10325SOL    HW131874   0.667   2.964   3.899
10325SOL    HW231875   0.792   3.036   3.822
10326SOL     OW31876   6.245   1.272   1.131
10326SOL    HW131877   6.194   1.198   1.087
10326SOL    HW231878   6.296   1.323   1.061
10327SOL     OW31879   5.824   2.019   3.915
10327SOL    HW131880   5.764   2.074   3.857
10327SOL    HW231881   5.773   1.943   3.953
10328SOL     OW31882   6.606   3.517   1.878
10328SOL    HW131883   6.619   3.428   1.835
10328SOL    HW231884   6.635   3.589   1.815
10329SOL     OW31885   2.760   5.595   3.039
10329SOL    HW131886   2.781   5.688   3.009
10329SOL    HW231887   2.784   5.530   2.968
10330SOL     OW31888   3.991   3.346   0.969
10330SOL    HW131889   4.014   3.252   0.996
10330SOL    HW231890   4.075   3.396   0.949
10331SOL     OW31891   5.187   1.647   4.694
10331SOL    HW131892   5.134   1.606   4.769
10331SOL    HW231893   5.239   1.725   4.729
10332SOL     OW31894   1.559   2.876   6.800
10332SOL    HW131895   1.470   2.922   6.810
10332SOL    HW231896   1.551   2.802   6.734
10333SOL     OW31897   0.291   4.514   5.517
10333SOL    HW131898   0.193   4.502   5.503
10333SOL    HW231899   0.318   4.468   5.602
10334SOL     OW31900   1.066   4.887   5.691
10334SOL    HW131901   1.126   4.946   5.744
10334SOL    HW231902   1.015   4.827   5.752
10335SOL     OW31903   2.726   5.052   2.635
10335SOL    HW131904   2.746   5.086   2.543
10335SOL    HW231905   2.630   5.067   2.656
10336SOL     OW31906   4.413   0.029   3.215
10336SOL    HW131907   4.510   0.026   3.192
10336SOL    HW231908   4.395   0.106   3.275
10337SOL     OW31909   1.525   3.535   6.189
10337SOL    HW131910   1.484   3.581   6.111
10337SOL    HW231911   1.545   3.602   6.260
10338SOL     OW31912   2.219   3.994   2.636
10338SOL    HW131913   2.314   3.965   2.622
10338SOL    HW231914   2.163   3.915   2.661
10339SOL     OW31915   3.349   6.153   6.822
10339SOL    HW131916   3.396   6.164   6.734
10339SOL    HW231917   3.253   6.179   6.812
10340SOL     OW31918   2.247   5.882   0.911
10340SOL    HW131919   2.158   5.838   0.912
10340SOL    HW231920   2.253   5.948   0.987
10341SOL     OW31921   6.811   3.198   1.446
10341SOL    HW131922   6.726   3.250   1.433
10341SOL    HW231923   6.802   3.108   1.404
10342SOL     OW31924   3.549   5.517   3.798
10342SOL    HW131925   3.526   5.420   3.806
10342SOL    HW231926   3.641   5.527   3.762
10343SOL     OW31927   2.663   2.332   4.894
10343SOL    HW131928   2.673   2.236   4.868
10343SOL    HW231929   2.586   2.372   4.845
10344SOL     OW31930   5.187   3.977   1.192
10344SOL    HW131931   5.193   3.959   1.094
10344SOL    HW231932   5.095   4.010   1.214
10345SOL     OW31933   3.163   1.694   6.742
10345SOL    HW131934   3.230   1.726   6.675
10345SOL    HW231935   3.189   1.728   6.833
10346SOL     OW31936   6.731   5.271   0.097
10346SOL    HW131937   6.701   5.258   0.002
10346SOL    HW231938   6.654   5.258   0.159
10347SOL     OW31939   3.867   6.961   2.531
10347SOL    HW131940   3.870   0.030   2.500
10347SOL    HW231941   3.944   6.943   2.592
10348SOL     OW31942   0.116   3.324   4.341
10348SOL    HW131943   0.065   3.239   4.328
10348SOL    HW231944   0.079   3.374   4.419
10349SOL     OW31945   5.945   2.019   0.158
10349SOL    HW131946   5.891   1.990   0.236
10349SOL    HW231947   5.942   1.948   0.087
10350SOL     OW31948   2.151   5.220   4.407
10350SOL    HW131949   2.071   5.228   4.347
10350SOL    HW231950   2.178   5.124   4.414
10351SOL     OW31951   3.740   5.584   4.953
10351SOL    HW131952   3.678   5.531   4.896
10351SOL    HW231953   3.830   5.541   4.953
10352SOL     OW31954   0.615   1.534   1.684
10352SOL    HW131955   0.707   1.531   1.645
10352SOL    HW231956   0.621   1.561   1.780
10353SOL     OW31957   5.645   2.817   3.214
10353SOL    HW131958   5.550   2.792   3.233
10353SOL    HW231959   5.706   2.745   3.247
10354SOL     OW31960   0.050   2.612   1.713
10354SOL    HW131961   0.079   2.575   1.625
10354SOL    HW231962   0.129   2.620   1.774
10355SOL     OW31963   6.476   1.829   0.464
10355SOL    HW131964   6.465   1.753   0.528
10355SOL    HW231965   6.443   1.801   0.374
10356SOL     OW31966   6.169   2.679   6.428
10356SOL    HW131967   6.114   2.608   6.471
10356SOL    HW231968   6.147   2.683   6.330
10357SOL     OW31969   0.235   6.739   6.551
10357SOL    HW131970   0.241   6.642   6.575
10357SOL    HW231971   0.291   6.793   6.614
10358SOL     OW31972   0.730   3.522   4.265
10358SOL    HW131973   0.641   3.525   4.220
10358SOL    HW231974   0.720   3.553   4.360
10359SOL     OW31975   1.220   2.684   2.168
10359SOL    HW131976   1.226   2.750   2.243
10359SOL    HW231977   1.197   2.594   2.205
10360SOL     OW31978   6.077   4.614   0.548
10360SOL    HW131979   6.047   4.689   0.607
10360SOL    HW231980   6.021   4.612   0.465
10361SOL     OW31981   5.671   2.171   3.750
10361SOL    HW131982   5.661   2.265   3.715
10361SOL    HW231983   5.602   2.113   3.708
10362SOL     OW31984   0.023   6.759   2.135
10362SOL    HW131985   0.107   6.771   2.081
10362SOL    HW231986   6.982   6.829   2.110
10363SOL     OW31987   5.698   5.065   6.239
10363SOL    HW131988   5.687   4.990   6.174
10363SOL    HW231989   5.789   5.061   6.281
10364SOL     OW31990   6.114   5.583   0.925
10364SOL    HW131991   6.024   5.557   0.959
10364SOL    HW231992   6.112   5.678   0.894
10365SOL     OW31993   6.235   6.108   6.494
10365SOL    HW131994   6.197   6.196   6.524
10365SOL    HW231995   6.252   6.051   6.574
10366SOL     OW31996   2.584   0.235   3.374
10366SOL    HW131997   2.603   0.141   3.347
10366SOL    HW231998   2.603   0.296   3.296
10367SOL     OW31999   4.161   5.958   2.290
10367SOL    HW132000   4.063   5.942   2.303
10367SOL    HW232001   4.182   6.054   2.308
10368SOL     OW32002   1.278   5.414   1.882
10368SOL    HW132003   1.256   5.318   1.901
10368SOL    HW232004   1.286   5.428   1.783
10369SOL     OW32005   2.518   0.671   5.440
10369SOL    HW132006   2.558   0.712   5.522
10369SOL    HW232007   2.442   0.727   5.409
10370SOL     OW32008   1.953   1.992   7.000
10370SOL    HW132009   1.995   2.032   0.057
10370SOL    HW232010   1.910   1.905   7.024
10371SOL     OW32011   4.021   5.658   2.973
10371SOL    HW132012   3.992   5.651   2.878
10371SOL    HW232013   3.957   5.609   3.032
10372SOL     OW32014   1.282   6.314   1.651
10372SOL    HW132015   1.213   6.353   1.712
10372SOL    HW232016   1.295   6.374   1.572
10373SOL     OW32017   6.726   0.396   5.706
10373SOL    HW132018   6.704   0.474   5.647
10373SOL    HW232019   6.822   0.399   5.731
10374SOL     OW32020   2.148   4.977   2.392
10374SOL    HW132021   2.238   4.936   2.406
10374SOL    HW232022   2.106   4.995   2.481
10375SOL     OW32023   2.701   5.742   6.702
10375SOL    HW132024   2.800   5.745   6.689
10375SOL    HW232025   2.656   5.761   6.614
10376SOL     OW32026   1.900   4.613   3.941
10376SOL    HW132027   1.800   4.621   3.937
10376SOL    HW232028   1.935   4.588   3.851
10377SOL     OW32029   3.038   0.907   3.863
10377SOL    HW132030   3.072   0.837   3.801
10377SOL    HW232031   2.995   0.864   3.942
10378SOL     OW32032   6.934   6.840   5.273
10378SOL    HW132033   7.025   6.833   5.313
10378SOL    HW232034   6.873   6.888   5.336
10379SOL     OW32035   1.287   5.337   3.237
10379SOL    HW132036   1.315   5.360   3.331
10379SOL    HW232037   1.193   5.366   3.222
10380SOL     OW32038   2.920   1.414   4.086
10380SOL    HW132039   2.904   1.331   4.139
10380SOL    HW232040   2.861   1.487   4.121
10381SOL     OW32041   2.637   6.998   3.435
10381SOL    HW132042   2.599   0.025   3.511
10381SOL    HW232043   2.582   6.915   3.422
10382SOL     OW32044   4.233   5.819   2.517
10382SOL    HW132045   4.213   5.860   2.428
10382SOL    HW232046   4.223   5.889   2.588
10383SOL     OW32047   0.381   6.932   6.964
10383SOL    HW132048   0.421   6.845   6.936
10383SOL    HW232049   0.451   6.991   7.004
10384SOL     OW32050   5.250   5.329   1.440
10384SOL    HW132051   5.158   5.312   1.474
10384SOL    HW232052   5.300   5.242   1.434
10385SOL     OW32053   3.962   4.338   6.455
10385SOL    HW132054   3.909   4.347   6.539
10385SOL    HW232055   4.044   4.282   6.473
10386SOL     OW32056   0.182   0.324   2.131
10386SOL    HW132057   0.130   0.345   2.048
10386SOL    HW232058   0.270   0.284   2.106
10387SOL     OW32059   5.751   1.513   2.007
10387SOL    HW132060   5.714   1.448   1.941
10387SOL    HW232061   5.785   1.464   2.087
10388SOL     OW32062   1.152   0.075   4.441
10388SOL    HW132063   1.150   0.171   4.414
10388SOL    HW232064   1.116   0.067   4.534
10389SOL     OW32065   0.445   3.841   0.878
10389SOL    HW132066   0.408   3.749   0.894
10389SOL    HW232067   0.381   3.909   0.916
10390SOL     OW32068   2.058   1.993   2.384
10390SOL    HW132069   2.100   2.071   2.430
10390SOL    HW232070   2.009   2.025   2.303
10391SOL     OW32071   6.422   0.039   3.072
10391SOL    HW132072   6.333   7.020   3.061
10391SOL    HW232073   6.490   6.998   3.103
10392SOL     OW32074   6.267   3.378   3.906
10392SOL    HW132075   6.236   3.398   3.999
10392SOL    HW232076   6.285   3.464   3.858
10393SOL     OW32077   1.536   2.374   1.451
10393SOL    HW132078   1.547   2.435   1.373
10393SOL    HW232079   1.499   2.286   1.421
10394SOL     OW32080   3.127   5.895   3.713
10394SOL    HW132081   3.144   5.899   3.614
10394SOL    HW232082   3.049   5.953   3.735
10395SOL     OW32083   0.415   1.369   1.559
10395SOL    HW132084   0.486   1.428   1.597
10395SOL    HW232085   0.355   1.423   1.500
10396SOL     OW32086   3.455   2.039   5.150
10396SOL    HW132087   3.511   2.060   5.231
10396SOL    HW232088   3.494   1.960   5.103
10397SOL     OW32089   5.240   1.941   3.909
10397SOL    HW132090   5.232   1.948   4.009
10397SOL    HW232091   5.260   1.847   3.883
10398SOL     OW32092   4.909   3.167   2.665
10398SOL    HW132093   4.900   3.257   2.708
10398SOL    HW232094   4.835   3.155   2.599
10399SOL     OW32095   1.037   3.505   1.930
10399SOL    HW132096   1.009   3.425   1.982
10399SOL    HW232097   1.111   3.480   1.867
10400SOL     OW32098   2.306   6.431   0.241
10400SOL    HW132099   2.253   6.430   0.156
10400SOL    HW232100   2.403   6.445   0.218
10401SOL     OW32101   6.636   1.030   5.321
10401SOL    HW132102   6.582   1.016   5.238
10401SOL    HW232103   6.662   1.127   5.328
10402SOL     OW32104   6.703   4.566   5.401
10402SOL    HW132105   6.696   4.494   5.470
10402SOL    HW232106   6.612   4.602   5.382
10403SOL     OW32107   3.530   0.207   1.173
10403SOL    HW132108   3.453   0.176   1.117
10403SOL    HW232109   3.530   0.156   1.259
10404SOL     OW32110   0.561   5.517   5.568
10404SOL    HW132111   0.602   5.581   5.502
10404SOL    HW232112   0.625   5.442   5.586
10405SOL     OW32113   0.369   1.235   0.159
10405SOL    HW132114   0.401   1.157   0.105
10405SOL    HW232115   0.318   1.201   0.238
10406SOL     OW32116   1.608   5.591   1.017
10406SOL    HW132117   1.542   5.516   1.029
10406SOL    HW232118   1.655   5.581   0.929
10407SOL     OW32119   2.110   5.694   0.062
10407SOL    HW132120   2.073   5.721   0.151
10407SOL    HW232121   2.198   5.648   0.076
10408SOL     OW32122   4.412   0.309   0.409
10408SOL    HW132123   4.370   0.399   0.403
10408SOL    HW232124   4.511   0.318   0.403
10409SOL     OW32125   6.425   3.952   0.459
10409SOL    HW132126   6.330   3.979   0.468
10409SOL    HW232127   6.466   3.944   0.550
10410SOL     OW32128   4.239   6.609   0.902
10410SOL    HW132129   4.259   6.558   0.986
10410SOL    HW232130   4.315   6.602   0.839
10411SOL     OW32131   1.279   5.262   4.339
10411SOL    HW132132   1.246   5.182   4.289
10411SOL    HW232133   1.278   5.242   4.437
10412SOL     OW32134   5.216   0.492   1.532
10412SOL    HW132135   5.154   0.432   1.481
10412SOL    HW232136   5.205   0.477   1.630
10413SOL     OW32137   5.949   3.234   1.722
10413SOL    HW132138   5.935   3.137   1.699
10413SOL    HW232139   5.973   3.243   1.818
10414SOL     OW32140   5.695   3.330   4.061
10414SOL    HW132141   5.642   3.247   4.046
10414SOL    HW232142   5.640   3.395   4.114
10415SOL     OW32143   0.774   0.503   6.908
10415SOL    HW132144   0.856   0.485   6.963
10415SOL    HW232145   0.706   0.550   6.965
10416SOL     OW32146   5.587   3.261   3.428
10416SOL    HW132147   5.582   3.336   3.363
10416SOL    HW232148   5.608   3.176   3.380
10417SOL     OW32149   1.838   3.929   2.380
10417SOL    HW132150   1.848   3.990   2.459
10417SOL    HW232151   1.923   3.879   2.365
10418SOL     OW32152   1.816   5.843   5.953
10418SOL    HW132153   1.794   5.830   5.857
10418SOL    HW232154   1.841   5.755   5.993
10419SOL     OW32155   1.616   0.431   6.406
10419SOL    HW132156   1.713   0.408   6.405
10419SOL    HW232157   1.571   0.380   6.480
10420SOL     OW32158   0.593   2.663   2.409
10420SOL    HW132159   0.661   2.590   2.416
10420SOL    HW232160   0.636   2.744   2.369
10421SOL     OW32161   1.025   1.809   2.527
10421SOL    HW132162   0.995   1.838   2.436
10421SOL    HW232163   0.962   1.846   2.596
10422SOL     OW32164   5.519   2.315   0.265
10422SOL    HW132165   5.514   2.257   0.183
10422SOL    HW232166   5.614   2.327   0.291
10423SOL     OW32167   4.651   5.765   2.975
10423SOL    HW132168   4.630   5.731   2.883
10423SOL    HW232169   4.751   5.770   2.986
10424SOL     OW32170   4.162   1.417   6.667
10424SOL    HW132171   4.232   1.370   6.612
10424SOL    HW232172   4.105   1.349   6.713
10425SOL     OW32173   1.863   6.516   1.845
10425SOL    HW132174   1.858   6.450   1.920
10425SOL    HW232175   1.797   6.590   1.861
10426SOL     OW32176   6.542   3.833   6.210
10426SOL    HW132177   6.586   3.772   6.144
10426SOL    HW232178   6.517   3.918   6.164
10427SOL     OW32179   5.029   1.040   1.510
10427SOL    HW132180   5.066   1.035   1.418
10427SOL    HW232181   4.956   1.107   1.514
10428SOL     OW32182   4.532   2.135   3.364
10428SOL    HW132183   4.442   2.092   3.358
10428SOL    HW232184   4.571   2.144   3.273
10429SOL     OW32185   5.366   5.543   2.575
10429SOL    HW132186   5.320   5.454   2.564
10429SOL    HW232187   5.321   5.595   2.648
10430SOL     OW32188   4.239   6.275   3.091
10430SOL    HW132189   4.185   6.294   3.173
10430SOL    HW232190   4.266   6.178   3.091
10431SOL     OW32191   2.763   1.730   5.658
10431SOL    HW132192   2.817   1.708   5.577
10431SOL    HW232193   2.669   1.699   5.645
10432SOL     OW32194   4.384   0.439   4.527
10432SOL    HW132195   4.350   0.510   4.465
10432SOL    HW232196   4.341   0.451   4.616
10433SOL     OW32197   2.755   6.181   1.592
10433SOL    HW132198   2.782   6.087   1.573
10433SOL    HW232199   2.713   6.186   1.682
10434SOL     OW32200   3.345   2.349   5.353
10434SOL    HW132201   3.357   2.252   5.374
10434SOL    HW232202   3.267   2.361   5.292
10435SOL     OW32203   5.448   5.444   5.976
10435SOL    HW132204   5.468   5.537   6.009
10435SOL    HW232205   5.526   5.385   5.994
10436SOL     OW32206   0.119   1.635   2.691
10436SOL    HW132207   0.019   1.638   2.695
10436SOL    HW232208   0.149   1.540   2.700
10437SOL     OW32209   1.064   3.334   6.978
10437SOL    HW132210   1.022   3.274   6.910
10437SOL    HW232211   1.102   3.279   0.027
10438SOL     OW32212   3.267   6.974   5.912
10438SOL    HW132213   3.186   0.006   5.901
10438SOL    HW232214   3.254   6.914   5.991
10439SOL     OW32215   3.460   0.243   5.555
10439SOL    HW132216   3.448   0.229   5.653
10439SOL    HW232217   3.555   0.271   5.537
10440SOL     OW32218   1.200   5.667   1.018
10440SOL    HW132219   1.177   5.676   1.115
10440SOL    HW232220   1.118   5.648   0.965
10441SOL     OW32221   4.050   6.823   0.947
10441SOL    HW132222   3.997   6.824   1.032
10441SOL    HW232223   4.108   6.742   0.945
10442SOL     OW32224   3.978   6.353   6.015
10442SOL    HW132225   3.920   6.415   6.068
10442SOL    HW232226   3.923   6.275   5.984
10443SOL     OW32227   6.611   2.805   5.020
10443SOL    HW132228   6.650   2.812   5.112
10443SOL    HW232229   6.652   2.874   4.960
10444SOL     OW32230   4.194   4.955   4.924
10444SOL    HW132231   4.260   5.028   4.940
10444SOL    HW232232   4.241   4.866   4.928
10445SOL     OW32233   6.279   6.159   2.045
10445SOL    HW132234   6.324   6.174   1.957
10445SOL    HW232235   6.322   6.080   2.091
10446SOL     OW32236   1.285   6.376   5.594
10446SOL    HW132237   1.192   6.382   5.558
10446SOL    HW232238   1.319   6.283   5.583
10447SOL     OW32239   5.234   2.094   6.934
10447SOL    HW132240   5.330   2.074   6.913
10447SOL    HW232241   5.177   2.016   6.907
10448SOL     OW32242   3.641   3.689   2.550
10448SOL    HW132243   3.669   3.692   2.645
10448SOL    HW232244   3.722   3.688   2.491
10449SOL     OW32245   1.600   5.308   4.575
10449SOL    HW132246   1.687   5.355   4.589
10449SOL    HW232247   1.604   5.253   4.491
10450SOL     OW32248   0.378   3.534   0.765
10450SOL    HW132249   0.461   3.482   0.747
10450SOL    HW232250   0.301   3.470   0.775
10451SOL     OW32251   2.425   4.460   2.150
10451SOL    HW132252   2.388   4.549   2.125
10451SOL    HW232253   2.360   4.388   2.124
10452SOL     OW32254   2.340   2.928   6.272
10452SOL    HW132255   2.344   3.028   6.272
10452SOL    HW232256   2.257   2.899   6.225
10453SOL     OW32257   5.385   0.892   1.895
10453SOL    HW132258   5.329   0.829   1.842
10453SOL    HW232259   5.428   0.959   1.834
10454SOL     OW32260   4.569   4.729   2.594
10454SOL    HW132261   4.499   4.674   2.549
10454SOL    HW232262   4.637   4.759   2.526
10455SOL     OW32263   1.369   4.845   3.113
10455SOL    HW132264   1.341   4.860   3.208
10455SOL    HW232265   1.341   4.923   3.057
10456SOL     OW32266   3.647   6.913   1.383
10456SOL    HW132267   3.697   6.852   1.443
10456SOL    HW232268   3.657   6.883   1.288
10457SOL     OW32269   3.691   2.993   4.721
10457SOL    HW132270   3.612   2.977   4.780
10457SOL    HW232271   3.690   2.927   4.646
10458SOL     OW32272   6.516   5.932   2.131
10458SOL    HW132273   6.554   5.878   2.205
10458SOL    HW232274   6.589   5.983   2.086
10459SOL     OW32275   0.091   5.246   1.239
10459SOL    HW132276   0.024   5.178   1.270
10459SOL    HW232277   0.125   5.221   1.149
10460SOL     OW32278   1.122   3.982   1.521
10460SOL    HW132279   1.097   3.927   1.441
10460SOL    HW232280   1.073   3.947   1.601
10461SOL     OW32281   3.460   0.195   6.565
10461SOL    HW132282   3.507   0.161   6.646
10461SOL    HW232283   3.387   0.258   6.593
10462SOL     OW32284   5.114   6.549   1.442
10462SOL    HW132285   5.169   6.624   1.477
10462SOL    HW232286   5.023   6.551   1.484
10463SOL     OW32287   4.330   3.252   0.325
10463SOL    HW132288   4.237   3.269   0.357
10463SOL    HW232289   4.393   3.251   0.403
10464SOL     OW32290   5.904   6.262   2.153
10464SOL    HW132291   5.843   6.329   2.195
10464SOL    HW232292   5.876   6.170   2.180
10465SOL     OW32293   0.201   5.052   4.967
10465SOL    HW132294   0.156   5.021   5.051
10465SOL    HW232295   0.275   5.115   4.990
10466SOL     OW32296   4.560   6.076   5.808
10466SOL    HW132297   4.485   6.013   5.832
10466SOL    HW232298   4.577   6.137   5.885
10467SOL     OW32299   3.970   1.276   4.380
10467SOL    HW132300   3.902   1.294   4.451
10467SOL    HW232301   4.061   1.273   4.421
10468SOL     OW32302   3.006   4.846   3.158
10468SOL    HW132303   2.948   4.912   3.205
10468SOL    HW232304   3.090   4.832   3.210
10469SOL     OW32305   1.282   4.852   5.945
10469SOL    HW132306   1.294   4.856   6.044
10469SOL    HW232307   1.293   4.944   5.907
10470SOL     OW32308   2.608   2.064   4.753
10470SOL    HW132309   2.608   2.022   4.844
10470SOL    HW232310   2.542   2.018   4.694
10471SOL     OW32311   4.804   4.143   6.994
10471SOL    HW132312   4.791   4.044   6.987
10471SOL    HW232313   4.843   4.177   6.908
10472SOL     OW32314   3.973   1.247   3.807
10472SOL    HW132315   3.878   1.222   3.788
10472SOL    HW232316   3.986   1.257   3.906
10473SOL     OW32317   5.201   4.626   6.224
10473SOL    HW132318   5.126   4.669   6.274
10473SOL    HW232319   5.288   4.670   6.249
10474SOL     OW32320   4.961   0.804   4.006
10474SOL    HW132321   4.938   0.780   3.912
10474SOL    HW232322   4.878   0.831   4.055
10475SOL     OW32323   3.825   6.679   1.368
10475SOL    HW132324   3.873   6.748   1.314
10475SOL    HW232325   3.836   6.589   1.326
10476SOL     OW32326   0.613   4.802   6.469
10476SOL    HW132327   0.681   4.836   6.534
10476SOL    HW232328   0.605   4.867   6.393
10477SOL     OW32329   4.793   4.450   5.299
10477SOL    HW132330   4.706   4.422   5.258
10477SOL    HW232331   4.788   4.546   5.324
10478SOL     OW32332   0.818   6.686   2.933
10478SOL    HW132333   0.798   6.668   2.837
10478SOL    HW232334   0.860   6.777   2.942
10479SOL     OW32335   0.743   4.035   2.543
10479SOL    HW132336   0.730   4.069   2.636
10479SOL    HW232337   0.841   4.030   2.523
10480SOL     OW32338   4.718   1.126   0.017
10480SOL    HW132339   4.693   1.154   6.950
10480SOL    HW232340   4.796   1.181   0.048
10481SOL     OW32341   3.169   1.877   3.900
10481SOL    HW132342   3.091   1.823   3.868
10481SOL    HW232343   3.252   1.821   3.898
10482SOL     OW32344   0.787   6.554   6.679
10482SOL    HW132345   0.719   6.626   6.664
10482SOL    HW232346   0.878   6.594   6.686
10483SOL     OW32347   1.018   6.066   1.120
10483SOL    HW132348   1.112   6.076   1.086
10483SOL    HW232349   0.956   6.057   1.042
10484SOL     OW32350   6.797   1.692   1.760
10484SOL    HW132351   6.872   1.747   1.797
10484SOL    HW232352   6.807   1.597   1.793
10485SOL     OW32353   3.649   4.122   4.227
10485SOL    HW132354   3.713   4.079   4.290
10485SOL    HW232355   3.699   4.170   4.155
10486SOL     OW32356   6.068   4.731   5.458
10486SOL    HW132357   5.980   4.733   5.410
10486SOL    HW232358   6.108   4.639   5.449
10487SOL     OW32359   5.499   3.966   2.737
10487SOL    HW132360   5.539   4.014   2.658
10487SOL    HW232361   5.411   3.927   2.710
10488SOL     OW32362   0.651   2.474   5.694
10488SOL    HW132363   0.597   2.556   5.713
10488SOL    HW232364   0.643   2.410   5.771
10489SOL     OW32365   5.939   5.022   2.973
10489SOL    HW132366   5.998   4.943   2.953
10489SOL    HW232367   5.973   5.102   2.924
10490SOL     OW32368   4.930   6.294   6.411
10490SOL    HW132369   5.007   6.262   6.355
10490SOL    HW232370   4.921   6.236   6.491
10491SOL     OW32371   2.382   1.725   5.637
10491SOL    HW132372   2.406   1.697   5.730
10491SOL    HW232373   2.424   1.814   5.618
10492SOL     OW32374   3.025   6.426   6.939
10492SOL    HW132375   3.082   6.502   6.970
10492SOL    HW232376   2.992   6.375   7.018
10493SOL     OW32377   3.677   6.348   0.627
10493SOL    HW132378   3.737   6.428   0.624
10493SOL    HW232379   3.727   6.267   0.595
10494SOL     OW32380   0.014   5.191   3.250
10494SOL    HW132381   0.049   5.235   3.167
10494SOL    HW232382   0.083   5.196   3.322
10495SOL     OW32383   6.439   6.127   0.231
10495SOL    HW132384   6.369   6.195   0.206
10495SOL    HW232385   6.512   6.172   0.281
10496SOL     OW32386   0.686   4.399   5.942
10496SOL    HW132387   0.630   4.344   6.005
10496SOL    HW232388   0.733   4.470   5.994
10497SOL     OW32389   4.151   6.409   6.826
10497SOL    HW132390   4.143   6.446   6.919
10497SOL    HW232391   4.231   6.349   6.822
10498SOL     OW32392   3.153   3.926   0.127
10498SOL    HW132393   3.161   4.011   0.179
10498SOL    HW232394   3.074   3.932   0.065
10499SOL     OW32395   4.135   4.749   3.481
10499SOL    HW132396   4.225   4.735   3.522
10499SOL    HW232397   4.145   4.796   3.393
10500SOL     OW32398   1.624   2.867   5.250
10500SOL    HW132399   1.591   2.914   5.168
10500SOL    HW232400   1.722   2.886   5.262
10501SOL     OW32401   3.701   4.844   3.229
10501SOL    HW132402   3.766   4.862   3.155
10501SOL    HW232403   3.608   4.851   3.195
10502SOL     OW32404   2.944   3.630   2.504
10502SOL    HW132405   2.921   3.534   2.487
10502SOL    HW232406   2.928   3.683   2.421
10503SOL     OW32407   6.810   0.154   0.680
10503SOL    HW132408   6.737   0.113   0.625
10503SOL    HW232409   6.771   0.192   0.764
10504SOL     OW32410   1.499   2.652   6.214
10504SOL    HW132411   1.415   2.667   6.266
10504SOL    HW232412   1.578   2.680   6.269
10505SOL     OW32413   5.562   6.516   1.559
10505SOL    HW132414   5.623   6.537   1.482
10505SOL    HW232415   5.491   6.586   1.565
10506SOL     OW32416   1.006   4.948   5.156
10506SOL    HW132417   0.979   4.961   5.251
10506SOL    HW232418   0.931   4.974   5.095
10507SOL     OW32419   1.846   6.107   5.878
10507SOL    HW132420   1.827   6.013   5.906
10507SOL    HW232421   1.945   6.123   5.881
10508SOL     OW32422   2.092   6.175   1.284
10508SOL    HW132423   2.097   6.271   1.255
10508SOL    HW232424   2.079   6.171   1.383
10509SOL     OW32425   4.944   3.547   2.073
10509SOL    HW132426   4.943   3.642   2.041
10509SOL    HW232427   4.927   3.486   1.996
10510SOL     OW32428   5.530   6.267   2.106
10510SOL    HW132429   5.534   6.203   2.183
10510SOL    HW232430   5.594   6.236   2.035
10511SOL     OW32431   4.413   1.757   0.887
10511SOL    HW132432   4.377   1.719   0.973
10511SOL    HW232433   4.471   1.835   0.907
10512SOL     OW32434   3.726   0.651   5.164
10512SOL    HW132435   3.678   0.632   5.250
10512SOL    HW232436   3.813   0.603   5.164
10513SOL     OW32437   3.794   3.639   0.691
10513SOL    HW132438   3.729   3.709   0.720
10513SOL    HW232439   3.886   3.678   0.689
10514SOL     OW32440   1.434   5.016   2.127
10514SOL    HW132441   1.411   4.971   2.213
10514SOL    HW232442   1.468   5.108   2.146
10515SOL     OW32443   2.165   3.821   5.084
10515SOL    HW132444   2.111   3.785   5.009
10515SOL    HW232445   2.225   3.894   5.051
10516SOL     OW32446   5.399   2.074   1.770
10516SOL    HW132447   5.490   2.065   1.731
10516SOL    HW232448   5.367   2.168   1.758
10517SOL     OW32449   6.950   2.174   2.166
10517SOL    HW132450   0.011   2.225   2.163
10517SOL    HW232451   6.966   2.081   2.134
10518SOL     OW32452   0.726   6.039   2.687
10518SOL    HW132453   0.644   6.087   2.720
10518SOL    HW232454   0.773   5.997   2.765
10519SOL     OW32455   1.999   6.914   0.710
10519SOL    HW132456   2.009   6.815   0.699
10519SOL    HW232457   2.036   6.960   0.629
10520SOL     OW32458   3.228   2.741   5.977
10520SOL    HW132459   3.226   2.647   5.944
10520SOL    HW232460   3.149   2.758   6.036
10521SOL     OW32461   6.155   2.031   2.566
10521SOL    HW132462   6.192   1.939   2.555
10521SOL    HW232463   6.059   2.026   2.595
10522SOL     OW32464   5.052   1.480   3.040
10522SOL    HW132465   4.988   1.533   3.097
10522SOL    HW232466   5.077   1.535   2.960
10523SOL     OW32467   0.473   3.702   1.572
10523SOL    HW132468   0.390   3.713   1.627
10523SOL    HW232469   0.543   3.656   1.626
10524SOL     OW32470   6.016   6.825   4.720
10524SOL    HW132471   5.950   6.839   4.646
10524SOL    HW232472   6.025   6.910   4.772
10525SOL     OW32473   4.931   2.026   3.373
10525SOL    HW132474   4.913   1.975   3.289
10525SOL    HW232475   5.029   2.032   3.388
10526SOL     OW32476   1.543   5.995   5.955
10526SOL    HW132477   1.599   5.913   5.946
10526SOL    HW232478   1.587   6.071   5.908
10527SOL     OW32479   0.406   6.256   6.018
10527SOL    HW132480   0.476   6.253   5.946
10527SOL    HW232481   0.315   6.254   5.977
10528SOL     OW32482   2.645   6.619   5.110
10528SOL    HW132483   2.649   6.547   5.040
10528SOL    HW232484   2.679   6.583   5.197
10529SOL     OW32485   6.889   4.976   6.853
10529SOL    HW132486   6.864   4.893   6.804
10529SOL    HW232487   6.831   4.986   6.934
10530SOL     OW32488   5.976   0.304   1.207
10530SOL    HW132489   6.020   0.323   1.119
10530SOL    HW232490   6.022   0.355   1.279
10531SOL     OW32491   3.214   1.222   6.432
10531SOL    HW132492   3.192   1.227   6.334
10531SOL    HW232493   3.305   1.260   6.447
10532SOL     OW32494   4.377   5.582   5.943
10532SOL    HW132495   4.282   5.582   5.912
10532SOL    HW232496   4.434   5.534   5.877
10533SOL     OW32497   4.608   6.639   3.516
10533SOL    HW132498   4.546   6.717   3.504
10533SOL    HW232499   4.561   6.555   3.489
10534SOL     OW32500   0.648   6.525   4.515
10534SOL    HW132501   0.570   6.502   4.457
10534SOL    HW232502   0.673   6.621   4.500
10535SOL     OW32503   3.867   1.613   2.241
10535SOL    HW132504   3.839   1.700   2.282
10535SOL    HW232505   3.936   1.569   2.298
10536SOL     OW32506   5.937   3.625   4.351
10536SOL    HW132507   5.939   3.707   4.293
10536SOL    HW232508   5.851   3.624   4.403
10537SOL     OW32509   3.556   1.152   2.876
10537SOL    HW132510   3.625   1.220   2.853
10537SOL    HW232511   3.584   1.062   2.841
10538SOL     OW32512   6.605   3.223   3.626
10538SOL    HW132513   6.515   3.181   3.628
10538SOL    HW232514   6.651   3.208   3.714
10539SOL     OW32515   6.733   0.268   2.021
10539SOL    HW132516   6.660   0.263   2.090
10539SOL    HW232517   6.805   0.203   2.045
10540SOL     OW32518   1.890   2.740   6.585
10540SOL    HW132519   1.882   2.839   6.584
10540SOL    HW232520   1.861   2.704   6.674
10541SOL     OW32521   3.896   2.427   6.388
10541SOL    HW132522   3.797   2.441   6.379
10541SOL    HW232523   3.937   2.507   6.431
10542SOL     OW32524   3.776   6.765   2.322
10542SOL    HW132525   3.704   6.723   2.377
10542SOL    HW232526   3.833   6.824   2.380
10543SOL     OW32527   1.152   2.622   4.146
10543SOL    HW132528   1.060   2.660   4.149
10543SOL    HW232529   1.169   2.568   4.228
10544SOL     OW32530   2.859   2.280   2.341
10544SOL    HW132531   2.956   2.274   2.364
10544SOL    HW232532   2.847   2.274   2.241
10545SOL     OW32533   1.175   3.343   1.621
10545SOL    HW132534   1.214   3.435   1.616
10545SOL    HW232535   1.127   3.322   1.536
10546SOL     OW32536   1.808   0.046   4.971
10546SOL    HW132537   1.714   0.054   5.006
10546SOL    HW232538   1.805   0.015   4.875
10547SOL     OW32539   3.506   5.618   6.635
10547SOL    HW132540   3.432   5.685   6.647
10547SOL    HW232541   3.474   5.528   6.663
10548SOL     OW32542   1.527   5.078   2.796
10548SOL    HW132543   1.535   5.175   2.771
10548SOL    HW232544   1.449   5.066   2.858
10549SOL     OW32545   0.029   1.307   2.716
10549SOL    HW132546   0.080   1.222   2.709
10549SOL    HW232547   6.962   1.294   2.679
10550SOL     OW32548   6.655   5.199   2.339
10550SOL    HW132549   6.662   5.276   2.403
10550SOL    HW232550   6.629   5.117   2.389
10551SOL     OW32551   4.951   0.210   4.115
10551SOL    HW132552   4.873   0.268   4.136
10551SOL    HW232553   5.016   0.212   4.191
10552SOL     OW32554   2.727   0.501   3.267
10552SOL    HW132555   2.780   0.578   3.232
10552SOL    HW232556   2.630   0.527   3.274
10553SOL     OW32557   5.346   5.560   1.317
10553SOL    HW132558   5.381   5.525   1.229
10553SOL    HW232559   5.300   5.486   1.365
10554SOL     OW32560   5.897   5.774   1.022
10554SOL    HW132561   5.904   5.836   1.100
10554SOL    HW232562   5.940   5.814   0.942
10555SOL     OW32563   3.279   3.264   1.907
10555SOL    HW132564   3.294   3.169   1.936
10555SOL    HW232565   3.356   3.295   1.851
10556SOL     OW32566   2.501   2.231   1.872
10556SOL    HW132567   2.593   2.218   1.909
10556SOL    HW232568   2.436   2.240   1.947
10557SOL     OW32569   0.684   4.180   2.759
10557SOL    HW132570   0.586   4.196   2.748
10557SOL    HW232571   0.728   4.263   2.792
10558SOL     OW32572   5.075   5.151   4.692
10558SOL    HW132573   5.051   5.120   4.784
10558SOL    HW232574   5.057   5.249   4.684
10559SOL     OW32575   3.461   5.982   1.295
10559SOL    HW132576   3.560   5.984   1.306
10559SOL    HW232577   3.419   5.952   1.381
10560SOL     OW32578   5.768   0.200   3.920
10560SOL    HW132579   5.812   0.112   3.940
10560SOL    HW232580   5.669   0.189   3.919
10561SOL     OW32581   0.902   5.807   5.303
10561SOL    HW132582   0.863   5.728   5.255
10561SOL    HW232583   1.002   5.799   5.305
10562SOL     OW32584   3.166   1.038   2.783
10562SOL    HW132585   3.146   1.005   2.875
10562SOL    HW232586   3.241   0.984   2.744
10563SOL     OW32587   1.507   5.462   2.007
10563SOL    HW132588   1.439   5.423   1.944
10563SOL    HW232589   1.597   5.424   1.984
10564SOL     OW32590   5.204   5.091   2.925
10564SOL    HW132591   5.145   5.140   2.990
10564SOL    HW232592   5.254   5.020   2.973
10565SOL     OW32593   6.815   1.274   4.630
10565SOL    HW132594   6.800   1.254   4.727
10565SOL    HW232595   6.910   1.256   4.606
10566SOL     OW32596   3.983   1.712   0.112
10566SOL    HW132597   3.909   1.658   0.152
10566SOL    HW232598   3.986   1.696   0.013
10567SOL     OW32599   3.126   1.532   6.445
10567SOL    HW132600   3.196   1.525   6.516
10567SOL    HW232601   3.162   1.584   6.368
10568SOL     OW32602   5.870   2.071   6.579
10568SOL    HW132603   5.826   2.108   6.661
10568SOL    HW232604   5.968   2.085   6.584
10569SOL     OW32605   3.892   0.618   1.289
10569SOL    HW132606   3.869   0.701   1.340
10569SOL    HW232607   3.812   0.559   1.284
10570SOL     OW32608   1.312   3.999   3.261
10570SOL    HW132609   1.334   4.072   3.196
10570SOL    HW232610   1.395   3.970   3.308
10571SOL     OW32611   0.476   3.896   4.977
10571SOL    HW132612   0.433   3.983   4.954
10571SOL    HW232613   0.419   3.821   4.942
10572SOL     OW32614   0.504   5.479   0.869
10572SOL    HW132615   0.600   5.470   0.895
10572SOL    HW232616   0.447   5.429   0.934
10573SOL     OW32617   5.833   2.329   3.291
10573SOL    HW132618   5.771   2.255   3.266
10573SOL    HW232619   5.922   2.291   3.316
10574SOL     OW32620   4.925   2.181   2.486
10574SOL    HW132621   4.827   2.192   2.497
10574SOL    HW232622   4.972   2.266   2.511
10575SOL     OW32623   5.131   0.240   2.665
10575SOL    HW132624   5.225   0.224   2.637
10575SOL    HW232625   5.113   0.339   2.664
10576SOL     OW32626   1.338   2.919   5.593
10576SOL    HW132627   1.436   2.927   5.579
10576SOL    HW232628   1.290   2.973   5.523
10577SOL     OW32629   4.325   4.361   6.609
10577SOL    HW132630   4.263   4.287   6.582
10577SOL    HW232631   4.365   4.339   6.698
10578SOL     OW32632   1.231   3.272   2.293
10578SOL    HW132633   1.218   3.207   2.218
10578SOL    HW232634   1.325   3.265   2.328
10579SOL     OW32635   0.125   3.354   7.007
10579SOL    HW132636   0.156   3.295   6.932
10579SOL    HW232637   0.199   3.418   0.005
10580SOL     OW32638   5.196   6.773   6.210
10580SOL    HW132639   5.186   6.811   6.117
10580SOL    HW232640   5.132   6.820   6.271
10581SOL     OW32641   4.458   0.862   2.235
10581SOL    HW132642   4.456   0.807   2.318
10581SOL    HW232643   4.452   0.802   2.155
10582SOL     OW32644   6.878   3.345   0.479
10582SOL    HW132645   6.927   3.269   0.522
10582SOL    HW232646   6.905   3.352   0.383
10583SOL     OW32647   4.113   2.055   5.972
10583SOL    HW132648   4.131   2.114   6.051
10583SOL    HW232649   4.165   1.970   5.981
10584SOL     OW32650   6.251   0.524   4.006
10584SOL    HW132651   6.304   0.441   3.987
10584SOL    HW232652   6.239   0.533   4.105
10585SOL     OW32653   1.572   1.232   4.893
10585SOL    HW132654   1.477   1.233   4.924
10585SOL    HW232655   1.580   1.174   4.811
10586SOL     OW32656   4.744   3.808   6.249
10586SOL    HW132657   4.805   3.885   6.267
10586SOL    HW232658   4.797   3.724   6.240
10587SOL     OW32659   2.308   5.246   5.526
10587SOL    HW132660   2.351   5.217   5.611
10587SOL    HW232661   2.348   5.194   5.450
10588SOL     OW32662   1.198   4.017   4.539
10588SOL    HW132663   1.232   3.961   4.463
10588SOL    HW232664   1.098   4.011   4.541
10589SOL     OW32665   5.557   0.603   3.339
10589SOL    HW132666   5.474   0.548   3.350
10589SOL    HW232667   5.585   0.603   3.243
10590SOL     OW32668   0.011   6.442   2.065
10590SOL    HW132669   6.961   6.399   2.113
10590SOL    HW232670   0.085   6.463   2.130
10591SOL     OW32671   6.603   4.571   2.298
10591SOL    HW132672   6.626   4.488   2.246
10591SOL    HW232673   6.504   4.579   2.306
10592SOL     OW32674   6.391   3.683   4.915
10592SOL    HW132675   6.410   3.755   4.982
10592SOL    HW232676   6.434   3.706   4.828
10593SOL     OW32677   3.851   5.635   3.464
10593SOL    HW132678   3.796   5.718   3.468
10593SOL    HW232679   3.948   5.659   3.466
10594SOL     OW32680   4.158   6.064   3.793
10594SOL    HW132681   4.159   6.062   3.693
10594SOL    HW232682   4.240   6.019   3.829
10595SOL     OW32683   5.800   5.506   0.328
10595SOL    HW132684   5.758   5.535   0.414
10595SOL    HW232685   5.736   5.522   0.253
10596SOL     OW32686   5.719   4.027   0.539
10596SOL    HW132687   5.656   3.966   0.586
10596SOL    HW232688   5.701   4.026   0.441
10597SOL     OW32689   0.943   6.518   5.261
10597SOL    HW132690   0.858   6.571   5.259
10597SOL    HW232691   1.013   6.567   5.210
10598SOL     OW32692   3.063   1.830   1.024
10598SOL    HW132693   3.152   1.876   1.015
10598SOL    HW232694   2.990   1.892   0.995
10599SOL     OW32695   0.470   2.005   0.666
10599SOL    HW132696   0.373   1.991   0.682
10599SOL    HW232697   0.512   2.046   0.747
10600SOL     OW32698   4.775   1.244   2.038
10600SOL    HW132699   4.827   1.297   1.971
10600SOL    HW232700   4.837   1.181   2.085
10601SOL     OW32701   2.397   1.924   5.217
10601SOL    HW132702   2.471   1.856   5.213
10601SOL    HW232703   2.337   1.904   5.293
10602SOL     OW32704   6.838   6.796   1.312
10602SOL    HW132705   6.858   6.829   1.219
10602SOL    HW232706   6.880   6.858   1.379
10603SOL     OW32707   5.507   0.443   2.578
10603SOL    HW132708   5.474   0.466   2.487
10603SOL    HW232709   5.473   0.353   2.605
10604SOL     OW32710   5.376   2.420   4.939
10604SOL    HW132711   5.373   2.416   5.039
10604SOL    HW232712   5.288   2.450   4.904
10605SOL     OW32713   4.404   2.056   1.267
10605SOL    HW132714   4.369   2.084   1.356
10605SOL    HW232715   4.460   1.973   1.278
10606SOL     OW32716   5.728   1.415   0.841
10606SOL    HW132717   5.650   1.477   0.852
10606SOL    HW232718   5.724   1.345   0.913
10607SOL     OW32719   2.255   4.964   1.181
10607SOL    HW132720   2.351   4.987   1.169
10607SOL    HW232721   2.198   5.040   1.149
10608SOL     OW32722   5.356   4.353   2.719
10608SOL    HW132723   5.291   4.342   2.795
10608SOL    HW232724   5.327   4.295   2.643
10609SOL     OW32725   5.631   6.491   6.793
10609SOL    HW132726   5.674   6.553   6.859
10609SOL    HW232727   5.610   6.540   6.709
10610SOL     OW32728   0.438   1.974   3.342
10610SOL    HW132729   0.387   1.890   3.324
10610SOL    HW232730   0.498   1.994   3.265
10611SOL     OW32731   4.134   5.504   6.269
10611SOL    HW132732   4.108   5.438   6.199
10611SOL    HW232733   4.228   5.486   6.299
10612SOL     OW32734   5.405   2.530   3.449
10612SOL    HW132735   5.368   2.464   3.383
10612SOL    HW232736   5.435   2.612   3.400
10613SOL     OW32737   5.598   5.012   5.740
10613SOL    HW132738   5.574   4.947   5.667
10613SOL    HW232739   5.631   4.962   5.819
10614SOL     OW32740   4.259   2.063   6.820
10614SOL    HW132741   4.325   2.020   6.882
10614SOL    HW232742   4.306   2.126   6.759
10615SOL     OW32743   3.284   2.346   5.688
10615SOL    HW132744   3.249   2.396   5.609
10615SOL    HW232745   3.213   2.284   5.723
10616SOL     OW32746   1.442   5.607   0.228
10616SOL    HW132747   1.369   5.602   0.160
10616SOL    HW232748   1.512   5.539   0.206
10617SOL     OW32749   2.402   3.406   0.025
10617SOL    HW132750   2.439   3.496   0.049
10617SOL    HW232751   2.302   3.409   0.032
10618SOL     OW32752   0.063   4.858   4.245
10618SOL    HW132753   7.016   4.865   4.313
10618SOL    HW232754   0.052   4.930   4.177
10619SOL     OW32755   0.987   2.485   1.025
10619SOL    HW132756   0.998   2.582   1.003
10619SOL    HW232757   1.061   2.432   0.984
10620SOL     OW32758   3.974   0.818   5.661
10620SOL    HW132759   3.932   0.886   5.601
10620SOL    HW232760   3.921   0.812   5.746
10621SOL     OW32761   0.699   4.959   4.717
10621SOL    HW132762   0.660   5.029   4.657
10621SOL    HW232763   0.712   4.875   4.664
10622SOL     OW32764   3.928   1.880   6.245
10622SOL    HW132765   4.015   1.849   6.284
10622SOL    HW232766   3.918   1.978   6.260
10623SOL     OW32767   5.166   4.513   5.579
10623SOL    HW132768   5.067   4.510   5.596
10623SOL    HW232769   5.182   4.543   5.485
10624SOL     OW32770   0.199   1.348   5.639
10624SOL    HW132771   0.294   1.370   5.661
10624SOL    HW232772   0.176   1.258   5.677
10625SOL     OW32773   5.670   5.527   6.834
10625SOL    HW132774   5.659   5.428   6.833
10625SOL    HW232775   5.733   5.554   6.761
10626SOL     OW32776   5.598   3.896   1.819
10626SOL    HW132777   5.632   3.972   1.876
10626SOL    HW232778   5.543   3.835   1.875
10627SOL     OW32779   5.254   4.842   5.354
10627SOL    HW132780   5.172   4.872   5.403
10627SOL    HW232781   5.244   4.746   5.328
10628SOL     OW32782   2.587   6.185   1.830
10628SOL    HW132783   2.497   6.203   1.792
10628SOL    HW232784   2.587   6.208   1.928
10629SOL     OW32785   4.362   5.795   4.343
10629SOL    HW132786   4.341   5.887   4.376
10629SOL    HW232787   4.356   5.793   4.243
10630SOL     OW32788   4.252   0.636   1.423
10630SOL    HW132789   4.329   0.611   1.365
10630SOL    HW232790   4.185   0.561   1.425
10631SOL     OW32791   3.884   6.506   2.240
10631SOL    HW132792   3.894   6.498   2.141
10631SOL    HW232793   3.835   6.591   2.262
10632SOL     OW32794   5.603   0.284   4.953
10632SOL    HW132795   5.563   0.369   4.918
10632SOL    HW232796   5.617   0.220   4.878
10633SOL     OW32797   3.061   3.338   0.096
10633SOL    HW132798   2.965   3.366   0.090
10633SOL    HW232799   3.070   3.265   0.163
10634SOL     OW32800   0.557   4.216   0.324
10634SOL    HW132801   0.509   4.232   0.238
10634SOL    HW232802   0.531   4.127   0.361
10635SOL     OW32803   3.079   4.243   6.876
10635SOL    HW132804   3.041   4.291   6.797
10635SOL    HW232805   3.011   4.241   6.949
10636SOL     OW32806   6.709   2.491   0.656
10636SOL    HW132807   6.667   2.415   0.606
10636SOL    HW232808   6.651   2.572   0.649
10637SOL     OW32809   1.824   0.277   5.595
10637SOL    HW132810   1.831   0.213   5.672
10637SOL    HW232811   1.774   0.359   5.625
10638SOL     OW32812   6.009   4.864   6.615
10638SOL    HW132813   6.070   4.791   6.583
10638SOL    HW232814   6.061   4.929   6.671
10639SOL     OW32815   6.640   5.575   6.737
10639SOL    HW132816   6.649   5.650   6.803
10639SOL    HW232817   6.579   5.505   6.774
10640SOL     OW32818   4.169   5.773   4.660
10640SOL    HW132819   4.123   5.860   4.639
10640SOL    HW232820   4.233   5.787   4.735
10641SOL     OW32821   1.103   1.256   3.990
10641SOL    HW132822   1.180   1.305   4.031
10641SOL    HW232823   1.123   1.158   3.990
10642SOL     OW32824   0.060   1.768   5.831
10642SOL    HW132825   6.996   1.810   5.817
10642SOL    HW232826   0.109   1.816   5.904
10643SOL     OW32827   3.180   5.202   4.853
10643SOL    HW132828   3.102   5.155   4.813
10643SOL    HW232829   3.265   5.158   4.823
10644SOL     OW32830   1.267   3.338   3.420
10644SOL    HW132831   1.192   3.277   3.443
10644SOL    HW232832   1.273   3.411   3.487
10645SOL     OW32833   1.877   3.381   3.746
10645SOL    HW132834   1.820   3.362   3.666
10645SOL    HW232835   1.970   3.402   3.717
10646SOL     OW32836   5.356   1.546   3.401
10646SOL    HW132837   5.291   1.577   3.470
10646SOL    HW232838   5.450   1.562   3.434
10647SOL     OW32839   4.531   5.616   4.561
10647SOL    HW132840   4.480   5.673   4.497
10647SOL    HW232841   4.470   5.546   4.598
10648SOL     OW32842   4.728   3.510   5.703
10648SOL    HW132843   4.679   3.578   5.649
10648SOL    HW232844   4.816   3.549   5.733
10649SOL     OW32845   5.987   3.013   3.416
10649SOL    HW132846   5.981   3.104   3.375
10649SOL    HW232847   5.992   2.944   3.343
10650SOL     OW32848   1.140   0.291   3.094
10650SOL    HW132849   1.138   0.379   3.047
10650SOL    HW232850   1.216   0.289   3.159
10651SOL     OW32851   2.281   5.895   5.409
10651SOL    HW132852   2.243   5.846   5.330
10651SOL    HW232853   2.331   5.830   5.467
10652SOL     OW32854   2.892   0.451   0.106
10652SOL    HW132855   2.876   0.410   0.196
10652SOL    HW232856   2.824   0.523   0.090
10653SOL     OW32857   5.811   6.204   4.700
10653SOL    HW132858   5.846   6.266   4.629
10653SOL    HW232859   5.875   6.127   4.711
10654SOL     OW32860   6.792   1.465   4.223
10654SOL    HW132861   6.703   1.453   4.266
10654SOL    HW232862   6.817   1.382   4.173
10655SOL     OW32863   6.267   5.168   0.271
10655SOL    HW132864   6.217   5.124   0.346
10655SOL    HW232865   6.298   5.259   0.300
10656SOL     OW32866   5.955   0.425   6.089
10656SOL    HW132867   5.967   0.450   5.992
10656SOL    HW232868   6.017   0.350   6.111
10657SOL     OW32869   4.241   7.009   5.471
10657SOL    HW132870   4.279   6.925   5.509
10657SOL    HW232871   4.198   6.989   5.383
10658SOL     OW32872   1.391   1.328   5.268
10658SOL    HW132873   1.404   1.427   5.273
10658SOL    HW232874   1.475   1.282   5.296
10659SOL     OW32875   0.669   5.604   6.549
10659SOL    HW132876   0.643   5.530   6.611
10659SOL    HW232877   0.641   5.580   6.456
10660SOL     OW32878   6.077   2.374   6.262
10660SOL    HW132879   6.058   2.402   6.356
10660SOL    HW232880   6.116   2.282   6.262
10661SOL     OW32881   3.316   5.527   5.681
10661SOL    HW132882   3.398   5.496   5.633
10661SOL    HW232883   3.314   5.627   5.682
10662SOL     OW32884   3.290   2.023   0.972
10662SOL    HW132885   3.276   2.058   1.064
10662SOL    HW232886   3.387   2.027   0.948
10663SOL     OW32887   6.729   3.180   3.914
10663SOL    HW132888   6.775   3.104   3.869
10663SOL    HW232889   6.779   3.205   3.997
10664SOL     OW32890   1.233   6.461   4.718
10664SOL    HW132891   1.203   6.381   4.770
10664SOL    HW232892   1.182   6.466   4.632
10665SOL     OW32893   4.069   3.369   0.636
10665SOL    HW132894   4.076   3.342   0.540
10665SOL    HW232895   3.974   3.385   0.660
10666SOL     OW32896   4.920   3.521   1.587
10666SOL    HW132897   5.013   3.554   1.571
10666SOL    HW232898   4.892   3.462   1.512
10667SOL     OW32899   5.736   2.544   4.427
10667SOL    HW132900   5.823   2.571   4.386
10667SOL    HW232901   5.661   2.578   4.372
10668SOL     OW32902   3.452   3.481   5.653
10668SOL    HW132903   3.489   3.396   5.616
10668SOL    HW232904   3.509   3.558   5.624
10669SOL     OW32905   6.440   3.059   1.852
10669SOL    HW132906   6.466   3.104   1.938
10669SOL    HW232907   6.345   3.080   1.831
10670SOL     OW32908   4.469   4.542   4.353
10670SOL    HW132909   4.432   4.630   4.323
10670SOL    HW232910   4.512   4.495   4.276
10671SOL     OW32911   2.151   3.209   4.681
10671SOL    HW132912   2.114   3.270   4.611
10671SOL    HW232913   2.193   3.264   4.754
10672SOL     OW32914   6.310   4.822   1.066
10672SOL    HW132915   6.234   4.757   1.067
10672SOL    HW232916   6.348   4.827   0.974
10673SOL     OW32917   2.821   1.237   1.806
10673SOL    HW132918   2.808   1.219   1.903
10673SOL    HW232919   2.783   1.327   1.784
10674SOL     OW32920   4.066   3.200   4.607
10674SOL    HW132921   4.076   3.290   4.650
10674SOL    HW232922   4.037   3.133   4.675
10675SOL     OW32923   3.397   6.658   5.746
10675SOL    HW132924   3.455   6.736   5.770
10675SOL    HW232925   3.361   6.671   5.654
10676SOL     OW32926   1.404   1.514   4.532
10676SOL    HW132927   1.405   1.489   4.629
10676SOL    HW232928   1.433   1.609   4.522
10677SOL     OW32929   0.133   1.511   6.833
10677SOL    HW132930   0.070   1.582   6.799
10677SOL    HW232931   0.168   1.459   6.756
10678SOL     OW32932   3.555   4.884   2.519
10678SOL    HW132933   3.456   4.891   2.507
10678SOL    HW232934   3.600   4.916   2.435
10679SOL     OW32935   5.328   3.940   0.479
10679SOL    HW132936   5.330   4.028   0.433
10679SOL    HW232937   5.236   3.900   0.472
10680SOL     OW32938   4.583   1.134   5.142
10680SOL    HW132939   4.512   1.149   5.073
10680SOL    HW232940   4.662   1.191   5.121
10681SOL     OW32941   2.757   3.369   5.259
10681SOL    HW132942   2.712   3.394   5.344
10681SOL    HW232943   2.779   3.272   5.259
10682SOL     OW32944   4.823   3.387   6.118
10682SOL    HW132945   4.748   3.412   6.057
10682SOL    HW232946   4.900   3.351   6.065
10683SOL     OW32947   1.865   0.746   3.385
10683SOL    HW132948   1.794   0.681   3.360
10683SOL    HW232949   1.896   0.795   3.303
10684SOL     OW32950   4.711   4.115   1.235
10684SOL    HW132951   4.728   4.040   1.299
10684SOL    HW232952   4.790   4.176   1.233
10685SOL     OW32953   0.812   0.310   2.789
10685SOL    HW132954   0.902   0.274   2.817
10685SOL    HW232955   0.820   0.352   2.699
10686SOL     OW32956   2.962   1.256   6.602
10686SOL    HW132957   3.004   1.328   6.657
10686SOL    HW232958   3.031   1.217   6.541
10687SOL     OW32959   0.544   2.613   3.355
10687SOL    HW132960   0.514   2.690   3.300
10687SOL    HW232961   0.511   2.528   3.314
10688SOL     OW32962   5.162   0.950   3.558
10688SOL    HW132963   5.241   0.915   3.608
10688SOL    HW232964   5.121   1.025   3.611
10689SOL     OW32965   1.510   1.542   2.938
10689SOL    HW132966   1.544   1.636   2.937
10689SOL    HW232967   1.464   1.523   3.025
10690SOL     OW32968   0.763   6.780   4.511
10690SOL    HW132969   0.851   6.791   4.464
10690SOL    HW232970   0.719   6.869   4.520
10691SOL     OW32971   3.303   6.678   1.472
10691SOL    HW132972   3.275   6.586   1.500
10691SOL    HW232973   3.360   6.672   1.390
10692SOL     OW32974   2.800   2.332   4.472
10692SOL    HW132975   2.732   2.323   4.544
10692SOL    HW232976   2.756   2.367   4.389
10693SOL     OW32977   1.166   4.196   0.382
10693SOL    HW132978   1.232   4.234   0.318
10693SOL    HW232979   1.087   4.161   0.331
10694SOL     OW32980   5.404   1.952   5.468
10694SOL    HW132981   5.413   1.940   5.567
10694SOL    HW232982   5.378   2.046   5.448
10695SOL     OW32983   4.939   4.602   1.147
10695SOL    HW132984   4.978   4.584   1.056
10695SOL    HW232985   4.999   4.563   1.217
10696SOL     OW32986   6.340   4.675   4.244
10696SOL    HW132987   6.407   4.617   4.289
10696SOL    HW232988   6.348   4.664   4.145
10697SOL     OW32989   2.498   5.040   4.528
10697SOL    HW132990   2.541   4.959   4.489
10697SOL    HW232991   2.532   5.055   4.621
10698SOL     OW32992   3.892   4.604   0.012
10698SOL    HW132993   3.840   4.687   7.019
10698SOL    HW232994   3.987   4.617   7.009
10699SOL     OW32995   3.803   3.886   1.338
10699SOL    HW132996   3.733   3.824   1.302
10699SOL    HW232997   3.879   3.833   1.374
10700SOL     OW32998   5.084   0.425   1.123
10700SOL    HW132999   5.184   0.418   1.120
10700SOL    HW233000   5.045   0.370   1.049
10701SOL     OW33001   3.123   6.384   6.066
10701SOL    HW133002   3.141   6.479   6.038
10701SOL    HW233003   3.127   6.325   5.986
10702SOL     OW33004   5.369   2.869   2.398
10702SOL    HW133005   5.377   2.769   2.401
10702SOL    HW233006   5.273   2.894   2.408
10703SOL     OW33007   0.814   1.766   5.435
10703SOL    HW133008   0.818   1.774   5.535
10703SOL    HW233009   0.727   1.726   5.409
10704SOL     OW33010   5.481   6.820   1.863
10704SOL    HW133011   5.390   6.780   1.868
10704SOL    HW233012   5.479   6.899   1.802
10705SOL     OW33013   4.804   3.355   1.382
10705SOL    HW133014   4.800   3.259   1.352
10705SOL    HW233015   4.731   3.406   1.338
10706SOL     OW33016   3.156   0.881   2.006
10706SOL    HW133017   3.083   0.874   2.074
10706SOL    HW233018   3.135   0.955   1.942
10707SOL     OW33019   4.183   6.648   3.266
10707SOL    HW133020   4.136   6.559   3.268
10707SOL    HW233021   4.195   6.681   3.359
10708SOL     OW33022   4.076   0.765   0.929
10708SOL    HW133023   4.078   0.687   0.991
10708SOL    HW233024   4.015   0.744   0.852
10709SOL     OW33025   5.890   4.277   2.719
10709SOL    HW133026   5.896   4.205   2.788
10709SOL    HW233027   5.797   4.282   2.683
10710SOL     OW33028   4.593   1.738   3.302
10710SOL    HW133029   4.593   1.795   3.220
10710SOL    HW233030   4.660   1.773   3.367
10711SOL     OW33031   2.697   6.574   3.248
10711SOL    HW133032   2.711   6.597   3.151
10711SOL    HW233033   2.778   6.600   3.300
10712SOL     OW33034   5.592   0.857   3.462
10712SOL    HW133035   5.575   0.773   3.411
10712SOL    HW233036   5.658   0.913   3.413
10713SOL     OW33037   1.431   3.422   1.368
10713SOL    HW133038   1.369   3.407   1.290
10713SOL    HW233039   1.456   3.518   1.373
10714SOL     OW33040   3.297   4.130   5.229
10714SOL    HW133041   3.226   4.200   5.222
10714SOL    HW233042   3.380   4.171   5.267
10715SOL     OW33043   5.747   0.948   1.938
10715SOL    HW133044   5.808   0.898   1.999
10715SOL    HW233045   5.731   0.894   1.855
10716SOL     OW33046   5.194   1.104   3.263
10716SOL    HW133047   5.100   1.073   3.278
10716SOL    HW233048   5.195   1.204   3.254
10717SOL     OW33049   3.418   2.382   0.763
10717SOL    HW133050   3.431   2.379   0.664
10717SOL    HW233051   3.472   2.309   0.806
10718SOL     OW33052   1.542   5.325   6.514
10718SOL    HW133053   1.556   5.331   6.415
10718SOL    HW233054   1.541   5.229   6.542
10719SOL     OW33055   0.400   5.166   5.290
10719SOL    HW133056   0.382   5.075   5.327
10719SOL    HW233057   0.316   5.220   5.290
10720SOL     OW33058   7.006   5.534   2.749
10720SOL    HW133059   7.025   5.577   2.660
10720SOL    HW233060   6.952   5.597   2.805
10721SOL     OW33061   5.047   2.253   5.861
10721SOL    HW133062   4.998   2.168   5.845
10721SOL    HW233063   5.137   2.249   5.818
10722SOL     OW33064   0.434   3.659   5.207
10722SOL    HW133065   0.368   3.596   5.248
10722SOL    HW233066   0.437   3.744   5.260
10723SOL     OW33067   5.744   6.327   0.491
10723SOL    HW133068   5.791   6.405   0.531
10723SOL    HW233069   5.741   6.338   0.391
10724SOL     OW33070   0.420   5.997   6.117
10724SOL    HW133071   0.425   6.093   6.089
10724SOL    HW233072   0.513   5.962   6.132
10725SOL     OW33073   2.272   6.572   6.121
10725SOL    HW133074   2.309   6.659   6.089
10725SOL    HW233075   2.343   6.502   6.114
10726SOL     OW33076   4.007   0.549   3.994
10726SOL    HW133077   4.037   0.645   3.990
10726SOL    HW233078   4.039   0.501   3.912
10727SOL     OW33079   2.185   6.625   6.662
10727SOL    HW133080   2.138   6.690   6.722
10727SOL    HW233081   2.159   6.532   6.687
10728SOL     OW33082   5.317   6.158   1.170
10728SOL    HW133083   5.416   6.142   1.175
10728SOL    HW233084   5.270   6.094   1.231
10729SOL     OW33085   6.383   2.088   0.457
10729SOL    HW133086   6.430   2.000   0.451
10729SOL    HW233087   6.350   2.101   0.550
10730SOL     OW33088   4.829   0.686   3.014
10730SOL    HW133089   4.915   0.638   2.994
10730SOL    HW233090   4.845   0.785   3.011
10731SOL     OW33091   3.336   0.121   0.973
10731SOL    HW133092   3.331   0.047   0.906
10731SOL    HW233093   3.309   0.207   0.929
10732SOL     OW33094   1.098   3.406   6.124
10732SOL    HW133095   1.123   3.498   6.094
10732SOL    HW233096   1.136   3.390   6.215
10733SOL     OW33097   5.729   0.756   0.245
10733SOL    HW133098   5.647   0.704   0.222
10733SOL    HW233099   5.719   0.850   0.212
10734SOL     OW33100   6.007   2.992   2.042
10734SOL    HW133101   6.014   3.070   1.980
10734SOL    HW233102   5.910   2.974   2.061
10735SOL     OW33103   0.602   5.888   2.958
10735SOL    HW133104   0.598   5.988   2.964
10735SOL    HW233105   0.512   5.853   2.933
10736SOL     OW33106   2.149   1.480   4.747
10736SOL    HW133107   2.218   1.542   4.783
10736SOL    HW233108   2.062   1.528   4.738
10737SOL     OW33109   6.460   2.074   6.872
10737SOL    HW133110   6.520   2.147   6.839
10737SOL    HW233111   6.487   2.048   6.965
10738SOL     OW33112   3.933   0.153   3.812
10738SOL    HW133113   3.898   0.072   3.860
10738SOL    HW233114   3.878   0.233   3.838
10739SOL     OW33115   2.432   1.938   2.245
10739SOL    HW133116   2.365   2.003   2.209
10739SOL    HW233117   2.388   1.878   2.311
10740SOL     OW33118   4.603   6.151   3.354
10740SOL    HW133119   4.689   6.149   3.405
10740SOL    HW233120   4.615   6.105   3.266
10741SOL     OW33121   2.459   0.536   3.225
10741SOL    HW133122   2.418   0.625   3.204
10741SOL    HW233123   2.399   0.485   3.286
10742SOL     OW33124   6.660   5.611   0.254
10742SOL    HW133125   6.747   5.568   0.278
10742SOL    HW233126   6.597   5.542   0.219
10743SOL     OW33127   2.781   1.782   5.072
10743SOL    HW133128   2.856   1.716   5.075
10743SOL    HW233129   2.791   1.848   5.145
10744SOL     OW33130   5.999   1.521   0.168
10744SOL    HW133131   5.956   1.496   0.255
10744SOL    HW233132   5.988   1.618   0.151
10745SOL     OW33133   0.547   5.614   6.276
10745SOL    HW133134   0.632   5.633   6.228
10745SOL    HW233135   0.491   5.696   6.280
10746SOL     OW33136   1.956   4.411   5.795
10746SOL    HW133137   1.883   4.479   5.800
10746SOL    HW233138   1.997   4.412   5.704
10747SOL     OW33139   3.212   2.027   4.663
10747SOL    HW133140   3.142   2.082   4.617
10747SOL    HW233141   3.235   2.070   4.751
10748SOL     OW33142   5.594   1.404   2.590
10748SOL    HW133143   5.535   1.472   2.634
10748SOL    HW233144   5.632   1.443   2.506
10749SOL     OW33145   3.180   6.716   0.400
10749SOL    HW133146   3.125   6.635   0.378
10749SOL    HW233147   3.222   6.704   0.490
10750SOL     OW33148   4.285   6.751   5.880
10750SOL    HW133149   4.266   6.654   5.863
10750SOL    HW233150   4.234   6.780   5.961
10751SOL     OW33151   2.453   5.284   3.595
10751SOL    HW133152   2.503   5.212   3.642
10751SOL    HW233153   2.485   5.291   3.501
10752SOL     OW33154   5.057   4.984   4.166
10752SOL    HW133155   5.014   4.898   4.192
10752SOL    HW233156   5.145   4.993   4.213
10753SOL     OW33157   5.881   4.037   4.214
10753SOL    HW133158   5.836   3.962   4.166
10753SOL    HW233159   5.978   4.038   4.193
10754SOL     OW33160   1.298   6.853   2.786
10754SOL    HW133161   1.358   6.925   2.751
10754SOL    HW233162   1.287   6.865   2.885
10755SOL     OW33163   6.191   5.391   1.406
10755SOL    HW133164   6.250   5.428   1.478
10755SOL    HW233165   6.235   5.406   1.317
10756SOL     OW33166   0.764   0.533   5.147
10756SOL    HW133167   0.818   0.487   5.217
10756SOL    HW233168   0.764   0.631   5.164
10757SOL     OW33169   3.051   3.265   1.590
10757SOL    HW133170   3.134   3.263   1.535
10757SOL    HW233171   3.009   3.356   1.583
10758SOL     OW33172   0.316   5.089   3.901
10758SOL    HW133173   0.271   5.001   3.889
10758SOL    HW233174   0.342   5.101   3.997
10759SOL     OW33175   6.852   0.997   6.701
10759SOL    HW133176   6.844   0.897   6.708
10759SOL    HW233177   6.846   1.037   6.792
10760SOL     OW33178   5.876   1.507   4.815
10760SOL    HW133179   5.877   1.605   4.832
10760SOL    HW233180   5.961   1.467   4.848
10761SOL     OW33181   2.899   4.655   5.830
10761SOL    HW133182   2.800   4.652   5.817
10761SOL    HW233183   2.921   4.717   5.905
10762SOL     OW33184   3.234   1.645   6.232
10762SOL    HW133185   3.191   1.718   6.179
10762SOL    HW233186   3.281   1.582   6.170
10763SOL     OW33187   4.745   5.991   4.018
10763SOL    HW133188   4.662   6.002   4.073
10763SOL    HW233189   4.766   6.077   3.971
10764SOL     OW33190   4.176   0.032   4.817
10764SOL    HW133191   4.249   7.014   4.870
10764SOL    HW233192   4.217   0.093   4.748
10765SOL     OW33193   6.801   3.476   6.816
10765SOL    HW133194   6.800   3.500   6.913
10765SOL    HW233195   6.797   3.559   6.761
10766SOL     OW33196   3.423   3.187   1.598
10766SOL    HW133197   3.371   3.254   1.545
10766SOL    HW233198   3.466   3.232   1.676
10767SOL     OW33199   4.385   1.899   2.671
10767SOL    HW133200   4.294   1.895   2.630
10767SOL    HW233201   4.454   1.889   2.599
10768SOL     OW33202   6.100   4.673   6.231
10768SOL    HW133203   6.112   4.764   6.192
10768SOL    HW233204   6.003   4.659   6.256
10769SOL     OW33205   1.870   3.442   5.320
10769SOL    HW133206   1.968   3.443   5.305
10769SOL    HW233207   1.823   3.448   5.232
10770SOL     OW33208   4.225   5.690   4.012
10770SOL    HW133209   4.145   5.689   3.953
10770SOL    HW233210   4.265   5.599   4.016
10771SOL     OW33211   2.333   1.677   4.367
10771SOL    HW133212   2.263   1.727   4.418
10771SOL    HW233213   2.314   1.681   4.269
10772SOL     OW33214   5.591   5.699   3.628
10772SOL    HW133215   5.493   5.679   3.637
10772SOL    HW233216   5.608   5.744   3.541
10773SOL     OW33217   5.620   4.855   2.988
10773SOL    HW133218   5.669   4.803   3.057
10773SOL    HW233219   5.607   4.799   2.906
10774SOL     OW33220   0.110   6.855   3.171
10774SOL    HW133221   0.084   6.854   3.074
10774SOL    HW233222   0.096   6.763   3.209
10775SOL     OW33223   0.311   3.462   1.066
10775SOL    HW133224   0.264   3.443   0.980
10775SOL    HW233225   0.267   3.412   1.140
10776SOL     OW33226   1.283   0.453   5.634
10776SOL    HW133227   1.355   0.405   5.585
10776SOL    HW233228   1.322   0.501   5.713
10777SOL     OW33229   2.359   5.385   1.549
10777SOL    HW133230   2.262   5.366   1.568
10777SOL    HW233231   2.390   5.461   1.606
10778SOL     OW33232   6.090   5.902   2.009
10778SOL    HW133233   6.126   5.951   2.088
10778SOL    HW233234   6.013   5.846   2.036
10779SOL     OW33235   4.922   3.074   3.419
10779SOL    HW133236   5.016   3.046   3.400
10779SOL    HW233237   4.859   3.006   3.383
10780SOL     OW33238   6.850   0.527   2.093
10780SOL    HW133239   6.940   0.493   2.120
10780SOL    HW233240   6.805   0.460   2.033
10781SOL     OW33241   3.390   0.304   4.373
10781SOL    HW133242   3.339   0.389   4.364
10781SOL    HW233243   3.440   0.303   4.459
10782SOL     OW33244   6.355   5.198   3.403
10782SOL    HW133245   6.272   5.243   3.435
10782SOL    HW233246   6.414   5.178   3.482
10783SOL     OW33247   6.852   2.645   2.959
10783SOL    HW133248   6.766   2.612   2.921
10783SOL    HW233249   6.882   2.583   3.033
10784SOL     OW33250   2.414   1.835   4.822
10784SOL    HW133251   2.471   1.839   4.903
10784SOL    HW233252   2.328   1.790   4.844
10785SOL     OW33253   1.040   2.909   6.020
10785SOL    HW133254   1.080   2.975   6.082
10785SOL    HW233255   0.950   2.880   6.054
10786SOL     OW33256   6.505   3.868   4.144
10786SOL    HW133257   6.508   3.793   4.210
10786SOL    HW233258   6.595   3.878   4.101
10787SOL     OW33259   2.549   2.071   6.410
10787SOL    HW133260   2.574   2.120   6.326
10787SOL    HW233261   2.482   2.124   6.461
10788SOL     OW33262   5.803   3.598   6.168
10788SOL    HW133263   5.792   3.541   6.087
10788SOL    HW233264   5.886   3.570   6.217
10789SOL     OW33265   5.305   1.265   0.030
10789SOL    HW133266   5.294   1.358   0.066
10789SOL    HW233267   5.247   1.202   0.082
10790SOL     OW33268   5.931   6.108   2.853
10790SOL    HW133269   5.960   6.088   2.760
10790SOL    HW233270   5.844   6.158   2.851
10791SOL     OW33271   0.959   6.538   2.449
10791SOL    HW133272   0.953   6.638   2.452
10791SOL    HW233273   0.954   6.507   2.354
10792SOL     OW33274   3.817   4.930   6.263
10792SOL    HW133275   3.806   4.946   6.362
10792SOL    HW233276   3.777   4.841   6.240
10793SOL     OW33277   5.737   3.816   4.114
10793SOL    HW133278   5.686   3.871   4.047
10793SOL    HW233279   5.676   3.746   4.152
10794SOL     OW33280   3.149   3.738   4.319
10794SOL    HW133281   3.061   3.693   4.332
10794SOL    HW233282   3.193   3.702   4.237
10795SOL     OW33283   0.124   5.305   2.749
10795SOL    HW133284   0.071   5.389   2.740
10795SOL    HW233285   0.144   5.268   2.658
10796SOL     OW33286   1.024   6.374   5.495
10796SOL    HW133287   1.008   6.442   5.422
10796SOL    HW233288   0.939   6.325   5.514
10797SOL     OW33289   3.987   2.969   7.001
10797SOL    HW133290   3.897   2.930   7.022
10797SOL    HW233291   3.975   3.060   6.961
10798SOL     OW33292   5.952   1.359   1.079
10798SOL    HW133293   6.050   1.356   1.102
10798SOL    HW233294   5.909   1.273   1.107
10799SOL     OW33295   4.896   1.797   1.030
10799SOL    HW133296   4.951   1.798   0.947
10799SOL    HW233297   4.829   1.723   1.026
10800SOL     OW33298   6.921   7.025   1.050
10800SOL    HW133299   6.998   0.049   1.090
10800SOL    HW233300   6.838   0.022   1.101
10801SOL     OW33301   2.206   0.567   1.316
10801SOL    HW133302   2.187   0.490   1.377
10801SOL    HW233303   2.122   0.596   1.272
10802SOL     OW33304   5.559   1.737   3.788
10802SOL    HW133305   5.569   1.804   3.715
10802SOL    HW233306   5.604   1.772   3.871
10803SOL     OW33307   2.455   5.146   5.755
10803SOL    HW133308   2.553   5.141   5.771
10803SOL    HW233309   2.413   5.057   5.777
10804SOL     OW33310   6.494   3.685   4.364
10804SOL    HW133311   6.547   3.712   4.445
10804SOL    HW233312   6.493   3.586   4.357
10805SOL     OW33313   6.598   0.384   6.541
10805SOL    HW133314   6.643   0.430   6.465
10805SOL    HW233315   6.610   0.439   6.624
10806SOL     OW33316   1.516   5.855   0.266
10806SOL    HW133317   1.486   5.760   0.261
10806SOL    HW233318   1.481   5.896   0.350
10807SOL     OW33319   3.401   5.469   4.522
10807SOL    HW133320   3.427   5.481   4.618
10807SOL    HW233321   3.302   5.464   4.515
10808SOL     OW33322   1.410   3.056   6.398
10808SOL    HW133323   1.382   3.135   6.344
10808SOL    HW233324   1.483   3.082   6.461
10809SOL     OW33325   1.552   0.230   4.707
10809SOL    HW133326   1.636   0.236   4.654
10809SOL    HW233327   1.571   0.252   4.803
10810SOL     OW33328   6.174   0.745   4.354
10810SOL    HW133329   6.270   0.757   4.380
10810SOL    HW233330   6.158   0.649   4.332
10811SOL     OW33331   5.605   5.911   4.965
10811SOL    HW133332   5.700   5.917   4.994
10811SOL    HW233333   5.585   5.984   4.900
10812SOL     OW33334   0.411   2.781   0.620
10812SOL    HW133335   0.339   2.833   0.573
10812SOL    HW233336   0.373   2.736   0.700
10813SOL     OW33337   1.284   3.862   6.974
10813SOL    HW133338   1.200   3.816   7.004
10813SOL    HW233339   1.329   3.904   0.026
10814SOL     OW33340   3.144   2.001   1.379
10814SOL    HW133341   3.209   1.982   1.452
10814SOL    HW233342   3.084   1.921   1.367
10815SOL     OW33343   5.001   0.909   4.309
10815SOL    HW133344   4.932   0.951   4.251
10815SOL    HW233345   4.988   0.938   4.404
10816SOL     OW33346   3.263   3.309   5.108
10816SOL    HW133347   3.242   3.343   5.200
10816SOL    HW233348   3.264   3.209   5.109
10817SOL     OW33349   1.163   5.997   4.244
10817SOL    HW133350   1.079   5.987   4.191
10817SOL    HW233351   1.168   6.089   4.282
10818SOL     OW33352   4.286   3.937   0.231
10818SOL    HW133353   4.187   3.922   0.232
10818SOL    HW233354   4.333   3.854   0.262
10819SOL     OW33355   5.893   5.878   5.280
10819SOL    HW133356   5.977   5.831   5.309
10819SOL    HW233357   5.814   5.822   5.305
10820SOL     OW33358   2.113   4.781   6.221
10820SOL    HW133359   2.170   4.853   6.181
10820SOL    HW233360   2.078   4.722   6.148
10821SOL     OW33361   4.177   5.397   3.900
10821SOL    HW133362   4.105   5.331   3.881
10821SOL    HW233363   4.174   5.469   3.830
10822SOL     OW33364   5.936   0.804   2.100
10822SOL    HW133365   5.981   0.716   2.111
10822SOL    HW233366   5.969   0.868   2.170
10823SOL     OW33367   5.508   6.513   2.413
10823SOL    HW133368   5.456   6.519   2.328
10823SOL    HW233369   5.537   6.604   2.441
10824SOL     OW33370   0.968   3.026   2.751
10824SOL    HW133371   0.871   3.026   2.729
10824SOL    HW233372   1.002   3.120   2.752
10825SOL     OW33373   0.028   1.772   0.557
10825SOL    HW133374   0.090   1.849   0.573
10825SOL    HW233375   0.030   1.748   0.460
10826SOL     OW33376   6.369   3.185   2.426
10826SOL    HW133377   6.311   3.159   2.349
10826SOL    HW233378   6.325   3.158   2.512
10827SOL     OW33379   6.879   3.477   4.318
10827SOL    HW133380   6.907   3.382   4.333
10827SOL    HW233381   6.881   3.498   4.221
10828SOL     OW33382   0.176   3.913   4.923
10828SOL    HW133383   0.252   3.950   4.870
10828SOL    HW233384   0.135   3.837   4.873
10829SOL     OW33385   3.783   3.122   5.372
10829SOL    HW133386   3.841   3.061   5.426
10829SOL    HW233387   3.695   3.079   5.355
10830SOL     OW33388   5.516   2.194   3.373
10830SOL    HW133389   5.569   2.155   3.298
10830SOL    HW233390   5.432   2.236   3.336
10831SOL     OW33391   4.292   6.666   3.756
10831SOL    HW133392   4.268   6.696   3.664
10831SOL    HW233393   4.213   6.679   3.816
10832SOL     OW33394   6.645   2.615   6.761
10832SOL    HW133395   6.551   2.637   6.733
10832SOL    HW233396   6.643   2.547   6.835
10833SOL     OW33397   0.501   1.541   6.741
10833SOL    HW133398   0.545   1.469   6.687
10833SOL    HW233399   0.472   1.504   6.829
10834SOL     OW33400   6.373   6.120   1.543
10834SOL    HW133401   6.449   6.180   1.519
10834SOL    HW233402   6.344   6.069   1.462
10835SOL     OW33403   6.708   2.137   5.337
10835SOL    HW133404   6.741   2.077   5.264
10835SOL    HW233405   6.727   2.232   5.314
10836SOL     OW33406   0.212   1.650   3.362
10836SOL    HW133407   0.228   1.721   3.293
10836SOL    HW233408   0.115   1.650   3.388
10837SOL     OW33409   6.883   3.522   4.058
10837SOL    HW133410   6.918   3.435   4.023
10837SOL    HW233411   6.857   3.581   3.981
10838SOL     OW33412   0.272   6.255   2.743
10838SOL    HW133413   0.253   6.329   2.679
10838SOL    HW233414   0.253   6.286   2.836
10839SOL     OW33415   4.565   2.527   0.171
10839SOL    HW133416   4.638   2.508   0.106
10839SOL    HW233417   4.524   2.615   0.151
10840SOL     OW33418   2.618   0.627   2.232
10840SOL    HW133419   2.684   0.598   2.162
10840SOL    HW233420   2.620   0.563   2.308
10841SOL     OW33421   2.360   5.164   5.239
10841SOL    HW133422   2.416   5.097   5.289
10841SOL    HW233423   2.263   5.141   5.250
10842SOL     OW33424   6.569   4.671   1.375
10842SOL    HW133425   6.615   4.672   1.463
10842SOL    HW233426   6.566   4.577   1.340
10843SOL     OW33427   2.350   1.485   1.781
10843SOL    HW133428   2.322   1.458   1.689
10843SOL    HW233429   2.449   1.473   1.791
10844SOL     OW33430   2.100   5.780   4.587
10844SOL    HW133431   2.110   5.848   4.514
10844SOL    HW233432   2.161   5.703   4.569
10845SOL     OW33433   4.652   0.688   4.413
10845SOL    HW133434   4.690   0.670   4.503
10845SOL    HW233435   4.624   0.602   4.370
10846SOL     OW33436   5.826   6.885   6.022
10846SOL    HW133437   5.833   6.967   6.079
10846SOL    HW233438   5.814   6.912   5.926
10847SOL     OW33439   2.862   6.835   0.073
10847SOL    HW133440   2.884   6.930   0.049
10847SOL    HW233441   2.946   6.781   0.074
10848SOL     OW33442   1.875   3.280   1.866
10848SOL    HW133443   1.842   3.374   1.869
10848SOL    HW233444   1.818   3.227   1.802
10849SOL     OW33445   1.958   6.526   3.631
10849SOL    HW133446   1.942   6.427   3.634
10849SOL    HW233447   2.051   6.543   3.598
10850SOL     OW33448   4.918   4.389   0.661
10850SOL    HW133449   4.910   4.383   0.561
10850SOL    HW233450   4.871   4.472   0.693
10851SOL     OW33451   1.544   4.846   0.905
10851SOL    HW133452   1.556   4.801   0.993
10851SOL    HW233453   1.560   4.944   0.915
10852SOL     OW33454   2.902   1.433   2.132
10852SOL    HW133455   2.970   1.423   2.060
10852SOL    HW233456   2.829   1.366   2.119
10853SOL     OW33457   3.594   0.957   6.340
10853SOL    HW133458   3.582   1.022   6.415
10853SOL    HW233459   3.692   0.939   6.326
10854SOL     OW33460   3.196   5.955   5.912
10854SOL    HW133461   3.133   5.886   5.950
10854SOL    HW233462   3.269   5.973   5.977
10855SOL     OW33463   4.060   0.998   6.748
10855SOL    HW133464   3.972   0.957   6.722
10855SOL    HW233465   4.128   0.926   6.761
10856SOL     OW33466   1.006   1.244   0.700
10856SOL    HW133467   0.990   1.292   0.614
10856SOL    HW233468   1.003   1.309   0.776
10857SOL     OW33469   6.825   2.746   1.692
10857SOL    HW133470   6.918   2.708   1.685
10857SOL    HW233471   6.799   2.751   1.788
10858SOL     OW33472   2.405   6.626   2.154
10858SOL    HW133473   2.368   6.651   2.244
10858SOL    HW233474   2.336   6.645   2.084
10859SOL     OW33475   1.272   4.829   3.826
10859SOL    HW133476   1.317   4.780   3.751
10859SOL    HW233477   1.331   4.828   3.907
10860SOL     OW33478   0.357   3.480   3.363
10860SOL    HW133479   0.340   3.540   3.441
10860SOL    HW233480   0.345   3.384   3.392
10861SOL     OW33481   4.298   3.188   5.440
10861SOL    HW133482   4.251   3.181   5.351
10861SOL    HW233483   4.318   3.283   5.459
10862SOL     OW33484   1.299   0.849   5.307
10862SOL    HW133485   1.226   0.916   5.322
10862SOL    HW233486   1.258   0.764   5.272
10863SOL     OW33487   2.385   6.447   4.012
10863SOL    HW133488   2.466   6.397   4.046
10863SOL    HW233489   2.319   6.456   4.086
10864SOL     OW33490   3.556   6.902   3.391
10864SOL    HW133491   3.637   6.953   3.363
10864SOL    HW233492   3.569   6.865   3.483
10865SOL     OW33493   6.699   1.158   6.292
10865SOL    HW133494   6.733   1.064   6.289
10865SOL    HW233495   6.600   1.158   6.281
10866SOL     OW33496   5.745   4.860   6.671
10866SOL    HW133497   5.693   4.943   6.651
10866SOL    HW233498   5.839   4.871   6.638
10867SOL     OW33499   2.733   1.800   6.988
10867SOL    HW133500   2.806   1.811   0.030
10867SOL    HW233501   2.731   1.706   6.955
10868SOL     OW33502   1.618   2.254   3.203
10868SOL    HW133503   1.716   2.268   3.188
10868SOL    HW233504   1.600   2.244   3.301
10869NA      NA33505   6.298   2.082   5.452
10870NA      NA33506   4.362   4.459   5.336
10871NA      NA33507   2.286   3.312   1.717
10872NA      NA33508   4.869   3.683   5.262
10873NA      NA33509   4.182   2.405   5.326
10874NA      NA33510   3.639   4.931   1.855
10875NA      NA33511   6.807   6.255   4.848
10876NA      NA33512   3.622   3.670   5.123
10877NA      NA33513   4.724   6.468   6.284
10878NA      NA33514   2.746   0.619   4.972
10879NA      NA33515   0.650   5.115   2.709
10880NA      NA33516   2.216   0.584   2.545
10881NA      NA33517   3.536   4.438   1.334
10882NA      NA33518   3.959   3.368   2.944
   7.02552   7.02552   7.02552
