Generated by trjconv : CNT in water t= 540.00000
33518
    1C        C    1   2.844   2.770   4.744
    1C        C    2   2.894   2.713   4.863
    1C        C    3   2.840   2.770   4.979
    1C        C    4   2.851   2.775   4.256
    1C        C    5   2.903   2.728   4.378
    1C        C    6   2.854   2.780   4.500
    1C        C    7   3.010   2.639   4.623
    1C        C    8   2.896   2.722   4.622
    1C        C    9   3.074   2.599   4.742
    1C        C   10   3.004   2.624   4.863
    1C        C   11   3.178   2.486   4.974
    1C        C   12   3.057   2.557   4.973
    1C        C   13   2.853   2.771   3.771
    1C        C   14   2.901   2.720   3.893
    1C        C   15   2.848   2.771   4.014
    1C        C   16   3.018   2.641   4.137
    1C        C   17   2.903   2.723   4.135
    1C        C   18   3.078   2.606   4.259
    1C        C   19   3.019   2.647   4.381
    1C        C   20   3.206   2.550   4.504
    1C        C   21   3.076   2.605   4.503
    1C        C   22   3.276   2.528   4.625
    1C        C   23   3.206   2.548   4.746
    1C        C   24   3.410   2.473   4.864
    1C        C   25   3.269   2.498   4.864
    1C        C   26   3.486   2.481   4.982
    1C        C   27   2.851   2.766   3.282
    1C        C   28   2.908   2.725   3.404
    1C        C   29   2.858   2.775   3.527
    1C        C   30   3.022   2.642   3.650
    1C        C   31   2.907   2.724   3.649
    1C        C   32   3.078   2.600   3.773
    1C        C   33   3.014   2.635   3.894
    1C        C   34   3.207   2.545   4.017
    1C        C   35   3.077   2.600   4.015
    1C        C   36   3.276   2.530   4.140
    1C        C   37   3.210   2.555   4.262
    1C        C   38   3.415   2.499   4.382
    1C        C   39   3.276   2.527   4.384
    1C        C   40   3.484   2.495   4.504
    1C        C   41   3.415   2.501   4.627
    1C        C   42   3.629   2.487   4.744
    1C        C   43   3.488   2.475   4.745
    1C        C   44   3.703   2.485   4.865
    1C        C   45   3.624   2.469   4.980
    1C        C   46   2.841   2.753   2.794
    1C        C   47   2.899   2.711   2.916
    1C        C   48   2.847   2.763   3.037
    1C        C   49   3.019   2.637   3.160
    1C        C   50   2.905   2.721   3.159
    1C        C   51   3.080   2.600   3.281
    1C        C   52   3.021   2.641   3.403
    1C        C   53   3.208   2.545   3.527
    1C        C   54   3.080   2.606   3.526
    1C        C   55   3.273   2.519   3.649
    1C        C   56   3.208   2.546   3.772
    1C        C   57   3.414   2.503   3.896
    1C        C   58   3.275   2.524   3.895
    1C        C   59   3.485   2.493   4.018
    1C        C   60   3.414   2.497   4.140
    1C        C   61   3.627   2.492   4.262
    1C        C   62   3.486   2.486   4.260
    1C        C   63   3.699   2.508   4.383
    1C        C   64   3.626   2.497   4.504
    1C        C   65   3.836   2.542   4.621
    1C        C   66   3.700   2.503   4.623
    1C        C   67   3.907   2.560   4.742
    1C        C   68   3.839   2.524   4.860
    1C        C   69   4.050   2.585   4.974
    1C        C   70   3.923   2.525   4.972
    1C        C   71   2.821   2.731   2.308
    1C        C   72   2.882   2.692   2.429
    1C        C   73   2.831   2.745   2.550
    1C        C   74   3.004   2.620   2.670
    1C        C   75   2.886   2.698   2.672
    1C        C   76   3.070   2.592   2.791
    1C        C   77   3.014   2.630   2.915
    1C        C   78   3.207   2.544   3.034
    1C        C   79   3.076   2.595   3.038
    1C        C   80   3.274   2.528   3.157
    1C        C   81   3.209   2.542   3.282
    1C        C   82   3.415   2.494   3.406
    1C        C   83   3.276   2.524   3.405
    1C        C   84   3.484   2.488   3.529
    1C        C   85   3.412   2.493   3.651
    1C        C   86   3.623   2.499   3.773
    1C        C   87   3.482   2.489   3.773
    1C        C   88   3.694   2.508   3.894
    1C        C   89   3.626   2.494   4.018
    1C        C   90   3.830   2.553   4.136
    1C        C   91   3.697   2.505   4.140
    1C        C   92   3.900   2.576   4.256
    1C        C   93   3.834   2.548   4.378
    1C        C   94   4.030   2.632   4.497
    1C        C   95   3.902   2.571   4.500
    1C        C   96   4.092   2.669   4.618
    1C        C   97   4.034   2.624   4.739
    1C        C   98   4.190   2.768   4.861
    1C        C   99   4.099   2.658   4.861
    1C        C  100   4.218   2.839   4.979
    1C        C  101   2.826   2.729   2.067
    1C        C  102   2.985   2.587   2.189
    1C        C  103   2.873   2.676   2.188
    1C        C  104   3.060   2.572   2.309
    1C        C  105   2.997   2.610   2.429
    1C        C  106   3.199   2.532   2.547
    1C        C  107   3.067   2.584   2.549
    1C        C  108   3.268   2.517   2.669
    1C        C  109   3.201   2.539   2.791
    1C        C  110   3.410   2.490   2.912
    1C        C  111   3.271   2.514   2.912
    1C        C  112   3.480   2.487   3.035
    1C        C  113   3.413   2.503   3.159
    1C        C  114   3.623   2.490   3.278
    1C        C  115   3.482   2.490   3.282
    1C        C  116   3.692   2.502   3.401
    1C        C  117   3.625   2.493   3.525
    1C        C  118   3.827   2.544   3.646
    1C        C  119   3.690   2.511   3.649
    1C        C  120   3.892   2.575   3.767
    1C        C  121   3.828   2.553   3.891
    1C        C  122   4.020   2.642   4.012
    1C        C  123   3.893   2.581   4.014
    1C        C  124   4.088   2.679   4.131
    1C        C  125   4.025   2.642   4.252
    1C        C  126   4.190   2.772   4.375
    1C        C  127   4.085   2.678   4.375
    1C        C  128   4.240   2.823   4.497
    1C        C  129   4.197   2.763   4.617
    1C        C  130   4.327   2.933   4.737
    1C        C  131   4.243   2.818   4.739
    1C        C  132   4.353   3.003   4.857
    1C        C  133   4.282   2.962   4.970
    1C        C  134   3.170   2.461   2.080
    1C        C  135   3.038   2.509   2.082
    1C        C  136   3.257   2.475   2.189
    1C        C  137   3.193   2.521   2.306
    1C        C  138   3.405   2.479   2.425
    1C        C  139   3.267   2.506   2.426
    1C        C  140   3.479   2.476   2.546
    1C        C  141   3.407   2.492   2.666
    1C        C  142   3.619   2.489   2.790
    1C        C  143   3.478   2.486   2.788
    1C        C  144   3.690   2.504   2.911
    1C        C  145   3.621   2.493   3.034
    1C        C  146   3.828   2.539   3.157
    1C        C  147   3.692   2.498   3.155
    1C        C  148   3.895   2.566   3.278
    1C        C  149   3.828   2.542   3.400
    1C        C  150   4.019   2.631   3.522
    1C        C  151   3.893   2.567   3.523
    1C        C  152   4.077   2.672   3.643
    1C        C  153   4.018   2.639   3.767
    1C        C  154   4.186   2.772   3.886
    1C        C  155   4.077   2.682   3.889
    1C        C  156   4.245   2.817   4.006
    1C        C  157   4.197   2.769   4.130
    1C        C  158   4.338   2.924   4.251
    1C        C  159   4.246   2.817   4.253
    1C        C  160   4.380   2.982   4.373
    1C        C  161   4.333   2.929   4.495
    1C        C  162   4.431   3.119   4.615
    1C        C  163   4.370   2.992   4.616
    1C        C  164   4.462   3.187   4.735
    1C        C  165   4.428   3.122   4.856
    1C        C  166   4.513   3.322   4.971
    1C        C  167   4.475   3.188   4.970
    1C        C  168   3.475   2.434   2.074
    1C        C  169   3.397   2.459   2.187
    1C        C  170   3.618   2.463   2.308
    1C        C  171   3.476   2.461   2.304
    1C        C  172   3.693   2.486   2.425
    1C        C  173   3.620   2.488   2.546
    1C        C  174   3.825   2.545   2.668
    1C        C  175   3.689   2.506   2.668
    1C        C  176   3.892   2.566   2.790
    1C        C  177   3.826   2.541   2.913
    1C        C  178   4.015   2.637   3.029
    1C        C  179   3.892   2.568   3.035
    1C        C  180   4.077   2.668   3.153
    1C        C  181   4.020   2.631   3.277
    1C        C  182   4.189   2.757   3.398
    1C        C  183   4.080   2.668   3.399
    1C        C  184   4.241   2.809   3.518
    1C        C  185   4.187   2.761   3.640
    1C        C  186   4.333   2.918   3.763
    1C        C  187   4.238   2.814   3.761
    1C        C  188   4.377   2.980   3.882
    1C        C  189   4.336   2.925   4.005
    1C        C  190   4.452   3.101   4.129
    1C        C  191   4.377   2.981   4.128
    1C        C  192   4.475   3.172   4.249
    1C        C  193   4.443   3.109   4.371
    1C        C  194   4.508   3.314   4.490
    1C        C  195   4.468   3.178   4.492
    1C        C  196   4.526   3.387   4.610
    1C        C  197   4.509   3.321   4.734
    1C        C  198   4.557   3.536   4.851
    1C        C  199   4.531   3.395   4.853
    1C        C  200   4.581   3.620   4.965
    1C        C  201   3.614   2.417   2.074
    1C        C  202   3.826   2.510   2.181
    1C        C  203   3.691   2.462   2.186
    1C        C  204   3.896   2.544   2.300
    1C        C  205   3.829   2.524   2.422
    1C        C  206   4.018   2.622   2.542
    1C        C  207   3.892   2.558   2.544
    1C        C  208   4.077   2.663   2.663
    1C        C  209   4.019   2.629   2.787
    1C        C  210   4.195   2.752   2.907
    1C        C  211   4.079   2.672   2.908
    1C        C  212   4.244   2.802   3.030
    1C        C  213   4.190   2.752   3.151
    1C        C  214   4.330   2.911   3.272
    1C        C  215   4.238   2.804   3.273
    1C        C  216   4.368   2.974   3.393
    1C        C  217   4.331   2.918   3.517
    1C        C  218   4.440   3.099   3.638
    1C        C  219   4.373   2.975   3.639
    1C        C  220   4.472   3.165   3.759
    1C        C  221   4.446   3.103   3.883
    1C        C  222   4.510   3.303   4.002
    1C        C  223   4.476   3.166   4.006
    1C        C  224   4.518   3.378   4.122
    1C        C  225   4.506   3.310   4.245
    1C        C  226   4.529   3.522   4.366
    1C        C  227   4.514   3.381   4.366
    1C        C  228   4.523   3.596   4.486
    1C        C  229   4.527   3.528   4.609
    1C        C  230   4.505   3.741   4.726
    1C        C  231   4.542   3.604   4.727
    1C        C  232   4.491   3.817   4.845
    1C        C  233   4.536   3.752   4.960
    1C        C  234   4.013   2.609   2.064
    1C        C  235   3.887   2.549   2.062
    1C        C  236   4.086   2.642   2.179
    1C        C  237   4.023   2.609   2.301
    1C        C  238   4.198   2.737   2.419
    1C        C  239   4.084   2.651   2.421
    1C        C  240   4.247   2.788   2.540
    1C        C  241   4.191   2.747   2.663
    1C        C  242   4.335   2.906   2.783
    1C        C  243   4.247   2.796   2.783
    1C        C  244   4.376   2.964   2.905
    1C        C  245   4.337   2.908   3.029
    1C        C  246   4.438   3.094   3.149
    1C        C  247   4.377   2.966   3.151
    1C        C  248   4.457   3.164   3.270
    1C        C  249   4.434   3.099   3.394
    1C        C  250   4.499   3.301   3.515
    1C        C  251   4.466   3.164   3.515
    1C        C  252   4.510   3.374   3.636
    1C        C  253   4.505   3.303   3.758
    1C        C  254   4.526   3.514   3.878
    1C        C  255   4.523   3.373   3.880
    1C        C  256   4.518   3.588   3.998
    1C        C  257   4.519   3.519   4.122
    1C        C  258   4.497   3.731   4.241
    1C        C  259   4.519   3.592   4.243
    1C        C  260   4.475   3.803   4.360
    1C        C  261   4.493   3.734   4.482
    1C        C  262   4.421   3.935   4.602
    1C        C  263   4.477   3.805   4.603
    1C        C  264   4.397   4.005   4.722
    1C        C  265   4.432   3.946   4.845
    1C        C  266   4.325   4.133   4.961
    1C        C  267   4.394   4.013   4.962
    1C        C  268   4.256   2.774   2.059
    1C        C  269   4.197   2.729   2.178
    1C        C  270   4.345   2.889   2.298
    1C        C  271   4.255   2.779   2.297
    1C        C  272   4.384   2.952   2.418
    1C        C  273   4.342   2.893   2.539
    1C        C  274   4.446   3.083   2.660
    1C        C  275   4.375   2.961   2.659
    1C        C  276   4.475   3.150   2.780
    1C        C  277   4.443   3.088   2.903
    1C        C  278   4.506   3.291   3.023
    1C        C  279   4.466   3.155   3.025
    1C        C  280   4.513   3.362   3.144
    1C        C  281   4.495   3.300   3.270
    1C        C  282   4.519   3.511   3.391
    1C        C  283   4.512   3.369   3.392
    1C        C  284   4.523   3.583   3.512
    1C        C  285   4.523   3.514   3.635
    1C        C  286   4.493   3.725   3.753
    1C        C  287   4.520   3.586   3.757
    1C        C  288   4.476   3.794   3.875
    1C        C  289   4.493   3.727   3.999
    1C        C  290   4.428   3.932   4.116
    1C        C  291   4.475   3.799   4.119
    1C        C  292   4.398   4.000   4.236
    1C        C  293   4.425   3.936   4.359
    1C        C  294   4.327   4.125   4.478
    1C        C  295   4.392   3.999   4.480
    1C        C  296   4.289   4.188   4.599
    1C        C  297   4.329   4.130   4.721
    1C        C  298   4.203   4.310   4.838
    1C        C  299   4.284   4.192   4.840
    1C        C  300   4.169   4.397   4.947
    1C        C  301   4.346   2.881   2.059
    1C        C  302   4.466   3.066   2.173
    1C        C  303   4.394   2.943   2.176
    1C        C  304   4.482   3.141   2.293
    1C        C  305   4.449   3.078   2.415
    1C        C  306   4.509   3.283   2.536
    1C        C  307   4.475   3.145   2.536
    1C        C  308   4.516   3.357   2.656
    1C        C  309   4.507   3.288   2.779
    1C        C  310   4.518   3.500   2.900
    1C        C  311   4.522   3.359   2.900
    1C        C  312   4.513   3.572   3.022
    1C        C  313   4.521   3.503   3.146
    1C        C  314   4.488   3.716   3.261
    1C        C  315   4.515   3.577   3.266
    1C        C  316   4.474   3.786   3.383
    1C        C  317   4.495   3.721   3.507
    1C        C  318   4.423   3.921   3.627
    1C        C  319   4.474   3.790   3.629
    1C        C  320   4.390   3.986   3.749
    1C        C  321   4.428   3.927   3.872
    1C        C  322   4.318   4.110   3.991
    1C        C  323   4.397   3.994   3.992
    1C        C  324   4.275   4.168   4.113
    1C        C  325   4.321   4.118   4.237
    1C        C  326   4.184   4.283   4.353
    1C        C  327   4.284   4.184   4.357
    1C        C  328   4.132   4.334   4.474
    1C        C  329   4.190   4.290   4.595
    1C        C  330   4.029   4.433   4.711
    1C        C  331   4.143   4.348   4.715
    1C        C  332   3.971   4.486   4.829
    1C        C  333   4.051   4.471   4.943
    1C        C  334   4.555   3.266   2.061
    1C        C  335   4.535   3.127   2.064
    1C        C  336   4.538   3.349   2.173
    1C        C  337   4.513   3.280   2.293
    1C        C  338   4.518   3.494   2.412
    1C        C  339   4.518   3.353   2.414
    1C        C  340   4.517   3.569   2.532
    1C        C  341   4.515   3.498   2.654
    1C        C  342   4.494   3.709   2.774
    1C        C  343   4.511   3.569   2.777
    1C        C  344   4.475   3.779   2.895
    1C        C  345   4.492   3.712   3.018
    1C        C  346   4.424   3.915   3.138
    1C        C  347   4.474   3.783   3.138
    1C        C  348   4.390   3.978   3.260
    1C        C  349   4.424   3.918   3.383
    1C        C  350   4.323   4.106   3.504
    1C        C  351   4.397   3.985   3.504
    1C        C  352   4.274   4.164   3.623
    1C        C  353   4.314   4.104   3.745
    1C        C  354   4.173   4.261   3.865
    1C        C  355   4.268   4.157   3.868
    1C        C  356   4.121   4.312   3.987
    1C        C  357   4.177   4.269   4.110
    1C        C  358   4.008   4.401   4.229
    1C        C  359   4.123   4.318   4.231
    1C        C  360   3.949   4.441   4.351
    1C        C  361   4.018   4.417   4.471
    1C        C  362   3.832   4.523   4.593
    1C        C  363   3.961   4.464   4.591
    1C        C  364   3.761   4.549   4.712
    1C        C  365   3.840   4.539   4.829
    1C        C  366   3.631   4.590   4.949
    1C        C  367   3.769   4.572   4.945
    1C        C  368   4.506   3.565   2.055
    1C        C  369   4.522   3.489   2.171
    1C        C  370   4.501   3.706   2.287
    1C        C  371   4.514   3.565   2.290
    1C        C  372   4.486   3.778   2.407
    1C        C  373   4.505   3.710   2.529
    1C        C  374   4.429   3.908   2.651
    1C        C  375   4.484   3.778   2.651
    1C        C  376   4.397   3.974   2.771
    1C        C  377   4.423   3.911   2.895
    1C        C  378   4.319   4.098   3.012
    1C        C  379   4.395   3.979   3.015
    1C        C  380   4.270   4.150   3.134
    1C        C  381   4.312   4.096   3.258
    1C        C  382   4.178   4.257   3.376
    1C        C  383   4.276   4.156   3.381
    1C        C  384   4.121   4.306   3.496
    1C        C  385   4.175   4.265   3.620
    1C        C  386   4.007   4.391   3.742
    1C        C  387   4.124   4.313   3.743
    1C        C  388   3.947   4.432   3.864
    1C        C  389   4.009   4.398   3.986
    1C        C  390   3.817   4.492   4.107
    1C        C  391   3.946   4.436   4.107
    1C        C  392   3.750   4.515   4.229
    1C        C  393   3.820   4.499   4.351
    1C        C  394   3.618   4.551   4.473
    1C        C  395   3.758   4.530   4.474
    1C        C  396   3.546   4.562   4.594
    1C        C  397   3.620   4.562   4.714
    1C        C  398   3.410   4.549   4.839
    1C        C  399   3.550   4.572   4.836
    1C        C  400   3.342   4.510   4.955
    1C        C  401   4.509   3.704   2.051
    1C        C  402   4.454   3.916   2.165
    1C        C  403   4.494   3.780   2.168
    1C        C  404   4.415   3.978   2.285
    1C        C  405   4.438   3.911   2.408
    1C        C  406   4.328   4.094   2.526
    1C        C  407   4.403   3.974   2.529
    1C        C  408   4.278   4.148   2.647
    1C        C  409   4.318   4.091   2.770
    1C        C  410   4.171   4.249   2.889
    1C        C  411   4.270   4.148   2.890
    1C        C  412   4.123   4.303   3.011
    1C        C  413   4.172   4.251   3.133
    1C        C  414   3.998   4.374   3.254
    1C        C  415   4.117   4.298   3.255
    1C        C  416   3.938   4.411   3.376
    1C        C  417   4.001   4.380   3.499
    1C        C  418   3.812   4.476   3.619
    1C        C  419   3.942   4.422   3.621
    1C        C  420   3.746   4.503   3.742
    1C        C  421   3.817   4.488   3.863
    1C        C  422   3.611   4.539   3.988
    1C        C  423   3.750   4.515   3.984
    1C        C  424   3.540   4.544   4.110
    1C        C  425   3.611   4.537   4.232
    1C        C  426   3.401   4.554   4.357
    1C        C  427   3.542   4.555   4.354
    1C        C  428   3.331   4.542   4.479
    1C        C  429   3.405   4.552   4.599
    1C        C  430   3.194   4.514   4.721
    1C        C  431   3.333   4.545   4.721
    1C        C  432   3.129   4.487   4.844
    1C        C  433   3.205   4.490   4.962
    1C        C  434   4.383   4.121   2.050
    1C        C  435   4.443   3.994   2.049
    1C        C  436   4.305   4.161   2.163
    1C        C  437   4.335   4.095   2.286
    1C        C  438   4.183   4.251   2.401
    1C        C  439   4.282   4.150   2.405
    1C        C  440   4.125   4.295   2.522
    1C        C  441   4.179   4.249   2.645
    1C        C  442   4.003   4.372   2.764
    1C        C  443   4.120   4.293   2.765
    1C        C  444   3.943   4.412   2.886
    1C        C  445   4.006   4.382   3.008
    1C        C  446   3.812   4.469   3.129
    1C        C  447   3.942   4.412   3.130
    1C        C  448   3.745   4.490   3.252
    1C        C  449   3.811   4.472   3.376
    1C        C  450   3.606   4.528   3.498
    1C        C  451   3.744   4.499   3.497
    1C        C  452   3.540   4.542   3.622
    1C        C  453   3.609   4.534   3.745
    1C        C  454   3.397   4.540   3.864
    1C        C  455   3.538   4.545   3.867
    1C        C  456   3.329   4.533   3.988
    1C        C  457   3.399   4.541   4.111
    1C        C  458   3.195   4.498   4.234
    1C        C  459   3.331   4.535   4.235
    1C        C  460   3.127   4.482   4.357
    1C        C  461   3.193   4.511   4.478
    1C        C  462   2.997   4.434   4.602
    1C        C  463   3.124   4.495   4.600
    1C        C  464   2.932   4.399   4.723
    1C        C  465   2.992   4.445   4.844
    1C        C  466   2.800   4.343   4.957
    1C        C  467   2.907   4.433   4.959
    1C        C  468   4.128   4.289   2.043
    1C        C  469   4.191   4.247   2.161
    1C        C  470   4.007   4.370   2.281
    1C        C  471   4.131   4.300   2.280
    1C        C  472   3.943   4.406   2.401
    1C        C  473   4.007   4.371   2.522
    1C        C  474   3.814   4.468   2.642
    1C        C  475   3.942   4.410   2.642
    1C        C  476   3.747   4.494   2.764
    1C        C  477   3.816   4.475   2.885
    1C        C  478   3.608   4.523   3.009
    1C        C  479   3.747   4.496   3.007
    1C        C  480   3.537   4.528   3.131
    1C        C  481   3.607   4.516   3.253
    1C        C  482   3.396   4.534   3.377
    1C        C  483   3.537   4.532   3.375
    1C        C  484   3.327   4.533   3.500
    1C        C  485   3.399   4.544   3.622
    1C        C  486   3.189   4.501   3.744
    1C        C  487   3.325   4.537   3.742
    1C        C  488   3.124   4.476   3.867
    1C        C  489   3.193   4.495   3.989
    1C        C  490   3.002   4.410   4.113
    1C        C  491   3.128   4.475   4.112
    1C        C  492   2.942   4.382   4.238
    1C        C  493   2.999   4.424   4.361
    1C        C  494   2.823   4.304   4.482
    1C        C  495   2.934   4.391   4.482
    1C        C  496   2.769   4.260   4.604
    1C        C  497   2.818   4.315   4.724
    1C        C  498   2.663   4.168   4.846
    1C        C  499   2.751   4.278   4.843
    1C        C  500   2.591   4.119   4.956
    1C        C  501   4.003   4.350   2.043
    1C        C  502   3.815   4.461   2.157
    1C        C  503   3.941   4.398   2.159
    1C        C  504   3.745   4.486   2.278
    1C        C  505   3.814   4.463   2.399
    1C        C  506   3.607   4.514   2.521
    1C        C  507   3.745   4.487   2.520
    1C        C  508   3.535   4.523   2.642
    1C        C  509   3.608   4.516   2.763
    1C        C  510   3.397   4.529   2.887
    1C        C  511   3.538   4.524   2.886
    1C        C  512   3.325   4.523   3.009
    1C        C  513   3.395   4.526   3.131
    1C        C  514   3.188   4.493   3.255
    1C        C  515   3.326   4.525   3.254
    1C        C  516   3.125   4.466   3.378
    1C        C  517   3.192   4.494   3.499
    1C        C  518   2.998   4.410   3.624
    1C        C  519   3.124   4.473   3.621
    1C        C  520   2.940   4.371   3.747
    1C        C  521   2.999   4.411   3.869
    1C        C  522   2.834   4.278   3.995
    1C        C  523   2.943   4.368   3.992
    1C        C  524   2.785   4.234   4.120
    1C        C  525   2.834   4.292   4.240
    1C        C  526   2.693   4.133   4.364
    1C        C  527   2.779   4.245   4.361
    1C        C  528   2.653   4.077   4.488
    1C        C  529   2.685   4.146   4.607
    1C        C  530   2.586   3.961   4.732
    1C        C  531   2.641   4.092   4.729
    1C        C  532   2.544   3.899   4.854
    1C        C  533   2.528   3.994   4.959
    1C        C  534   3.618   4.559   2.042
    1C        C  535   3.750   4.513   2.045
    1C        C  536   3.535   4.536   2.156
    1C        C  537   3.606   4.515   2.278
    1C        C  538   3.393   4.513   2.400
    1C        C  539   3.534   4.521   2.400
    1C        C  540   3.324   4.505   2.522
    1C        C  541   3.394   4.512   2.645
    1C        C  542   3.186   4.483   2.767
    1C        C  543   3.324   4.514   2.767
    1C        C  544   3.122   4.458   2.891
    1C        C  545   3.189   4.484   3.012
    1C        C  546   2.995   4.400   3.137
    1C        C  547   3.121   4.464   3.134
    1C        C  548   2.940   4.357   3.260
    1C        C  549   2.999   4.402   3.380
    1C        C  550   2.833   4.274   3.507
    1C        C  551   2.937   4.369   3.503
    1C        C  552   2.778   4.230   3.629
    1C        C  553   2.830   4.283   3.750
    1C        C  554   2.699   4.117   3.875
    1C        C  555   2.785   4.230   3.872
    1C        C  556   2.660   4.061   3.998
    1C        C  557   2.702   4.120   4.119
    1C        C  558   2.592   3.944   4.246
    1C        C  559   2.658   4.069   4.243
    1C        C  560   2.561   3.883   4.369
    1C        C  561   2.588   3.952   4.490
    1C        C  562   2.529   3.751   4.616
    1C        C  563   2.563   3.888   4.613
    1C        C  564   2.514   3.681   4.738
    1C        C  565   2.522   3.758   4.858
    1C        C  566   2.535   3.547   4.979
    1C        C  567   2.526   3.686   4.978
    1C        C  568   3.332   4.463   2.040
    1C        C  569   3.396   4.507   2.156
    1C        C  570   3.185   4.470   2.281
    1C        C  571   3.322   4.506   2.278
    1C        C  572   3.115   4.454   2.403
    1C        C  573   3.185   4.478   2.523
    1C        C  574   2.991   4.400   2.649
    1C        C  575   3.117   4.463   2.646
    1C        C  576   2.936   4.354   2.771
    1C        C  577   2.997   4.393   2.893
    1C        C  578   2.831   4.264   3.017
    1C        C  579   2.938   4.356   3.015
    1C        C  580   2.780   4.216   3.140
    1C        C  581   2.831   4.266   3.261
    1C        C  582   2.695   4.110   3.386
    1C        C  583   2.784   4.220   3.386
    1C        C  584   2.654   4.057   3.511
    1C        C  585   2.689   4.120   3.632
    1C        C  586   2.585   3.936   3.758
    1C        C  587   2.652   4.060   3.754
    1C        C  588   2.559   3.871   3.881
    1C        C  589   2.589   3.939   4.001
    1C        C  590   2.530   3.739   4.128
    1C        C  591   2.564   3.876   4.125
    1C        C  592   2.523   3.672   4.252
    1C        C  593   2.531   3.745   4.373
    1C        C  594   2.512   3.537   4.500
    1C        C  595   2.517   3.678   4.496
    1C        C  596   2.517   3.466   4.622
    1C        C  597   2.515   3.539   4.742
    1C        C  598   2.538   3.327   4.865
    1C        C  599   2.532   3.468   4.863
    1C        C  600   2.536   3.247   4.980
    1C        C  601   3.197   4.436   2.045
    1C        C  602   2.981   4.391   2.160
    1C        C  603   3.116   4.438   2.160
    1C        C  604   2.920   4.361   2.284
    1C        C  605   2.988   4.392   2.404
    1C        C  606   2.821   4.270   2.529
    1C        C  607   2.929   4.361   2.528
    1C        C  608   2.775   4.217   2.651
    1C        C  609   2.826   4.266   2.774
    1C        C  610   2.684   4.108   2.897
    1C        C  611   2.775   4.217   2.896
    1C        C  612   2.647   4.052   3.021
    1C        C  613   2.687   4.110   3.144
    1C        C  614   2.584   3.925   3.265
    1C        C  615   2.648   4.052   3.267
    1C        C  616   2.556   3.867   3.390
    1C        C  617   2.585   3.933   3.512
    1C        C  618   2.527   3.733   3.638
    1C        C  619   2.559   3.870   3.635
    1C        C  620   2.512   3.666   3.761
    1C        C  621   2.519   3.736   3.884
    1C        C  622   2.504   3.526   4.012
    1C        C  623   2.514   3.667   4.008
    1C        C  624   2.510   3.457   4.135
    1C        C  625   2.511   3.531   4.255
    1C        C  626   2.536   3.324   4.380
    1C        C  627   2.508   3.463   4.379
    1C        C  628   2.564   3.258   4.502
    1C        C  629   2.543   3.327   4.623
    1C        C  630   2.599   3.120   4.741
    1C        C  631   2.552   3.254   4.744
    1C        C  632   2.615   3.049   4.863
    1C        C  633   2.556   3.108   4.980
    1C        C  634   2.781   4.301   2.054
    1C        C  635   2.890   4.389   2.049
    1C        C  636   2.746   4.227   2.168
    1C        C  637   2.811   4.269   2.286
    1C        C  638   2.676   4.109   2.412
    1C        C  639   2.764   4.220   2.410
    1C        C  640   2.634   4.050   2.533
    1C        C  641   2.685   4.108   2.652
    1C        C  642   2.583   3.923   2.777
    1C        C  643   2.645   4.050   2.774
    1C        C  644   2.559   3.857   2.900
    1C        C  645   2.584   3.926   3.021
    1C        C  646   2.522   3.723   3.150
    1C        C  647   2.562   3.859   3.143
    1C        C  648   2.506   3.656   3.273
    1C        C  649   2.524   3.729   3.393
    1C        C  650   2.513   3.520   3.520
    1C        C  651   2.519   3.661   3.516
    1C        C  652   2.516   3.452   3.644
    1C        C  653   2.510   3.525   3.765
    1C        C  654   2.539   3.320   3.891
    1C        C  655   2.506   3.457   3.889
    1C        C  656   2.557   3.251   4.013
    1C        C  657   2.535   3.318   4.136
    1C        C  658   2.605   3.121   4.258
    1C        C  659   2.553   3.252   4.260
    1C        C  660   2.635   3.057   4.381
    1C        C  661   2.605   3.123   4.502
    1C        C  662   2.711   2.938   4.624
    1C        C  663   2.629   3.052   4.621
    1C        C  664   2.752   2.878   4.746
    1C        C  665   2.694   2.930   4.865
    1C        C  666   2.739   2.866   4.981
    1C        C  667   2.668   4.027   2.053
    1C        C  668   2.678   4.103   2.170
    1C        C  669   2.579   3.916   2.292
    1C        C  670   2.638   4.045   2.292
    1C        C  671   2.551   3.852   2.415
    1C        C  672   2.570   3.924   2.535
    1C        C  673   2.511   3.720   2.660
    1C        C  674   2.550   3.856   2.658
    1C        C  675   2.503   3.650   2.782
    1C        C  676   2.526   3.720   2.902
    1C        C  677   2.503   3.514   3.031
    1C        C  678   2.515   3.654   3.027
    1C        C  679   2.504   3.444   3.153
    1C        C  680   2.501   3.515   3.276
    1C        C  681   2.535   3.307   3.400
    1C        C  682   2.510   3.447   3.399
    1C        C  683   2.555   3.244   3.525
    1C        C  684   2.535   3.313   3.647
    1C        C  685   2.607   3.116   3.770
    1C        C  686   2.557   3.248   3.771
    1C        C  687   2.642   3.053   3.892
    1C        C  688   2.608   3.119   4.012
    1C        C  689   2.716   2.940   4.138
    1C        C  690   2.639   3.058   4.136
    1C        C  691   2.760   2.883   4.260
    1C        C  692   2.717   2.941   4.381
    1C        C  693   2.757   2.882   4.503
    1C        C  694   2.618   3.896   2.056
    1C        C  695   2.522   3.706   2.175
    1C        C  696   2.571   3.838   2.174
    1C        C  697   2.501   3.640   2.298
    1C        C  698   2.516   3.715   2.416
    1C        C  699   2.480   3.508   2.542
    1C        C  700   2.497   3.648   2.539
    1C        C  701   2.497   3.438   2.664
    1C        C  702   2.501   3.508   2.787
    1C        C  703   2.528   3.301   2.913
    1C        C  704   2.507   3.440   2.910
    1C        C  705   2.549   3.234   3.035
    1C        C  706   2.534   3.306   3.156
    1C        C  707   2.600   3.106   3.279
    1C        C  708   2.548   3.237   3.278
    1C        C  709   2.637   3.047   3.403
    1C        C  710   2.609   3.113   3.524
    1C        C  711   2.718   2.936   3.649
    1C        C  712   2.635   3.051   3.648
    1C        C  713   2.764   2.881   3.770
    1C        C  714   2.720   2.935   3.893
    1C        C  715   2.758   2.880   4.017
    1C        C  716   2.453   3.499   2.062
    1C        C  717   2.492   3.634   2.059
    1C        C  718   2.465   3.423   2.183
    1C        C  719   2.476   3.500   2.302
    1C        C  720   2.516   3.292   2.425
    1C        C  721   2.485   3.430   2.424
    1C        C  722   2.538   3.226   2.547
    1C        C  723   2.523   3.299   2.667
    1C        C  724   2.601   3.104   2.791
    1C        C  725   2.545   3.233   2.790
    1C        C  726   2.633   3.039   2.912
    1C        C  727   2.601   3.102   3.034
    1C        C  728   2.709   2.923   3.160
    1C        C  729   2.629   3.040   3.158
    1C        C  730   2.760   2.874   3.282
    1C        C  731   2.715   2.929   3.404
    1C        C  732   2.762   2.879   3.528
    1C        C  733   2.483   3.194   2.076
    1C        C  734   2.497   3.283   2.183
    1C        C  735   2.591   3.090   2.305
    1C        C  736   2.535   3.221   2.304
    1C        C  737   2.619   3.025   2.428
    1C        C  738   2.590   3.094   2.547
    1C        C  739   2.703   2.915   2.670
    1C        C  740   2.631   3.037   2.670
    1C        C  741   2.750   2.860   2.792
    1C        C  742   2.706   2.918   2.913
    1C        C  743   2.752   2.867   3.037
    1C        C  744   2.549   3.071   2.078
    1C        C  745   2.688   2.895   2.184
    1C        C  746   2.619   3.018   2.187
    1C        C  747   2.733   2.843   2.307
    1C        C  748   2.697   2.908   2.427
    1C        C  749   2.739   2.852   2.549
    1C        C  750   2.746   2.843   2.067
    1C        C  751   3.661   2.299   1.998
    1C        O  752   3.679   2.183   2.045
    1C        O  753   3.662   2.305   1.858
    1C        C  754   4.628   3.052   1.976
    1C        O  755   4.626   3.051   1.850
    1C        O  756   4.759   3.042   2.024
    1C        C  757   4.435   4.223   1.956
    1C        O  758   4.526   4.306   1.983
    1C        O  759   4.416   4.216   1.818
    1C        C  760   3.586   4.656   1.935
    1C        O  761   3.641   4.769   1.925
    1C        O  762   3.555   4.613   1.805
    1C        C  763   2.857   4.505   1.964
    1C        O  764   2.880   4.512   1.840
    1C        O  765   2.774   4.609   2.008
    1C        C  766   2.341   3.462   1.972
    1C        O  767   2.350   3.463   1.847
    1C        O  768   2.210   3.497   2.006
    1C        C  769   4.692   3.595   5.061
    1C        O  770   4.681   3.576   5.185
    1C        O  771   4.819   3.625   5.011
    1C        C  772   4.281   4.460   5.020
    1C        O  773   4.271   4.515   5.132
    1C        O  774   4.367   4.537   4.941
    1C        C  775   4.145   2.555   5.083
    1C        O  776   4.233   2.465   5.079
    1C        O  777   4.111   2.562   5.219
    1C        C  778   2.874   4.563   5.022
    1C        O  779   2.810   4.652   4.960
    1C        O  780   2.914   4.596   5.152
    1C        C  781   2.447   3.035   5.050
    1C        O  782   2.375   2.947   4.997
    1C        O  783   2.451   3.029   5.189
    1C        C  784   2.401   3.988   5.035
    1C        O  785   2.288   4.018   4.987
    1C        O  786   2.390   3.951   5.169
    1C        C  787   2.948   2.416   2.009
    1C        O  788   2.955   2.411   1.883
    1C        O  789   2.836   2.351   2.058
    1C        C  790   3.186   2.363   5.056
    1C        O  791   3.158   2.248   5.012
    1C        O  792   3.193   2.362   5.195
    1C        H  793   4.231   3.041   5.021
    1C        H  794   4.208   2.797   5.077
    1C        H  795   4.488   3.136   5.063
    1C        H  796   4.479   3.379   5.055
    1C        H  797   4.562   3.813   5.044
    1C        H  798   4.404   3.964   5.057
    1C        H  799   4.276   4.159   5.052
    1C        H  800   4.030   4.535   5.026
    1C        H  801   3.820   4.578   5.039
    1C        H  802   3.587   4.637   5.034
    1C        H  803   3.400   4.462   5.031
    1C        H  804   3.159   4.517   5.054
    1C        H  805   3.900   2.446   5.041
    1C        H  806   3.667   2.405   5.054
    1C        H  807   2.992   2.531   5.054
    1C        H  808   3.436   2.487   5.076
    1C        H  809   2.909   2.776   5.061
    1C        H  810   2.690   2.894   5.072
    1C        H  811   2.558   3.292   5.074
    1C        H  812   2.579   3.507   5.068
    1C        H  813   2.566   3.734   5.065
    1C        H  814   2.599   4.176   5.047
    1C        H  815   2.766   4.313   5.054
    1C        H  816   2.747   2.899   1.976
    1C        H  817   2.831   2.673   1.976
    1C        H  818   3.198   2.405   1.993
    1C        H  819   3.433   2.453   1.977
    1C        H  820   3.825   2.568   1.976
    1C        H  821   4.030   2.668   1.976
    1C        H  822   4.213   2.750   1.964
    1C        H  823   4.384   2.905   1.962
    1C        H  824   4.596   3.313   1.974
    1C        H  825   4.496   3.516   1.960
    1C        H  826   4.563   3.749   1.970
    1C        H  827   3.816   4.551   1.969
    1C        H  828   3.956   4.367   1.948
    1C        H  829   4.188   4.307   1.957
    1C        H  830   4.514   3.974   1.972
    1C        H  831   2.652   3.830   1.979
    1C        H  832   2.743   4.039   1.978
    1C        H  833   2.736   4.269   1.963
    1C        H  834   3.372   4.493   1.945
    1C        H  835   3.149   4.401   1.956
    1C        H  836   2.539   3.003   1.996
    1C        H  837   2.476   3.239   1.979
    1C        H  838   2.506   3.678   1.962
    2V3OU   H29  839   2.804   3.544   5.976
    2V3OU   C27  840   2.779   3.499   6.075
    2V3OU   H27  841   2.725   3.568   6.144
    2V3OU   H28  842   2.725   3.401   6.068
    2V3OU   O11  843   2.909   3.472   6.129
    2V3OU   C15  844   2.920   3.392   6.241
    2V3OU   C13  845   3.052   3.378   6.288
    2V3OU   C14  846   3.077   3.273   6.378
    2V3OU   C16  847   2.974   3.188   6.413
    2V3OU    H6  848   2.991   3.096   6.472
    2V3OU   C12  849   3.215   3.228   6.406
    2V3OU    O2  850   3.244   3.123   6.467
    2V3OU   C10  851   3.328   3.304   6.349
    2V3OU    C8  852   3.460   3.269   6.372
    2V3OU   O10  853   3.491   3.149   6.428
    2V3OU   H26  854   3.408   3.125   6.474
    2V3OU    C6  855   3.566   3.348   6.316
    2V3OU    C5  856   3.537   3.466   6.249
    2V3OU    C4  857   3.702   3.289   6.326
    2V3OU    H4  858   3.723   3.226   6.417
    2V3OU    H5  859   3.708   3.220   6.236
    2V3OU    C2  860   3.811   3.396   6.315
    2V3OU    O6  861   3.809   3.482   6.428
    2V3OU   H21  862   3.763   3.561   6.396
    2V3OU    C3  863   3.781   3.492   6.200
    2V3OU    H2  864   3.860   3.572   6.198
    2V3OU    H3  865   3.781   3.434   6.104
    2V3OU   C25  866   3.948   3.328   6.301
    2V3OU    O7  867   3.997   3.297   6.193
    2V3OU   C26  868   4.031   3.291   6.423
    2V3OU   H22  869   4.057   3.383   6.482
    2V3OU   H23  870   4.120   3.232   6.392
    2V3OU    O8  871   3.956   3.206   6.506
    2V3OU   H24  872   3.933   3.261   6.583
    2V3OU    C1  873   3.646   3.561   6.211
    2V3OU    H1  874   3.627   3.619   6.115
    2V3OU    O3  875   3.663   3.657   6.315
    2V3OU   C19  876   3.622   3.791   6.287
    2V3OU    H9  877   3.524   3.796   6.231
    2V3OU    O4  878   3.715   3.846   6.197
    2V3OU   C20  879   3.846   3.871   6.250
    2V3OU   H10  880   3.900   3.774   6.267
    2V3OU   C24  881   3.609   3.856   6.425
    2V3OU   H16  882   3.551   3.787   6.491
    2V3OU   H17  883   3.557   3.955   6.413
    2V3OU   C23  884   3.751   3.873   6.479
    2V3OU   H15  885   3.795   3.770   6.501
    2V3OU    N1  886   3.732   3.954   6.598
    2V3OU   H19  887   3.808   3.928   6.656
    2V3OU   H20  888   3.652   3.927   6.651
    2V3OU   C21  889   3.852   3.945   6.384
    2V3OU   H11  890   3.956   3.926   6.424
    2V3OU    O5  891   3.831   4.086   6.384
    2V3OU   H18  892   3.782   4.102   6.466
    2V3OU   C22  893   3.911   3.950   6.138
    2V3OU   H12  894   3.860   4.049   6.123
    2V3OU   H13  895   3.902   3.891   6.043
    2V3OU   H14  896   4.022   3.956   6.155
    2V3OU   C11  897   3.160   3.475   6.267
    2V3OU    O1  898   3.142   3.583   6.209
    2V3OU    C9  899   3.298   3.421   6.275
    2V3OU    C7  900   3.401   3.505   6.232
    2V3OU    O9  901   3.386   3.616   6.151
    2V3OU   H25  902   3.291   3.628   6.136
    2V3OU   C17  903   2.814   3.310   6.286
    2V3OU    H7  904   2.714   3.350   6.268
    2V3OU   C18  905   2.841   3.208   6.376
    2V3OU    H8  906   2.761   3.148   6.422
    3SOL     OW  907   3.105   3.025   4.174
    3SOL    HW1  908   3.187   2.969   4.183
    3SOL    HW2  909   3.071   3.050   4.265
    4SOL     OW  910   0.027   6.243   1.044
    4SOL    HW1  911   0.073   6.157   1.067
    4SOL    HW2  912   0.011   6.246   0.945
    5SOL     OW  913   4.293   2.321   0.809
    5SOL    HW1  914   4.359   2.290   0.878
    5SOL    HW2  915   4.245   2.402   0.842
    6SOL     OW  916   3.769   1.609   2.266
    6SOL    HW1  917   3.746   1.522   2.221
    6SOL    HW2  918   3.742   1.685   2.207
    7SOL     OW  919   2.632   2.473   4.174
    7SOL    HW1  920   2.603   2.536   4.101
    7SOL    HW2  921   2.557   2.411   4.196
    8SOL     OW  922   1.181   2.438   5.194
    8SOL    HW1  923   1.257   2.387   5.236
    8SOL    HW2  924   1.105   2.444   5.259
    9SOL     OW  925   1.544   2.058   6.368
    9SOL    HW1  926   1.644   2.060   6.359
    9SOL    HW2  927   1.507   2.145   6.334
   10SOL     OW  928   5.478   5.601   1.429
   10SOL    HW1  929   5.398   5.542   1.420
   10SOL    HW2  930   5.525   5.581   1.515
   11SOL     OW  931   2.996   2.036   0.468
   11SOL    HW1  932   2.971   1.965   0.533
   11SOL    HW2  933   2.983   2.002   0.375
   12SOL     OW  934   5.213   5.527   1.992
   12SOL    HW1  935   5.188   5.438   2.030
   12SOL    HW2  936   5.246   5.516   1.898
   13SOL     OW  937   5.404   5.976   2.298
   13SOL    HW1  938   5.320   6.026   2.318
   13SOL    HW2  939   5.383   5.894   2.245
   14SOL     OW  940   4.339   6.234   0.436
   14SOL    HW1  941   4.286   6.187   0.366
   14SOL    HW2  942   4.365   6.169   0.508
   15SOL     OW  943   0.646   6.012   6.566
   15SOL    HW1  944   0.616   5.917   6.559
   15SOL    HW2  945   0.696   6.037   6.483
   16SOL     OW  946   2.139   5.690   4.535
   16SOL    HW1  947   2.214   5.658   4.476
   16SOL    HW2  948   2.070   5.736   4.479
   17SOL     OW  949   6.878   1.672   4.322
   17SOL    HW1  950   6.966   1.668   4.275
   17SOL    HW2  951   6.893   1.692   4.419
   18SOL     OW  952   2.959   0.798   5.311
   18SOL    HW1  953   2.876   0.851   5.293
   18SOL    HW2  954   3.036   0.841   5.264
   19SOL     OW  955   2.793   6.162   2.815
   19SOL    HW1  956   2.721   6.129   2.754
   19SOL    HW2  957   2.776   6.130   2.908
   20SOL     OW  958   6.876   2.058   5.726
   20SOL    HW1  959   6.958   2.114   5.732
   20SOL    HW2  960   6.883   1.997   5.646
   21SOL     OW  961   1.901   3.943   2.060
   21SOL    HW1  962   1.843   4.022   2.041
   21SOL    HW2  963   1.989   3.955   2.015
   22SOL     OW  964   0.789   1.193   0.181
   22SOL    HW1  965   0.788   1.268   0.114
   22SOL    HW2  966   0.709   1.203   0.241
   23SOL     OW  967   6.749   5.450   0.125
   23SOL    HW1  968   6.672   5.448   0.061
   23SOL    HW2  969   6.746   5.369   0.183
   24SOL     OW  970   4.988   1.472   0.318
   24SOL    HW1  971   5.017   1.449   0.411
   24SOL    HW2  972   5.067   1.477   0.258
   25SOL     OW  973   1.447   0.934   4.656
   25SOL    HW1  974   1.512   1.010   4.645
   25SOL    HW2  975   1.377   0.939   4.585
   26SOL     OW  976   1.939   0.653   6.360
   26SOL    HW1  977   1.962   0.622   6.452
   26SOL    HW2  978   1.911   0.749   6.364
   27SOL     OW  979   0.061   0.162   2.444
   27SOL    HW1  980   0.106   0.082   2.406
   27SOL    HW2  981   6.985   0.152   2.438
   28SOL     OW  982   1.552   0.496   5.525
   28SOL    HW1  983   1.537   0.551   5.607
   28SOL    HW2  984   1.632   0.531   5.476
   29SOL     OW  985   5.612   0.993   1.504
   29SOL    HW1  986   5.617   0.987   1.603
   29SOL    HW2  987   5.601   1.089   1.477
   30SOL     OW  988   4.663   0.249   5.122
   30SOL    HW1  989   4.614   0.168   5.155
   30SOL    HW2  990   4.605   0.298   5.056
   31SOL     OW  991   6.533   4.667   4.336
   31SOL    HW1  992   6.439   4.686   4.309
   31SOL    HW2  993   6.591   4.745   4.312
   32SOL     OW  994   2.604   1.292   1.210
   32SOL    HW1  995   2.667   1.251   1.275
   32SOL    HW2  996   2.510   1.279   1.241
   33SOL     OW  997   1.818   5.269   5.682
   33SOL    HW1  998   1.882   5.346   5.672
   33SOL    HW2  999   1.860   5.187   5.645
   34SOL     OW 1000   1.795   6.071   5.566
   34SOL    HW1 1001   1.705   6.108   5.543
   34SOL    HW2 1002   1.785   5.977   5.600
   35SOL     OW 1003   1.643   3.368   4.735
   35SOL    HW1 1004   1.655   3.463   4.706
   35SOL    HW2 1005   1.728   3.334   4.776
   36SOL     OW 1006   5.796   1.290   3.994
   36SOL    HW1 1007   5.762   1.380   3.964
   36SOL    HW2 1008   5.895   1.286   3.981
   37SOL     OW 1009   1.659   6.470   4.324
   37SOL    HW1 1010   1.626   6.462   4.418
   37SOL    HW2 1011   1.628   6.390   4.272
   38SOL     OW 1012   1.067   4.009   2.082
   38SOL    HW1 1013   1.115   3.983   1.998
   38SOL    HW2 1014   1.132   4.051   2.146
   39SOL     OW 1015   6.389   5.080   1.193
   39SOL    HW1 1016   6.466   5.142   1.176
   39SOL    HW2 1017   6.314   5.130   1.235
   40SOL     OW 1018   3.716   0.969   6.635
   40SOL    HW1 1019   3.714   0.978   6.734
   40SOL    HW2 1020   3.793   0.912   6.608
   41SOL     OW 1021   5.167   4.042   1.798
   41SOL    HW1 1022   5.209   4.043   1.707
   41SOL    HW2 1023   5.068   4.036   1.789
   42SOL     OW 1024   2.841   3.838   6.535
   42SOL    HW1 1025   2.751   3.796   6.520
   42SOL    HW2 1026   2.906   3.767   6.564
   43SOL     OW 1027   5.126   6.800   5.194
   43SOL    HW1 1028   5.147   6.854   5.112
   43SOL    HW2 1029   5.205   6.744   5.218
   44SOL     OW 1030   6.041   1.095   6.124
   44SOL    HW1 1031   6.030   1.061   6.217
   44SOL    HW2 1032   6.009   1.190   6.118
   45SOL     OW 1033   2.905   4.438   5.660
   45SOL    HW1 1034   2.895   4.515   5.723
   45SOL    HW2 1035   2.981   4.455   5.598
   46SOL     OW 1036   1.009   4.644   4.647
   46SOL    HW1 1037   1.084   4.606   4.702
   46SOL    HW2 1038   1.028   4.629   4.550
   47SOL     OW 1039   6.165   4.095   6.816
   47SOL    HW1 1040   6.227   4.020   6.796
   47SOL    HW2 1041   6.215   4.171   6.857
   48SOL     OW 1042   0.353   4.256   0.164
   48SOL    HW1 1043   0.262   4.272   0.202
   48SOL    HW2 1044   0.406   4.342   0.166
   49SOL     OW 1045   3.190   2.627   6.592
   49SOL    HW1 1046   3.229   2.612   6.501
   49SOL    HW2 1047   3.107   2.684   6.583
   50SOL     OW 1048   5.132   2.190   0.286
   50SOL    HW1 1049   5.058   2.250   0.253
   50SOL    HW2 1050   5.126   2.182   0.385
   51SOL     OW 1051   0.683   6.553   2.175
   51SOL    HW1 1052   0.672   6.650   2.198
   51SOL    HW2 1053   0.766   6.518   2.219
   52SOL     OW 1054   5.531   1.730   2.490
   52SOL    HW1 1055   5.594   1.737   2.567
   52SOL    HW2 1056   5.445   1.776   2.512
   53SOL     OW 1057   4.508   0.866   0.696
   53SOL    HW1 1058   4.529   0.945   0.754
   53SOL    HW2 1059   4.439   0.810   0.741
   54SOL     OW 1060   6.116   6.983   6.543
   54SOL    HW1 1061   6.124   0.059   6.543
   54SOL    HW2 1062   6.119   6.949   6.449
   55SOL     OW 1063   1.918   3.779   5.783
   55SOL    HW1 1064   1.878   3.862   5.822
   55SOL    HW2 1065   1.949   3.719   5.857
   56SOL     OW 1066   0.669   2.326   6.707
   56SOL    HW1 1067   0.665   2.426   6.707
   56SOL    HW2 1068   0.764   2.296   6.701
   57SOL     OW 1069   3.817   5.870   1.541
   57SOL    HW1 1070   3.899   5.860   1.598
   57SOL    HW2 1071   3.772   5.957   1.563
   58SOL     OW 1072   0.853   0.519   6.762
   58SOL    HW1 1073   0.886   0.611   6.738
   58SOL    HW2 1074   0.855   0.508   6.862
   59SOL     OW 1075   4.292   3.000   6.882
   59SOL    HW1 1076   4.216   3.064   6.896
   59SOL    HW2 1077   4.273   2.944   6.801
   60SOL     OW 1078   6.983   3.185   2.543
   60SOL    HW1 1079   7.007   3.095   2.581
   60SOL    HW2 1080   6.900   3.176   2.488
   61SOL     OW 1081   1.479   5.794   3.076
   61SOL    HW1 1082   1.477   5.700   3.041
   61SOL    HW2 1083   1.441   5.855   3.007
   62SOL     OW 1084   5.369   2.690   3.118
   62SOL    HW1 1085   5.318   2.685   3.032
   62SOL    HW2 1086   5.429   2.610   3.126
   63SOL     OW 1087   3.707   0.291   6.191
   63SOL    HW1 1088   3.756   0.349   6.256
   63SOL    HW2 1089   3.672   0.346   6.116
   64SOL     OW 1090   1.665   2.069   6.632
   64SOL    HW1 1091   1.585   2.090   6.577
   64SOL    HW2 1092   1.679   1.970   6.634
   65SOL     OW 1093   1.112   5.067   5.442
   65SOL    HW1 1094   1.200   5.083   5.487
   65SOL    HW2 1095   1.128   5.042   5.347
   66SOL     OW 1096   4.603   1.259   1.297
   66SOL    HW1 1097   4.512   1.254   1.256
   66SOL    HW2 1098   4.597   1.300   1.388
   67SOL     OW 1099   0.290   3.405   1.191
   67SOL    HW1 1100   0.348   3.477   1.229
   67SOL    HW2 1101   0.348   3.331   1.157
   68SOL     OW 1102   0.540   0.978   6.173
   68SOL    HW1 1103   0.490   1.063   6.156
   68SOL    HW2 1104   0.522   0.946   6.266
   69SOL     OW 1105   1.451   6.787   6.612
   69SOL    HW1 1106   1.410   6.866   6.658
   69SOL    HW2 1107   1.439   6.795   6.513
   70SOL     OW 1108   4.995   4.322   3.034
   70SOL    HW1 1109   4.955   4.341   2.945
   70SOL    HW2 1110   4.922   4.310   3.102
   71SOL     OW 1111   4.690   2.000   5.339
   71SOL    HW1 1112   4.697   1.901   5.327
   71SOL    HW2 1113   4.680   2.043   5.249
   72SOL     OW 1114   6.922   1.272   2.167
   72SOL    HW1 1115   6.925   1.278   2.266
   72SOL    HW2 1116   6.865   1.194   2.140
   73SOL     OW 1117   2.459   0.834   1.292
   73SOL    HW1 1118   2.450   0.897   1.369
   73SOL    HW2 1119   2.544   0.853   1.243
   74SOL     OW 1120   2.567   1.123   0.292
   74SOL    HW1 1121   2.540   1.163   0.379
   74SOL    HW2 1122   2.486   1.086   0.246
   75SOL     OW 1123   2.538   2.720   1.250
   75SOL    HW1 1124   2.624   2.745   1.206
   75SOL    HW2 1125   2.476   2.681   1.182
   76SOL     OW 1126   3.734   5.367   6.349
   76SOL    HW1 1127   3.687   5.318   6.422
   76SOL    HW2 1128   3.831   5.343   6.349
   77SOL     OW 1129   6.725   5.204   4.623
   77SOL    HW1 1130   6.746   5.106   4.631
   77SOL    HW2 1131   6.626   5.215   4.612
   78SOL     OW 1132   5.467   1.407   1.441
   78SOL    HW1 1133   5.525   1.475   1.485
   78SOL    HW2 1134   5.524   1.339   1.395
   79SOL     OW 1135   1.173   4.211   4.310
   79SOL    HW1 1136   1.089   4.256   4.337
   79SOL    HW2 1137   1.227   4.188   4.391
   80SOL     OW 1138   3.583   2.135   5.429
   80SOL    HW1 1139   3.521   2.209   5.404
   80SOL    HW2 1140   3.677   2.160   5.405
   81SOL     OW 1141   3.685   5.197   2.551
   81SOL    HW1 1142   3.625   5.270   2.585
   81SOL    HW2 1143   3.636   5.110   2.555
   82SOL     OW 1144   3.255   0.430   1.947
   82SOL    HW1 1145   3.353   0.410   1.951
   82SOL    HW2 1146   3.215   0.419   2.039
   83SOL     OW 1147   5.419   1.003   4.146
   83SOL    HW1 1148   5.332   1.007   4.097
   83SOL    HW2 1149   5.402   0.981   4.242
   84SOL     OW 1150   6.031   2.468   3.109
   84SOL    HW1 1151   6.055   2.506   3.019
   84SOL    HW2 1152   5.968   2.530   3.155
   85SOL     OW 1153   2.156   5.702   3.454
   85SOL    HW1 1154   2.090   5.777   3.442
   85SOL    HW2 1155   2.227   5.709   3.384
   86SOL     OW 1156   4.873   0.820   0.325
   86SOL    HW1 1157   4.821   0.844   0.407
   86SOL    HW2 1158   4.970   0.810   0.350
   87SOL     OW 1159   2.836   3.147   6.790
   87SOL    HW1 1160   2.826   3.133   6.889
   87SOL    HW2 1161   2.932   3.164   6.768
   88SOL     OW 1162   1.695   2.681   1.416
   88SOL    HW1 1163   1.761   2.609   1.440
   88SOL    HW2 1164   1.745   2.763   1.387
   89SOL     OW 1165   3.100   4.091   4.967
   89SOL    HW1 1166   3.106   4.049   5.057
   89SOL    HW2 1167   3.040   4.170   4.971
   90SOL     OW 1168   6.652   4.212   1.896
   90SOL    HW1 1169   6.735   4.169   1.931
   90SOL    HW2 1170   6.616   4.158   1.820
   91SOL     OW 1171   4.382   6.162   1.271
   91SOL    HW1 1172   4.434   6.103   1.331
   91SOL    HW2 1173   4.315   6.214   1.324
   92SOL     OW 1174   5.710   4.947   0.403
   92SOL    HW1 1175   5.793   4.986   0.364
   92SOL    HW2 1176   5.720   4.848   0.409
   93SOL     OW 1177   2.886   3.924   1.777
   93SOL    HW1 1178   2.915   3.846   1.834
   93SOL    HW2 1179   2.944   4.003   1.797
   94SOL     OW 1180   3.023   1.405   4.461
   94SOL    HW1 1181   2.943   1.442   4.414
   94SOL    HW2 1182   2.998   1.324   4.512
   95SOL     OW 1183   0.502   6.704   3.786
   95SOL    HW1 1184   0.416   6.746   3.756
   95SOL    HW2 1185   0.548   6.764   3.851
   96SOL     OW 1186   0.237   5.979   6.928
   96SOL    HW1 1187   0.330   5.967   6.961
   96SOL    HW2 1188   0.205   5.893   6.888
   97SOL     OW 1189   3.681   4.699   5.299
   97SOL    HW1 1190   3.587   4.724   5.276
   97SOL    HW2 1191   3.713   4.755   5.375
   98SOL     OW 1192   1.006   3.181   4.827
   98SOL    HW1 1193   0.924   3.228   4.794
   98SOL    HW2 1194   1.020   3.201   4.924
   99SOL     OW 1195   4.294   4.799   4.920
   99SOL    HW1 1196   4.270   4.704   4.937
   99SOL    HW2 1197   4.230   4.859   4.968
  100SOL     OW 1198   1.379   0.577   5.251
  100SOL    HW1 1199   1.424   0.577   5.162
  100SOL    HW2 1200   1.447   0.566   5.323
  101SOL     OW 1201   5.168   3.200   2.772
  101SOL    HW1 1202   5.222   3.191   2.855
  101SOL    HW2 1203   5.216   3.157   2.696
  102SOL     OW 1204   3.725   0.345   0.045
  102SOL    HW1 1205   3.656   0.337   6.995
  102SOL    HW2 1206   3.773   0.432   0.034
  103SOL     OW 1207   1.289   2.126   1.591
  103SOL    HW1 1208   1.388   2.115   1.600
  103SOL    HW2 1209   1.243   2.061   1.651
  104SOL     OW 1210   0.161   4.699   1.731
  104SOL    HW1 1211   0.107   4.629   1.777
  104SOL    HW2 1212   0.258   4.673   1.733
  105SOL     OW 1213   6.735   0.818   5.248
  105SOL    HW1 1214   6.721   0.883   5.173
  105SOL    HW2 1215   6.767   0.731   5.210
  106SOL     OW 1216   4.445   3.096   1.628
  106SOL    HW1 1217   4.351   3.131   1.632
  106SOL    HW2 1218   4.486   3.100   1.719
  107SOL     OW 1219   4.390   6.699   2.305
  107SOL    HW1 1220   4.293   6.704   2.280
  107SOL    HW2 1221   4.398   6.659   2.396
  108SOL     OW 1222   3.597   1.357   4.717
  108SOL    HW1 1223   3.596   1.298   4.636
  108SOL    HW2 1224   3.647   1.441   4.698
  109SOL     OW 1225   1.920   1.224   5.380
  109SOL    HW1 1226   1.973   1.256   5.459
  109SOL    HW2 1227   1.980   1.175   5.317
  110SOL     OW 1228   3.981   4.780   5.481
  110SOL    HW1 1229   3.990   4.683   5.458
  110SOL    HW2 1230   3.966   4.789   5.580
  111SOL     OW 1231   6.052   3.412   1.779
  111SOL    HW1 1232   6.078   3.480   1.710
  111SOL    HW2 1233   6.058   3.453   1.870
  112SOL     OW 1234   4.755   6.807   5.005
  112SOL    HW1 1235   4.667   6.832   4.964
  112SOL    HW2 1236   4.762   6.848   5.096
  113SOL     OW 1237   0.610   5.033   2.414
  113SOL    HW1 1238   0.680   5.098   2.385
  113SOL    HW2 1239   0.573   5.060   2.503
  114SOL     OW 1240   0.011   2.079   2.011
  114SOL    HW1 1241   6.949   2.131   2.022
  114SOL    HW2 1242   0.067   2.087   2.094
  115SOL     OW 1243   4.266   1.052   2.926
  115SOL    HW1 1244   4.205   1.129   2.943
  115SOL    HW2 1245   4.342   1.081   2.868
  116SOL     OW 1246   6.344   5.733   0.915
  116SOL    HW1 1247   6.384   5.700   0.830
  116SOL    HW2 1248   6.292   5.817   0.898
  117SOL     OW 1249   2.719   1.741   0.061
  117SOL    HW1 1250   2.736   1.838   0.045
  117SOL    HW2 1251   2.670   1.730   0.148
  118SOL     OW 1252   6.876   2.222   2.151
  118SOL    HW1 1253   6.882   2.318   2.178
  118SOL    HW2 1254   6.799   2.178   2.199
  119SOL     OW 1255   6.073   6.344   4.986
  119SOL    HW1 1256   6.090   6.265   5.044
  119SOL    HW2 1257   6.082   6.428   5.040
  120SOL     OW 1258   4.294   1.573   4.636
  120SOL    HW1 1259   4.267   1.588   4.731
  120SOL    HW2 1260   4.216   1.590   4.575
  121SOL     OW 1261   0.257   5.511   6.062
  121SOL    HW1 1262   0.250   5.487   5.966
  121SOL    HW2 1263   0.295   5.603   6.071
  122SOL     OW 1264   6.918   4.748   5.836
  122SOL    HW1 1265   6.887   4.708   5.749
  122SOL    HW2 1266   6.863   4.711   5.911
  123SOL     OW 1267   0.776   2.932   1.148
  123SOL    HW1 1268   0.852   2.978   1.195
  123SOL    HW2 1269   0.735   2.995   1.082
  124SOL     OW 1270   2.036   3.445   6.681
  124SOL    HW1 1271   2.112   3.503   6.653
  124SOL    HW2 1272   2.058   3.349   6.662
  125SOL     OW 1273   4.465   2.217   0.584
  125SOL    HW1 1274   4.529   2.291   0.562
  125SOL    HW2 1275   4.393   2.252   0.643
  126SOL     OW 1276   3.786   3.573   4.861
  126SOL    HW1 1277   3.740   3.583   4.773
  126SOL    HW2 1278   3.882   3.548   4.846
  127SOL     OW 1279   0.129   5.129   6.086
  127SOL    HW1 1280   0.099   5.162   5.996
  127SOL    HW2 1281   0.138   5.029   6.083
  128SOL     OW 1282   4.366   4.400   5.845
  128SOL    HW1 1283   4.380   4.498   5.858
  128SOL    HW2 1284   4.410   4.350   5.920
  129SOL     OW 1285   1.028   4.772   1.381
  129SOL    HW1 1286   1.099   4.773   1.311
  129SOL    HW2 1287   0.984   4.683   1.384
  130SOL     OW 1288   6.146   3.731   4.736
  130SOL    HW1 1289   6.200   3.698   4.813
  130SOL    HW2 1290   6.060   3.680   4.732
  131SOL     OW 1291   1.314   3.453   3.014
  131SOL    HW1 1292   1.410   3.433   3.035
  131SOL    HW2 1293   1.308   3.511   2.933
  132SOL     OW 1294   4.656   2.782   1.449
  132SOL    HW1 1295   4.670   2.880   1.438
  132SOL    HW2 1296   4.564   2.757   1.421
  133SOL     OW 1297   4.206   4.701   6.250
  133SOL    HW1 1298   4.304   4.686   6.236
  133SOL    HW2 1299   4.169   4.626   6.305
  134SOL     OW 1300   6.856   2.188   0.535
  134SOL    HW1 1301   6.900   2.161   0.449
  134SOL    HW2 1302   6.757   2.185   0.524
  135SOL     OW 1303   4.453   4.527   3.638
  135SOL    HW1 1304   4.434   4.515   3.736
  135SOL    HW2 1305   4.372   4.564   3.593
  136SOL     OW 1306   4.197   6.708   6.598
  136SOL    HW1 1307   4.190   6.698   6.697
  136SOL    HW2 1308   4.237   6.626   6.558
  137SOL     OW 1309   1.925   4.197   6.895
  137SOL    HW1 1310   2.013   4.149   6.904
  137SOL    HW2 1311   1.915   4.232   6.802
  138SOL     OW 1312   0.909   6.181   0.084
  138SOL    HW1 1313   0.865   6.091   0.091
  138SOL    HW2 1314   0.944   6.207   0.174
  139SOL     OW 1315   0.653   1.074   0.953
  139SOL    HW1 1316   0.558   1.064   0.982
  139SOL    HW2 1317   0.710   1.008   1.002
  140SOL     OW 1318   3.740   0.226   1.557
  140SOL    HW1 1319   3.825   0.239   1.608
  140SOL    HW2 1320   3.761   0.223   1.459
  141SOL     OW 1321   0.900   1.213   6.864
  141SOL    HW1 1322   0.822   1.259   6.820
  141SOL    HW2 1323   0.961   1.282   6.904
  142SOL     OW 1324   1.983   3.668   6.851
  142SOL    HW1 1325   2.019   3.594   6.795
  142SOL    HW2 1326   1.913   3.718   6.800
  143SOL     OW 1327   5.091   5.689   1.681
  143SOL    HW1 1328   5.126   5.778   1.653
  143SOL    HW2 1329   4.991   5.689   1.675
  144SOL     OW 1330   3.154   5.656   3.017
  144SOL    HW1 1331   3.075   5.609   3.055
  144SOL    HW2 1332   3.193   5.717   3.087
  145SOL     OW 1333   0.516   5.523   3.744
  145SOL    HW1 1334   0.614   5.517   3.760
  145SOL    HW2 1335   0.480   5.433   3.721
  146SOL     OW 1336   6.619   1.003   5.940
  146SOL    HW1 1337   6.639   1.091   5.896
  146SOL    HW2 1338   6.675   0.932   5.897
  147SOL     OW 1339   5.776   0.858   5.044
  147SOL    HW1 1340   5.703   0.885   4.981
  147SOL    HW2 1341   5.775   0.918   5.124
  148SOL     OW 1342   1.902   6.550   1.693
  148SOL    HW1 1343   1.834   6.479   1.708
  148SOL    HW2 1344   1.956   6.528   1.612
  149SOL     OW 1345   1.777   3.017   4.790
  149SOL    HW1 1346   1.845   2.944   4.800
  149SOL    HW2 1347   1.764   3.062   4.878
  150SOL     OW 1348   4.889   2.552   5.831
  150SOL    HW1 1349   4.789   2.555   5.828
  150SOL    HW2 1350   4.926   2.588   5.745
  151SOL     OW 1351   6.258   2.973   1.483
  151SOL    HW1 1352   6.229   2.953   1.577
  151SOL    HW2 1353   6.242   3.070   1.463
  152SOL     OW 1354   6.934   2.876   0.395
  152SOL    HW1 1355   6.938   2.970   0.428
  152SOL    HW2 1356   7.014   2.857   0.338
  153SOL     OW 1357   1.569   2.050   3.756
  153SOL    HW1 1358   1.580   2.145   3.786
  153SOL    HW2 1359   1.475   2.035   3.727
  154SOL     OW 1360   6.956   1.217   3.680
  154SOL    HW1 1361   7.018   1.201   3.757
  154SOL    HW2 1362   7.009   1.217   3.595
  155SOL     OW 1363   5.555   4.893   3.610
  155SOL    HW1 1364   5.589   4.913   3.702
  155SOL    HW2 1365   5.629   4.903   3.544
  156SOL     OW 1366   4.559   0.517   1.756
  156SOL    HW1 1367   4.622   0.440   1.772
  156SOL    HW2 1368   4.466   0.488   1.775
  157SOL     OW 1369   5.310   0.104   1.328
  157SOL    HW1 1370   5.256   0.053   1.262
  157SOL    HW2 1371   5.258   0.116   1.412
  158SOL     OW 1372   0.935   3.358   3.923
  158SOL    HW1 1373   1.023   3.356   3.971
  158SOL    HW2 1374   0.866   3.400   3.982
  159SOL     OW 1375   6.643   5.051   6.724
  159SOL    HW1 1376   6.675   4.963   6.687
  159SOL    HW2 1377   6.706   5.123   6.697
  160SOL     OW 1378   4.102   0.656   1.191
  160SOL    HW1 1379   4.068   0.748   1.172
  160SOL    HW2 1380   4.178   0.662   1.255
  161SOL     OW 1381   6.870   6.958   0.383
  161SOL    HW1 1382   6.776   6.994   0.377
  161SOL    HW2 1383   6.867   6.861   0.407
  162SOL     OW 1384   4.402   6.893   5.683
  162SOL    HW1 1385   4.403   6.950   5.601
  162SOL    HW2 1386   4.430   6.800   5.660
  163SOL     OW 1387   0.842   3.689   2.567
  163SOL    HW1 1388   0.932   3.663   2.532
  163SOL    HW2 1389   0.852   3.758   2.639
  164SOL     OW 1390   1.944   2.141   2.198
  164SOL    HW1 1391   1.984   2.204   2.265
  164SOL    HW2 1392   1.888   2.074   2.247
  165SOL     OW 1393   0.339   6.240   4.467
  165SOL    HW1 1394   0.365   6.334   4.489
  165SOL    HW2 1395   0.337   6.228   4.368
  166SOL     OW 1396   0.615   4.675   3.841
  166SOL    HW1 1397   0.686   4.670   3.911
  166SOL    HW2 1398   0.531   4.634   3.875
  167SOL     OW 1399   0.828   1.177   3.267
  167SOL    HW1 1400   0.875   1.235   3.333
  167SOL    HW2 1401   0.835   1.218   3.176
  168SOL     OW 1402   3.191   3.566   3.107
  168SOL    HW1 1403   3.217   3.641   3.046
  168SOL    HW2 1404   3.092   3.561   3.113
  169SOL     OW 1405   5.567   2.371   0.017
  169SOL    HW1 1406   5.495   2.314   0.055
  169SOL    HW2 1407   5.526   2.440   6.980
  170SOL     OW 1408   6.635   5.360   1.635
  170SOL    HW1 1409   6.550   5.412   1.631
  170SOL    HW2 1410   6.689   5.378   1.553
  171SOL     OW 1411   2.886   2.515   0.578
  171SOL    HW1 1412   2.922   2.591   0.633
  171SOL    HW2 1413   2.894   2.430   0.630
  172SOL     OW 1414   1.428   1.305   0.198
  172SOL    HW1 1415   1.429   1.276   0.102
  172SOL    HW2 1416   1.446   1.226   0.256
  173SOL     OW 1417   5.817   0.582   5.005
  173SOL    HW1 1418   5.759   0.533   5.070
  173SOL    HW2 1419   5.802   0.681   5.017
  174SOL     OW 1420   6.259   3.883   5.429
  174SOL    HW1 1421   6.323   3.933   5.487
  174SOL    HW2 1422   6.310   3.824   5.366
  175SOL     OW 1423   0.434   6.493   2.737
  175SOL    HW1 1424   0.445   6.456   2.645
  175SOL    HW2 1425   0.447   6.592   2.734
  176SOL     OW 1426   6.719   3.980   0.716
  176SOL    HW1 1427   6.621   3.984   0.697
  176SOL    HW2 1428   6.743   4.051   0.783
  177SOL     OW 1429   6.677   2.551   3.614
  177SOL    HW1 1430   6.652   2.646   3.599
  177SOL    HW2 1431   6.652   2.523   3.707
  178SOL     OW 1432   1.975   5.845   4.746
  178SOL    HW1 1433   1.985   5.944   4.748
  178SOL    HW2 1434   2.035   5.807   4.675
  179SOL     OW 1435   3.577   4.092   2.101
  179SOL    HW1 1436   3.604   4.151   2.176
  179SOL    HW2 1437   3.508   4.027   2.132
  180SOL     OW 1438   4.824   1.446   6.611
  180SOL    HW1 1439   4.752   1.431   6.678
  180SOL    HW2 1440   4.835   1.544   6.595
  181SOL     OW 1441   3.802   0.255   5.434
  181SOL    HW1 1442   3.783   0.315   5.511
  181SOL    HW2 1443   3.722   0.198   5.416
  182SOL     OW 1444   3.058   3.228   5.649
  182SOL    HW1 1445   3.083   3.229   5.552
  182SOL    HW2 1446   3.031   3.136   5.676
  183SOL     OW 1447   2.931   1.393   3.352
  183SOL    HW1 1448   2.937   1.446   3.436
  183SOL    HW2 1449   2.963   1.300   3.369
  184SOL     OW 1450   4.889   5.338   3.340
  184SOL    HW1 1451   4.893   5.306   3.246
  184SOL    HW2 1452   4.900   5.260   3.402
  185SOL     OW 1453   0.254   6.813   4.928
  185SOL    HW1 1454   0.260   6.797   5.026
  185SOL    HW2 1455   0.295   6.735   4.880
  186SOL     OW 1456   2.713   5.985   5.942
  186SOL    HW1 1457   2.748   5.950   5.856
  186SOL    HW2 1458   2.663   6.070   5.927
  187SOL     OW 1459   3.850   5.642   0.984
  187SOL    HW1 1460   3.760   5.665   0.948
  187SOL    HW2 1461   3.911   5.720   0.971
  188SOL     OW 1462   1.509   3.987   3.377
  188SOL    HW1 1463   1.465   3.908   3.334
  188SOL    HW2 1464   1.542   3.961   3.468
  189SOL     OW 1465   5.295   4.352   6.043
  189SOL    HW1 1466   5.246   4.366   6.129
  189SOL    HW2 1467   5.390   4.382   6.054
  190SOL     OW 1468   5.966   6.876   0.607
  190SOL    HW1 1469   5.878   6.922   0.599
  190SOL    HW2 1470   5.974   6.836   0.698
  191SOL     OW 1471   1.877   2.348   5.411
  191SOL    HW1 1472   1.853   2.441   5.439
  191SOL    HW2 1473   1.975   2.333   5.425
  192SOL     OW 1474   0.151   6.595   1.441
  192SOL    HW1 1475   0.166   6.504   1.481
  192SOL    HW2 1476   0.226   6.616   1.378
  193SOL     OW 1477   3.154   0.732   1.520
  193SOL    HW1 1478   3.216   0.657   1.499
  193SOL    HW2 1479   3.100   0.710   1.602
  194SOL     OW 1480   4.300   6.175   3.353
  194SOL    HW1 1481   4.380   6.205   3.405
  194SOL    HW2 1482   4.238   6.253   3.341
  195SOL     OW 1483   2.770   0.788   0.984
  195SOL    HW1 1484   2.810   0.813   0.897
  195SOL    HW2 1485   2.713   0.706   0.972
  196SOL     OW 1486   4.418   2.644   1.397
  196SOL    HW1 1487   4.493   2.580   1.410
  196SOL    HW2 1488   4.357   2.610   1.326
  197SOL     OW 1489   1.775   6.280   0.674
  197SOL    HW1 1490   1.778   6.300   0.577
  197SOL    HW2 1491   1.768   6.181   0.688
  198SOL     OW 1492   5.082   6.645   6.302
  198SOL    HW1 1493   5.167   6.632   6.354
  198SOL    HW2 1494   5.105   6.665   6.207
  199SOL     OW 1495   2.127   0.746   3.138
  199SOL    HW1 1496   2.062   0.708   3.072
  199SOL    HW2 1497   2.198   0.797   3.090
  200SOL     OW 1498   1.406   3.861   4.104
  200SOL    HW1 1499   1.387   3.824   4.013
  200SOL    HW2 1500   1.426   3.959   4.097
  201SOL     OW 1501   4.641   1.506   6.839
  201SOL    HW1 1502   4.582   1.536   6.764
  201SOL    HW2 1503   4.624   1.564   6.919
  202SOL     OW 1504   4.382   0.311   3.342
  202SOL    HW1 1505   4.294   0.357   3.350
  202SOL    HW2 1506   4.412   0.313   3.247
  203SOL     OW 1507   6.141   2.782   0.280
  203SOL    HW1 1508   6.133   2.736   0.369
  203SOL    HW2 1509   6.057   2.768   0.228
  204SOL     OW 1510   1.644   6.120   1.081
  204SOL    HW1 1511   1.553   6.159   1.095
  204SOL    HW2 1512   1.640   6.021   1.091
  205SOL     OW 1513   5.186   0.780   1.451
  205SOL    HW1 1514   5.274   0.752   1.415
  205SOL    HW2 1515   5.196   0.866   1.501
  206SOL     OW 1516   6.814   6.137   1.160
  206SOL    HW1 1517   6.896   6.187   1.131
  206SOL    HW2 1518   6.786   6.074   1.088
  207SOL     OW 1519   6.453   2.014   6.022
  207SOL    HW1 1520   6.543   2.050   5.998
  207SOL    HW2 1521   6.424   1.948   5.952
  208SOL     OW 1522   3.991   4.066   6.851
  208SOL    HW1 1523   4.065   4.065   6.784
  208SOL    HW2 1524   3.957   4.159   6.861
  209SOL     OW 1525   0.112   6.093   4.145
  209SOL    HW1 1526   0.188   6.042   4.186
  209SOL    HW2 1527   0.100   6.063   4.050
  210SOL     OW 1528   4.022   2.365   0.737
  210SOL    HW1 1529   4.092   2.294   0.727
  210SOL    HW2 1530   3.963   2.343   0.815
  211SOL     OW 1531   1.025   3.032   1.666
  211SOL    HW1 1532   1.003   3.129   1.679
  211SOL    HW2 1533   0.960   2.976   1.719
  212SOL     OW 1534   1.158   5.497   5.301
  212SOL    HW1 1535   1.239   5.438   5.298
  212SOL    HW2 1536   1.086   5.451   5.353
  213SOL     OW 1537   3.612   2.329   0.412
  213SOL    HW1 1538   3.556   2.298   0.335
  213SOL    HW2 1539   3.650   2.419   0.390
  214SOL     OW 1540   1.494   6.183   3.201
  214SOL    HW1 1541   1.456   6.159   3.112
  214SOL    HW2 1542   1.554   6.110   3.233
  215SOL     OW 1543   3.204   4.044   2.922
  215SOL    HW1 1544   3.238   4.054   2.829
  215SOL    HW2 1545   3.104   4.046   2.921
  216SOL     OW 1546   2.866   0.254   5.509
  216SOL    HW1 1547   2.885   0.352   5.516
  216SOL    HW2 1548   2.825   0.234   5.420
  217SOL     OW 1549   6.784   2.335   5.305
  217SOL    HW1 1550   6.873   2.377   5.289
  217SOL    HW2 1551   6.755   2.352   5.399
  218SOL     OW 1552   2.647   3.969   5.719
  218SOL    HW1 1553   2.740   4.003   5.711
  218SOL    HW2 1554   2.587   4.043   5.752
  219SOL     OW 1555   2.979   5.386   6.884
  219SOL    HW1 1556   2.994   5.452   6.958
  219SOL    HW2 1557   2.969   5.294   6.922
  220SOL     OW 1558   1.529   4.478   7.013
  220SOL    HW1 1559   1.501   4.415   0.062
  220SOL    HW2 1560   1.518   4.572   0.021
  221SOL     OW 1561   5.983   2.533   4.759
  221SOL    HW1 1562   6.003   2.462   4.691
  221SOL    HW2 1563   5.906   2.588   4.727
  222SOL     OW 1564   1.937   6.572   4.598
  222SOL    HW1 1565   2.019   6.526   4.634
  222SOL    HW2 1566   1.875   6.593   4.674
  223SOL     OW 1567   5.830   4.951   2.657
  223SOL    HW1 1568   5.759   5.020   2.641
  223SOL    HW2 1569   5.837   4.933   2.755
  224SOL     OW 1570   4.679   2.132   2.454
  224SOL    HW1 1571   4.685   2.128   2.554
  224SOL    HW2 1572   4.602   2.078   2.423
  225SOL     OW 1573   5.052   6.425   1.119
  225SOL    HW1 1574   4.979   6.489   1.098
  225SOL    HW2 1575   5.141   6.469   1.101
  226SOL     OW 1576   0.535   5.430   2.661
  226SOL    HW1 1577   0.456   5.420   2.601
  226SOL    HW2 1578   0.507   5.475   2.746
  227SOL     OW 1579   1.468   3.698   3.298
  227SOL    HW1 1580   1.557   3.714   3.256
  227SOL    HW2 1581   1.444   3.601   3.289
  228SOL     OW 1582   4.114   6.545   2.512
  228SOL    HW1 1583   4.106   6.572   2.416
  228SOL    HW2 1584   4.062   6.609   2.568
  229SOL     OW 1585   6.678   5.335   3.043
  229SOL    HW1 1586   6.607   5.295   2.986
  229SOL    HW2 1587   6.690   5.432   3.018
  230SOL     OW 1588   0.838   4.613   5.870
  230SOL    HW1 1589   0.787   4.699   5.870
  230SOL    HW2 1590   0.774   4.536   5.865
  231SOL     OW 1591   0.238   2.397   6.438
  231SOL    HW1 1592   0.271   2.305   6.419
  231SOL    HW2 1593   0.139   2.396   6.445
  232SOL     OW 1594   1.269   3.953   6.215
  232SOL    HW1 1595   1.362   3.972   6.247
  232SOL    HW2 1596   1.263   3.972   6.117
  233SOL     OW 1597   3.354   7.009   6.739
  233SOL    HW1 1598   3.316   0.072   6.775
  233SOL    HW2 1599   3.291   6.934   6.759
  234SOL     OW 1600   2.435   4.727   6.427
  234SOL    HW1 1601   2.533   4.716   6.414
  234SOL    HW2 1602   2.401   4.654   6.488
  235SOL     OW 1603   3.425   2.953   5.691
  235SOL    HW1 1604   3.489   2.901   5.748
  235SOL    HW2 1605   3.428   2.917   5.598
  236SOL     OW 1606   0.295   2.107   5.973
  236SOL    HW1 1607   0.297   2.200   5.936
  236SOL    HW2 1608   0.369   2.053   5.931
  237SOL     OW 1609   6.704   6.559   1.866
  237SOL    HW1 1610   6.634   6.559   1.795
  237SOL    HW2 1611   6.707   6.648   1.911
  238SOL     OW 1612   0.225   1.784   2.721
  238SOL    HW1 1613   0.162   1.788   2.798
  238SOL    HW2 1614   0.315   1.817   2.748
  239SOL     OW 1615   6.332   5.329   0.412
  239SOL    HW1 1616   6.423   5.362   0.436
  239SOL    HW2 1617   6.289   5.392   0.347
  240SOL     OW 1618   6.997   2.635   5.286
  240SOL    HW1 1619   0.031   2.569   5.236
  240SOL    HW2 1620   6.978   2.600   5.377
  241SOL     OW 1621   5.262   2.249   4.924
  241SOL    HW1 1622   5.194   2.314   4.892
  241SOL    HW2 1623   5.306   2.285   5.007
  242SOL     OW 1624   2.806   2.278   4.102
  242SOL    HW1 1625   2.731   2.344   4.102
  242SOL    HW2 1626   2.814   2.237   4.193
  243SOL     OW 1627   5.007   1.009   6.981
  243SOL    HW1 1628   4.933   0.959   6.936
  243SOL    HW2 1629   4.983   1.106   6.985
  244SOL     OW 1630   0.795   2.031   5.830
  244SOL    HW1 1631   0.839   2.074   5.751
  244SOL    HW2 1632   0.840   2.062   5.913
  245SOL     OW 1633   4.853   2.909   3.459
  245SOL    HW1 1634   4.795   2.888   3.538
  245SOL    HW2 1635   4.948   2.911   3.487
  246SOL     OW 1636   4.805   2.904   4.335
  246SOL    HW1 1637   4.811   2.979   4.269
  246SOL    HW2 1638   4.820   2.940   4.427
  247SOL     OW 1639   3.038   0.599   2.759
  247SOL    HW1 1640   3.116   0.538   2.748
  247SOL    HW2 1641   3.049   0.654   2.841
  248SOL     OW 1642   0.304   1.914   2.396
  248SOL    HW1 1643   0.250   1.943   2.475
  248SOL    HW2 1644   0.333   1.995   2.345
  249SOL     OW 1645   2.120   5.536   5.257
  249SOL    HW1 1646   2.160   5.456   5.213
  249SOL    HW2 1647   2.064   5.587   5.191
  250SOL     OW 1648   5.608   2.366   0.631
  250SOL    HW1 1649   5.605   2.309   0.549
  250SOL    HW2 1650   5.689   2.424   0.629
  251SOL     OW 1651   2.081   0.988   0.859
  251SOL    HW1 1652   2.168   0.969   0.906
  251SOL    HW2 1653   2.019   1.034   0.922
  252SOL     OW 1654   0.383   2.123   0.053
  252SOL    HW1 1655   0.360   2.077   0.138
  252SOL    HW2 1656   0.482   2.118   0.038
  253SOL     OW 1657   1.924   4.499   6.380
  253SOL    HW1 1658   1.975   4.554   6.313
  253SOL    HW2 1659   1.855   4.445   6.333
  254SOL     OW 1660   4.796   3.873   6.272
  254SOL    HW1 1661   4.844   3.960   6.263
  254SOL    HW2 1662   4.697   3.889   6.275
  255SOL     OW 1663   4.268   2.254   2.091
  255SOL    HW1 1664   4.234   2.202   2.169
  255SOL    HW2 1665   4.198   2.259   2.021
  256SOL     OW 1666   6.454   5.640   1.357
  256SOL    HW1 1667   6.503   5.646   1.444
  256SOL    HW2 1668   6.504   5.693   1.288
  257SOL     OW 1669   2.535   5.640   5.533
  257SOL    HW1 1670   2.512   5.720   5.588
  257SOL    HW2 1671   2.536   5.559   5.591
  258SOL     OW 1672   4.244   5.108   4.006
  258SOL    HW1 1673   4.281   5.172   3.939
  258SOL    HW2 1674   4.258   5.014   3.973
  259SOL     OW 1675   0.961   1.979   2.900
  259SOL    HW1 1676   0.917   2.067   2.887
  259SOL    HW2 1677   0.914   1.909   2.846
  260SOL     OW 1678   6.343   6.573   5.640
  260SOL    HW1 1679   6.442   6.576   5.652
  260SOL    HW2 1680   6.321   6.569   5.543
  261SOL     OW 1681   0.365   0.827   3.915
  261SOL    HW1 1682   0.456   0.806   3.877
  261SOL    HW2 1683   0.362   0.922   3.944
  262SOL     OW 1684   1.208   4.874   1.579
  262SOL    HW1 1685   1.136   4.845   1.517
  262SOL    HW2 1686   1.167   4.920   1.658
  263SOL     OW 1687   0.611   4.401   4.079
  263SOL    HW1 1688   0.616   4.363   3.987
  263SOL    HW2 1689   0.525   4.374   4.122
  264SOL     OW 1690   3.238   4.200   0.282
  264SOL    HW1 1691   3.293   4.228   0.361
  264SOL    HW2 1692   3.148   4.170   0.314
  265SOL     OW 1693   4.106   5.395   3.693
  265SOL    HW1 1694   4.187   5.344   3.663
  265SOL    HW2 1695   4.047   5.414   3.615
  266SOL     OW 1696   4.611   3.496   6.878
  266SOL    HW1 1697   4.625   3.560   6.953
  266SOL    HW2 1698   4.681   3.512   6.807
  267SOL     OW 1699   2.269   2.195   5.909
  267SOL    HW1 1700   2.224   2.107   5.895
  267SOL    HW2 1701   2.208   2.256   5.960
  268SOL     OW 1702   2.069   4.568   3.554
  268SOL    HW1 1703   2.035   4.493   3.611
  268SOL    HW2 1704   2.066   4.653   3.605
  269SOL     OW 1705   2.557   2.026   5.395
  269SOL    HW1 1706   2.576   2.124   5.410
  269SOL    HW2 1707   2.482   2.017   5.330
  270SOL     OW 1708   5.170   6.184   4.886
  270SOL    HW1 1709   5.221   6.268   4.872
  270SOL    HW2 1710   5.169   6.131   4.801
  271SOL     OW 1711   2.259   1.632   0.173
  271SOL    HW1 1712   2.224   1.539   0.164
  271SOL    HW2 1713   2.222   1.674   0.255
  272SOL     OW 1714   4.256   5.402   0.299
  272SOL    HW1 1715   4.231   5.439   0.209
  272SOL    HW2 1716   4.200   5.445   0.369
  273SOL     OW 1717   1.737   5.926   3.944
  273SOL    HW1 1718   1.679   5.864   3.996
  273SOL    HW2 1719   1.833   5.900   3.955
  274SOL     OW 1720   5.991   2.211   1.929
  274SOL    HW1 1721   6.014   2.114   1.942
  274SOL    HW2 1722   5.892   2.219   1.911
  275SOL     OW 1723   6.079   5.575   5.960
  275SOL    HW1 1724   6.080   5.673   5.943
  275SOL    HW2 1725   6.173   5.542   5.970
  276SOL     OW 1726   0.499   0.213   4.157
  276SOL    HW1 1727   0.519   0.157   4.077
  276SOL    HW2 1728   0.401   0.231   4.163
  277SOL     OW 1729   4.022   2.805   5.314
  277SOL    HW1 1730   4.075   2.731   5.273
  277SOL    HW2 1731   3.924   2.789   5.296
  278SOL     OW 1732   5.882   3.963   3.176
  278SOL    HW1 1733   5.863   3.888   3.113
  278SOL    HW2 1734   5.813   4.035   3.164
  279SOL     OW 1735   0.179   4.002   3.510
  279SOL    HW1 1736   0.152   4.049   3.426
  279SOL    HW2 1737   0.149   4.056   3.589
  280SOL     OW 1738   4.153   2.236   3.777
  280SOL    HW1 1739   4.207   2.178   3.838
  280SOL    HW2 1740   4.056   2.226   3.798
  281SOL     OW 1741   4.921   5.968   5.208
  281SOL    HW1 1742   4.996   5.981   5.274
  281SOL    HW2 1743   4.835   5.992   5.252
  282SOL     OW 1744   1.049   2.472   0.122
  282SOL    HW1 1745   0.975   2.408   0.101
  282SOL    HW2 1746   1.089   2.450   0.211
  283SOL     OW 1747   6.179   3.557   3.546
  283SOL    HW1 1748   6.135   3.491   3.486
  283SOL    HW2 1749   6.227   3.625   3.490
  284SOL     OW 1750   5.555   6.691   2.663
  284SOL    HW1 1751   5.506   6.673   2.577
  284SOL    HW2 1752   5.491   6.723   2.732
  285SOL     OW 1753   3.982   6.007   6.361
  285SOL    HW1 1754   4.022   6.011   6.453
  285SOL    HW2 1755   4.028   6.072   6.301
  286SOL     OW 1756   2.598   5.047   5.438
  286SOL    HW1 1757   2.620   5.130   5.488
  286SOL    HW2 1758   2.631   5.054   5.344
  287SOL     OW 1759   3.282   5.530   0.637
  287SOL    HW1 1760   3.256   5.626   0.634
  287SOL    HW2 1761   3.256   5.486   0.551
  288SOL     OW 1762   4.290   1.471   0.285
  288SOL    HW1 1763   4.381   1.480   0.244
  288SOL    HW2 1764   4.276   1.377   0.315
  289SOL     OW 1765   5.430   5.050   4.862
  289SOL    HW1 1766   5.477   4.971   4.825
  289SOL    HW2 1767   5.336   5.052   4.827
  290SOL     OW 1768   3.868   0.462   5.208
  290SOL    HW1 1769   3.945   0.461   5.271
  290SOL    HW2 1770   3.791   0.510   5.250
  291SOL     OW 1771   5.292   1.131   5.073
  291SOL    HW1 1772   5.349   1.157   4.995
  291SOL    HW2 1773   5.211   1.189   5.075
  292SOL     OW 1774   3.443   0.378   3.617
  292SOL    HW1 1775   3.355   0.426   3.614
  292SOL    HW2 1776   3.496   0.413   3.694
  293SOL     OW 1777   5.425   0.392   2.938
  293SOL    HW1 1778   5.410   0.486   2.905
  293SOL    HW2 1779   5.473   0.395   3.026
  294SOL     OW 1780   6.899   2.006   6.159
  294SOL    HW1 1781   6.939   2.054   6.237
  294SOL    HW2 1782   6.968   1.948   6.116
  295SOL     OW 1783   0.491   0.237   4.699
  295SOL    HW1 1784   0.405   0.208   4.742
  295SOL    HW2 1785   0.479   0.329   4.662
  296SOL     OW 1786   1.007   1.713   1.720
  296SOL    HW1 1787   0.968   1.708   1.812
  296SOL    HW2 1788   1.041   1.623   1.694
  297SOL     OW 1789   5.091   3.290   3.558
  297SOL    HW1 1790   5.006   3.318   3.514
  297SOL    HW2 1791   5.163   3.280   3.489
  298SOL     OW 1792   4.392   1.043   5.831
  298SOL    HW1 1793   4.367   1.136   5.858
  298SOL    HW2 1794   4.343   0.977   5.887
  299SOL     OW 1795   0.884   1.285   5.846
  299SOL    HW1 1796   0.886   1.364   5.906
  299SOL    HW2 1797   0.867   1.202   5.899
  300SOL     OW 1798   4.596   6.364   3.873
  300SOL    HW1 1799   4.619   6.422   3.795
  300SOL    HW2 1800   4.639   6.274   3.861
  301SOL     OW 1801   0.333   6.373   5.842
  301SOL    HW1 1802   0.293   6.315   5.770
  301SOL    HW2 1803   0.317   6.331   5.931
  302SOL     OW 1804   0.045   6.888   1.925
  302SOL    HW1 1805   0.088   6.821   1.985
  302SOL    HW2 1806   0.048   6.854   1.831
  303SOL     OW 1807   5.565   6.012   2.534
  303SOL    HW1 1808   5.500   5.987   2.462
  303SOL    HW2 1809   5.584   6.110   2.529
  304SOL     OW 1810   2.162   6.996   4.359
  304SOL    HW1 1811   2.178   6.954   4.269
  304SOL    HW2 1812   2.116   6.930   4.419
  305SOL     OW 1813   1.400   1.831   1.344
  305SOL    HW1 1814   1.471   1.835   1.273
  305SOL    HW2 1815   1.441   1.855   1.432
  306SOL     OW 1816   6.864   6.973   2.190
  306SOL    HW1 1817   6.870   0.029   2.128
  306SOL    HW2 1818   6.811   6.999   2.270
  307SOL     OW 1819   3.448   3.522   3.984
  307SOL    HW1 1820   3.380   3.449   3.982
  307SOL    HW2 1821   3.403   3.610   3.997
  308SOL     OW 1822   6.049   1.495   2.190
  308SOL    HW1 1823   6.127   1.512   2.249
  308SOL    HW2 1824   5.996   1.579   2.179
  309SOL     OW 1825   1.945   4.749   0.170
  309SOL    HW1 1826   1.941   4.651   0.191
  309SOL    HW2 1827   2.026   4.768   0.114
  310SOL     OW 1828   4.999   6.731   4.893
  310SOL    HW1 1829   5.048   6.645   4.907
  310SOL    HW2 1830   4.905   6.721   4.927
  311SOL     OW 1831   1.290   6.698   1.941
  311SOL    HW1 1832   1.345   6.778   1.916
  311SOL    HW2 1833   1.279   6.695   2.040
  312SOL     OW 1834   3.629   0.591   4.374
  312SOL    HW1 1835   3.708   0.543   4.413
  312SOL    HW2 1836   3.604   0.668   4.434
  313SOL     OW 1837   2.946   3.206   2.750
  313SOL    HW1 1838   2.859   3.201   2.799
  313SOL    HW2 1839   3.013   3.148   2.796
  314SOL     OW 1840   2.826   5.481   6.285
  314SOL    HW1 1841   2.757   5.476   6.357
  314SOL    HW2 1842   2.904   5.533   6.318
  315SOL     OW 1843   5.919   0.521   4.229
  315SOL    HW1 1844   5.895   0.616   4.208
  315SOL    HW2 1845   5.836   0.466   4.235
  316SOL     OW 1846   3.462   1.346   5.876
  316SOL    HW1 1847   3.469   1.422   5.941
  316SOL    HW2 1848   3.514   1.368   5.794
  317SOL     OW 1849   0.625   2.194   1.126
  317SOL    HW1 1850   0.592   2.172   1.217
  317SOL    HW2 1851   0.681   2.119   1.092
  318SOL     OW 1852   0.590   0.682   3.364
  318SOL    HW1 1853   0.538   0.764   3.342
  318SOL    HW2 1854   0.565   0.609   3.300
  319SOL     OW 1855   0.194   0.722   2.649
  319SOL    HW1 1856   0.187   0.635   2.698
  319SOL    HW2 1857   0.210   0.704   2.552
  320SOL     OW 1858   4.981   1.739   0.293
  320SOL    HW1 1859   4.965   1.641   0.294
  320SOL    HW2 1860   5.075   1.758   0.266
  321SOL     OW 1861   4.701   3.033   0.956
  321SOL    HW1 1862   4.610   3.071   0.975
  321SOL    HW2 1863   4.762   3.054   1.032
  322SOL     OW 1864   3.494   2.792   6.920
  322SOL    HW1 1865   3.410   2.819   6.968
  322SOL    HW2 1866   3.573   2.816   6.976
  323SOL     OW 1867   1.448   3.306   2.294
  323SOL    HW1 1868   1.431   3.305   2.196
  323SOL    HW2 1869   1.474   3.214   2.324
  324SOL     OW 1870   0.015   0.296   3.347
  324SOL    HW1 1871   6.968   0.264   3.283
  324SOL    HW2 1872   0.097   0.320   3.296
  325SOL     OW 1873   6.231   3.407   0.903
  325SOL    HW1 1874   6.258   3.458   0.985
  325SOL    HW2 1875   6.175   3.467   0.845
  326SOL     OW 1876   0.132   5.645   0.044
  326SOL    HW1 1877   0.047   5.633   0.095
  326SOL    HW2 1878   0.118   5.713   6.995
  327SOL     OW 1879   4.358   6.462   6.522
  327SOL    HW1 1880   4.450   6.476   6.485
  327SOL    HW2 1881   4.343   6.364   6.539
  328SOL     OW 1882   1.230   5.065   3.483
  328SOL    HW1 1883   1.189   5.148   3.446
  328SOL    HW2 1884   1.313   5.088   3.534
  329SOL     OW 1885   3.677   3.005   1.811
  329SOL    HW1 1886   3.583   3.013   1.778
  329SOL    HW2 1887   3.735   2.969   1.737
  330SOL     OW 1888   2.717   3.398   6.968
  330SOL    HW1 1889   2.776   3.330   7.012
  330SOL    HW2 1890   2.713   3.379   6.870
  331SOL     OW 1891   5.130   4.805   4.718
  331SOL    HW1 1892   5.041   4.803   4.672
  331SOL    HW2 1893   5.160   4.900   4.726
  332SOL     OW 1894   5.724   2.176   3.256
  332SOL    HW1 1895   5.706   2.079   3.238
  332SOL    HW2 1896   5.701   2.198   3.350
  333SOL     OW 1897   4.087   6.530   3.916
  333SOL    HW1 1898   4.056   6.437   3.895
  333SOL    HW2 1899   4.179   6.526   3.955
  334SOL     OW 1900   3.140   3.571   4.212
  334SOL    HW1 1901   3.171   3.624   4.291
  334SOL    HW2 1902   3.174   3.478   4.218
  335SOL     OW 1903   3.266   0.888   1.000
  335SOL    HW1 1904   3.263   0.797   1.041
  335SOL    HW2 1905   3.215   0.952   1.058
  336SOL     OW 1906   4.291   2.065   5.132
  336SOL    HW1 1907   4.311   1.984   5.077
  336SOL    HW2 1908   4.231   2.040   5.208
  337SOL     OW 1909   6.772   1.175   5.364
  337SOL    HW1 1910   6.715   1.229   5.426
  337SOL    HW2 1911   6.845   1.130   5.415
  338SOL     OW 1912   4.939   1.457   1.349
  338SOL    HW1 1913   5.028   1.453   1.395
  338SOL    HW2 1914   4.945   1.410   1.261
  339SOL     OW 1915   4.234   5.247   5.840
  339SOL    HW1 1916   4.188   5.283   5.920
  339SOL    HW2 1917   4.235   5.147   5.844
  340SOL     OW 1918   5.018   3.213   5.125
  340SOL    HW1 1919   4.932   3.222   5.175
  340SOL    HW2 1920   5.039   3.116   5.112
  341SOL     OW 1921   6.671   0.127   1.834
  341SOL    HW1 1922   6.661   0.032   1.804
  341SOL    HW2 1923   6.747   0.133   1.899
  342SOL     OW 1924   4.559   1.370   2.103
  342SOL    HW1 1925   4.488   1.397   2.168
  342SOL    HW2 1926   4.627   1.442   2.096
  343SOL     OW 1927   5.306   0.459   1.067
  343SOL    HW1 1928   5.299   0.559   1.069
  343SOL    HW2 1929   5.317   0.427   0.973
  344SOL     OW 1930   6.572   3.127   1.263
  344SOL    HW1 1931   6.661   3.154   1.300
  344SOL    HW2 1932   6.501   3.183   1.304
  345SOL     OW 1933   6.926   2.319   4.115
  345SOL    HW1 1934   6.942   2.352   4.022
  345SOL    HW2 1935   6.828   2.313   4.132
  346SOL     OW 1936   2.113   5.995   2.738
  346SOL    HW1 1937   2.019   6.026   2.755
  346SOL    HW2 1938   2.133   5.917   2.798
  347SOL     OW 1939   2.696   4.688   0.974
  347SOL    HW1 1940   2.674   4.672   0.878
  347SOL    HW2 1941   2.795   4.682   0.986
  348SOL     OW 1942   4.833   4.913   1.956
  348SOL    HW1 1943   4.925   4.947   1.936
  348SOL    HW2 1944   4.812   4.836   1.895
  349SOL     OW 1945   5.521   4.637   0.977
  349SOL    HW1 1946   5.529   4.538   0.961
  349SOL    HW2 1947   5.577   4.686   0.910
  350SOL     OW 1948   2.373   1.874   0.121
  350SOL    HW1 1949   2.327   1.787   0.103
  350SOL    HW2 1950   2.397   1.917   0.034
  351SOL     OW 1951   3.622   4.119   1.085
  351SOL    HW1 1952   3.635   4.209   1.042
  351SOL    HW2 1953   3.526   4.091   1.073
  352SOL     OW 1954   4.262   6.378   2.305
  352SOL    HW1 1955   4.354   6.379   2.344
  352SOL    HW2 1956   4.195   6.395   2.377
  353SOL     OW 1957   2.204   7.008   0.409
  353SOL    HW1 1958   2.193   6.996   0.508
  353SOL    HW2 1959   2.122   6.975   0.362
  354SOL     OW 1960   1.641   2.221   0.703
  354SOL    HW1 1961   1.647   2.314   0.740
  354SOL    HW2 1962   1.653   2.155   0.777
  355SOL     OW 1963   0.510   2.809   3.482
  355SOL    HW1 1964   0.494   2.713   3.459
  355SOL    HW2 1965   0.608   2.829   3.476
  356SOL     OW 1966   2.722   0.644   5.453
  356SOL    HW1 1967   2.715   0.630   5.354
  356SOL    HW2 1968   2.810   0.609   5.485
  357SOL     OW 1969   5.924   5.939   4.464
  357SOL    HW1 1970   5.999   5.911   4.523
  357SOL    HW2 1971   5.836   5.915   4.506
  358SOL     OW 1972   3.300   5.898   6.928
  358SOL    HW1 1973   3.284   5.934   7.020
  358SOL    HW2 1974   3.234   5.938   6.864
  359SOL     OW 1975   1.449   1.931   2.029
  359SOL    HW1 1976   1.415   2.024   2.036
  359SOL    HW2 1977   1.385   1.876   1.975
  360SOL     OW 1978   1.877   3.919   3.585
  360SOL    HW1 1979   1.882   3.838   3.527
  360SOL    HW2 1980   1.950   3.915   3.653
  361SOL     OW 1981   0.081   1.943   1.765
  361SOL    HW1 1982   0.071   1.990   1.853
  361SOL    HW2 1983   0.094   2.010   1.692
  362SOL     OW 1984   3.825   3.883   2.558
  362SOL    HW1 1985   3.867   3.873   2.649
  362SOL    HW2 1986   3.763   3.962   2.559
  363SOL     OW 1987   4.694   5.596   0.930
  363SOL    HW1 1988   4.640   5.551   0.860
  363SOL    HW2 1989   4.711   5.691   0.904
  364SOL     OW 1990   1.076   0.675   0.329
  364SOL    HW1 1991   1.166   0.651   0.365
  364SOL    HW2 1992   1.021   0.592   0.320
  365SOL     OW 1993   6.080   0.853   3.975
  365SOL    HW1 1994   5.991   0.823   4.008
  365SOL    HW2 1995   6.148   0.840   4.047
  366SOL     OW 1996   5.201   1.896   0.059
  366SOL    HW1 1997   5.137   1.967   0.088
  366SOL    HW2 1998   5.167   1.852   7.000
  367SOL     OW 1999   5.394   0.853   6.934
  367SOL    HW1 2000   5.432   0.805   6.856
  367SOL    HW2 2001   5.433   0.945   6.939
  368SOL     OW 2002   2.136   1.965   5.884
  368SOL    HW1 2003   2.095   1.876   5.865
  368SOL    HW2 2004   2.191   1.960   5.967
  369SOL     OW 2005   5.906   4.421   0.416
  369SOL    HW1 2006   5.971   4.496   0.399
  369SOL    HW2 2007   5.819   4.441   0.371
  370SOL     OW 2008   2.475   2.608   3.127
  370SOL    HW1 2009   2.404   2.562   3.181
  370SOL    HW2 2010   2.470   2.706   3.142
  371SOL     OW 2011   2.055   5.909   0.457
  371SOL    HW1 2012   2.033   5.909   0.555
  371SOL    HW2 2013   2.154   5.916   0.445
  372SOL     OW 2014   2.415   5.663   5.998
  372SOL    HW1 2015   2.454   5.714   5.922
  372SOL    HW2 2016   2.478   5.590   6.026
  373SOL     OW 2017   6.401   4.490   2.906
  373SOL    HW1 2018   6.325   4.514   2.966
  373SOL    HW2 2019   6.370   4.493   2.811
  374SOL     OW 2020   2.798   1.652   2.010
  374SOL    HW1 2021   2.714   1.614   1.970
  374SOL    HW2 2022   2.838   1.585   2.073
  375SOL     OW 2023   1.367   6.046   4.361
  375SOL    HW1 2024   1.346   6.001   4.274
  375SOL    HW2 2025   1.465   6.037   4.380
  376SOL     OW 2026   4.180   0.495   3.370
  376SOL    HW1 2027   4.082   0.509   3.383
  376SOL    HW2 2028   4.222   0.579   3.335
  377SOL     OW 2029   3.112   2.201   6.393
  377SOL    HW1 2030   3.022   2.169   6.421
  377SOL    HW2 2031   3.158   2.129   6.341
  378SOL     OW 2032   4.020   1.043   2.129
  378SOL    HW1 2033   3.921   1.034   2.117
  378SOL    HW2 2034   4.067   1.010   2.046
  379SOL     OW 2035   4.189   2.822   6.679
  379SOL    HW1 2036   4.224   2.863   6.595
  379SOL    HW2 2037   4.248   2.745   6.705
  380SOL     OW 2038   4.361   2.026   0.804
  380SOL    HW1 2039   4.452   2.066   0.810
  380SOL    HW2 2040   4.319   2.052   0.717
  381SOL     OW 2041   2.181   4.501   2.842
  381SOL    HW1 2042   2.242   4.458   2.776
  381SOL    HW2 2043   2.197   4.462   2.933
  382SOL     OW 2044   6.050   6.876   6.922
  382SOL    HW1 2045   6.004   6.921   6.998
  382SOL    HW2 2046   6.032   6.926   6.837
  383SOL     OW 2047   4.426   3.471   0.288
  383SOL    HW1 2048   4.429   3.440   0.193
  383SOL    HW2 2049   4.451   3.396   0.348
  384SOL     OW 2050   0.293   3.819   5.169
  384SOL    HW1 2051   0.361   3.769   5.116
  384SOL    HW2 2052   0.326   3.910   5.190
  385SOL     OW 2053   4.537   2.525   0.652
  385SOL    HW1 2054   4.555   2.613   0.609
  385SOL    HW2 2055   4.468   2.476   0.600
  386SOL     OW 2056   4.259   6.449   5.155
  386SOL    HW1 2057   4.304   6.492   5.233
  386SOL    HW2 2058   4.162   6.475   5.154
  387SOL     OW 2059   3.481   5.986   4.355
  387SOL    HW1 2060   3.545   5.913   4.380
  387SOL    HW2 2061   3.391   5.964   4.393
  388SOL     OW 2062   1.508   5.163   5.960
  388SOL    HW1 2063   1.540   5.100   6.031
  388SOL    HW2 2064   1.534   5.256   5.984
  389SOL     OW 2065   2.739   3.036   1.273
  389SOL    HW1 2066   2.725   2.976   1.194
  389SOL    HW2 2067   2.828   3.082   1.265
  390SOL     OW 2068   2.598   0.703   4.737
  390SOL    HW1 2069   2.563   0.698   4.644
  390SOL    HW2 2070   2.579   0.793   4.775
  391SOL     OW 2071   1.385   2.280   6.825
  391SOL    HW1 2072   1.453   2.227   6.877
  391SOL    HW2 2073   1.355   2.358   6.879
  392SOL     OW 2074   3.341   5.963   4.804
  392SOL    HW1 2075   3.356   5.891   4.872
  392SOL    HW2 2076   3.393   5.943   4.721
  393SOL     OW 2077   5.904   4.133   5.566
  393SOL    HW1 2078   5.866   4.054   5.612
  393SOL    HW2 2079   5.982   4.169   5.618
  394SOL     OW 2080   2.067   1.061   6.447
  394SOL    HW1 2081   2.010   1.005   6.387
  394SOL    HW2 2082   2.154   1.015   6.463
  395SOL     OW 2083   0.117   3.217   0.830
  395SOL    HW1 2084   0.108   3.136   0.888
  395SOL    HW2 2085   0.195   3.205   0.768
  396SOL     OW 2086   3.461   3.152   5.285
  396SOL    HW1 2087   3.418   3.178   5.198
  396SOL    HW2 2088   3.459   3.231   5.347
  397SOL     OW 2089   4.252   1.547   6.870
  397SOL    HW1 2090   4.186   1.552   6.944
  397SOL    HW2 2091   4.266   1.451   6.844
  398SOL     OW 2092   0.818   4.534   2.554
  398SOL    HW1 2093   0.866   4.447   2.560
  398SOL    HW2 2094   0.749   4.541   2.626
  399SOL     OW 2095   4.892   4.708   2.241
  399SOL    HW1 2096   4.890   4.608   2.234
  399SOL    HW2 2097   4.840   4.748   2.165
  400SOL     OW 2098   2.620   4.978   4.420
  400SOL    HW1 2099   2.593   4.905   4.357
  400SOL    HW2 2100   2.630   4.940   4.512
  401SOL     OW 2101   5.792   1.304   0.239
  401SOL    HW1 2102   5.747   1.326   0.326
  401SOL    HW2 2103   5.781   1.207   0.219
  402SOL     OW 2104   6.876   4.657   0.936
  402SOL    HW1 2105   6.934   4.716   0.992
  402SOL    HW2 2106   6.895   4.673   0.839
  403SOL     OW 2107   5.000   4.693   0.970
  403SOL    HW1 2108   5.052   4.752   0.908
  403SOL    HW2 2109   4.940   4.748   1.027
  404SOL     OW 2110   0.830   6.546   4.549
  404SOL    HW1 2111   0.835   6.645   4.541
  404SOL    HW2 2112   0.880   6.504   4.473
  405SOL     OW 2113   0.964   2.728   1.527
  405SOL    HW1 2114   0.888   2.773   1.574
  405SOL    HW2 2115   1.014   2.670   1.592
  406SOL     OW 2116   0.891   2.134   3.291
  406SOL    HW1 2117   0.930   2.046   3.263
  406SOL    HW2 2118   0.924   2.157   3.383
  407SOL     OW 2119   3.087   1.740   3.859
  407SOL    HW1 2120   3.150   1.817   3.851
  407SOL    HW2 2121   3.020   1.744   3.785
  408SOL     OW 2122   2.450   0.583   3.967
  408SOL    HW1 2123   2.527   0.547   4.019
  408SOL    HW2 2124   2.401   0.650   4.023
  409SOL     OW 2125   6.886   3.307   4.418
  409SOL    HW1 2126   6.922   3.391   4.379
  409SOL    HW2 2127   6.934   3.229   4.378
  410SOL     OW 2128   3.065   6.905   6.331
  410SOL    HW1 2129   3.134   6.952   6.385
  410SOL    HW2 2130   2.984   6.963   6.323
  411SOL     OW 2131   0.767   3.291   4.745
  411SOL    HW1 2132   0.775   3.386   4.715
  411SOL    HW2 2133   0.698   3.244   4.690
  412SOL     OW 2134   4.393   0.018   2.422
  412SOL    HW1 2135   4.388   0.117   2.433
  412SOL    HW2 2136   4.472   7.006   2.473
  413SOL     OW 2137   2.373   0.224   2.702
  413SOL    HW1 2138   2.310   0.175   2.761
  413SOL    HW2 2139   2.434   0.280   2.758
  414SOL     OW 2140   4.806   4.382   0.916
  414SOL    HW1 2141   4.833   4.365   0.821
  414SOL    HW2 2142   4.756   4.469   0.921
  415SOL     OW 2143   3.795   6.704   2.389
  415SOL    HW1 2144   3.836   6.713   2.479
  415SOL    HW2 2145   3.792   6.793   2.343
  416SOL     OW 2146   3.414   5.610   0.070
  416SOL    HW1 2147   3.499   5.558   0.078
  416SOL    HW2 2148   3.403   5.641   6.998
  417SOL     OW 2149   5.256   4.946   1.546
  417SOL    HW1 2150   5.309   4.874   1.502
  417SOL    HW2 2151   5.216   5.005   1.475
  418SOL     OW 2152   6.320   5.382   0.040
  418SOL    HW1 2153   6.306   5.365   6.966
  418SOL    HW2 2154   6.396   5.326   0.073
  419SOL     OW 2155   5.517   6.146   0.939
  419SOL    HW1 2156   5.512   6.127   0.841
  419SOL    HW2 2157   5.463   6.079   0.989
  420SOL     OW 2158   5.122   4.209   0.046
  420SOL    HW1 2159   5.101   4.275   6.996
  420SOL    HW2 2160   5.163   4.128   0.006
  421SOL     OW 2161   1.365   6.509   6.537
  421SOL    HW1 2162   1.397   6.578   6.602
  421SOL    HW2 2163   1.291   6.456   6.579
  422SOL     OW 2164   5.309   4.678   6.660
  422SOL    HW1 2165   5.299   4.578   6.654
  422SOL    HW2 2166   5.218   4.720   6.662
  423SOL     OW 2167   1.134   3.044   5.846
  423SOL    HW1 2168   1.116   3.137   5.814
  423SOL    HW2 2169   1.221   3.012   5.808
  424SOL     OW 2170   2.123   3.839   0.012
  424SOL    HW1 2171   2.066   3.770   6.989
  424SOL    HW2 2172   2.141   3.914   6.971
  425SOL     OW 2173   3.085   6.723   0.000
  425SOL    HW1 2174   3.007   6.727   6.960
  425SOL    HW2 2175   3.052   6.695   0.091
  426SOL     OW 2176   6.208   4.081   6.239
  426SOL    HW1 2177   6.190   4.028   6.156
  426SOL    HW2 2178   6.244   4.171   6.214
  427SOL     OW 2179   4.820   3.332   0.352
  427SOL    HW1 2180   4.834   3.420   0.397
  427SOL    HW2 2181   4.896   3.271   0.374
  428SOL     OW 2182   3.482   1.982   5.884
  428SOL    HW1 2183   3.535   2.046   5.829
  428SOL    HW2 2184   3.504   1.888   5.856
  429SOL     OW 2185   2.990   5.894   0.326
  429SOL    HW1 2186   2.997   5.954   0.405
  429SOL    HW2 2187   3.055   5.925   0.256
  430SOL     OW 2188   2.712   0.137   4.437
  430SOL    HW1 2189   2.637   0.203   4.441
  430SOL    HW2 2190   2.682   0.055   4.387
  431SOL     OW 2191   3.155   1.505   6.810
  431SOL    HW1 2192   3.238   1.516   6.755
  431SOL    HW2 2193   3.137   1.408   6.824
  432SOL     OW 2194   6.727   1.614   0.901
  432SOL    HW1 2195   6.706   1.556   0.980
  432SOL    HW2 2196   6.650   1.675   0.883
  433SOL     OW 2197   2.877   6.095   4.805
  433SOL    HW1 2198   2.942   6.170   4.798
  433SOL    HW2 2199   2.922   6.010   4.777
  434SOL     OW 2200   6.340   3.487   1.168
  434SOL    HW1 2201   6.365   3.431   1.246
  434SOL    HW2 2202   6.329   3.582   1.196
  435SOL     OW 2203   4.180   3.248   1.041
  435SOL    HW1 2204   4.261   3.213   1.087
  435SOL    HW2 2205   4.126   3.171   1.006
  436SOL     OW 2206   2.549   0.405   0.216
  436SOL    HW1 2207   2.612   0.372   0.146
  436SOL    HW2 2208   2.572   0.361   0.303
  437SOL     OW 2209   6.692   0.314   5.646
  437SOL    HW1 2210   6.743   0.240   5.602
  437SOL    HW2 2211   6.624   0.275   5.709
  438SOL     OW 2212   1.966   3.158   1.416
  438SOL    HW1 2213   1.930   3.192   1.503
  438SOL    HW2 2214   2.066   3.163   1.418
  439SOL     OW 2215   6.299   4.272   2.326
  439SOL    HW1 2216   6.241   4.206   2.279
  439SOL    HW2 2217   6.371   4.303   2.264
  440SOL     OW 2218   1.509   3.049   3.029
  440SOL    HW1 2219   1.426   3.105   3.032
  440SOL    HW2 2220   1.497   2.970   3.089
  441SOL     OW 2221   0.861   1.020   3.048
  441SOL    HW1 2222   0.937   0.956   3.043
  441SOL    HW2 2223   0.853   1.056   3.141
  442SOL     OW 2224   0.017   4.719   6.721
  442SOL    HW1 2225   0.024   4.725   6.622
  442SOL    HW2 2226   6.990   4.799   6.755
  443SOL     OW 2227   1.152   4.474   5.291
  443SOL    HW1 2228   1.144   4.564   5.333
  443SOL    HW2 2229   1.062   4.438   5.269
  444SOL     OW 2230   4.937   3.363   6.533
  444SOL    HW1 2231   5.009   3.373   6.464
  444SOL    HW2 2232   4.976   3.373   6.624
  445SOL     OW 2233   1.674   4.653   2.891
  445SOL    HW1 2234   1.756   4.596   2.901
  445SOL    HW2 2235   1.680   4.706   2.806
  446SOL     OW 2236   3.639   5.100   4.046
  446SOL    HW1 2237   3.578   5.163   3.998
  446SOL    HW2 2238   3.715   5.075   3.985
  447SOL     OW 2239   0.414   5.941   0.310
  447SOL    HW1 2240   0.504   5.936   0.352
  447SOL    HW2 2241   0.372   5.850   0.307
  448SOL     OW 2242   4.641   0.783   6.154
  448SOL    HW1 2243   4.595   0.829   6.077
  448SOL    HW2 2244   4.715   0.726   6.118
  449SOL     OW 2245   5.827   6.662   4.224
  449SOL    HW1 2246   5.775   6.625   4.147
  449SOL    HW2 2247   5.768   6.667   4.304
  450SOL     OW 2248   6.982   5.813   3.628
  450SOL    HW1 2249   0.017   5.732   3.619
  450SOL    HW2 2250   6.886   5.785   3.638
  451SOL     OW 2251   6.058   2.494   3.867
  451SOL    HW1 2252   6.133   2.435   3.895
  451SOL    HW2 2253   5.974   2.439   3.858
  452SOL     OW 2254   6.576   5.221   6.398
  452SOL    HW1 2255   6.524   5.237   6.314
  452SOL    HW2 2256   6.596   5.123   6.407
  453SOL     OW 2257   2.970   0.819   5.598
  453SOL    HW1 2258   2.956   0.812   5.500
  453SOL    HW2 2259   3.031   0.895   5.618
  454SOL     OW 2260   0.990   6.301   0.320
  454SOL    HW1 2261   0.935   6.379   0.351
  454SOL    HW2 2262   1.070   6.292   0.379
  455SOL     OW 2263   4.651   0.636   5.258
  455SOL    HW1 2264   4.567   0.584   5.241
  455SOL    HW2 2265   4.650   0.670   5.352
  456SOL     OW 2266   4.771   5.494   6.769
  456SOL    HW1 2267   4.859   5.539   6.778
  456SOL    HW2 2268   4.776   5.425   6.696
  457SOL     OW 2269   0.844   4.692   1.737
  457SOL    HW1 2270   0.830   4.747   1.655
  457SOL    HW2 2271   0.927   4.637   1.727
  458SOL     OW 2272   6.538   6.479   5.924
  458SOL    HW1 2273   6.447   6.497   5.961
  458SOL    HW2 2274   6.587   6.418   5.986
  459SOL     OW 2275   1.585   0.407   3.733
  459SOL    HW1 2276   1.614   0.468   3.806
  459SOL    HW2 2277   1.497   0.437   3.697
  460SOL     OW 2278   6.767   1.523   3.760
  460SOL    HW1 2279   6.817   1.494   3.842
  460SOL    HW2 2280   6.671   1.540   3.783
  461SOL     OW 2281   5.138   6.063   5.391
  461SOL    HW1 2282   5.234   6.035   5.384
  461SOL    HW2 2283   5.116   6.125   5.316
  462SOL     OW 2284   3.228   2.699   7.019
  462SOL    HW1 2285   3.252   2.631   6.950
  462SOL    HW2 2286   3.131   2.692   0.018
  463SOL     OW 2287   0.104   5.895   1.591
  463SOL    HW1 2288   0.090   5.878   1.689
  463SOL    HW2 2289   0.077   5.990   1.570
  464SOL     OW 2290   2.066   1.356   5.685
  464SOL    HW1 2291   2.164   1.373   5.692
  464SOL    HW2 2292   2.048   1.259   5.701
  465SOL     OW 2293   0.097   3.157   5.396
  465SOL    HW1 2294   0.029   3.160   5.323
  465SOL    HW2 2295   0.104   3.064   5.432
  466SOL     OW 2296   2.674   0.612   3.093
  466SOL    HW1 2297   2.728   0.682   3.140
  466SOL    HW2 2298   2.577   0.628   3.112
  467SOL     OW 2299   1.714   1.598   5.115
  467SOL    HW1 2300   1.642   1.529   5.114
  467SOL    HW2 2301   1.697   1.666   5.043
  468SOL     OW 2302   3.317   4.175   1.702
  468SOL    HW1 2303   3.361   4.262   1.677
  468SOL    HW2 2304   3.230   4.167   1.654
  469SOL     OW 2305   2.860   4.587   6.907
  469SOL    HW1 2306   2.950   4.593   6.865
  469SOL    HW2 2307   2.870   4.567   7.005
  470SOL     OW 2308   3.941   0.363   2.810
  470SOL    HW1 2309   3.937   0.383   2.908
  470SOL    HW2 2310   3.986   0.439   2.763
  471SOL     OW 2311   2.973   1.780   4.883
  471SOL    HW1 2312   3.029   1.715   4.832
  471SOL    HW2 2313   2.910   1.731   4.943
  472SOL     OW 2314   4.308   4.385   5.386
  472SOL    HW1 2315   4.345   4.440   5.460
  472SOL    HW2 2316   4.333   4.425   5.298
  473SOL     OW 2317   1.034   4.180   3.727
  473SOL    HW1 2318   1.033   4.091   3.773
  473SOL    HW2 2319   1.000   4.251   3.790
  474SOL     OW 2320   4.702   4.636   4.679
  474SOL    HW1 2321   4.649   4.702   4.625
  474SOL    HW2 2322   4.780   4.682   4.720
  475SOL     OW 2323   1.079   7.000   6.507
  475SOL    HW1 2324   1.168   0.022   6.507
  475SOL    HW2 2325   1.089   6.904   6.480
  476SOL     OW 2326   0.249   5.213   2.276
  476SOL    HW1 2327   0.172   5.180   2.221
  476SOL    HW2 2328   0.314   5.139   2.290
  477SOL     OW 2329   1.765   5.569   4.025
  477SOL    HW1 2330   1.835   5.508   3.988
  477SOL    HW2 2331   1.675   5.536   3.998
  478SOL     OW 2332   1.371   5.186   3.155
  478SOL    HW1 2333   1.365   5.260   3.221
  478SOL    HW2 2334   1.366   5.098   3.203
  479SOL     OW 2335   3.428   1.554   1.228
  479SOL    HW1 2336   3.376   1.520   1.150
  479SOL    HW2 2337   3.375   1.623   1.277
  480SOL     OW 2338   1.421   6.387   2.526
  480SOL    HW1 2339   1.453   6.465   2.472
  480SOL    HW2 2340   1.328   6.406   2.558
  481SOL     OW 2341   2.763   6.794   1.890
  481SOL    HW1 2342   2.743   6.849   1.809
  481SOL    HW2 2343   2.861   6.801   1.912
  482SOL     OW 2344   5.789   5.064   1.751
  482SOL    HW1 2345   5.889   5.065   1.749
  482SOL    HW2 2346   5.753   5.013   1.673
  483SOL     OW 2347   5.864   1.768   0.970
  483SOL    HW1 2348   5.799   1.806   1.035
  483SOL    HW2 2349   5.913   1.842   0.924
  484SOL     OW 2350   6.769   2.799   4.881
  484SOL    HW1 2351   6.676   2.767   4.861
  484SOL    HW2 2352   6.781   2.890   4.842
  485SOL     OW 2353   3.686   5.462   1.937
  485SOL    HW1 2354   3.781   5.478   1.909
  485SOL    HW2 2355   3.662   5.366   1.919
  486SOL     OW 2356   0.526   0.468   6.381
  486SOL    HW1 2357   0.438   0.485   6.427
  486SOL    HW2 2358   0.523   0.505   6.288
  487SOL     OW 2359   6.743   3.005   6.312
  487SOL    HW1 2360   6.774   3.084   6.365
  487SOL    HW2 2361   6.685   2.947   6.369
  488SOL     OW 2362   0.544   3.102   2.243
  488SOL    HW1 2363   0.577   3.118   2.150
  488SOL    HW2 2364   0.518   3.189   2.285
  489SOL     OW 2365   3.302   6.005   5.879
  489SOL    HW1 2366   3.277   6.099   5.899
  489SOL    HW2 2367   3.392   5.985   5.918
  490SOL     OW 2368   5.422   6.120   4.254
  490SOL    HW1 2369   5.409   6.048   4.185
  490SOL    HW2 2370   5.336   6.167   4.270
  491SOL     OW 2371   0.090   2.373   3.119
  491SOL    HW1 2372   0.162   2.304   3.104
  491SOL    HW2 2373   0.013   2.354   3.058
  492SOL     OW 2374   1.720   1.118   4.797
  492SOL    HW1 2375   1.761   1.028   4.780
  492SOL    HW2 2376   1.731   1.141   4.893
  493SOL     OW 2377   6.366   4.119   3.878
  493SOL    HW1 2378   6.300   4.173   3.931
  493SOL    HW2 2379   6.339   4.118   3.782
  494SOL     OW 2380   6.410   1.990   0.129
  494SOL    HW1 2381   6.425   2.038   0.043
  494SOL    HW2 2382   6.399   1.892   0.111
  495SOL     OW 2383   4.226   4.406   0.762
  495SOL    HW1 2384   4.154   4.376   0.700
  495SOL    HW2 2385   4.276   4.482   0.721
  496SOL     OW 2386   6.142   2.815   3.319
  496SOL    HW1 2387   6.135   2.841   3.222
  496SOL    HW2 2388   6.225   2.760   3.332
  497SOL     OW 2389   4.237   0.203   4.285
  497SOL    HW1 2390   4.293   0.234   4.208
  497SOL    HW2 2391   4.271   0.245   4.369
  498SOL     OW 2392   1.182   3.388   2.734
  498SOL    HW1 2393   1.150   3.466   2.681
  498SOL    HW2 2394   1.282   3.380   2.726
  499SOL     OW 2395   3.367   1.355   5.396
  499SOL    HW1 2396   3.357   1.338   5.494
  499SOL    HW2 2397   3.278   1.378   5.357
  500SOL     OW 2398   1.449   4.007   2.705
  500SOL    HW1 2399   1.529   4.058   2.674
  500SOL    HW2 2400   1.459   3.911   2.679
  501SOL     OW 2401   0.989   5.197   6.510
  501SOL    HW1 2402   0.917   5.219   6.445
  501SOL    HW2 2403   0.997   5.098   6.520
  502SOL     OW 2404   3.146   5.234   6.348
  502SOL    HW1 2405   3.062   5.220   6.295
  502SOL    HW2 2406   3.218   5.266   6.287
  503SOL     OW 2407   5.652   5.980   5.193
  503SOL    HW1 2408   5.701   6.027   5.120
  503SOL    HW2 2409   5.589   6.044   5.236
  504SOL     OW 2410   2.162   5.245   4.117
  504SOL    HW1 2411   2.207   5.156   4.111
  504SOL    HW2 2412   2.115   5.253   4.205
  505SOL     OW 2413   4.403   0.008   5.453
  505SOL    HW1 2414   4.470   0.082   5.458
  505SOL    HW2 2415   4.339   0.025   5.378
  506SOL     OW 2416   2.233   3.621   6.667
  506SOL    HW1 2417   2.246   3.720   6.666
  506SOL    HW2 2418   2.302   3.580   6.727
  507SOL     OW 2419   3.515   1.732   4.162
  507SOL    HW1 2420   3.525   1.632   4.158
  507SOL    HW2 2421   3.575   1.774   4.094
  508SOL     OW 2422   6.067   4.518   3.943
  508SOL    HW1 2423   6.062   4.500   4.041
  508SOL    HW2 2424   6.161   4.508   3.912
  509SOL     OW 2425   4.896   2.449   1.640
  509SOL    HW1 2426   4.885   2.540   1.601
  509SOL    HW2 2427   4.942   2.456   1.729
  510SOL     OW 2428   0.400   3.635   4.149
  510SOL    HW1 2429   0.420   3.702   4.221
  510SOL    HW2 2430   0.355   3.555   4.189
  511SOL     OW 2431   0.381   6.363   1.210
  511SOL    HW1 2432   0.351   6.299   1.139
  511SOL    HW2 2433   0.474   6.340   1.238
  512SOL     OW 2434   0.486   3.625   6.519
  512SOL    HW1 2435   0.573   3.583   6.490
  512SOL    HW2 2436   0.412   3.558   6.510
  513SOL     OW 2437   0.305   5.438   4.520
  513SOL    HW1 2438   0.296   5.381   4.601
  513SOL    HW2 2439   0.290   5.383   4.438
  514SOL     OW 2440   6.023   1.483   3.661
  514SOL    HW1 2441   5.924   1.490   3.666
  514SOL    HW2 2442   6.050   1.391   3.633
  515SOL     OW 2443   1.904   6.210   0.212
  515SOL    HW1 2444   1.922   6.264   0.130
  515SOL    HW2 2445   1.937   6.117   0.199
  516SOL     OW 2446   1.082   5.220   2.373
  516SOL    HW1 2447   1.088   5.223   2.472
  516SOL    HW2 2448   1.101   5.310   2.335
  517SOL     OW 2449   4.740   0.390   6.876
  517SOL    HW1 2450   4.794   0.323   6.825
  517SOL    HW2 2451   4.729   0.473   6.821
  518SOL     OW 2452   2.663   1.790   0.468
  518SOL    HW1 2453   2.613   1.756   0.389
  518SOL    HW2 2454   2.682   1.714   0.531
  519SOL     OW 2455   0.498   6.494   0.824
  519SOL    HW1 2456   0.430   6.533   0.887
  519SOL    HW2 2457   0.528   6.565   0.761
  520SOL     OW 2458   6.668   4.274   4.882
  520SOL    HW1 2459   6.624   4.231   4.803
  520SOL    HW2 2460   6.634   4.231   4.966
  521SOL     OW 2461   6.476   0.360   1.019
  521SOL    HW1 2462   6.443   0.425   1.087
  521SOL    HW2 2463   6.432   0.271   1.034
  522SOL     OW 2464   3.503   3.794   5.301
  522SOL    HW1 2465   3.594   3.777   5.261
  522SOL    HW2 2466   3.442   3.719   5.275
  523SOL     OW 2467   6.612   6.619   4.986
  523SOL    HW1 2468   6.568   6.609   4.896
  523SOL    HW2 2469   6.707   6.589   4.980
  524SOL     OW 2470   4.371   1.623   5.933
  524SOL    HW1 2471   4.304   1.659   5.998
  524SOL    HW2 2472   4.464   1.641   5.968
  525SOL     OW 2473   2.762   2.981   6.585
  525SOL    HW1 2474   2.777   3.053   6.652
  525SOL    HW2 2475   2.708   2.907   6.626
  526SOL     OW 2476   4.722   5.869   4.770
  526SOL    HW1 2477   4.724   5.873   4.869
  526SOL    HW2 2478   4.737   5.961   4.733
  527SOL     OW 2479   1.219   2.163   0.093
  527SOL    HW1 2480   1.196   2.066   0.101
  527SOL    HW2 2481   1.151   2.209   0.035
  528SOL     OW 2482   2.074   0.202   5.692
  528SOL    HW1 2483   1.990   0.177   5.742
  528SOL    HW2 2484   2.096   0.298   5.708
  529SOL     OW 2485   6.740   4.294   4.419
  529SOL    HW1 2486   6.821   4.235   4.424
  529SOL    HW2 2487   6.658   4.238   4.411
  530SOL     OW 2488   1.558   2.813   5.047
  530SOL    HW1 2489   1.482   2.757   5.080
  530SOL    HW2 2490   1.640   2.757   5.041
  531SOL     OW 2491   6.917   0.774   0.151
  531SOL    HW1 2492   6.943   0.680   0.129
  531SOL    HW2 2493   6.853   0.808   0.082
  532SOL     OW 2494   1.865   0.226   5.864
  532SOL    HW1 2495   1.780   0.245   5.814
  532SOL    HW2 2496   1.859   0.267   5.955
  533SOL     OW 2497   5.700   0.274   4.564
  533SOL    HW1 2498   5.698   0.348   4.631
  533SOL    HW2 2499   5.794   0.262   4.530
  534SOL     OW 2500   3.727   5.544   2.324
  534SOL    HW1 2501   3.646   5.556   2.266
  534SOL    HW2 2502   3.708   5.578   2.416
  535SOL     OW 2503   6.786   4.173   3.073
  535SOL    HW1 2504   6.879   4.207   3.091
  535SOL    HW2 2505   6.768   4.094   3.131
  536SOL     OW 2506   1.221   5.868   0.685
  536SOL    HW1 2507   1.153   5.901   0.619
  536SOL    HW2 2508   1.179   5.864   0.776
  537SOL     OW 2509   2.241   0.444   3.226
  537SOL    HW1 2510   2.221   0.531   3.270
  537SOL    HW2 2511   2.156   0.402   3.194
  538SOL     OW 2512   1.189   4.323   3.490
  538SOL    HW1 2513   1.278   4.283   3.512
  538SOL    HW2 2514   1.119   4.284   3.549
  539SOL     OW 2515   1.165   5.350   1.385
  539SOL    HW1 2516   1.189   5.287   1.311
  539SOL    HW2 2517   1.076   5.391   1.365
  540SOL     OW 2518   1.320   2.840   1.173
  540SOL    HW1 2519   1.293   2.865   1.080
  540SOL    HW2 2520   1.404   2.788   1.170
  541SOL     OW 2521   3.802   5.079   5.206
  541SOL    HW1 2522   3.764   5.170   5.223
  541SOL    HW2 2523   3.875   5.060   5.271
  542SOL     OW 2524   5.733   6.102   7.000
  542SOL    HW1 2525   5.831   6.105   6.982
  542SOL    HW2 2526   5.696   6.014   6.970
  543SOL     OW 2527   7.007   6.049   7.016
  543SOL    HW1 2528   0.077   6.027   6.988
  543SOL    HW2 2529   7.007   6.086   0.085
  544SOL     OW 2530   1.095   6.039   6.873
  544SOL    HW1 2531   1.029   6.113   6.862
  544SOL    HW2 2532   1.132   6.013   6.784
  545SOL     OW 2533   3.499   1.853   3.674
  545SOL    HW1 2534   3.425   1.840   3.608
  545SOL    HW2 2535   3.573   1.788   3.655
  546SOL     OW 2536   1.247   3.106   6.976
  546SOL    HW1 2537   1.218   3.060   6.893
  546SOL    HW2 2538   1.329   3.160   6.958
  547SOL     OW 2539   2.916   2.407   6.802
  547SOL    HW1 2540   2.987   2.365   6.858
  547SOL    HW2 2541   2.892   2.346   6.726
  548SOL     OW 2542   3.314   3.266   5.089
  548SOL    HW1 2543   3.249   3.317   5.144
  548SOL    HW2 2544   3.298   3.283   4.992
  549SOL     OW 2545   0.994   3.691   1.463
  549SOL    HW1 2546   0.901   3.663   1.438
  549SOL    HW2 2547   1.040   3.727   1.382
  550SOL     OW 2548   6.968   3.813   1.472
  550SOL    HW1 2549   0.031   3.846   1.511
  550SOL    HW2 2550   6.968   3.713   1.470
  551SOL     OW 2551   6.647   1.693   6.380
  551SOL    HW1 2552   6.649   1.762   6.453
  551SOL    HW2 2553   6.696   1.611   6.411
  552SOL     OW 2554   4.709   5.228   0.390
  552SOL    HW1 2555   4.748   5.175   0.465
  552SOL    HW2 2556   4.634   5.285   0.425
  553SOL     OW 2557   1.716   2.151   1.338
  553SOL    HW1 2558   1.813   2.148   1.361
  553SOL    HW2 2559   1.662   2.151   1.422
  554SOL     OW 2560   4.804   5.402   4.809
  554SOL    HW1 2561   4.794   5.410   4.710
  554SOL    HW2 2562   4.781   5.490   4.852
  555SOL     OW 2563   2.009   4.263   4.702
  555SOL    HW1 2564   1.947   4.203   4.753
  555SOL    HW2 2565   1.969   4.284   4.612
  556SOL     OW 2566   6.217   3.430   2.629
  556SOL    HW1 2567   6.218   3.400   2.724
  556SOL    HW2 2568   6.172   3.361   2.573
  557SOL     OW 2569   0.256   5.377   6.740
  557SOL    HW1 2570   0.304   5.292   6.720
  557SOL    HW2 2571   0.214   5.412   6.656
  558SOL     OW 2572   4.293   3.683   5.573
  558SOL    HW1 2573   4.213   3.624   5.558
  558SOL    HW2 2574   4.345   3.691   5.488
  559SOL     OW 2575   6.282   5.597   6.208
  559SOL    HW1 2576   6.361   5.540   6.232
  559SOL    HW2 2577   6.313   5.683   6.167
  560SOL     OW 2578   4.007   6.554   0.156
  560SOL    HW1 2579   3.984   6.622   0.086
  560SOL    HW2 2580   4.105   6.554   0.172
  561SOL     OW 2581   5.415   6.379   1.596
  561SOL    HW1 2582   5.387   6.446   1.665
  561SOL    HW2 2583   5.450   6.427   1.516
  562SOL     OW 2584   6.509   0.766   6.674
  562SOL    HW1 2585   6.584   0.771   6.608
  562SOL    HW2 2586   6.528   0.694   6.741
  563SOL     OW 2587   3.282   0.298   4.694
  563SOL    HW1 2588   3.270   0.229   4.623
  563SOL    HW2 2589   3.207   0.364   4.690
  564SOL     OW 2590   0.349   1.970   6.441
  564SOL    HW1 2591   0.318   2.020   6.361
  564SOL    HW2 2592   0.324   1.874   6.432
  565SOL     OW 2593   4.641   4.434   5.201
  565SOL    HW1 2594   4.635   4.336   5.221
  565SOL    HW2 2595   4.738   4.461   5.195
  566SOL     OW 2596   5.676   5.109   2.413
  566SOL    HW1 2597   5.653   5.019   2.377
  566SOL    HW2 2598   5.619   5.178   2.368
  567SOL     OW 2599   3.941   3.991   4.308
  567SOL    HW1 2600   3.920   3.893   4.309
  567SOL    HW2 2601   3.971   4.019   4.399
  568SOL     OW 2602   1.946   1.276   6.041
  568SOL    HW1 2603   1.973   1.371   6.022
  568SOL    HW2 2604   2.028   1.221   6.056
  569SOL     OW 2605   2.468   3.528   6.815
  569SOL    HW1 2606   2.418   3.503   6.897
  569SOL    HW2 2607   2.551   3.473   6.809
  570SOL     OW 2608   0.427   5.917   0.967
  570SOL    HW1 2609   0.480   5.862   1.032
  570SOL    HW2 2610   0.364   5.858   0.917
  571SOL     OW 2611   4.165   5.368   3.094
  571SOL    HW1 2612   4.247   5.372   3.150
  571SOL    HW2 2613   4.160   5.280   3.047
  572SOL     OW 2614   2.246   4.175   4.514
  572SOL    HW1 2615   2.262   4.174   4.612
  572SOL    HW2 2616   2.164   4.122   4.492
  573SOL     OW 2617   3.745   2.484   6.723
  573SOL    HW1 2618   3.799   2.568   6.719
  573SOL    HW2 2619   3.806   2.406   6.730
  574SOL     OW 2620   2.749   1.347   4.447
  574SOL    HW1 2621   2.719   1.442   4.439
  574SOL    HW2 2622   2.760   1.324   4.543
  575SOL     OW 2623   5.609   2.449   6.273
  575SOL    HW1 2624   5.627   2.352   6.256
  575SOL    HW2 2625   5.515   2.470   6.246
  576SOL     OW 2626   1.010   2.248   2.633
  576SOL    HW1 2627   1.101   2.221   2.665
  576SOL    HW2 2628   1.015   2.338   2.590
  577SOL     OW 2629   3.201   2.112   4.345
  577SOL    HW1 2630   3.103   2.129   4.362
  577SOL    HW2 2631   3.238   2.054   4.417
  578SOL     OW 2632   0.486   3.599   4.741
  578SOL    HW1 2633   0.541   3.535   4.688
  578SOL    HW2 2634   0.390   3.591   4.715
  579SOL     OW 2635   3.898   3.473   0.446
  579SOL    HW1 2636   3.946   3.481   0.533
  579SOL    HW2 2637   3.948   3.524   0.375
  580SOL     OW 2638   0.691   6.066   6.842
  580SOL    HW1 2639   0.673   6.031   6.750
  580SOL    HW2 2640   0.776   6.118   6.843
  581SOL     OW 2641   4.108   3.428   2.655
  581SOL    HW1 2642   4.093   3.526   2.648
  581SOL    HW2 2643   4.167   3.398   2.581
  582SOL     OW 2644   6.530   4.154   1.685
  582SOL    HW1 2645   6.525   4.095   1.604
  582SOL    HW2 2646   6.579   4.238   1.661
  583SOL     OW 2647   2.461   5.784   6.794
  583SOL    HW1 2648   2.498   5.852   6.857
  583SOL    HW2 2649   2.493   5.693   6.820
  584SOL     OW 2650   0.942   5.451   5.072
  584SOL    HW1 2651   0.858   5.456   5.127
  584SOL    HW2 2652   1.020   5.435   5.132
  585SOL     OW 2653   5.952   1.209   5.866
  585SOL    HW1 2654   5.867   1.159   5.882
  585SOL    HW2 2655   6.024   1.145   5.840
  586SOL     OW 2656   2.433   5.955   1.188
  586SOL    HW1 2657   2.444   6.023   1.116
  586SOL    HW2 2658   2.460   5.865   1.154
  587SOL     OW 2659   1.189   3.545   6.030
  587SOL    HW1 2660   1.258   3.473   6.023
  587SOL    HW2 2661   1.129   3.542   5.951
  588SOL     OW 2662   2.089   7.018   1.636
  588SOL    HW1 2663   2.153   6.972   1.574
  588SOL    HW2 2664   1.995   7.000   1.608
  589SOL     OW 2665   4.758   5.281   2.405
  589SOL    HW1 2666   4.781   5.318   2.495
  589SOL    HW2 2667   4.668   5.314   2.378
  590SOL     OW 2668   6.747   2.409   1.835
  590SOL    HW1 2669   6.749   2.507   1.817
  590SOL    HW2 2670   6.771   2.359   1.752
  591SOL     OW 2671   2.902   6.613   3.114
  591SOL    HW1 2672   2.978   6.563   3.154
  591SOL    HW2 2673   2.853   6.554   3.050
  592SOL     OW 2674   5.675   0.440   6.759
  592SOL    HW1 2675   5.656   0.344   6.782
  592SOL    HW2 2676   5.656   0.497   6.839
  593SOL     OW 2677   6.215   1.562   4.708
  593SOL    HW1 2678   6.267   1.490   4.662
  593SOL    HW2 2679   6.214   1.545   4.806
  594SOL     OW 2680   5.307   3.010   1.724
  594SOL    HW1 2681   5.239   3.070   1.768
  594SOL    HW2 2682   5.260   2.947   1.663
  595SOL     OW 2683   4.569   6.971   3.997
  595SOL    HW1 2684   4.496   6.919   4.041
  595SOL    HW2 2685   4.650   6.971   4.056
  596SOL     OW 2686   0.914   4.041   2.500
  596SOL    HW1 2687   0.893   3.967   2.564
  596SOL    HW2 2688   0.969   4.005   2.425
  597SOL     OW 2689   4.347   2.400   6.020
  597SOL    HW1 2690   4.396   2.423   6.104
  597SOL    HW2 2691   4.318   2.304   6.023
  598SOL     OW 2692   3.168   4.101   1.233
  598SOL    HW1 2693   3.090   4.162   1.223
  598SOL    HW2 2694   3.209   4.113   1.324
  599SOL     OW 2695   6.888   6.298   3.425
  599SOL    HW1 2696   6.986   6.300   3.409
  599SOL    HW2 2697   6.858   6.203   3.435
  600SOL     OW 2698   2.623   1.618   1.416
  600SOL    HW1 2699   2.624   1.545   1.484
  600SOL    HW2 2700   2.717   1.636   1.385
  601SOL     OW 2701   2.350   5.084   3.178
  601SOL    HW1 2702   2.398   4.997   3.163
  601SOL    HW2 2703   2.268   5.087   3.120
  602SOL     OW 2704   6.943   0.548   1.819
  602SOL    HW1 2705   6.873   0.583   1.883
  602SOL    HW2 2706   0.001   0.522   1.871
  603SOL     OW 2707   3.658   1.681   3.261
  603SOL    HW1 2708   3.682   1.602   3.205
  603SOL    HW2 2709   3.575   1.661   3.313
  604SOL     OW 2710   0.896   4.188   5.653
  604SOL    HW1 2711   0.827   4.148   5.713
  604SOL    HW2 2712   0.853   4.247   5.585
  605SOL     OW 2713   5.940   6.984   4.873
  605SOL    HW1 2714   5.923   6.961   4.778
  605SOL    HW2 2715   6.003   0.038   4.879
  606SOL     OW 2716   3.427   0.077   2.637
  606SOL    HW1 2717   3.338   0.060   2.595
  606SOL    HW2 2718   3.434   0.173   2.664
  607SOL     OW 2719   4.185   0.649   4.054
  607SOL    HW1 2720   4.137   0.735   4.037
  607SOL    HW2 2721   4.225   0.651   4.146
  608SOL     OW 2722   5.335   1.934   1.910
  608SOL    HW1 2723   5.391   1.920   1.992
  608SOL    HW2 2724   5.267   1.860   1.904
  609SOL     OW 2725   2.939   3.443   4.641
  609SOL    HW1 2726   2.968   3.515   4.705
  609SOL    HW2 2727   2.937   3.355   4.688
  610SOL     OW 2728   5.916   1.530   4.670
  610SOL    HW1 2729   6.000   1.561   4.714
  610SOL    HW2 2730   5.933   1.512   4.573
  611SOL     OW 2731   6.267   6.971   0.305
  611SOL    HW1 2732   6.315   7.019   0.232
  611SOL    HW2 2733   6.192   0.005   0.339
  612SOL     OW 2734   2.326   5.241   5.690
  612SOL    HW1 2735   2.277   5.268   5.607
  612SOL    HW2 2736   2.267   5.256   5.769
  613SOL     OW 2737   3.723   1.773   6.899
  613SOL    HW1 2738   3.652   1.805   6.962
  613SOL    HW2 2739   3.706   1.678   6.876
  614SOL     OW 2740   5.474   3.291   1.403
  614SOL    HW1 2741   5.552   3.312   1.462
  614SOL    HW2 2742   5.493   3.209   1.351
  615SOL     OW 2743   5.163   6.732   0.606
  615SOL    HW1 2744   5.082   6.698   0.558
  615SOL    HW2 2745   5.209   6.800   0.549
  616SOL     OW 2746   5.450   0.444   4.735
  616SOL    HW1 2747   5.455   0.460   4.834
  616SOL    HW2 2748   5.501   0.516   4.687
  617SOL     OW 2749   0.272   6.199   5.627
  617SOL    HW1 2750   0.192   6.185   5.568
  617SOL    HW2 2751   0.342   6.131   5.606
  618SOL     OW 2752   5.755   4.682   0.397
  618SOL    HW1 2753   5.854   4.675   0.387
  618SOL    HW2 2754   5.711   4.609   0.345
  619SOL     OW 2755   2.574   6.531   5.888
  619SOL    HW1 2756   2.624   6.515   5.972
  619SOL    HW2 2757   2.514   6.610   5.900
  620SOL     OW 2758   4.679   1.845   2.101
  620SOL    HW1 2759   4.581   1.834   2.117
  620SOL    HW2 2760   4.703   1.807   2.011
  621SOL     OW 2761   2.893   0.386   6.606
  621SOL    HW1 2762   2.944   0.316   6.556
  621SOL    HW2 2763   2.932   0.395   6.698
  622SOL     OW 2764   0.264   3.542   5.519
  622SOL    HW1 2765   0.266   3.458   5.465
  622SOL    HW2 2766   0.344   3.545   5.579
  623SOL     OW 2767   6.689   0.280   3.162
  623SOL    HW1 2768   6.765   0.268   3.099
  623SOL    HW2 2769   6.725   0.294   3.255
  624SOL     OW 2770   6.674   1.670   5.825
  624SOL    HW1 2771   6.760   1.721   5.837
  624SOL    HW2 2772   6.649   1.628   5.912
  625SOL     OW 2773   3.744   1.005   1.199
  625SOL    HW1 2774   3.669   0.964   1.251
  625SOL    HW2 2775   3.727   1.103   1.187
  626SOL     OW 2776   0.490   6.306   3.502
  626SOL    HW1 2777   0.562   6.319   3.433
  626SOL    HW2 2778   0.484   6.387   3.560
  627SOL     OW 2779   6.434   5.693   0.460
  627SOL    HW1 2780   6.459   5.776   0.410
  627SOL    HW2 2781   6.413   5.619   0.396
  628SOL     OW 2782   3.583   4.964   6.164
  628SOL    HW1 2783   3.590   4.998   6.070
  628SOL    HW2 2784   3.490   4.931   6.181
  629SOL     OW 2785   1.209   6.780   6.884
  629SOL    HW1 2786   1.234   6.781   6.981
  629SOL    HW2 2787   1.218   6.873   6.846
  630SOL     OW 2788   6.933   1.779   1.112
  630SOL    HW1 2789   6.958   1.830   1.029
  630SOL    HW2 2790   6.962   1.684   1.103
  631SOL     OW 2791   1.618   2.951   3.530
  631SOL    HW1 2792   1.655   2.999   3.610
  631SOL    HW2 2793   1.618   2.853   3.547
  632SOL     OW 2794   3.009   4.125   0.942
  632SOL    HW1 2795   2.993   4.028   0.957
  632SOL    HW2 2796   3.009   4.173   1.029
  633SOL     OW 2797   1.542   5.818   0.566
  633SOL    HW1 2798   1.594   5.825   0.481
  633SOL    HW2 2799   1.450   5.856   0.553
  634SOL     OW 2800   2.877   3.293   4.995
  634SOL    HW1 2801   2.901   3.306   5.091
  634SOL    HW2 2802   2.793   3.239   4.989
  635SOL     OW 2803   5.615   6.967   6.209
  635SOL    HW1 2804   5.706   6.980   6.247
  635SOL    HW2 2805   5.546   6.993   6.277
  636SOL     OW 2806   2.890   0.830   4.962
  636SOL    HW1 2807   2.815   0.775   4.997
  636SOL    HW2 2808   2.977   0.783   4.978
  637SOL     OW 2809   0.127   1.425   2.869
  637SOL    HW1 2810   0.167   1.373   2.794
  637SOL    HW2 2811   0.098   1.362   2.941
  638SOL     OW 2812   6.897   3.183   5.238
  638SOL    HW1 2813   6.873   3.089   5.262
  638SOL    HW2 2814   6.853   3.208   5.152
  639SOL     OW 2815   5.888   3.890   2.037
  639SOL    HW1 2816   5.802   3.932   2.010
  639SOL    HW2 2817   5.895   3.889   2.136
  640SOL     OW 2818   0.243   3.049   2.440
  640SOL    HW1 2819   0.289   3.032   2.353
  640SOL    HW2 2820   0.176   2.977   2.456
  641SOL     OW 2821   2.495   5.271   4.575
  641SOL    HW1 2822   2.464   5.267   4.480
  641SOL    HW2 2823   2.567   5.203   4.590
  642SOL     OW 2824   0.365   5.273   4.728
  642SOL    HW1 2825   0.459   5.271   4.694
  642SOL    HW2 2826   0.340   5.182   4.761
  643SOL     OW 2827   4.444   5.494   0.753
  643SOL    HW1 2828   4.355   5.449   0.746
  643SOL    HW2 2829   4.457   5.556   0.676
  644SOL     OW 2830   6.674   6.137   5.296
  644SOL    HW1 2831   6.596   6.075   5.287
  644SOL    HW2 2832   6.707   6.163   5.205
  645SOL     OW 2833   4.334   5.652   2.543
  645SOL    HW1 2834   4.320   5.745   2.509
  645SOL    HW2 2835   4.413   5.649   2.604
  646SOL     OW 2836   3.695   1.876   4.727
  646SOL    HW1 2837   3.704   1.949   4.794
  646SOL    HW2 2838   3.603   1.877   4.688
  647SOL     OW 2839   3.545   2.507   6.905
  647SOL    HW1 2840   3.608   2.492   6.828
  647SOL    HW2 2841   3.558   2.599   6.942
  648SOL     OW 2842   6.089   1.321   3.952
  648SOL    HW1 2843   6.121   1.239   3.904
  648SOL    HW2 2844   6.142   1.400   3.920
  649SOL     OW 2845   2.647   5.656   0.643
  649SOL    HW1 2846   2.733   5.667   0.594
  649SOL    HW2 2847   2.634   5.560   0.666
  650SOL     OW 2848   0.628   3.197   0.839
  650SOL    HW1 2849   0.622   3.278   0.781
  650SOL    HW2 2850   0.724   3.175   0.856
  651SOL     OW 2851   0.142   0.460   3.722
  651SOL    HW1 2852   0.177   0.377   3.764
  651SOL    HW2 2853   0.159   0.538   3.782
  652SOL     OW 2854   4.218   5.424   1.212
  652SOL    HW1 2855   4.211   5.352   1.281
  652SOL    HW2 2856   4.314   5.448   1.199
  653SOL     OW 2857   1.494   6.601   2.371
  653SOL    HW1 2858   1.585   6.600   2.330
  653SOL    HW2 2859   1.427   6.631   2.303
  654SOL     OW 2860   0.831   0.037   5.346
  654SOL    HW1 2861   0.901   0.107   5.358
  654SOL    HW2 2862   0.744   0.069   5.384
  655SOL     OW 2863   1.008   3.394   1.277
  655SOL    HW1 2864   1.081   3.461   1.290
  655SOL    HW2 2865   0.946   3.397   1.355
  656SOL     OW 2866   2.834   6.398   6.655
  656SOL    HW1 2867   2.802   6.344   6.578
  656SOL    HW2 2868   2.929   6.375   6.675
  657SOL     OW 2869   3.807   3.278   3.323
  657SOL    HW1 2870   3.798   3.184   3.356
  657SOL    HW2 2871   3.901   3.308   3.332
  658SOL     OW 2872   1.310   1.133   4.124
  658SOL    HW1 2873   1.228   1.075   4.121
  658SOL    HW2 2874   1.378   1.091   4.184
  659SOL     OW 2875   1.604   5.506   6.402
  659SOL    HW1 2876   1.686   5.502   6.459
  659SOL    HW2 2877   1.602   5.427   6.340
  660SOL     OW 2878   5.868   4.595   2.861
  660SOL    HW1 2879   5.955   4.606   2.814
  660SOL    HW2 2880   5.877   4.529   2.935
  661SOL     OW 2881   4.344   4.868   3.890
  661SOL    HW1 2882   4.337   4.805   3.967
  661SOL    HW2 2883   4.267   4.853   3.828
  662SOL     OW 2884   5.071   3.870   0.030
  662SOL    HW1 2885   5.027   3.784   0.055
  662SOL    HW2 2886   5.170   3.860   0.038
  663SOL     OW 2887   0.092   4.557   6.976
  663SOL    HW1 2888   0.125   4.465   7.000
  663SOL    HW2 2889   0.085   4.564   6.876
  664SOL     OW 2890   1.391   6.847   6.327
  664SOL    HW1 2891   1.371   6.934   6.281
  664SOL    HW2 2892   1.438   6.786   6.264
  665SOL     OW 2893   2.732   4.795   2.769
  665SOL    HW1 2894   2.695   4.863   2.707
  665SOL    HW2 2895   2.831   4.804   2.774
  666SOL     OW 2896   3.192   1.210   6.876
  666SOL    HW1 2897   3.174   1.126   6.926
  666SOL    HW2 2898   3.278   1.202   6.826
  667SOL     OW 2899   1.717   3.305   2.388
  667SOL    HW1 2900   1.626   3.332   2.355
  667SOL    HW2 2901   1.730   3.207   2.375
  668SOL     OW 2902   4.884   0.245   1.094
  668SOL    HW1 2903   4.851   0.166   1.041
  668SOL    HW2 2904   4.883   0.326   1.037
  669SOL     OW 2905   0.714   5.720   2.746
  669SOL    HW1 2906   0.644   5.655   2.776
  669SOL    HW2 2907   0.691   5.753   2.655
  670SOL     OW 2908   3.853   3.476   2.919
  670SOL    HW1 2909   3.910   3.548   2.960
  670SOL    HW2 2910   3.908   3.424   2.853
  671SOL     OW 2911   1.470   0.729   6.448
  671SOL    HW1 2912   1.499   0.822   6.472
  671SOL    HW2 2913   1.383   0.709   6.495
  672SOL     OW 2914   0.764   2.282   3.110
  672SOL    HW1 2915   0.826   2.274   3.032
  672SOL    HW2 2916   0.806   2.242   3.191
  673SOL     OW 2917   5.000   0.262   0.305
  673SOL    HW1 2918   4.927   0.323   0.277
  673SOL    HW2 2919   5.048   0.227   0.225
  674SOL     OW 2920   0.211   2.272   4.705
  674SOL    HW1 2921   0.256   2.245   4.620
  674SOL    HW2 2922   0.121   2.229   4.710
  675SOL     OW 2923   6.291   6.430   3.750
  675SOL    HW1 2924   6.266   6.505   3.812
  675SOL    HW2 2925   6.389   6.431   3.735
  676SOL     OW 2926   2.938   5.665   4.287
  676SOL    HW1 2927   2.962   5.748   4.238
  676SOL    HW2 2928   2.840   5.666   4.309
  677SOL     OW 2929   4.253   6.680   0.744
  677SOL    HW1 2930   4.232   6.682   0.842
  677SOL    HW2 2931   4.222   6.765   0.702
  678SOL     OW 2932   2.397   1.132   5.241
  678SOL    HW1 2933   2.480   1.149   5.187
  678SOL    HW2 2934   2.416   1.065   5.312
  679SOL     OW 2935   6.002   0.952   2.151
  679SOL    HW1 2936   6.080   0.936   2.211
  679SOL    HW2 2937   6.013   0.899   2.067
  680SOL     OW 2938   5.600   4.357   4.510
  680SOL    HW1 2939   5.592   4.340   4.608
  680SOL    HW2 2940   5.571   4.275   4.459
  681SOL     OW 2941   1.121   6.422   1.939
  681SOL    HW1 2942   1.158   6.501   1.891
  681SOL    HW2 2943   1.061   6.453   2.013
  682SOL     OW 2944   0.268   0.307   6.146
  682SOL    HW1 2945   0.243   0.339   6.055
  682SOL    HW2 2946   0.202   0.340   6.213
  683SOL     OW 2947   4.841   1.633   1.072
  683SOL    HW1 2948   4.780   1.554   1.064
  683SOL    HW2 2949   4.873   1.641   1.167
  684SOL     OW 2950   0.284   5.962   6.396
  684SOL    HW1 2951   0.347   5.911   6.454
  684SOL    HW2 2952   0.311   6.058   6.394
  685SOL     OW 2953   6.302   0.559   6.516
  685SOL    HW1 2954   6.376   0.505   6.556
  685SOL    HW2 2955   6.304   0.551   6.417
  686SOL     OW 2956   6.207   5.039   2.906
  686SOL    HW1 2957   6.149   5.009   2.982
  686SOL    HW2 2958   6.260   4.962   2.872
  687SOL     OW 2959   5.736   2.050   5.314
  687SOL    HW1 2960   5.775   2.007   5.396
  687SOL    HW2 2961   5.805   2.106   5.270
  688SOL     OW 2962   6.766   3.618   5.138
  688SOL    HW1 2963   6.708   3.538   5.156
  688SOL    HW2 2964   6.859   3.600   5.171
  689SOL     OW 2965   5.634   4.387   4.787
  689SOL    HW1 2966   5.617   4.348   4.877
  689SOL    HW2 2967   5.733   4.394   4.771
  690SOL     OW 2968   0.089   3.216   3.847
  690SOL    HW1 2969   7.016   3.194   3.827
  690SOL    HW2 2970   0.112   3.304   3.806
  691SOL     OW 2971   0.228   3.261   6.658
  691SOL    HW1 2972   0.183   3.174   6.640
  691SOL    HW2 2973   0.172   3.316   6.720
  692SOL     OW 2974   2.697   0.158   3.187
  692SOL    HW1 2975   2.721   0.245   3.145
  692SOL    HW2 2976   2.668   0.172   3.281
  693SOL     OW 2977   6.250   1.270   3.020
  693SOL    HW1 2978   6.285   1.232   2.934
  693SOL    HW2 2979   6.203   1.356   3.002
  694SOL     OW 2980   1.448   0.383   2.212
  694SOL    HW1 2981   1.500   0.413   2.132
  694SOL    HW2 2982   1.511   0.354   2.284
  695SOL     OW 2983   4.917   5.633   6.504
  695SOL    HW1 2984   4.817   5.638   6.500
  695SOL    HW2 2985   4.955   5.725   6.503
  696SOL     OW 2986   5.173   6.778   2.590
  696SOL    HW1 2987   5.082   6.791   2.630
  696SOL    HW2 2988   5.230   6.725   2.653
  697SOL     OW 2989   1.493   4.038   3.846
  697SOL    HW1 2990   1.453   4.076   3.930
  697SOL    HW2 2991   1.427   4.047   3.772
  698SOL     OW 2992   5.609   5.905   3.986
  698SOL    HW1 2993   5.701   5.895   4.023
  698SOL    HW2 2994   5.610   5.890   3.887
  699SOL     OW 2995   0.900   4.358   6.393
  699SOL    HW1 2996   0.970   4.287   6.391
  699SOL    HW2 2997   0.838   4.342   6.470
  700SOL     OW 2998   2.179   1.833   4.511
  700SOL    HW1 2999   2.132   1.918   4.532
  700SOL    HW2 3000   2.122   1.777   4.450
  701SOL     OW 3001   1.037   4.895   5.807
  701SOL    HW1 3002   1.099   4.829   5.765
  701SOL    HW2 3003   1.040   4.885   5.907
  702SOL     OW 3004   5.374   5.755   4.837
  702SOL    HW1 3005   5.420   5.810   4.768
  702SOL    HW2 3006   5.430   5.749   4.919
  703SOL     OW 3007   4.831   4.148   6.279
  703SOL    HW1 3008   4.814   4.188   6.189
  703SOL    HW2 3009   4.745   4.135   6.327
  704SOL     OW 3010   2.289   0.211   1.713
  704SOL    HW1 3011   2.336   0.283   1.661
  704SOL    HW2 3012   2.236   0.155   1.650
  705SOL     OW 3013   0.031   1.981   3.706
  705SOL    HW1 3014   6.996   2.035   3.645
  705SOL    HW2 3015   7.021   1.886   3.707
  706SOL     OW 3016   4.975   2.726   4.136
  706SOL    HW1 3017   4.986   2.816   4.178
  706SOL    HW2 3018   5.005   2.730   4.040
  707SOL     OW 3019   4.824   1.785   2.601
  707SOL    HW1 3020   4.914   1.770   2.642
  707SOL    HW2 3021   4.835   1.807   2.504
  708SOL     OW 3022   4.462   0.263   1.998
  708SOL    HW1 3023   4.445   0.326   2.074
  708SOL    HW2 3024   4.439   0.170   2.027
  709SOL     OW 3025   0.668   5.192   0.217
  709SOL    HW1 3026   0.762   5.169   0.242
  709SOL    HW2 3027   0.665   5.217   0.120
  710SOL     OW 3028   3.028   3.087   2.386
  710SOL    HW1 3029   2.956   3.017   2.393
  710SOL    HW2 3030   3.103   3.052   2.330
  711SOL     OW 3031   0.527   0.920   4.564
  711SOL    HW1 3032   0.622   0.890   4.574
  711SOL    HW2 3033   0.522   1.019   4.574
  712SOL     OW 3034   1.210   3.738   2.145
  712SOL    HW1 3035   1.153   3.797   2.202
  712SOL    HW2 3036   1.158   3.709   2.065
  713SOL     OW 3037   3.116   4.018   4.207
  713SOL    HW1 3038   3.032   3.976   4.171
  713SOL    HW2 3039   3.136   3.979   4.297
  714SOL     OW 3040   5.011   4.992   5.483
  714SOL    HW1 3041   5.098   5.026   5.449
  714SOL    HW2 3042   4.977   5.052   5.555
  715SOL     OW 3043   5.198   0.650   6.293
  715SOL    HW1 3044   5.220   0.661   6.196
  715SOL    HW2 3045   5.191   0.553   6.314
  716SOL     OW 3046   6.626   5.108   1.833
  716SOL    HW1 3047   6.612   5.194   1.785
  716SOL    HW2 3048   6.704   5.060   1.793
  717SOL     OW 3049   6.230   3.073   6.647
  717SOL    HW1 3050   6.327   3.086   6.669
  717SOL    HW2 3051   6.221   3.051   6.550
  718SOL     OW 3052   2.707   3.366   6.680
  718SOL    HW1 3053   2.635   3.405   6.622
  718SOL    HW2 3054   2.768   3.310   6.624
  719SOL     OW 3055   4.801   5.022   0.601
  719SOL    HW1 3056   4.851   5.012   0.687
  719SOL    HW2 3057   4.703   5.025   0.619
  720SOL     OW 3058   3.096   0.977   5.966
  720SOL    HW1 3059   3.018   1.040   5.974
  720SOL    HW2 3060   3.066   0.893   5.921
  721SOL     OW 3061   1.170   6.767   5.627
  721SOL    HW1 3062   1.140   6.854   5.588
  721SOL    HW2 3063   1.094   6.724   5.674
  722SOL     OW 3064   4.598   6.545   5.300
  722SOL    HW1 3065   4.625   6.469   5.359
  722SOL    HW2 3066   4.595   6.513   5.205
  723SOL     OW 3067   1.834   3.334   2.032
  723SOL    HW1 3068   1.789   3.408   2.081
  723SOL    HW2 3069   1.765   3.267   2.002
  724SOL     OW 3070   6.703   0.562   4.695
  724SOL    HW1 3071   6.763   0.490   4.728
  724SOL    HW2 3072   6.616   0.559   4.744
  725SOL     OW 3073   2.366   4.626   1.815
  725SOL    HW1 3074   2.461   4.656   1.804
  725SOL    HW2 3075   2.347   4.552   1.751
  726SOL     OW 3076   4.547   6.495   5.742
  726SOL    HW1 3077   4.542   6.570   5.676
  726SOL    HW2 3078   4.548   6.531   5.835
  727SOL     OW 3079   2.062   4.252   3.709
  727SOL    HW1 3080   1.991   4.214   3.768
  727SOL    HW2 3081   2.152   4.229   3.745
  728SOL     OW 3082   0.308   3.302   5.357
  728SOL    HW1 3083   0.231   3.241   5.374
  728SOL    HW2 3084   0.331   3.299   5.259
  729SOL     OW 3085   3.098   0.921   0.784
  729SOL    HW1 3086   3.167   0.892   0.850
  729SOL    HW2 3087   3.062   1.010   0.810
  730SOL     OW 3088   5.079   1.223   5.223
  730SOL    HW1 3089   5.018   1.301   5.213
  730SOL    HW2 3090   5.028   1.139   5.207
  731SOL     OW 3091   0.037   2.532   3.930
  731SOL    HW1 3092   0.011   2.627   3.944
  731SOL    HW2 3093   7.017   2.497   3.848
  732SOL     OW 3094   6.937   3.314   3.337
  732SOL    HW1 3095   7.009   3.383   3.340
  732SOL    HW2 3096   6.912   3.295   3.242
  733SOL     OW 3097   4.853   5.187   4.417
  733SOL    HW1 3098   4.924   5.117   4.428
  733SOL    HW2 3099   4.884   5.273   4.457
  734SOL     OW 3100   0.720   5.302   6.956
  734SOL    HW1 3101   0.797   5.296   6.892
  734SOL    HW2 3102   0.646   5.353   6.913
  735SOL     OW 3103   3.006   4.488   0.108
  735SOL    HW1 3104   2.991   4.544   0.189
  735SOL    HW2 3105   2.957   4.401   0.118
  736SOL     OW 3106   5.724   1.021   2.783
  736SOL    HW1 3107   5.740   1.063   2.693
  736SOL    HW2 3108   5.800   1.042   2.844
  737SOL     OW 3109   5.788   3.984   0.655
  737SOL    HW1 3110   5.821   4.076   0.634
  737SOL    HW2 3111   5.703   3.967   0.605
  738SOL     OW 3112   0.639   4.562   3.065
  738SOL    HW1 3113   0.594   4.473   3.067
  738SOL    HW2 3114   0.737   4.551   3.083
  739SOL     OW 3115   4.624   6.482   6.437
  739SOL    HW1 3116   4.654   6.405   6.381
  739SOL    HW2 3117   4.703   6.533   6.470
  740SOL     OW 3118   5.082   0.409   0.516
  740SOL    HW1 3119   5.061   0.335   0.453
  740SOL    HW2 3120   5.147   0.376   0.585
  741SOL     OW 3121   3.009   0.110   4.008
  741SOL    HW1 3122   2.911   0.098   3.991
  741SOL    HW2 3123   3.056   0.024   3.993
  742SOL     OW 3124   1.243   6.628   2.184
  742SOL    HW1 3125   1.213   6.533   2.197
  742SOL    HW2 3126   1.198   6.686   2.252
  743SOL     OW 3127   1.889   2.884   4.390
  743SOL    HW1 3128   1.791   2.889   4.405
  743SOL    HW2 3129   1.934   2.858   4.476
  744SOL     OW 3130   7.014   5.553   0.836
  744SOL    HW1 3131   0.078   5.505   0.834
  744SOL    HW2 3132   6.943   5.494   0.796
  745SOL     OW 3133   1.854   5.627   3.260
  745SOL    HW1 3134   1.856   5.527   3.262
  745SOL    HW2 3135   1.873   5.658   3.167
  746SOL     OW 3136   3.088   0.660   3.543
  746SOL    HW1 3137   3.101   0.561   3.553
  746SOL    HW2 3138   2.992   0.679   3.522
  747SOL     OW 3139   6.351   4.255   1.091
  747SOL    HW1 3140   6.401   4.316   1.152
  747SOL    HW2 3141   6.408   4.176   1.069
  748SOL     OW 3142   3.903   2.969   2.493
  748SOL    HW1 3143   3.882   2.912   2.414
  748SOL    HW2 3144   3.920   3.063   2.463
  749SOL     OW 3145   6.165   1.898   5.321
  749SOL    HW1 3146   6.104   1.934   5.251
  749SOL    HW2 3147   6.254   1.943   5.314
  750SOL     OW 3148   3.048   3.494   1.448
  750SOL    HW1 3149   3.058   3.586   1.410
  750SOL    HW2 3150   3.138   3.459   1.475
  751SOL     OW 3151   5.426   1.295   0.502
  751SOL    HW1 3152   5.494   1.312   0.574
  751SOL    HW2 3153   5.426   1.198   0.479
  752SOL     OW 3154   4.605   1.199   1.619
  752SOL    HW1 3155   4.700   1.185   1.646
  752SOL    HW2 3156   4.582   1.136   1.544
  753SOL     OW 3157   2.465   1.395   2.839
  753SOL    HW1 3158   2.546   1.391   2.898
  753SOL    HW2 3159   2.394   1.334   2.875
  754SOL     OW 3160   4.994   5.826   0.270
  754SOL    HW1 3161   4.920   5.878   0.227
  754SOL    HW2 3162   4.963   5.732   0.286
  755SOL     OW 3163   7.010   5.670   3.112
  755SOL    HW1 3164   0.014   5.593   3.055
  755SOL    HW2 3165   6.972   5.637   3.199
  756SOL     OW 3166   3.475   6.351   3.801
  756SOL    HW1 3167   3.414   6.428   3.784
  756SOL    HW2 3168   3.520   6.325   3.715
  757SOL     OW 3169   6.380   1.320   4.623
  757SOL    HW1 3170   6.427   1.264   4.691
  757SOL    HW2 3171   6.377   1.272   4.536
  758SOL     OW 3172   4.677   2.246   1.637
  758SOL    HW1 3173   4.600   2.250   1.701
  758SOL    HW2 3174   4.752   2.302   1.672
  759SOL     OW 3175   1.764   0.659   0.788
  759SOL    HW1 3176   1.708   0.717   0.847
  759SOL    HW2 3177   1.828   0.717   0.737
  760SOL     OW 3178   4.614   2.391   5.889
  760SOL    HW1 3179   4.626   2.309   5.946
  760SOL    HW2 3180   4.522   2.393   5.852
  761SOL     OW 3181   5.489   1.742   6.897
  761SOL    HW1 3182   5.404   1.732   6.948
  761SOL    HW2 3183   5.489   1.831   6.850
  762SOL     OW 3184   2.288   5.004   4.175
  762SOL    HW1 3185   2.342   4.932   4.133
  762SOL    HW2 3186   2.279   4.987   4.273
  763SOL     OW 3187   5.639   5.333   6.927
  763SOL    HW1 3188   5.725   5.283   6.933
  763SOL    HW2 3189   5.610   5.362   7.018
  764SOL     OW 3190   4.916   0.989   2.592
  764SOL    HW1 3191   4.951   0.935   2.669
  764SOL    HW2 3192   4.882   0.928   2.521
  765SOL     OW 3193   6.444   6.514   3.451
  765SOL    HW1 3194   6.422   6.602   3.496
  765SOL    HW2 3195   6.467   6.446   3.521
  766SOL     OW 3196   0.161   6.476   0.172
  766SOL    HW1 3197   0.197   6.387   0.203
  766SOL    HW2 3198   0.209   6.503   0.089
  767SOL     OW 3199   5.781   6.979   1.131
  767SOL    HW1 3200   5.779   7.000   1.229
  767SOL    HW2 3201   5.875   6.979   1.099
  768SOL     OW 3202   3.176   6.796   3.755
  768SOL    HW1 3203   3.209   6.717   3.808
  768SOL    HW2 3204   3.254   6.853   3.728
  769SOL     OW 3205   3.208   0.649   6.768
  769SOL    HW1 3206   3.279   0.709   6.806
  769SOL    HW2 3207   3.205   0.660   6.669
  770SOL     OW 3208   2.667   5.129   3.450
  770SOL    HW1 3209   2.570   5.151   3.463
  770SOL    HW2 3210   2.699   5.170   3.365
  771SOL     OW 3211   0.653   5.308   4.675
  771SOL    HW1 3212   0.671   5.398   4.634
  771SOL    HW2 3213   0.693   5.236   4.617
  772SOL     OW 3214   6.887   4.483   5.092
  772SOL    HW1 3215   6.972   4.436   5.114
  772SOL    HW2 3216   6.813   4.416   5.084
  773SOL     OW 3217   0.178   3.359   1.864
  773SOL    HW1 3218   0.083   3.327   1.859
  773SOL    HW2 3219   0.190   3.437   1.802
  774SOL     OW 3220   1.198   1.254   1.541
  774SOL    HW1 3221   1.176   1.191   1.616
  774SOL    HW2 3222   1.295   1.276   1.543
  775SOL     OW 3223   1.287   2.465   4.528
  775SOL    HW1 3224   1.234   2.498   4.450
  775SOL    HW2 3225   1.365   2.525   4.543
  776SOL     OW 3226   2.258   6.736   5.477
  776SOL    HW1 3227   2.200   6.815   5.499
  776SOL    HW2 3228   2.275   6.683   5.560
  777SOL     OW 3229   4.607   0.564   0.825
  777SOL    HW1 3230   4.639   0.525   0.911
  777SOL    HW2 3231   4.524   0.617   0.841
  778SOL     OW 3232   4.234   5.711   4.696
  778SOL    HW1 3233   4.177   5.780   4.653
  778SOL    HW2 3234   4.327   5.715   4.659
  779SOL     OW 3235   1.202   0.715   2.789
  779SOL    HW1 3236   1.222   0.808   2.821
  779SOL    HW2 3237   1.262   0.693   2.712
  780SOL     OW 3238   5.100   3.466   5.180
  780SOL    HW1 3239   5.156   3.463   5.263
  780SOL    HW2 3240   5.088   3.373   5.145
  781SOL     OW 3241   0.792   1.965   6.532
  781SOL    HW1 3242   0.714   1.987   6.473
  781SOL    HW2 3243   0.877   1.988   6.485
  782SOL     OW 3244   0.417   4.154   0.473
  782SOL    HW1 3245   0.491   4.095   0.440
  782SOL    HW2 3246   0.360   4.182   0.396
  783SOL     OW 3247   2.608   4.249   0.049
  783SOL    HW1 3248   2.549   4.189   7.017
  783SOL    HW2 3249   2.576   4.343   0.041
  784SOL     OW 3250   4.815   5.821   3.674
  784SOL    HW1 3251   4.824   5.835   3.575
  784SOL    HW2 3252   4.866   5.893   3.722
  785SOL     OW 3253   6.203   2.068   4.292
  785SOL    HW1 3254   6.181   1.986   4.345
  785SOL    HW2 3255   6.279   2.116   4.336
  786SOL     OW 3256   6.432   6.726   0.349
  786SOL    HW1 3257   6.391   6.652   0.401
  786SOL    HW2 3258   6.363   6.796   0.329
  787SOL     OW 3259   4.346   1.131   6.896
  787SOL    HW1 3260   4.331   1.202   6.828
  787SOL    HW2 3261   4.275   1.061   6.888
  788SOL     OW 3262   0.877   4.379   3.511
  788SOL    HW1 3263   0.953   4.419   3.561
  788SOL    HW2 3264   0.791   4.408   3.552
  789SOL     OW 3265   5.523   3.464   1.177
  789SOL    HW1 3266   5.500   3.401   1.251
  789SOL    HW2 3267   5.620   3.488   1.182
  790SOL     OW 3268   3.630   0.585   3.741
  790SOL    HW1 3269   3.543   0.627   3.768
  790SOL    HW2 3270   3.649   0.507   3.801
  791SOL     OW 3271   4.007   1.910   4.810
  791SOL    HW1 3272   3.995   2.009   4.806
  791SOL    HW2 3273   3.930   1.868   4.858
  792SOL     OW 3274   5.553   0.262   3.863
  792SOL    HW1 3275   5.612   0.312   3.925
  792SOL    HW2 3276   5.603   0.242   3.778
  793SOL     OW 3277   6.944   0.206   6.092
  793SOL    HW1 3278   6.947   0.306   6.086
  793SOL    HW2 3279   6.983   0.167   6.009
  794SOL     OW 3280   3.906   5.028   4.589
  794SOL    HW1 3281   3.899   5.002   4.686
  794SOL    HW2 3282   3.821   5.006   4.543
  795SOL     OW 3283   5.018   5.202   6.484
  795SOL    HW1 3284   4.932   5.238   6.521
  795SOL    HW2 3285   5.034   5.240   6.393
  796SOL     OW 3286   0.473   1.955   5.844
  796SOL    HW1 3287   0.572   1.969   5.840
  796SOL    HW2 3288   0.454   1.859   5.866
  797SOL     OW 3289   6.054   2.308   5.241
  797SOL    HW1 3290   5.991   2.337   5.169
  797SOL    HW2 3291   6.142   2.286   5.200
  798SOL     OW 3292   6.221   0.676   5.001
  798SOL    HW1 3293   6.282   0.614   5.051
  798SOL    HW2 3294   6.229   0.768   5.039
  799SOL     OW 3295   6.974   3.585   3.602
  799SOL    HW1 3296   7.016   3.553   3.687
  799SOL    HW2 3297   6.893   3.530   3.582
  800SOL     OW 3298   6.637   1.739   1.742
  800SOL    HW1 3299   6.731   1.737   1.775
  800SOL    HW2 3300   6.629   1.682   1.660
  801SOL     OW 3301   0.849   1.879   3.787
  801SOL    HW1 3302   0.819   1.964   3.744
  801SOL    HW2 3303   0.807   1.872   3.878
  802SOL     OW 3304   5.947   1.135   1.126
  802SOL    HW1 3305   5.965   1.189   1.209
  802SOL    HW2 3306   6.032   1.124   1.075
  803SOL     OW 3307   1.705   0.429   4.726
  803SOL    HW1 3308   1.624   0.438   4.668
  803SOL    HW2 3309   1.779   0.387   4.673
  804SOL     OW 3310   6.582   6.664   1.273
  804SOL    HW1 3311   6.631   6.612   1.203
  804SOL    HW2 3312   6.490   6.685   1.241
  805SOL     OW 3313   1.389   3.047   5.685
  805SOL    HW1 3314   1.354   3.100   5.607
  805SOL    HW2 3315   1.483   3.018   5.665
  806SOL     OW 3316   4.964   0.709   0.808
  806SOL    HW1 3317   4.983   0.684   0.713
  806SOL    HW2 3318   4.974   0.807   0.820
  807SOL     OW 3319   0.898   6.867   2.732
  807SOL    HW1 3320   0.997   6.868   2.717
  807SOL    HW2 3321   0.878   6.900   2.824
  808SOL     OW 3322   6.149   3.624   5.021
  808SOL    HW1 3323   6.110   3.535   4.998
  808SOL    HW2 3324   6.136   3.641   5.119
  809SOL     OW 3325   0.913   5.388   5.940
  809SOL    HW1 3326   0.935   5.301   5.985
  809SOL    HW2 3327   0.943   5.464   5.997
  810SOL     OW 3328   6.390   5.125   6.679
  810SOL    HW1 3329   6.363   5.159   6.589
  810SOL    HW2 3330   6.489   5.131   6.689
  811SOL     OW 3331   4.484   4.939   3.592
  811SOL    HW1 3332   4.497   4.931   3.691
  811SOL    HW2 3333   4.413   4.876   3.563
  812SOL     OW 3334   0.199   0.596   2.354
  812SOL    HW1 3335   0.266   0.526   2.329
  812SOL    HW2 3336   0.205   0.672   2.289
  813SOL     OW 3337   5.703   5.954   1.997
  813SOL    HW1 3338   5.676   5.859   1.983
  813SOL    HW2 3339   5.748   5.988   1.915
  814SOL     OW 3340   5.380   5.884   1.413
  814SOL    HW1 3341   5.423   5.802   1.378
  814SOL    HW2 3342   5.283   5.884   1.389
  815SOL     OW 3343   0.411   1.294   0.202
  815SOL    HW1 3344   0.420   1.375   0.259
  815SOL    HW2 3345   0.315   1.268   0.194
  816SOL     OW 3346   5.650   0.514   1.065
  816SOL    HW1 3347   5.667   0.612   1.067
  816SOL    HW2 3348   5.706   0.469   1.135
  817SOL     OW 3349   0.641   1.882   1.535
  817SOL    HW1 3350   0.601   1.790   1.541
  817SOL    HW2 3351   0.739   1.874   1.514
  818SOL     OW 3352   5.974   1.585   2.463
  818SOL    HW1 3353   6.000   1.677   2.433
  818SOL    HW2 3354   5.974   1.523   2.384
  819SOL     OW 3355   0.284   5.033   2.578
  819SOL    HW1 3356   0.351   5.070   2.642
  819SOL    HW2 3357   0.330   4.993   2.499
  820SOL     OW 3358   1.458   2.899   4.709
  820SOL    HW1 3359   1.554   2.883   4.728
  820SOL    HW2 3360   1.406   2.895   4.794
  821SOL     OW 3361   1.419   4.198   0.472
  821SOL    HW1 3362   1.429   4.146   0.558
  821SOL    HW2 3363   1.350   4.155   0.415
  822SOL     OW 3364   1.422   3.823   4.693
  822SOL    HW1 3365   1.408   3.881   4.613
  822SOL    HW2 3366   1.409   3.727   4.667
  823SOL     OW 3367   3.357   3.496   1.297
  823SOL    HW1 3368   3.454   3.520   1.303
  823SOL    HW2 3369   3.332   3.438   1.374
  824SOL     OW 3370   6.147   2.381   6.127
  824SOL    HW1 3371   6.085   2.455   6.151
  824SOL    HW2 3372   6.235   2.419   6.097
  825SOL     OW 3373   1.387   4.193   2.026
  825SOL    HW1 3374   1.368   4.103   2.064
  825SOL    HW2 3375   1.472   4.228   2.064
  826SOL     OW 3376   1.138   4.383   5.721
  826SOL    HW1 3377   1.126   4.415   5.815
  826SOL    HW2 3378   1.048   4.361   5.682
  827SOL     OW 3379   4.094   5.505   0.970
  827SOL    HW1 3380   4.113   5.455   1.055
  827SOL    HW2 3381   4.002   5.544   0.975
  828SOL     OW 3382   6.431   6.880   5.272
  828SOL    HW1 3383   6.379   6.965   5.269
  828SOL    HW2 3384   6.524   6.895   5.239
  829SOL     OW 3385   3.391   3.008   4.877
  829SOL    HW1 3386   3.457   3.057   4.820
  829SOL    HW2 3387   3.441   2.961   4.951
  830SOL     OW 3388   4.228   3.853   6.311
  830SOL    HW1 3389   4.207   3.820   6.219
  830SOL    HW2 3390   4.219   3.777   6.376
  831SOL     OW 3391   6.288   6.965   4.788
  831SOL    HW1 3392   6.225   6.888   4.797
  831SOL    HW2 3393   6.312   6.977   4.691
  832SOL     OW 3394   2.490   1.292   5.558
  832SOL    HW1 3395   2.418   1.337   5.611
  832SOL    HW2 3396   2.465   1.196   5.544
  833SOL     OW 3397   0.918   6.966   5.753
  833SOL    HW1 3398   0.927   7.014   5.840
  833SOL    HW2 3399   0.885   0.006   5.683
  834SOL     OW 3400   3.243   4.753   5.528
  834SOL    HW1 3401   3.166   4.796   5.574
  834SOL    HW2 3402   3.323   4.755   5.588
  835SOL     OW 3403   4.738   0.778   3.254
  835SOL    HW1 3404   4.818   0.825   3.291
  835SOL    HW2 3405   4.683   0.741   3.329
  836SOL     OW 3406   2.646   0.420   6.687
  836SOL    HW1 3407   2.740   0.408   6.656
  836SOL    HW2 3408   2.636   0.510   6.730
  837SOL     OW 3409   4.140   1.024   4.932
  837SOL    HW1 3410   4.112   1.048   5.025
  837SOL    HW2 3411   4.064   0.979   4.884
  838SOL     OW 3412   1.193   5.078   2.603
  838SOL    HW1 3413   1.241   5.023   2.671
  838SOL    HW2 3414   1.116   5.027   2.567
  839SOL     OW 3415   3.480   1.119   1.572
  839SOL    HW1 3416   3.388   1.079   1.574
  839SOL    HW2 3417   3.474   1.214   1.543
  840SOL     OW 3418   0.697   1.776   5.925
  840SOL    HW1 3419   0.749   1.839   5.868
  840SOL    HW2 3420   0.727   1.682   5.907
  841SOL     OW 3421   0.695   3.823   0.449
  841SOL    HW1 3422   0.742   3.770   0.379
  841SOL    HW2 3423   0.649   3.762   0.513
  842SOL     OW 3424   3.536   5.284   3.411
  842SOL    HW1 3425   3.507   5.216   3.344
  842SOL    HW2 3426   3.565   5.368   3.363
  843SOL     OW 3427   0.010   4.182   2.319
  843SOL    HW1 3428   7.021   4.225   2.409
  843SOL    HW2 3429   6.976   4.100   2.314
  844SOL     OW 3430   5.231   5.456   0.114
  844SOL    HW1 3431   5.157   5.441   0.179
  844SOL    HW2 3432   5.217   5.397   0.034
  845SOL     OW 3433   1.864   5.376   4.915
  845SOL    HW1 3434   1.824   5.468   4.912
  845SOL    HW2 3435   1.922   5.369   4.996
  846SOL     OW 3436   5.033   2.939   0.015
  846SOL    HW1 3437   5.014   3.034   0.041
  846SOL    HW2 3438   5.132   2.928   7.023
  847SOL     OW 3439   5.431   4.277   2.125
  847SOL    HW1 3440   5.414   4.204   2.059
  847SOL    HW2 3441   5.486   4.241   2.201
  848SOL     OW 3442   6.233   0.258   5.628
  848SOL    HW1 3443   6.294   0.255   5.549
  848SOL    HW2 3444   6.143   0.291   5.600
  849SOL     OW 3445   0.873   5.748   4.101
  849SOL    HW1 3446   0.855   5.649   4.105
  849SOL    HW2 3447   0.821   5.788   4.025
  850SOL     OW 3448   3.899   0.523   3.354
  850SOL    HW1 3449   3.932   0.581   3.280
  850SOL    HW2 3450   3.852   0.578   3.423
  851SOL     OW 3451   0.237   0.623   5.136
  851SOL    HW1 3452   0.253   0.657   5.229
  851SOL    HW2 3453   0.219   0.525   5.139
  852SOL     OW 3454   2.851   4.648   5.841
  852SOL    HW1 3455   2.862   4.607   5.932
  852SOL    HW2 3456   2.767   4.701   5.838
  853SOL     OW 3457   1.364   3.817   0.728
  853SOL    HW1 3458   1.321   3.727   0.729
  853SOL    HW2 3459   1.434   3.821   0.799
  854SOL     OW 3460   6.501   5.073   2.066
  854SOL    HW1 3461   6.553   5.081   1.981
  854SOL    HW2 3462   6.426   5.007   2.053
  855SOL     OW 3463   5.233   0.800   0.822
  855SOL    HW1 3464   5.142   0.776   0.788
  855SOL    HW2 3465   5.249   0.898   0.809
  856SOL     OW 3466   1.132   1.300   4.865
  856SOL    HW1 3467   1.209   1.339   4.814
  856SOL    HW2 3468   1.167   1.244   4.941
  857SOL     OW 3469   6.396   3.697   1.659
  857SOL    HW1 3470   6.376   3.790   1.687
  857SOL    HW2 3471   6.495   3.684   1.653
  858SOL     OW 3472   3.270   3.350   1.519
  858SOL    HW1 3473   3.260   3.252   1.507
  858SOL    HW2 3474   3.338   3.369   1.590
  859SOL     OW 3475   6.519   4.767   0.653
  859SOL    HW1 3476   6.583   4.825   0.602
  859SOL    HW2 3477   6.553   4.673   0.654
  860SOL     OW 3478   2.006   4.484   0.534
  860SOL    HW1 3479   2.085   4.526   0.579
  860SOL    HW2 3480   1.987   4.396   0.578
  861SOL     OW 3481   3.377   4.713   6.217
  861SOL    HW1 3482   3.370   4.759   6.128
  861SOL    HW2 3483   3.465   4.666   6.223
  862SOL     OW 3484   4.837   4.171   3.447
  862SOL    HW1 3485   4.764   4.234   3.476
  862SOL    HW2 3486   4.919   4.224   3.425
  863SOL     OW 3487   5.877   2.323   0.992
  863SOL    HW1 3488   5.851   2.332   0.896
  863SOL    HW2 3489   5.871   2.227   1.020
  864SOL     OW 3490   6.904   4.628   2.749
  864SOL    HW1 3491   6.922   4.716   2.706
  864SOL    HW2 3492   6.806   4.618   2.767
  865SOL     OW 3493   1.927   0.920   3.656
  865SOL    HW1 3494   1.863   0.993   3.677
  865SOL    HW2 3495   1.977   0.942   3.572
  866SOL     OW 3496   4.063   1.364   0.656
  866SOL    HW1 3497   4.041   1.293   0.589
  866SOL    HW2 3498   4.012   1.347   0.740
  867SOL     OW 3499   2.249   1.475   6.303
  867SOL    HW1 3500   2.340   1.456   6.341
  867SOL    HW2 3501   2.245   1.570   6.273
  868SOL     OW 3502   5.810   2.615   3.516
  868SOL    HW1 3503   5.898   2.646   3.552
  868SOL    HW2 3504   5.751   2.586   3.591
  869SOL     OW 3505   6.698   4.142   1.276
  869SOL    HW1 3506   6.684   4.229   1.323
  869SOL    HW2 3507   6.793   4.113   1.288
  870SOL     OW 3508   6.657   2.481   0.419
  870SOL    HW1 3509   6.558   2.494   0.409
  870SOL    HW2 3510   6.696   2.560   0.467
  871SOL     OW 3511   6.122   3.889   0.696
  871SOL    HW1 3512   6.070   3.957   0.749
  871SOL    HW2 3513   6.209   3.870   0.742
  872SOL     OW 3514   6.261   2.012   2.155
  872SOL    HW1 3515   6.306   2.061   2.081
  872SOL    HW2 3516   6.322   2.007   2.234
  873SOL     OW 3517   3.832   6.699   4.877
  873SOL    HW1 3518   3.930   6.703   4.901
  873SOL    HW2 3519   3.816   6.618   4.820
  874SOL     OW 3520   0.041   4.030   6.739
  874SOL    HW1 3521   0.141   4.035   6.737
  874SOL    HW2 3522   0.005   4.062   6.651
  875SOL     OW 3523   6.246   5.194   6.446
  875SOL    HW1 3524   6.158   5.147   6.444
  875SOL    HW2 3525   6.232   5.293   6.440
  876SOL     OW 3526   1.372   2.206   0.634
  876SOL    HW1 3527   1.468   2.234   0.635
  876SOL    HW2 3528   1.364   2.114   0.672
  877SOL     OW 3529   5.700   5.782   0.373
  877SOL    HW1 3530   5.697   5.858   0.308
  877SOL    HW2 3531   5.713   5.696   0.324
  878SOL     OW 3532   3.536   2.439   0.676
  878SOL    HW1 3533   3.567   2.390   0.594
  878SOL    HW2 3534   3.479   2.378   0.731
  879SOL     OW 3535   4.492   1.935   2.455
  879SOL    HW1 3536   4.435   1.886   2.522
  879SOL    HW2 3537   4.466   1.907   2.363
  880SOL     OW 3538   4.388   5.239   2.129
  880SOL    HW1 3539   4.352   5.284   2.047
  880SOL    HW2 3540   4.313   5.220   2.192
  881SOL     OW 3541   4.839   4.909   3.600
  881SOL    HW1 3542   4.789   4.849   3.662
  881SOL    HW2 3543   4.776   4.977   3.561
  882SOL     OW 3544   0.789   2.118   4.295
  882SOL    HW1 3545   0.716   2.139   4.360
  882SOL    HW2 3546   0.868   2.177   4.314
  883SOL     OW 3547   3.393   4.780   0.262
  883SOL    HW1 3548   3.430   4.732   0.342
  883SOL    HW2 3549   3.307   4.736   0.235
  884SOL     OW 3550   3.922   3.804   1.717
  884SOL    HW1 3551   3.824   3.794   1.698
  884SOL    HW2 3552   3.972   3.815   1.631
  885SOL     OW 3553   4.510   6.418   6.127
  885SOL    HW1 3554   4.543   6.503   6.085
  885SOL    HW2 3555   4.587   6.358   6.148
  886SOL     OW 3556   4.164   1.988   6.756
  886SOL    HW1 3557   4.162   2.027   6.848
  886SOL    HW2 3558   4.213   2.051   6.695
  887SOL     OW 3559   5.484   6.830   5.313
  887SOL    HW1 3560   5.516   6.760   5.248
  887SOL    HW2 3561   5.413   6.791   5.371
  888SOL     OW 3562   5.933   6.805   3.003
  888SOL    HW1 3563   5.876   6.796   2.921
  888SOL    HW2 3564   6.012   6.743   2.996
  889SOL     OW 3565   1.031   6.871   4.348
  889SOL    HW1 3566   1.058   6.962   4.316
  889SOL    HW2 3567   1.112   6.811   4.349
  890SOL     OW 3568   1.640   4.286   2.129
  890SOL    HW1 3569   1.618   4.308   2.224
  890SOL    HW2 3570   1.624   4.366   2.072
  891SOL     OW 3571   5.257   3.695   6.309
  891SOL    HW1 3572   5.194   3.667   6.237
  891SOL    HW2 3573   5.209   3.750   6.377
  892SOL     OW 3574   1.971   5.187   1.563
  892SOL    HW1 3575   1.909   5.202   1.641
  892SOL    HW2 3576   1.942   5.106   1.513
  893SOL     OW 3577   1.871   6.565   2.077
  893SOL    HW1 3578   1.901   6.497   2.010
  893SOL    HW2 3579   1.944   6.630   2.094
  894SOL     OW 3580   1.357   5.649   4.109
  894SOL    HW1 3581   1.274   5.609   4.147
  894SOL    HW2 3582   1.426   5.577   4.096
  895SOL     OW 3583   2.424   0.834   4.346
  895SOL    HW1 3584   2.385   0.903   4.406
  895SOL    HW2 3585   2.465   0.761   4.401
  896SOL     OW 3586   5.229   6.842   3.593
  896SOL    HW1 3587   5.210   6.925   3.541
  896SOL    HW2 3588   5.143   6.794   3.612
  897SOL     OW 3589   5.345   1.469   6.147
  897SOL    HW1 3590   5.353   1.523   6.063
  897SOL    HW2 3591   5.265   1.500   6.199
  898SOL     OW 3592   5.686   6.397   4.064
  898SOL    HW1 3593   5.687   6.338   3.984
  898SOL    HW2 3594   5.698   6.341   4.146
  899SOL     OW 3595   1.336   4.368   0.219
  899SOL    HW1 3596   1.245   4.349   0.182
  899SOL    HW2 3597   1.389   4.284   0.224
  900SOL     OW 3598   0.467   5.832   3.614
  900SOL    HW1 3599   0.429   5.924   3.618
  900SOL    HW2 3600   0.403   5.767   3.655
  901SOL     OW 3601   5.409   1.773   3.650
  901SOL    HW1 3602   5.321   1.726   3.647
  901SOL    HW2 3603   5.483   1.706   3.638
  902SOL     OW 3604   1.059   6.498   0.131
  902SOL    HW1 3605   1.025   6.433   0.199
  902SOL    HW2 3606   1.155   6.479   0.113
  903SOL     OW 3607   0.636   4.964   6.827
  903SOL    HW1 3608   0.594   5.052   6.850
  903SOL    HW2 3609   0.647   4.910   6.911
  904SOL     OW 3610   1.481   0.956   3.940
  904SOL    HW1 3611   1.477   0.983   4.036
  904SOL    HW2 3612   1.536   1.022   3.889
  905SOL     OW 3613   6.294   2.238   4.719
  905SOL    HW1 3614   6.232   2.162   4.739
  905SOL    HW2 3615   6.344   2.263   4.802
  906SOL     OW 3616   6.412   4.050   5.575
  906SOL    HW1 3617   6.458   4.042   5.663
  906SOL    HW2 3618   6.465   4.110   5.515
  907SOL     OW 3619   0.206   3.086   2.032
  907SOL    HW1 3620   0.180   3.171   1.987
  907SOL    HW2 3621   0.301   3.064   2.008
  908SOL     OW 3622   2.908   1.137   3.398
  908SOL    HW1 3623   2.918   1.052   3.346
  908SOL    HW2 3624   2.911   1.116   3.496
  909SOL     OW 3625   3.883   6.752   1.241
  909SOL    HW1 3626   3.854   6.777   1.333
  909SOL    HW2 3627   3.980   6.729   1.241
  910SOL     OW 3628   1.606   1.465   2.271
  910SOL    HW1 3629   1.532   1.523   2.238
  910SOL    HW2 3630   1.694   1.511   2.257
  911SOL     OW 3631   0.712   3.754   0.825
  911SOL    HW1 3632   0.810   3.733   0.830
  911SOL    HW2 3633   0.692   3.833   0.883
  912SOL     OW 3634   0.801   0.717   6.299
  912SOL    HW1 3635   0.780   0.624   6.269
  912SOL    HW2 3636   0.765   0.783   6.234
  913SOL     OW 3637   1.966   1.315   2.142
  913SOL    HW1 3638   1.948   1.410   2.168
  913SOL    HW2 3639   2.030   1.274   2.208
  914SOL     OW 3640   2.901   5.721   1.903
  914SOL    HW1 3641   2.943   5.725   1.993
  914SOL    HW2 3642   2.883   5.814   1.870
  915SOL     OW 3643   1.900   2.406   0.400
  915SOL    HW1 3644   1.912   2.489   0.454
  915SOL    HW2 3645   1.984   2.353   0.400
  916SOL     OW 3646   1.562   3.063   2.326
  916SOL    HW1 3647   1.620   3.014   2.261
  916SOL    HW2 3648   1.484   3.006   2.350
  917SOL     OW 3649   3.977   1.427   6.428
  917SOL    HW1 3650   3.888   1.398   6.464
  917SOL    HW2 3651   3.990   1.525   6.447
  918SOL     OW 3652   0.267   2.019   4.923
  918SOL    HW1 3653   0.223   2.107   4.905
  918SOL    HW2 3654   0.240   1.986   5.014
  919SOL     OW 3655   1.544   0.369   1.258
  919SOL    HW1 3656   1.503   0.405   1.174
  919SOL    HW2 3657   1.485   0.298   1.296
  920SOL     OW 3658   1.697   1.014   3.198
  920SOL    HW1 3659   1.621   0.986   3.257
  920SOL    HW2 3660   1.685   1.109   3.170
  921SOL     OW 3661   4.055   3.929   0.728
  921SOL    HW1 3662   4.115   3.955   0.803
  921SOL    HW2 3663   4.104   3.938   0.641
  922SOL     OW 3664   2.205   5.166   6.866
  922SOL    HW1 3665   2.268   5.129   6.935
  922SOL    HW2 3666   2.131   5.101   6.851
  923SOL     OW 3667   3.717   1.288   6.918
  923SOL    HW1 3668   3.710   1.383   6.948
  923SOL    HW2 3669   3.626   1.252   6.898
  924SOL     OW 3670   6.497   5.179   2.665
  924SOL    HW1 3671   6.468   5.183   2.760
  924SOL    HW2 3672   6.470   5.092   2.625
  925SOL     OW 3673   6.769   1.665   3.044
  925SOL    HW1 3674   6.738   1.680   2.950
  925SOL    HW2 3675   6.709   1.598   3.088
  926SOL     OW 3676   4.217   6.342   1.423
  926SOL    HW1 3677   4.196   6.410   1.493
  926SOL    HW2 3678   4.147   6.270   1.424
  927SOL     OW 3679   4.500   5.744   4.948
  927SOL    HW1 3680   4.479   5.790   4.861
  927SOL    HW2 3681   4.418   5.700   4.983
  928SOL     OW 3682   0.352   1.258   1.279
  928SOL    HW1 3683   0.395   1.196   1.213
  928SOL    HW2 3684   0.268   1.216   1.314
  929SOL     OW 3685   0.098   2.405   2.049
  929SOL    HW1 3686   0.055   2.329   2.097
  929SOL    HW2 3687   0.153   2.458   2.114
  930SOL     OW 3688   5.696   5.736   2.243
  930SOL    HW1 3689   5.721   5.708   2.150
  930SOL    HW2 3690   5.663   5.831   2.241
  931SOL     OW 3691   1.469   2.795   1.829
  931SOL    HW1 3692   1.419   2.842   1.756
  931SOL    HW2 3693   1.461   2.848   1.913
  932SOL     OW 3694   4.027   6.123   1.463
  932SOL    HW1 3695   3.982   6.060   1.399
  932SOL    HW2 3696   4.033   6.080   1.553
  933SOL     OW 3697   1.255   6.870   3.614
  933SOL    HW1 3698   1.282   6.963   3.591
  933SOL    HW2 3699   1.328   6.827   3.668
  934SOL     OW 3700   3.299   0.619   5.517
  934SOL    HW1 3701   3.256   0.613   5.607
  934SOL    HW2 3702   3.273   0.705   5.473
  935SOL     OW 3703   1.505   3.695   5.154
  935SOL    HW1 3704   1.497   3.779   5.101
  935SOL    HW2 3705   1.561   3.629   5.104
  936SOL     OW 3706   0.736   2.258   1.532
  936SOL    HW1 3707   0.682   2.227   1.454
  936SOL    HW2 3708   0.832   2.234   1.518
  937SOL     OW 3709   5.654   2.535   3.715
  937SOL    HW1 3710   5.687   2.495   3.801
  937SOL    HW2 3711   5.583   2.602   3.734
  938SOL     OW 3712   0.157   1.134   6.491
  938SOL    HW1 3713   0.231   1.067   6.485
  938SOL    HW2 3714   0.093   1.107   6.562
  939SOL     OW 3715   6.265   1.281   5.624
  939SOL    HW1 3716   6.268   1.233   5.712
  939SOL    HW2 3717   6.291   1.377   5.637
  940SOL     OW 3718   0.146   0.590   4.334
  940SOL    HW1 3719   0.083   0.666   4.317
  940SOL    HW2 3720   0.149   0.572   4.433
  941SOL     OW 3721   5.853   2.376   5.420
  941SOL    HW1 3722   5.928   2.351   5.359
  941SOL    HW2 3723   5.890   2.406   5.508
  942SOL     OW 3724   4.520   0.446   4.975
  942SOL    HW1 3725   4.505   0.470   4.879
  942SOL    HW2 3726   4.444   0.482   5.030
  943SOL     OW 3727   5.579   1.883   0.371
  943SOL    HW1 3728   5.483   1.861   0.354
  943SOL    HW2 3729   5.633   1.863   0.290
  944SOL     OW 3730   4.782   3.998   4.756
  944SOL    HW1 3731   4.689   3.964   4.773
  944SOL    HW2 3732   4.784   4.097   4.771
  945SOL     OW 3733   5.591   3.519   6.172
  945SOL    HW1 3734   5.509   3.487   6.218
  945SOL    HW2 3735   5.588   3.492   6.075
  946SOL     OW 3736   5.880   3.555   6.633
  946SOL    HW1 3737   5.901   3.585   6.540
  946SOL    HW2 3738   5.932   3.609   6.699
  947SOL     OW 3739   0.558   2.881   5.747
  947SOL    HW1 3740   0.562   2.795   5.696
  947SOL    HW2 3741   0.567   2.958   5.685
  948SOL     OW 3742   3.654   1.474   0.465
  948SOL    HW1 3743   3.723   1.532   0.510
  948SOL    HW2 3744   3.654   1.384   0.507
  949SOL     OW 3745   5.588   5.854   6.874
  949SOL    HW1 3746   5.533   5.812   6.946
  949SOL    HW2 3747   5.632   5.782   6.820
  950SOL     OW 3748   3.626   5.327   1.109
  950SOL    HW1 3749   3.671   5.311   1.022
  950SOL    HW2 3750   3.686   5.381   1.169
  951SOL     OW 3751   1.126   2.896   4.045
  951SOL    HW1 3752   1.118   2.996   4.054
  951SOL    HW2 3753   1.202   2.875   3.984
  952SOL     OW 3754   5.167   1.890   0.999
  952SOL    HW1 3755   5.201   1.847   0.916
  952SOL    HW2 3756   5.226   1.968   1.023
  953SOL     OW 3757   3.831   6.711   5.985
  953SOL    HW1 3758   3.752   6.741   6.038
  953SOL    HW2 3759   3.902   6.783   5.987
  954SOL     OW 3760   6.617   0.823   1.788
  954SOL    HW1 3761   6.708   0.782   1.790
  954SOL    HW2 3762   6.578   0.820   1.880
  955SOL     OW 3763   0.542   6.533   2.440
  955SOL    HW1 3764   0.560   6.617   2.389
  955SOL    HW2 3765   0.625   6.506   2.489
  956SOL     OW 3766   1.543   2.803   0.797
  956SOL    HW1 3767   1.589   2.813   0.709
  956SOL    HW2 3768   1.472   2.733   0.789
  957SOL     OW 3769   1.814   6.651   4.811
  957SOL    HW1 3770   1.897   6.618   4.857
  957SOL    HW2 3771   1.734   6.624   4.864
  958SOL     OW 3772   4.817   2.772   0.216
  958SOL    HW1 3773   4.798   2.868   0.235
  958SOL    HW2 3774   4.915   2.758   0.205
  959SOL     OW 3775   1.762   3.319   1.313
  959SOL    HW1 3776   1.848   3.285   1.351
  959SOL    HW2 3777   1.777   3.356   1.221
  960SOL     OW 3778   1.560   5.294   5.730
  960SOL    HW1 3779   1.652   5.285   5.691
  960SOL    HW2 3780   1.548   5.227   5.804
  961SOL     OW 3781   3.650   0.038   6.990
  961SOL    HW1 3782   3.690   0.017   0.056
  961SOL    HW2 3783   3.585   0.114   7.000
  962SOL     OW 3784   1.197   6.350   3.773
  962SOL    HW1 3785   1.179   6.447   3.755
  962SOL    HW2 3786   1.158   6.295   3.699
  963SOL     OW 3787   5.807   0.011   1.878
  963SOL    HW1 3788   5.907   0.006   1.879
  963SOL    HW2 3789   5.774   7.015   1.786
  964SOL     OW 3790   5.442   3.546   1.799
  964SOL    HW1 3791   5.438   3.453   1.835
  964SOL    HW2 3792   5.530   3.587   1.823
  965SOL     OW 3793   1.693   1.752   0.008
  965SOL    HW1 3794   1.746   1.687   6.977
  965SOL    HW2 3795   1.752   1.793   0.079
  966SOL     OW 3796   0.019   2.693   1.955
  966SOL    HW1 3797   0.024   2.593   1.965
  966SOL    HW2 3798   0.097   2.725   1.902
  967SOL     OW 3799   0.809   6.101   2.403
  967SOL    HW1 3800   0.812   6.001   2.414
  967SOL    HW2 3801   0.807   6.144   2.494
  968SOL     OW 3802   0.064   4.339   0.975
  968SOL    HW1 3803   0.078   4.265   0.909
  968SOL    HW2 3804   0.116   4.420   0.946
  969SOL     OW 3805   4.232   0.199   6.481
  969SOL    HW1 3806   4.318   0.249   6.488
  969SOL    HW2 3807   4.251   0.102   6.464
  970SOL     OW 3808   4.699   3.066   5.893
  970SOL    HW1 3809   4.616   3.018   5.921
  970SOL    HW2 3810   4.750   3.094   5.973
  971SOL     OW 3811   0.464   2.926   0.172
  971SOL    HW1 3812   0.411   2.929   0.087
  971SOL    HW2 3813   0.404   2.942   0.250
  972SOL     OW 3814   5.110   6.872   0.868
  972SOL    HW1 3815   5.185   6.836   0.925
  972SOL    HW2 3816   5.131   6.855   0.772
  973SOL     OW 3817   5.781   3.397   5.322
  973SOL    HW1 3818   5.822   3.480   5.283
  973SOL    HW2 3819   5.704   3.423   5.381
  974SOL     OW 3820   2.521   0.227   4.837
  974SOL    HW1 3821   2.446   0.179   4.792
  974SOL    HW2 3822   2.606   0.212   4.785
  975SOL     OW 3823   3.106   7.014   5.470
  975SOL    HW1 3824   3.115   0.086   5.502
  975SOL    HW2 3825   3.086   7.013   5.372
  976SOL     OW 3826   0.441   5.267   3.703
  976SOL    HW1 3827   0.375   5.295   3.634
  976SOL    HW2 3828   0.392   5.231   3.783
  977SOL     OW 3829   1.004   2.553   1.725
  977SOL    HW1 3830   1.087   2.594   1.761
  977SOL    HW2 3831   1.010   2.454   1.729
  978SOL     OW 3832   5.451   3.483   4.961
  978SOL    HW1 3833   5.406   3.521   4.880
  978SOL    HW2 3834   5.472   3.556   5.026
  979SOL     OW 3835   5.462   1.526   3.425
  979SOL    HW1 3836   5.418   1.613   3.403
  979SOL    HW2 3837   5.561   1.535   3.415
  980SOL     OW 3838   7.014   0.475   4.886
  980SOL    HW1 3839   0.021   0.557   4.837
  980SOL    HW2 3840   6.938   0.499   4.947
  981SOL     OW 3841   6.333   3.117   5.885
  981SOL    HW1 3842   6.335   3.216   5.871
  981SOL    HW2 3843   6.368   3.071   5.803
  982SOL     OW 3844   1.578   3.641   1.209
  982SOL    HW1 3845   1.652   3.703   1.182
  982SOL    HW2 3846   1.587   3.619   1.306
  983SOL     OW 3847   5.193   1.948   3.457
  983SOL    HW1 3848   5.274   1.930   3.514
  983SOL    HW2 3849   5.111   1.947   3.515
  984SOL     OW 3850   5.190   2.558   5.628
  984SOL    HW1 3851   5.131   2.484   5.597
  984SOL    HW2 3852   5.285   2.537   5.603
  985SOL     OW 3853   2.497   4.836   0.731
  985SOL    HW1 3854   2.450   4.896   0.796
  985SOL    HW2 3855   2.461   4.851   0.639
  986SOL     OW 3856   4.205   4.605   6.878
  986SOL    HW1 3857   4.131   4.549   6.917
  986SOL    HW2 3858   4.281   4.610   6.943
  987SOL     OW 3859   3.549   6.873   2.716
  987SOL    HW1 3860   3.560   6.841   2.622
  987SOL    HW2 3861   3.490   6.954   2.716
  988SOL     OW 3862   3.407   2.999   1.751
  988SOL    HW1 3863   3.351   3.033   1.675
  988SOL    HW2 3864   3.355   2.932   1.803
  989SOL     OW 3865   0.444   0.499   4.589
  989SOL    HW1 3866   0.447   0.473   4.493
  989SOL    HW2 3867   0.400   0.588   4.599
  990SOL     OW 3868   4.746   6.000   2.645
  990SOL    HW1 3869   4.760   6.095   2.672
  990SOL    HW2 3870   4.771   5.940   2.720
  991SOL     OW 3871   5.792   1.582   5.011
  991SOL    HW1 3872   5.774   1.641   5.090
  991SOL    HW2 3873   5.724   1.599   4.940
  992SOL     OW 3874   6.805   3.224   1.356
  992SOL    HW1 3875   6.799   3.177   1.444
  992SOL    HW2 3876   6.898   3.258   1.343
  993SOL     OW 3877   3.878   5.863   4.664
  993SOL    HW1 3878   3.961   5.917   4.678
  993SOL    HW2 3879   3.884   5.813   4.578
  994SOL     OW 3880   3.262   2.998   2.251
  994SOL    HW1 3881   3.293   3.090   2.227
  994SOL    HW2 3882   3.340   2.944   2.282
  995SOL     OW 3883   0.260   1.252   4.971
  995SOL    HW1 3884   0.345   1.298   4.944
  995SOL    HW2 3885   0.198   1.318   5.013
  996SOL     OW 3886   0.923   3.474   0.735
  996SOL    HW1 3887   1.005   3.422   0.759
  996SOL    HW2 3888   0.877   3.505   0.818
  997SOL     OW 3889   0.386   1.277   0.724
  997SOL    HW1 3890   0.446   1.261   0.802
  997SOL    HW2 3891   0.362   1.374   0.718
  998SOL     OW 3892   4.995   6.750   3.669
  998SOL    HW1 3893   5.021   6.667   3.718
  998SOL    HW2 3894   4.915   6.791   3.713
  999SOL     OW 3895   6.366   5.245   1.514
  999SOL    HW1 3896   6.350   5.283   1.423
  999SOL    HW2 3897   6.377   5.320   1.580
 1000SOL     OW 3898   4.474   2.374   4.227
 1000SOL    HW1 3899   4.512   2.454   4.181
 1000SOL    HW2 3900   4.501   2.375   4.323
 1001SOL     OW 3901   4.300   1.433   6.213
 1001SOL    HW1 3902   4.400   1.436   6.204
 1001SOL    HW2 3903   4.259   1.506   6.159
 1002SOL     OW 3904   0.098   1.145   6.981
 1002SOL    HW1 3905   0.157   1.066   6.968
 1002SOL    HW2 3906   0.097   1.171   0.055
 1003SOL     OW 3907   4.849   4.761   3.068
 1003SOL    HW1 3908   4.941   4.737   3.037
 1003SOL    HW2 3909   4.781   4.717   3.009
 1004SOL     OW 3910   5.930   5.533   0.383
 1004SOL    HW1 3911   5.867   5.489   0.446
 1004SOL    HW2 3912   5.923   5.489   0.293
 1005SOL     OW 3913   6.850   5.439   3.943
 1005SOL    HW1 3914   6.843   5.349   3.985
 1005SOL    HW2 3915   6.763   5.487   3.951
 1006SOL     OW 3916   2.384   3.928   0.346
 1006SOL    HW1 3917   2.469   3.964   0.307
 1006SOL    HW2 3918   2.356   3.847   0.296
 1007SOL     OW 3919   1.030   0.976   3.345
 1007SOL    HW1 3920   1.006   1.072   3.355
 1007SOL    HW2 3921   1.084   0.946   3.423
 1008SOL     OW 3922   2.793   1.975   4.450
 1008SOL    HW1 3923   2.849   1.893   4.452
 1008SOL    HW2 3924   2.851   2.055   4.431
 1009SOL     OW 3925   2.559   5.980   5.430
 1009SOL    HW1 3926   2.474   5.998   5.478
 1009SOL    HW2 3927   2.615   6.063   5.427
 1010SOL     OW 3928   4.840   0.640   6.047
 1010SOL    HW1 3929   4.914   0.703   6.025
 1010SOL    HW2 3930   4.847   0.559   5.989
 1011SOL     OW 3931   3.407   5.950   3.854
 1011SOL    HW1 3932   3.410   6.034   3.907
 1011SOL    HW2 3933   3.436   5.968   3.760
 1012SOL     OW 3934   3.525   5.614   0.707
 1012SOL    HW1 3935   3.596   5.615   0.636
 1012SOL    HW2 3936   3.446   5.563   0.674
 1013SOL     OW 3937   0.525   0.912   0.038
 1013SOL    HW1 3938   0.488   0.824   0.068
 1013SOL    HW2 3939   0.546   0.968   0.119
 1014SOL     OW 3940   5.317   0.406   6.424
 1014SOL    HW1 3941   5.306   0.359   6.336
 1014SOL    HW2 3942   5.392   0.365   6.475
 1015SOL     OW 3943   3.427   0.006   4.666
 1015SOL    HW1 3944   3.404   0.029   4.571
 1015SOL    HW2 3945   3.450   6.932   4.672
 1016SOL     OW 3946   4.677   2.590   2.250
 1016SOL    HW1 3947   4.692   2.651   2.172
 1016SOL    HW2 3948   4.598   2.531   2.231
 1017SOL     OW 3949   4.913   0.861   6.513
 1017SOL    HW1 3950   4.857   0.939   6.540
 1017SOL    HW2 3951   4.863   0.776   6.527
 1018SOL     OW 3952   1.474   2.615   1.584
 1018SOL    HW1 3953   1.408   2.687   1.564
 1018SOL    HW2 3954   1.563   2.641   1.547
 1019SOL     OW 3955   5.961   1.322   0.525
 1019SOL    HW1 3956   5.905   1.388   0.476
 1019SOL    HW2 3957   5.947   1.332   0.623
 1020SOL     OW 3958   3.323   2.168   1.331
 1020SOL    HW1 3959   3.370   2.255   1.326
 1020SOL    HW2 3960   3.389   2.094   1.342
 1021SOL     OW 3961   6.671   1.310   0.709
 1021SOL    HW1 3962   6.665   1.227   0.653
 1021SOL    HW2 3963   6.694   1.387   0.650
 1022SOL     OW 3964   3.676   2.728   0.126
 1022SOL    HW1 3965   3.625   2.687   0.202
 1022SOL    HW2 3966   3.737   2.659   0.086
 1023SOL     OW 3967   6.301   0.613   4.758
 1023SOL    HW1 3968   6.341   0.523   4.778
 1023SOL    HW2 3969   6.266   0.654   4.842
 1024SOL     OW 3970   6.453   1.733   4.010
 1024SOL    HW1 3971   6.480   1.647   4.051
 1024SOL    HW2 3972   6.526   1.768   3.952
 1025SOL     OW 3973   3.500   4.168   1.330
 1025SOL    HW1 3974   3.508   4.197   1.234
 1025SOL    HW2 3975   3.457   4.240   1.383
 1026SOL     OW 3976   0.898   2.861   6.395
 1026SOL    HW1 3977   0.895   2.931   6.324
 1026SOL    HW2 3978   0.813   2.864   6.448
 1027SOL     OW 3979   2.121   4.733   1.381
 1027SOL    HW1 3980   2.204   4.778   1.414
 1027SOL    HW2 3981   2.144   4.643   1.344
 1028SOL     OW 3982   0.508   5.478   0.770
 1028SOL    HW1 3983   0.583   5.419   0.800
 1028SOL    HW2 3984   0.544   5.551   0.713
 1029SOL     OW 3985   3.670   0.896   5.564
 1029SOL    HW1 3986   3.626   0.943   5.488
 1029SOL    HW2 3987   3.654   0.797   5.556
 1030SOL     OW 3988   4.026   4.498   5.428
 1030SOL    HW1 3989   3.944   4.493   5.372
 1030SOL    HW2 3990   4.103   4.459   5.378
 1031SOL     OW 3991   2.248   5.326   0.668
 1031SOL    HW1 3992   2.198   5.413   0.659
 1031SOL    HW2 3993   2.206   5.257   0.610
 1032SOL     OW 3994   1.251   1.551   5.039
 1032SOL    HW1 3995   1.180   1.585   4.977
 1032SOL    HW2 3996   1.310   1.487   4.990
 1033SOL     OW 3997   2.318   6.194   3.111
 1033SOL    HW1 3998   2.346   6.119   3.170
 1033SOL    HW2 3999   2.318   6.280   3.162
 1034SOL     OW 4000   0.980   0.054   1.798
 1034SOL    HW1 4001   0.971   6.996   1.740
 1034SOL    HW2 4002   1.056   0.110   1.766
 1035SOL     OW 4003   3.285   0.806   3.072
 1035SOL    HW1 4004   3.219   0.841   3.005
 1035SOL    HW2 4005   3.239   0.742   3.133
 1036SOL     OW 4006   4.662   6.915   6.679
 1036SOL    HW1 4007   4.607   6.848   6.629
 1036SOL    HW2 4008   4.691   6.987   6.616
 1037SOL     OW 4009   2.996   1.606   6.328
 1037SOL    HW1 4010   3.015   1.703   6.341
 1037SOL    HW2 4011   2.898   1.589   6.341
 1038SOL     OW 4012   2.651   1.410   5.081
 1038SOL    HW1 4013   2.601   1.452   5.005
 1038SOL    HW2 4014   2.599   1.423   5.165
 1039SOL     OW 4015   4.215   2.213   3.505
 1039SOL    HW1 4016   4.179   2.303   3.480
 1039SOL    HW2 4017   4.195   2.195   3.601
 1040SOL     OW 4018   5.761   3.419   4.411
 1040SOL    HW1 4019   5.709   3.458   4.335
 1040SOL    HW2 4020   5.853   3.457   4.411
 1041SOL     OW 4021   1.987   6.657   4.261
 1041SOL    HW1 4022   1.910   6.700   4.214
 1041SOL    HW2 4023   2.027   6.587   4.202
 1042SOL     OW 4024   4.671   3.716   0.858
 1042SOL    HW1 4025   4.618   3.799   0.875
 1042SOL    HW2 4026   4.726   3.694   0.938
 1043SOL     OW 4027   3.716   0.235   6.645
 1043SOL    HW1 4028   3.685   0.159   6.589
 1043SOL    HW2 4029   3.799   0.275   6.605
 1044SOL     OW 4030   4.040   3.825   2.345
 1044SOL    HW1 4031   3.966   3.856   2.406
 1044SOL    HW2 4032   4.068   3.900   2.286
 1045SOL     OW 4033   3.818   1.159   2.983
 1045SOL    HW1 4034   3.832   1.095   3.058
 1045SOL    HW2 4035   3.905   1.203   2.960
 1046SOL     OW 4036   3.546   0.748   2.239
 1046SOL    HW1 4037   3.545   0.843   2.272
 1046SOL    HW2 4038   3.640   0.714   2.236
 1047SOL     OW 4039   0.560   5.267   2.043
 1047SOL    HW1 4040   0.651   5.224   2.047
 1047SOL    HW2 4041   0.564   5.358   2.085
 1048SOL     OW 4042   6.259   4.911   5.195
 1048SOL    HW1 4043   6.249   4.924   5.293
 1048SOL    HW2 4044   6.254   4.813   5.174
 1049SOL     OW 4045   0.640   3.501   5.146
 1049SOL    HW1 4046   0.695   3.417   5.142
 1049SOL    HW2 4047   0.700   3.579   5.168
 1050SOL     OW 4048   2.505   0.704   0.314
 1050SOL    HW1 4049   2.431   0.710   0.381
 1050SOL    HW2 4050   2.501   0.616   0.268
 1051SOL     OW 4051   4.912   4.633   2.515
 1051SOL    HW1 4052   5.010   4.613   2.513
 1051SOL    HW2 4053   4.886   4.680   2.431
 1052SOL     OW 4054   3.997   0.414   4.616
 1052SOL    HW1 4055   4.081   0.465   4.634
 1052SOL    HW2 4056   4.020   0.325   4.577
 1053SOL     OW 4057   3.630   4.898   3.380
 1053SOL    HW1 4058   3.588   4.980   3.341
 1053SOL    HW2 4059   3.721   4.884   3.340
 1054SOL     OW 4060   4.152   5.941   4.617
 1054SOL    HW1 4061   4.218   5.994   4.564
 1054SOL    HW2 4062   4.142   5.981   4.708
 1055SOL     OW 4063   3.680   5.072   3.740
 1055SOL    HW1 4064   3.754   5.090   3.806
 1055SOL    HW2 4065   3.719   5.070   3.647
 1056SOL     OW 4066   2.274   5.426   6.072
 1056SOL    HW1 4067   2.303   5.492   6.002
 1056SOL    HW2 4068   2.312   5.453   6.160
 1057SOL     OW 4069   3.991   3.773   1.259
 1057SOL    HW1 4070   3.949   3.690   1.293
 1057SOL    HW2 4071   4.032   3.755   1.169
 1058SOL     OW 4072   2.836   6.581   2.287
 1058SOL    HW1 4073   2.744   6.553   2.313
 1058SOL    HW2 4074   2.884   6.617   2.367
 1059SOL     OW 4075   3.438   0.677   0.153
 1059SOL    HW1 4076   3.424   0.615   0.075
 1059SOL    HW2 4077   3.349   0.699   0.194
 1060SOL     OW 4078   2.594   1.059   4.528
 1060SOL    HW1 4079   2.571   1.098   4.617
 1060SOL    HW2 4080   2.569   1.124   4.456
 1061SOL     OW 4081   3.065   6.028   1.140
 1061SOL    HW1 4082   3.134   6.057   1.206
 1061SOL    HW2 4083   2.977   6.019   1.187
 1062SOL     OW 4084   4.860   4.818   4.964
 1062SOL    HW1 4085   4.938   4.755   4.968
 1062SOL    HW2 4086   4.867   4.885   5.038
 1063SOL     OW 4087   2.552   2.639   6.101
 1063SOL    HW1 4088   2.516   2.612   6.011
 1063SOL    HW2 4089   2.651   2.650   6.095
 1064SOL     OW 4090   0.432   3.359   2.005
 1064SOL    HW1 4091   0.448   3.355   2.103
 1064SOL    HW2 4092   0.336   3.382   1.987
 1065SOL     OW 4093   4.206   4.973   5.845
 1065SOL    HW1 4094   4.251   4.948   5.760
 1065SOL    HW2 4095   4.119   4.923   5.853
 1066SOL     OW 4096   4.221   6.593   3.277
 1066SOL    HW1 4097   4.277   6.571   3.356
 1066SOL    HW2 4098   4.163   6.514   3.254
 1067SOL     OW 4099   2.705   3.086   0.782
 1067SOL    HW1 4100   2.692   2.994   0.746
 1067SOL    HW2 4101   2.778   3.084   0.851
 1068SOL     OW 4102   0.518   4.249   0.723
 1068SOL    HW1 4103   0.463   4.325   0.756
 1068SOL    HW2 4104   0.471   4.205   0.646
 1069SOL     OW 4105   3.938   3.276   2.448
 1069SOL    HW1 4106   3.966   3.332   2.526
 1069SOL    HW2 4107   3.948   3.328   2.364
 1070SOL     OW 4108   2.586   6.804   0.773
 1070SOL    HW1 4109   2.547   6.714   0.751
 1070SOL    HW2 4110   2.514   6.874   0.767
 1071SOL     OW 4111   4.735   5.586   3.810
 1071SOL    HW1 4112   4.701   5.520   3.744
 1071SOL    HW2 4113   4.779   5.662   3.762
 1072SOL     OW 4114   3.691   5.593   2.638
 1072SOL    HW1 4115   3.668   5.659   2.709
 1072SOL    HW2 4116   3.789   5.573   2.642
 1073SOL     OW 4117   2.656   5.670   2.934
 1073SOL    HW1 4118   2.705   5.584   2.938
 1073SOL    HW2 4119   2.701   5.738   2.992
 1074SOL     OW 4120   1.321   5.641   2.325
 1074SOL    HW1 4121   1.367   5.720   2.283
 1074SOL    HW2 4122   1.379   5.602   2.396
 1075SOL     OW 4123   1.131   4.449   3.130
 1075SOL    HW1 4124   1.211   4.400   3.096
 1075SOL    HW2 4125   1.157   4.503   3.210
 1076SOL     OW 4126   6.859   3.805   2.729
 1076SOL    HW1 4127   6.789   3.829   2.661
 1076SOL    HW2 4128   6.927   3.878   2.734
 1077SOL     OW 4129   5.309   0.599   1.708
 1077SOL    HW1 4130   5.220   0.644   1.701
 1077SOL    HW2 4131   5.316   0.528   1.638
 1078SOL     OW 4132   0.365   3.151   1.737
 1078SOL    HW1 4133   0.378   3.081   1.806
 1078SOL    HW2 4134   0.412   3.235   1.765
 1079SOL     OW 4135   2.063   5.303   3.095
 1079SOL    HW1 4136   2.087   5.205   3.096
 1079SOL    HW2 4137   1.985   5.318   3.155
 1080SOL     OW 4138   1.729   5.867   3.664
 1080SOL    HW1 4139   1.739   5.858   3.763
 1080SOL    HW2 4140   1.817   5.891   3.623
 1081SOL     OW 4141   1.476   0.580   0.114
 1081SOL    HW1 4142   1.550   0.636   0.076
 1081SOL    HW2 4143   1.515   0.503   0.164
 1082SOL     OW 4144   2.110   7.005   0.941
 1082SOL    HW1 4145   2.157   6.970   0.860
 1082SOL    HW2 4146   2.033   0.039   0.913
 1083SOL     OW 4147   3.460   2.447   1.692
 1083SOL    HW1 4148   3.531   2.420   1.756
 1083SOL    HW2 4149   3.396   2.371   1.679
 1084SOL     OW 4150   6.661   3.704   0.718
 1084SOL    HW1 4151   6.617   3.658   0.795
 1084SOL    HW2 4152   6.674   3.801   0.740
 1085SOL     OW 4153   1.507   5.099   3.575
 1085SOL    HW1 4154   1.548   5.016   3.538
 1085SOL    HW2 4155   1.565   5.178   3.552
 1086SOL     OW 4156   3.650   5.268   2.273
 1086SOL    HW1 4157   3.655   5.368   2.277
 1086SOL    HW2 4158   3.673   5.231   2.363
 1087SOL     OW 4159   4.021   3.268   4.860
 1087SOL    HW1 4160   3.945   3.219   4.903
 1087SOL    HW2 4161   4.008   3.268   4.761
 1088SOL     OW 4162   6.307   4.424   2.649
 1088SOL    HW1 4163   6.373   4.416   2.574
 1088SOL    HW2 4164   6.286   4.333   2.684
 1089SOL     OW 4165   6.183   6.686   3.009
 1089SOL    HW1 4166   6.177   6.596   3.054
 1089SOL    HW2 4167   6.273   6.725   3.027
 1090SOL     OW 4168   1.770   1.553   6.306
 1090SOL    HW1 4169   1.726   1.576   6.393
 1090SOL    HW2 4170   1.736   1.465   6.274
 1091SOL     OW 4171   1.114   2.613   5.788
 1091SOL    HW1 4172   1.022   2.646   5.808
 1091SOL    HW2 4173   1.170   2.688   5.753
 1092SOL     OW 4174   2.172   4.445   1.261
 1092SOL    HW1 4175   2.270   4.465   1.263
 1092SOL    HW2 4176   2.146   4.414   1.170
 1093SOL     OW 4177   0.025   2.462   1.537
 1093SOL    HW1 4178   0.044   2.432   1.630
 1093SOL    HW2 4179   6.952   2.490   1.530
 1094SOL     OW 4180   0.608   6.781   1.892
 1094SOL    HW1 4181   0.589   6.786   1.794
 1094SOL    HW2 4182   0.570   6.696   1.929
 1095SOL     OW 4183   0.047   3.776   5.766
 1095SOL    HW1 4184   0.102   3.859   5.761
 1095SOL    HW2 4185   0.018   3.749   5.675
 1096SOL     OW 4186   3.428   3.418   1.730
 1096SOL    HW1 4187   3.523   3.401   1.704
 1096SOL    HW2 4188   3.423   3.435   1.828
 1097SOL     OW 4189   2.481   4.141   5.898
 1097SOL    HW1 4190   2.401   4.088   5.870
 1097SOL    HW2 4191   2.460   4.194   5.980
 1098SOL     OW 4192   4.059   0.545   2.431
 1098SOL    HW1 4193   4.150   0.504   2.434
 1098SOL    HW2 4194   4.068   0.644   2.416
 1099SOL     OW 4195   3.350   0.596   2.360
 1099SOL    HW1 4196   3.331   0.529   2.288
 1099SOL    HW2 4197   3.423   0.657   2.330
 1100SOL     OW 4198   6.593   1.040   6.723
 1100SOL    HW1 4199   6.560   0.963   6.667
 1100SOL    HW2 4200   6.672   1.010   6.776
 1101SOL     OW 4201   5.282   3.286   1.613
 1101SOL    HW1 4202   5.327   3.356   1.558
 1101SOL    HW2 4203   5.324   3.197   1.595
 1102SOL     OW 4204   0.022   4.022   3.875
 1102SOL    HW1 4205   0.006   4.095   3.809
 1102SOL    HW2 4206   0.004   4.056   3.968
 1103SOL     OW 4207   0.124   3.551   7.017
 1103SOL    HW1 4208   0.222   3.549   0.012
 1103SOL    HW2 4209   0.075   3.507   0.069
 1104SOL     OW 4210   2.627   5.453   6.506
 1104SOL    HW1 4211   2.588   5.379   6.451
 1104SOL    HW2 4212   2.585   5.453   6.596
 1105SOL     OW 4213   3.824   5.456   1.235
 1105SOL    HW1 4214   3.874   5.509   1.303
 1105SOL    HW2 4215   3.863   5.474   1.144
 1106SOL     OW 4216   1.144   0.901   6.366
 1106SOL    HW1 4217   1.231   0.911   6.317
 1106SOL    HW2 4218   1.128   0.805   6.386
 1107SOL     OW 4219   6.775   0.437   1.112
 1107SOL    HW1 4220   6.766   0.527   1.070
 1107SOL    HW2 4221   6.689   0.387   1.101
 1108SOL     OW 4222   1.011   0.808   6.772
 1108SOL    HW1 4223   1.039   0.820   6.868
 1108SOL    HW2 4224   1.092   0.807   6.714
 1109SOL     OW 4225   5.012   0.656   3.876
 1109SOL    HW1 4226   5.012   0.632   3.779
 1109SOL    HW2 4227   5.104   0.644   3.913
 1110SOL     OW 4228   3.653   3.125   2.644
 1110SOL    HW1 4229   3.716   3.145   2.569
 1110SOL    HW2 4230   3.615   3.211   2.679
 1111SOL     OW 4231   4.845   6.958   0.077
 1111SOL    HW1 4232   4.918   6.932   0.014
 1111SOL    HW2 4233   4.756   6.939   0.034
 1112SOL     OW 4234   0.862   1.225   2.337
 1112SOL    HW1 4235   0.838   1.198   2.430
 1112SOL    HW2 4236   0.887   1.322   2.336
 1113SOL     OW 4237   6.204   4.020   1.448
 1113SOL    HW1 4238   6.110   4.016   1.415
 1113SOL    HW2 4239   6.236   4.115   1.446
 1114SOL     OW 4240   5.490   1.041   5.670
 1114SOL    HW1 4241   5.558   1.102   5.712
 1114SOL    HW2 4242   5.525   1.007   5.583
 1115SOL     OW 4243   2.491   4.142   0.827
 1115SOL    HW1 4244   2.438   4.202   0.887
 1115SOL    HW2 4245   2.553   4.197   0.772
 1116SOL     OW 4246   3.869   6.685   6.538
 1116SOL    HW1 4247   3.844   6.744   6.461
 1116SOL    HW2 4248   3.895   6.595   6.504
 1117SOL     OW 4249   2.704   2.613   0.865
 1117SOL    HW1 4250   2.618   2.564   0.852
 1117SOL    HW2 4251   2.709   2.689   0.801
 1118SOL     OW 4252   1.699   2.924   2.124
 1118SOL    HW1 4253   1.697   2.832   2.163
 1118SOL    HW2 4254   1.619   2.936   2.065
 1119SOL     OW 4255   3.004   3.609   2.853
 1119SOL    HW1 4256   2.959   3.571   2.773
 1119SOL    HW2 4257   2.978   3.557   2.934
 1120SOL     OW 4258   4.670   1.077   4.163
 1120SOL    HW1 4259   4.631   0.990   4.192
 1120SOL    HW2 4260   4.770   1.072   4.169
 1121SOL     OW 4261   5.332   3.158   2.996
 1121SOL    HW1 4262   5.420   3.184   3.036
 1121SOL    HW2 4263   5.285   3.094   3.057
 1122SOL     OW 4264   4.298   5.119   6.866
 1122SOL    HW1 4265   4.308   5.206   6.818
 1122SOL    HW2 4266   4.231   5.062   6.818
 1123SOL     OW 4267   3.673   1.366   2.006
 1123SOL    HW1 4268   3.693   1.296   2.075
 1123SOL    HW2 4269   3.713   1.339   1.919
 1124SOL     OW 4270   1.642   4.986   4.709
 1124SOL    HW1 4271   1.571   4.939   4.760
 1124SOL    HW2 4272   1.730   4.940   4.724
 1125SOL     OW 4273   2.877   3.541   5.208
 1125SOL    HW1 4274   2.854   3.638   5.197
 1125SOL    HW2 4275   2.803   3.494   5.256
 1126SOL     OW 4276   6.225   0.189   2.203
 1126SOL    HW1 4277   6.318   0.153   2.194
 1126SOL    HW2 4278   6.180   0.146   2.281
 1127SOL     OW 4279   2.085   5.613   6.259
 1127SOL    HW1 4280   2.055   5.533   6.311
 1127SOL    HW2 4281   2.020   5.687   6.271
 1128SOL     OW 4282   2.662   1.645   4.065
 1128SOL    HW1 4283   2.589   1.626   4.129
 1128SOL    HW2 4284   2.661   1.578   3.991
 1129SOL     OW 4285   4.612   6.885   6.190
 1129SOL    HW1 4286   4.549   6.900   6.114
 1129SOL    HW2 4287   4.671   6.965   6.201
 1130SOL     OW 4288   0.581   5.650   5.957
 1130SOL    HW1 4289   0.493   5.692   5.937
 1130SOL    HW2 4290   0.654   5.718   5.947
 1131SOL     OW 4291   0.572   5.203   5.471
 1131SOL    HW1 4292   0.539   5.227   5.379
 1131SOL    HW2 4293   0.649   5.140   5.463
 1132SOL     OW 4294   5.366   6.613   5.181
 1132SOL    HW1 4295   5.377   6.624   5.082
 1132SOL    HW2 4296   5.411   6.529   5.210
 1133SOL     OW 4297   0.149   2.667   6.635
 1133SOL    HW1 4298   0.113   2.580   6.668
 1133SOL    HW2 4299   0.244   2.656   6.608
 1134SOL     OW 4300   6.918   2.631   5.905
 1134SOL    HW1 4301   6.852   2.692   5.948
 1134SOL    HW2 4302   6.978   2.593   5.975
 1135SOL     OW 4303   6.407   1.845   4.250
 1135SOL    HW1 4304   6.410   1.945   4.249
 1135SOL    HW2 4305   6.420   1.810   4.158
 1136SOL     OW 4306   3.429   5.286   4.097
 1136SOL    HW1 4307   3.430   5.371   4.045
 1136SOL    HW2 4308   3.464   5.303   4.189
 1137SOL     OW 4309   1.402   0.814   6.154
 1137SOL    HW1 4310   1.471   0.872   6.197
 1137SOL    HW2 4311   1.446   0.749   6.093
 1138SOL     OW 4312   1.015   4.034   5.903
 1138SOL    HW1 4313   1.044   4.086   5.984
 1138SOL    HW2 4314   0.995   4.097   5.828
 1139SOL     OW 4315   1.046   6.860   1.637
 1139SOL    HW1 4316   1.077   6.875   1.543
 1139SOL    HW2 4317   0.980   6.786   1.638
 1140SOL     OW 4318   3.731   1.922   3.155
 1140SOL    HW1 4319   3.820   1.946   3.193
 1140SOL    HW2 4320   3.703   1.832   3.188
 1141SOL     OW 4321   0.035   6.130   6.059
 1141SOL    HW1 4322   6.984   6.173   6.006
 1141SOL    HW2 4323   0.031   6.161   6.153
 1142SOL     OW 4324   6.425   0.688   4.526
 1142SOL    HW1 4325   6.375   0.685   4.612
 1142SOL    HW2 4326   6.417   0.779   4.486
 1143SOL     OW 4327   4.657   1.621   1.775
 1143SOL    HW1 4328   4.660   1.718   1.752
 1143SOL    HW2 4329   4.730   1.573   1.727
 1144SOL     OW 4330   1.076   0.146   5.047
 1144SOL    HW1 4331   1.153   0.083   5.062
 1144SOL    HW2 4332   1.103   0.216   4.981
 1145SOL     OW 4333   2.144   4.634   4.923
 1145SOL    HW1 4334   2.240   4.609   4.924
 1145SOL    HW2 4335   2.087   4.552   4.930
 1146SOL     OW 4336   6.020   1.994   0.900
 1146SOL    HW1 4337   6.025   2.049   0.983
 1146SOL    HW2 4338   6.112   1.967   0.872
 1147SOL     OW 4339   6.565   3.543   2.222
 1147SOL    HW1 4340   6.522   3.615   2.277
 1147SOL    HW2 4341   6.610   3.584   2.143
 1148SOL     OW 4342   5.168   1.071   6.713
 1148SOL    HW1 4343   5.171   1.120   6.801
 1148SOL    HW2 4344   5.217   0.985   6.721
 1149SOL     OW 4345   5.742   2.295   3.512
 1149SOL    HW1 4346   5.837   2.265   3.499
 1149SOL    HW2 4347   5.741   2.378   3.567
 1150SOL     OW 4348   1.399   5.151   5.490
 1150SOL    HW1 4349   1.435   5.203   5.567
 1150SOL    HW2 4350   1.364   5.214   5.421
 1151SOL     OW 4351   2.862   5.125   6.953
 1151SOL    HW1 4352   2.898   5.126   0.024
 1151SOL    HW2 4353   2.852   5.031   6.923
 1152SOL     OW 4354   0.725   1.076   4.244
 1152SOL    HW1 4355   0.689   1.150   4.300
 1152SOL    HW2 4356   0.668   0.994   4.256
 1153SOL     OW 4357   2.458   4.745   2.660
 1153SOL    HW1 4358   2.448   4.683   2.738
 1153SOL    HW2 4359   2.527   4.710   2.597
 1154SOL     OW 4360   1.553   4.013   2.382
 1154SOL    HW1 4361   1.560   4.113   2.385
 1154SOL    HW2 4362   1.644   3.974   2.367
 1155SOL     OW 4363   3.975   6.739   2.643
 1155SOL    HW1 4364   3.947   6.721   2.737
 1155SOL    HW2 4365   4.024   6.826   2.637
 1156SOL     OW 4366   1.536   1.615   3.802
 1156SOL    HW1 4367   1.443   1.581   3.795
 1156SOL    HW2 4368   1.566   1.611   3.898
 1157SOL     OW 4369   1.329   3.147   4.394
 1157SOL    HW1 4370   1.419   3.152   4.438
 1157SOL    HW2 4371   1.286   3.237   4.396
 1158SOL     OW 4372   4.155   5.930   6.564
 1158SOL    HW1 4373   4.163   5.881   6.651
 1158SOL    HW2 4374   4.220   5.892   6.498
 1159SOL     OW 4375   5.834   4.748   2.466
 1159SOL    HW1 4376   5.808   4.815   2.536
 1159SOL    HW2 4377   5.765   4.748   2.393
 1160SOL     OW 4378   3.024   2.925   1.121
 1160SOL    HW1 4379   2.988   2.860   1.187
 1160SOL    HW2 4380   3.114   2.894   1.089
 1161SOL     OW 4381   4.391   0.932   4.047
 1161SOL    HW1 4382   4.357   0.916   3.955
 1161SOL    HW2 4383   4.436   0.850   4.081
 1162SOL     OW 4384   4.151   5.009   1.219
 1162SOL    HW1 4385   4.082   5.035   1.152
 1162SOL    HW2 4386   4.146   4.911   1.236
 1163SOL     OW 4387   5.195   0.352   2.414
 1163SOL    HW1 4388   5.155   0.351   2.322
 1163SOL    HW2 4389   5.288   0.389   2.410
 1164SOL     OW 4390   6.170   3.799   4.024
 1164SOL    HW1 4391   6.169   3.727   4.093
 1164SOL    HW2 4392   6.186   3.759   3.934
 1165SOL     OW 4393   1.435   4.634   2.659
 1165SOL    HW1 4394   1.399   4.587   2.739
 1165SOL    HW2 4395   1.407   4.586   2.576
 1166SOL     OW 4396   3.359   2.283   6.629
 1166SOL    HW1 4397   3.275   2.337   6.628
 1166SOL    HW2 4398   3.433   2.338   6.589
 1167SOL     OW 4399   3.898   1.925   5.309
 1167SOL    HW1 4400   3.897   2.017   5.348
 1167SOL    HW2 4401   3.876   1.929   5.212
 1168SOL     OW 4402   5.862   6.844   3.278
 1168SOL    HW1 4403   5.773   6.886   3.262
 1168SOL    HW2 4404   5.903   6.817   3.191
 1169SOL     OW 4405   0.830   3.365   1.465
 1169SOL    HW1 4406   0.850   3.269   1.481
 1169SOL    HW2 4407   0.740   3.374   1.422
 1170SOL     OW 4408   2.906   0.563   1.220
 1170SOL    HW1 4409   2.926   0.658   1.247
 1170SOL    HW2 4410   2.883   0.560   1.123
 1171SOL     OW 4411   2.861   0.534   0.017
 1171SOL    HW1 4412   2.847   0.533   0.116
 1171SOL    HW2 4413   2.800   0.602   6.999
 1172SOL     OW 4414   3.245   3.606   4.909
 1172SOL    HW1 4415   3.149   3.631   4.922
 1172SOL    HW2 4416   3.251   3.521   4.857
 1173SOL     OW 4417   4.982   0.244   6.329
 1173SOL    HW1 4418   5.073   0.237   6.370
 1173SOL    HW2 4419   4.968   0.336   6.291
 1174SOL     OW 4420   3.510   6.088   0.005
 1174SOL    HW1 4421   3.556   6.063   0.089
 1174SOL    HW2 4422   3.524   6.017   6.959
 1175SOL     OW 4423   0.051   5.116   4.771
 1175SOL    HW1 4424   0.096   5.028   4.789
 1175SOL    HW2 4425   0.060   5.174   4.852
 1176SOL     OW 4426   6.265   3.069   1.066
 1176SOL    HW1 4427   6.292   3.011   1.143
 1176SOL    HW2 4428   6.341   3.129   1.041
 1177SOL     OW 4429   5.588   3.374   6.943
 1177SOL    HW1 4430   5.670   3.352   6.995
 1177SOL    HW2 4431   5.612   3.435   6.867
 1178SOL     OW 4432   5.455   4.290   2.488
 1178SOL    HW1 4433   5.456   4.261   2.392
 1178SOL    HW2 4434   5.511   4.373   2.498
 1179SOL     OW 4435   2.110   5.738   6.011
 1179SOL    HW1 4436   2.150   5.697   5.929
 1179SOL    HW2 4437   2.141   5.688   6.092
 1180SOL     OW 4438   1.689   1.056   3.756
 1180SOL    HW1 4439   1.731   1.077   3.845
 1180SOL    HW2 4440   1.709   1.131   3.692
 1181SOL     OW 4441   1.765   4.482   2.610
 1181SOL    HW1 4442   1.682   4.442   2.648
 1181SOL    HW2 4443   1.823   4.517   2.684
 1182SOL     OW 4444   1.028   3.953   3.879
 1182SOL    HW1 4445   1.020   3.950   3.979
 1182SOL    HW2 4446   0.983   3.873   3.839
 1183SOL     OW 4447   4.887   6.338   0.790
 1183SOL    HW1 4448   4.920   6.363   0.699
 1183SOL    HW2 4449   4.814   6.270   0.781
 1184SOL     OW 4450   3.551   3.005   6.082
 1184SOL    HW1 4451   3.471   3.054   6.046
 1184SOL    HW2 4452   3.533   2.906   6.077
 1185SOL     OW 4453   2.677   1.507   6.395
 1185SOL    HW1 4454   2.715   1.425   6.352
 1185SOL    HW2 4455   2.597   1.483   6.449
 1186SOL     OW 4456   3.533   0.720   5.033
 1186SOL    HW1 4457   3.602   0.791   5.016
 1186SOL    HW2 4458   3.445   0.749   4.995
 1187SOL     OW 4459   0.525   2.017   5.030
 1187SOL    HW1 4460   0.437   1.993   4.989
 1187SOL    HW2 4461   0.592   1.946   5.010
 1188SOL     OW 4462   1.174   0.495   4.589
 1188SOL    HW1 4463   1.139   0.402   4.589
 1188SOL    HW2 4464   1.102   0.558   4.560
 1189SOL     OW 4465   0.159   1.065   1.336
 1189SOL    HW1 4466   0.154   0.986   1.397
 1189SOL    HW2 4467   0.153   1.034   1.241
 1190SOL     OW 4468   4.451   4.966   2.526
 1190SOL    HW1 4469   4.496   4.952   2.438
 1190SOL    HW2 4470   4.511   4.935   2.600
 1191SOL     OW 4471   2.751   4.454   1.346
 1191SOL    HW1 4472   2.848   4.475   1.335
 1191SOL    HW2 4473   2.705   4.531   1.389
 1192SOL     OW 4474   4.588   4.834   2.711
 1192SOL    HW1 4475   4.683   4.829   2.679
 1192SOL    HW2 4476   4.562   4.747   2.752
 1193SOL     OW 4477   3.940   6.994   4.175
 1193SOL    HW1 4478   3.902   6.913   4.220
 1193SOL    HW2 4479   3.916   6.992   4.078
 1194SOL     OW 4480   5.851   1.229   1.579
 1194SOL    HW1 4481   5.873   1.163   1.651
 1194SOL    HW2 4482   5.870   1.321   1.612
 1195SOL     OW 4483   3.190   6.440   0.087
 1195SOL    HW1 4484   3.108   6.473   0.133
 1195SOL    HW2 4485   3.243   6.518   0.053
 1196SOL     OW 4486   1.139   5.275   3.311
 1196SOL    HW1 4487   1.127   5.358   3.366
 1196SOL    HW2 4488   1.148   5.300   3.214
 1197SOL     OW 4489   3.199   4.988   6.962
 1197SOL    HW1 4490   3.179   5.084   6.983
 1197SOL    HW2 4491   3.162   4.965   6.872
 1198SOL     OW 4492   3.601   1.010   2.375
 1198SOL    HW1 4493   3.581   1.084   2.311
 1198SOL    HW2 4494   3.698   0.984   2.368
 1199SOL     OW 4495   3.082   3.683   3.933
 1199SOL    HW1 4496   3.125   3.610   3.881
 1199SOL    HW2 4497   3.083   3.661   4.030
 1200SOL     OW 4498   4.484   3.182   1.062
 1200SOL    HW1 4499   4.426   3.112   1.104
 1200SOL    HW2 4500   4.502   3.254   1.128
 1201SOL     OW 4501   1.503   1.362   5.017
 1201SOL    HW1 4502   1.451   1.363   4.931
 1201SOL    HW2 4503   1.574   1.292   5.013
 1202SOL     OW 4504   6.305   0.201   4.910
 1202SOL    HW1 4505   6.336   0.107   4.891
 1202SOL    HW2 4506   6.209   0.210   4.886
 1203SOL     OW 4507   6.438   6.591   1.741
 1203SOL    HW1 4508   6.388   6.623   1.661
 1203SOL    HW2 4509   6.377   6.590   1.820
 1204SOL     OW 4510   1.419   0.033   6.715
 1204SOL    HW1 4511   1.504   0.038   6.768
 1204SOL    HW2 4512   1.341   0.052   6.775
 1205SOL     OW 4513   0.994   3.140   5.176
 1205SOL    HW1 4514   1.044   3.226   5.167
 1205SOL    HW2 4515   0.964   3.129   5.271
 1206SOL     OW 4516   0.317   2.166   4.471
 1206SOL    HW1 4517   0.403   2.151   4.422
 1206SOL    HW2 4518   0.241   2.167   4.406
 1207SOL     OW 4519   5.996   6.621   6.794
 1207SOL    HW1 4520   6.062   6.627   6.719
 1207SOL    HW2 4521   5.998   6.705   6.847
 1208SOL     OW 4522   3.554   3.604   2.913
 1208SOL    HW1 4523   3.457   3.616   2.890
 1208SOL    HW2 4524   3.610   3.653   2.846
 1209SOL     OW 4525   6.659   4.557   4.803
 1209SOL    HW1 4526   6.651   4.462   4.833
 1209SOL    HW2 4527   6.648   4.618   4.882
 1210SOL     OW 4528   2.566   0.013   2.873
 1210SOL    HW1 4529   2.527   0.010   2.781
 1210SOL    HW2 4530   2.646   6.976   2.876
 1211SOL     OW 4531   0.990   2.863   3.149
 1211SOL    HW1 4532   1.023   2.891   3.059
 1211SOL    HW2 4533   0.890   2.856   3.147
 1212SOL     OW 4534   0.675   4.498   3.637
 1212SOL    HW1 4535   0.598   4.494   3.572
 1212SOL    HW2 4536   0.666   4.580   3.694
 1213SOL     OW 4537   5.627   3.307   5.091
 1213SOL    HW1 4538   5.583   3.371   5.028
 1213SOL    HW2 4539   5.691   3.357   5.150
 1214SOL     OW 4540   1.573   2.137   1.592
 1214SOL    HW1 4541   1.640   2.076   1.635
 1214SOL    HW2 4542   1.545   2.207   1.658
 1215SOL     OW 4543   7.003   5.256   2.171
 1215SOL    HW1 4544   6.952   5.334   2.136
 1215SOL    HW2 4545   6.961   5.171   2.140
 1216SOL     OW 4546   2.407   6.995   1.810
 1216SOL    HW1 4547   2.495   7.023   1.848
 1216SOL    HW2 4548   2.361   0.052   1.769
 1217SOL     OW 4549   2.110   1.932   2.552
 1217SOL    HW1 4550   2.045   1.877   2.605
 1217SOL    HW2 4551   2.132   2.015   2.602
 1218SOL     OW 4552   0.171   3.334   3.567
 1218SOL    HW1 4553   0.145   3.386   3.486
 1218SOL    HW2 4554   0.118   3.249   3.570
 1219SOL     OW 4555   2.675   5.525   3.675
 1219SOL    HW1 4556   2.627   5.507   3.589
 1219SOL    HW2 4557   2.731   5.446   3.700
 1220SOL     OW 4558   6.003   4.544   2.498
 1220SOL    HW1 4559   5.932   4.612   2.475
 1220SOL    HW2 4560   6.037   4.562   2.591
 1221SOL     OW 4561   4.802   4.530   6.336
 1221SOL    HW1 4562   4.854   4.515   6.420
 1221SOL    HW2 4563   4.854   4.589   6.274
 1222SOL     OW 4564   6.216   4.855   1.216
 1222SOL    HW1 4565   6.234   4.833   1.312
 1222SOL    HW2 4566   6.280   4.926   1.185
 1223SOL     OW 4567   6.831   5.119   5.277
 1223SOL    HW1 4568   6.843   5.022   5.297
 1223SOL    HW2 4569   6.837   5.134   5.178
 1224SOL     OW 4570   4.389   4.714   0.929
 1224SOL    HW1 4571   4.422   4.808   0.919
 1224SOL    HW2 4572   4.333   4.690   0.850
 1225SOL     OW 4573   3.548   2.102   6.782
 1225SOL    HW1 4574   3.547   2.024   6.720
 1225SOL    HW2 4575   3.470   2.162   6.762
 1226SOL     OW 4576   5.717   5.441   0.532
 1226SOL    HW1 4577   5.659   5.523   0.525
 1226SOL    HW2 4578   5.659   5.360   0.542
 1227SOL     OW 4579   4.884   4.823   6.944
 1227SOL    HW1 4580   4.854   4.918   6.935
 1227SOL    HW2 4581   4.830   4.778   7.015
 1228SOL     OW 4582   3.807   4.066   4.093
 1228SOL    HW1 4583   3.817   4.163   4.072
 1228SOL    HW2 4584   3.884   4.036   4.149
 1229SOL     OW 4585   2.414   5.729   3.193
 1229SOL    HW1 4586   2.498   5.675   3.198
 1229SOL    HW2 4587   2.336   5.667   3.179
 1230SOL     OW 4588   4.861   5.457   1.107
 1230SOL    HW1 4589   4.830   5.529   1.046
 1230SOL    HW2 4590   4.795   5.382   1.107
 1231SOL     OW 4591   2.446   1.410   0.015
 1231SOL    HW1 4592   2.369   1.423   0.078
 1231SOL    HW2 4593   2.418   1.350   6.963
 1232SOL     OW 4594   3.115   1.398   5.291
 1232SOL    HW1 4595   3.077   1.324   5.236
 1232SOL    HW2 4596   3.044   1.466   5.309
 1233SOL     OW 4597   6.828   5.499   4.811
 1233SOL    HW1 4598   6.746   5.467   4.763
 1233SOL    HW2 4599   6.908   5.453   4.774
 1234SOL     OW 4600   6.224   4.595   6.933
 1234SOL    HW1 4601   6.250   4.645   6.850
 1234SOL    HW2 4602   6.206   4.660   7.006
 1235SOL     OW 4603   5.977   4.824   1.125
 1235SOL    HW1 4604   5.961   4.851   1.030
 1235SOL    HW2 4605   6.072   4.843   1.149
 1236SOL     OW 4606   1.557   1.112   2.597
 1236SOL    HW1 4607   1.594   1.097   2.505
 1236SOL    HW2 4608   1.627   1.088   2.665
 1237SOL     OW 4609   1.094   0.089   4.236
 1237SOL    HW1 4610   1.013   0.145   4.255
 1237SOL    HW2 4611   1.175   0.134   4.272
 1238SOL     OW 4612   0.670   0.634   4.513
 1238SOL    HW1 4613   0.711   0.575   4.443
 1238SOL    HW2 4614   0.596   0.584   4.559
 1239SOL     OW 4615   4.677   4.635   3.850
 1239SOL    HW1 4616   4.715   4.626   3.943
 1239SOL    HW2 4617   4.715   4.563   3.792
 1240SOL     OW 4618   0.552   3.663   0.643
 1240SOL    HW1 4619   0.580   3.567   0.637
 1240SOL    HW2 4620   0.609   3.710   0.711
 1241SOL     OW 4621   4.037   5.296   6.035
 1241SOL    HW1 4622   4.016   5.300   6.133
 1241SOL    HW2 4623   3.959   5.259   5.985
 1242SOL     OW 4624   2.180   5.378   0.367
 1242SOL    HW1 4625   2.266   5.364   0.318
 1242SOL    HW2 4626   2.186   5.336   0.457
 1243SOL     OW 4627   1.230   3.459   3.618
 1243SOL    HW1 4628   1.293   3.384   3.635
 1243SOL    HW2 4629   1.273   3.545   3.645
 1244SOL     OW 4630   6.097   7.006   5.282
 1244SOL    HW1 4631   6.156   0.062   5.269
 1244SOL    HW2 4632   6.032   0.002   5.356
 1245SOL     OW 4633   4.445   6.708   1.383
 1245SOL    HW1 4634   4.411   6.751   1.299
 1245SOL    HW2 4635   4.435   6.609   1.375
 1246SOL     OW 4636   5.683   1.863   1.170
 1246SOL    HW1 4637   5.621   1.826   1.239
 1246SOL    HW2 4638   5.675   1.963   1.167
 1247SOL     OW 4639   5.627   6.465   2.402
 1247SOL    HW1 4640   5.685   6.391   2.367
 1247SOL    HW2 4641   5.675   6.552   2.393
 1248SOL     OW 4642   0.855   6.801   4.548
 1248SOL    HW1 4643   0.767   6.846   4.537
 1248SOL    HW2 4644   0.908   6.811   4.464
 1249SOL     OW 4645   5.934   6.348   6.731
 1249SOL    HW1 4646   5.988   6.301   6.662
 1249SOL    HW2 4647   5.949   6.447   6.723
 1250SOL     OW 4648   0.825   4.499   4.936
 1250SOL    HW1 4649   0.838   4.400   4.941
 1250SOL    HW2 4650   0.823   4.528   4.840
 1251SOL     OW 4651   3.019   0.151   2.708
 1251SOL    HW1 4652   3.014   0.243   2.669
 1251SOL    HW2 4653   3.013   0.157   2.808
 1252SOL     OW 4654   2.590   5.260   6.987
 1252SOL    HW1 4655   2.675   5.217   6.958
 1252SOL    HW2 4656   2.529   5.191   0.002
 1253SOL     OW 4657   2.876   6.291   6.974
 1253SOL    HW1 4658   2.877   6.246   0.041
 1253SOL    HW2 4659   2.958   6.265   6.923
 1254SOL     OW 4660   6.224   1.527   3.831
 1254SOL    HW1 4661   6.144   1.535   3.770
 1254SOL    HW2 4662   6.243   1.617   3.871
 1255SOL     OW 4663   6.144   2.124   5.556
 1255SOL    HW1 4664   6.120   2.059   5.484
 1255SOL    HW2 4665   6.238   2.157   5.541
 1256SOL     OW 4666   0.328   5.613   5.013
 1256SOL    HW1 4667   0.401   5.560   4.969
 1256SOL    HW2 4668   0.283   5.557   5.081
 1257SOL     OW 4669   6.864   6.016   3.384
 1257SOL    HW1 4670   6.855   5.970   3.296
 1257SOL    HW2 4671   6.961   6.028   3.405
 1258SOL     OW 4672   4.673   5.713   6.577
 1258SOL    HW1 4673   4.718   5.673   6.657
 1258SOL    HW2 4674   4.657   5.811   6.594
 1259SOL     OW 4675   5.373   0.055   5.327
 1259SOL    HW1 4676   5.421   6.994   5.304
 1259SOL    HW2 4677   5.327   0.091   5.246
 1260SOL     OW 4678   3.148   1.209   0.879
 1260SOL    HW1 4679   3.226   1.198   0.942
 1260SOL    HW2 4680   3.068   1.163   0.917
 1261SOL     OW 4681   0.048   4.474   4.850
 1261SOL    HW1 4682   0.023   4.471   4.946
 1261SOL    HW2 4683   0.053   4.382   4.813
 1262SOL     OW 4684   4.081   5.737   1.859
 1262SOL    HW1 4685   4.072   5.686   1.945
 1262SOL    HW2 4686   4.098   5.672   1.784
 1263SOL     OW 4687   0.020   1.791   0.531
 1263SOL    HW1 4688   7.012   1.716   0.590
 1263SOL    HW2 4689   0.071   1.858   0.585
 1264SOL     OW 4690   6.247   2.600   4.414
 1264SOL    HW1 4691   6.213   2.644   4.497
 1264SOL    HW2 4692   6.235   2.661   4.336
 1265SOL     OW 4693   6.586   5.888   4.724
 1265SOL    HW1 4694   6.679   5.856   4.708
 1265SOL    HW2 4695   6.540   5.903   4.636
 1266SOL     OW 4696   2.982   1.086   3.649
 1266SOL    HW1 4697   3.026   1.005   3.688
 1266SOL    HW2 4698   2.919   1.125   3.716
 1267SOL     OW 4699   0.292   4.291   2.744
 1267SOL    HW1 4700   0.221   4.318   2.679
 1267SOL    HW2 4701   0.274   4.198   2.777
 1268SOL     OW 4702   5.956   4.511   6.927
 1268SOL    HW1 4703   5.934   4.593   6.980
 1268SOL    HW2 4704   6.054   4.510   6.905
 1269SOL     OW 4705   6.854   5.084   6.164
 1269SOL    HW1 4706   6.771   5.101   6.111
 1269SOL    HW2 4707   6.927   5.143   6.131
 1270SOL     OW 4708   1.461   1.696   4.704
 1270SOL    HW1 4709   1.528   1.738   4.643
 1270SOL    HW2 4710   1.373   1.742   4.694
 1271SOL     OW 4711   5.140   2.611   3.853
 1271SOL    HW1 4712   5.139   2.573   3.760
 1271SOL    HW2 4713   5.127   2.710   3.848
 1272SOL     OW 4714   6.072   6.677   1.159
 1272SOL    HW1 4715   6.067   6.585   1.199
 1272SOL    HW2 4716   6.037   6.744   1.225
 1273SOL     OW 4717   2.534   6.452   5.630
 1273SOL    HW1 4718   2.566   6.495   5.714
 1273SOL    HW2 4719   2.464   6.384   5.651
 1274SOL     OW 4720   6.144   1.890   2.622
 1274SOL    HW1 4721   6.184   1.980   2.637
 1274SOL    HW2 4722   6.170   1.829   2.698
 1275SOL     OW 4723   3.684   1.852   3.991
 1275SOL    HW1 4724   3.643   1.939   3.965
 1275SOL    HW2 4725   3.724   1.808   3.910
 1276SOL     OW 4726   6.596   6.977   2.609
 1276SOL    HW1 4727   6.507   7.018   2.624
 1276SOL    HW2 4728   6.588   6.901   2.545
 1277SOL     OW 4729   0.691   2.064   4.684
 1277SOL    HW1 4730   0.694   1.967   4.663
 1277SOL    HW2 4731   0.698   2.078   4.782
 1278SOL     OW 4732   3.262   1.353   5.670
 1278SOL    HW1 4733   3.165   1.330   5.673
 1278SOL    HW2 4734   3.306   1.322   5.754
 1279SOL     OW 4735   2.380   4.821   0.448
 1279SOL    HW1 4736   2.287   4.785   0.449
 1279SOL    HW2 4737   2.378   4.919   0.426
 1280SOL     OW 4738   1.753   5.693   2.819
 1280SOL    HW1 4739   1.693   5.771   2.802
 1280SOL    HW2 4740   1.781   5.694   2.915
 1281SOL     OW 4741   0.626   6.764   4.019
 1281SOL    HW1 4742   0.635   6.664   4.017
 1281SOL    HW2 4743   0.668   6.798   4.104
 1282SOL     OW 4744   1.169   0.144   2.477
 1282SOL    HW1 4745   1.185   0.243   2.484
 1282SOL    HW2 4746   1.245   0.102   2.428
 1283SOL     OW 4747   4.726   4.115   5.165
 1283SOL    HW1 4748   4.679   4.052   5.228
 1283SOL    HW2 4749   4.796   4.165   5.214
 1284SOL     OW 4750   2.677   2.085   2.665
 1284SOL    HW1 4751   2.757   2.026   2.667
 1284SOL    HW2 4752   2.702   2.174   2.627
 1285SOL     OW 4753   5.698   2.739   6.077
 1285SOL    HW1 4754   5.697   2.673   6.152
 1285SOL    HW2 4755   5.606   2.747   6.039
 1286SOL     OW 4756   6.148   6.213   1.583
 1286SOL    HW1 4757   6.122   6.308   1.602
 1286SOL    HW2 4758   6.129   6.157   1.663
 1287SOL     OW 4759   6.194   4.335   6.098
 1287SOL    HW1 4760   6.175   4.426   6.134
 1287SOL    HW2 4761   6.252   4.343   6.017
 1288SOL     OW 4762   6.595   2.828   3.623
 1288SOL    HW1 4763   6.587   2.851   3.526
 1288SOL    HW2 4764   6.589   2.911   3.678
 1289SOL     OW 4765   6.804   5.101   2.602
 1289SOL    HW1 4766   6.715   5.146   2.597
 1289SOL    HW2 4767   6.869   5.149   2.543
 1290SOL     OW 4768   0.383   0.153   1.025
 1290SOL    HW1 4769   0.363   0.055   1.029
 1290SOL    HW2 4770   0.335   0.194   0.948
 1291SOL     OW 4771   1.585   0.065   0.876
 1291SOL    HW1 4772   1.486   0.072   0.870
 1291SOL    HW2 4773   1.610   0.020   0.962
 1292SOL     OW 4774   1.003   5.554   6.550
 1292SOL    HW1 4775   0.965   5.624   6.610
 1292SOL    HW2 4776   1.035   5.477   6.605
 1293SOL     OW 4777   6.496   2.870   5.969
 1293SOL    HW1 4778   6.411   2.894   6.016
 1293SOL    HW2 4779   6.548   2.953   5.947
 1294SOL     OW 4780   0.317   1.896   3.263
 1294SOL    HW1 4781   0.347   1.835   3.336
 1294SOL    HW2 4782   0.331   1.991   3.291
 1295SOL     OW 4783   4.805   3.329   1.571
 1295SOL    HW1 4784   4.758   3.381   1.642
 1295SOL    HW2 4785   4.876   3.387   1.530
 1296SOL     OW 4786   3.777   2.158   0.169
 1296SOL    HW1 4787   3.778   2.073   0.116
 1296SOL    HW2 4788   3.699   2.213   0.140
 1297SOL     OW 4789   6.459   0.806   6.204
 1297SOL    HW1 4790   6.506   0.894   6.209
 1297SOL    HW2 4791   6.526   0.732   6.201
 1298SOL     OW 4792   6.391   2.699   3.403
 1298SOL    HW1 4793   6.478   2.668   3.366
 1298SOL    HW2 4794   6.390   2.687   3.503
 1299SOL     OW 4795   1.474   3.248   4.139
 1299SOL    HW1 4796   1.433   3.273   4.227
 1299SOL    HW2 4797   1.499   3.331   4.089
 1300SOL     OW 4798   3.697   3.393   1.648
 1300SOL    HW1 4799   3.760   3.367   1.574
 1300SOL    HW2 4800   3.727   3.351   1.733
 1301SOL     OW 4801   0.606   0.505   2.530
 1301SOL    HW1 4802   0.586   0.486   2.626
 1301SOL    HW2 4803   0.705   0.513   2.518
 1302SOL     OW 4804   2.549   5.758   5.275
 1302SOL    HW1 4805   2.531   5.847   5.316
 1302SOL    HW2 4806   2.543   5.687   5.346
 1303SOL     OW 4807   2.912   0.228   1.200
 1303SOL    HW1 4808   2.937   0.251   1.294
 1303SOL    HW2 4809   2.995   0.224   1.144
 1304SOL     OW 4810   3.791   1.204   6.482
 1304SOL    HW1 4811   3.844   1.136   6.431
 1304SOL    HW2 4812   3.713   1.159   6.525
 1305SOL     OW 4813   5.918   6.120   4.003
 1305SOL    HW1 4814   5.908   6.021   3.996
 1305SOL    HW2 4815   5.866   6.165   3.930
 1306SOL     OW 4816   1.326   4.796   4.827
 1306SOL    HW1 4817   1.373   4.742   4.897
 1306SOL    HW2 4818   1.361   4.772   4.737
 1307SOL     OW 4819   1.625   1.979   4.030
 1307SOL    HW1 4820   1.561   2.036   3.979
 1307SOL    HW2 4821   1.689   1.935   3.967
 1308SOL     OW 4822   4.427   6.282   3.102
 1308SOL    HW1 4823   4.381   6.231   3.174
 1308SOL    HW2 4824   4.466   6.218   3.036
 1309SOL     OW 4825   5.663   2.710   4.775
 1309SOL    HW1 4826   5.669   2.619   4.816
 1309SOL    HW2 4827   5.590   2.762   4.818
 1310SOL     OW 4828   5.325   3.848   5.216
 1310SOL    HW1 4829   5.372   3.922   5.168
 1310SOL    HW2 4830   5.240   3.826   5.168
 1311SOL     OW 4831   5.259   5.088   5.389
 1311SOL    HW1 4832   5.243   5.183   5.362
 1311SOL    HW2 4833   5.332   5.049   5.333
 1312SOL     OW 4834   6.104   0.335   2.542
 1312SOL    HW1 4835   6.029   0.383   2.495
 1312SOL    HW2 4836   6.109   0.241   2.508
 1313SOL     OW 4837   3.249   4.928   4.837
 1313SOL    HW1 4838   3.232   5.007   4.779
 1313SOL    HW2 4839   3.185   4.928   4.914
 1314SOL     OW 4840   5.761   1.630   5.621
 1314SOL    HW1 4841   5.805   1.541   5.617
 1314SOL    HW2 4842   5.689   1.629   5.690
 1315SOL     OW 4843   2.483   6.996   3.473
 1315SOL    HW1 4844   2.517   6.948   3.392
 1315SOL    HW2 4845   2.507   0.070   3.466
 1316SOL     OW 4846   3.653   6.355   2.830
 1316SOL    HW1 4847   3.585   6.387   2.896
 1316SOL    HW2 4848   3.619   6.370   2.737
 1317SOL     OW 4849   0.220   3.711   3.952
 1317SOL    HW1 4850   0.278   3.681   4.028
 1317SOL    HW2 4851   0.233   3.809   3.937
 1318SOL     OW 4852   0.651   6.327   1.235
 1318SOL    HW1 4853   0.722   6.259   1.218
 1318SOL    HW2 4854   0.629   6.329   1.333
 1319SOL     OW 4855   6.589   0.548   6.859
 1319SOL    HW1 4856   6.508   0.519   6.909
 1319SOL    HW2 4857   6.640   0.468   6.827
 1320SOL     OW 4858   5.594   6.019   5.519
 1320SOL    HW1 4859   5.628   5.938   5.567
 1320SOL    HW2 4860   5.522   5.993   5.455
 1321SOL     OW 4861   2.957   1.668   6.670
 1321SOL    HW1 4862   3.030   1.604   6.694
 1321SOL    HW2 4863   2.997   1.747   6.623
 1322SOL     OW 4864   5.027   1.833   5.938
 1322SOL    HW1 4865   5.029   1.870   5.845
 1322SOL    HW2 4866   5.117   1.847   5.981
 1323SOL     OW 4867   5.955   1.199   4.494
 1323SOL    HW1 4868   6.030   1.188   4.559
 1323SOL    HW2 4869   5.986   1.254   4.417
 1324SOL     OW 4870   1.043   3.310   6.957
 1324SOL    HW1 4871   1.114   3.242   6.974
 1324SOL    HW2 4872   0.953   3.267   6.963
 1325SOL     OW 4873   3.814   5.185   3.508
 1325SOL    HW1 4874   3.743   5.254   3.521
 1325SOL    HW2 4875   3.847   5.187   3.414
 1326SOL     OW 4876   5.093   4.107   4.448
 1326SOL    HW1 4877   5.035   4.027   4.463
 1326SOL    HW2 4878   5.039   4.191   4.458
 1327SOL     OW 4879   2.987   5.805   4.072
 1327SOL    HW1 4880   3.039   5.760   3.999
 1327SOL    HW2 4881   2.900   5.838   4.035
 1328SOL     OW 4882   1.849   1.559   0.458
 1328SOL    HW1 4883   1.754   1.537   0.440
 1328SOL    HW2 4884   1.855   1.635   0.522
 1329SOL     OW 4885   0.771   0.026   1.358
 1329SOL    HW1 4886   0.847   0.082   1.388
 1329SOL    HW2 4887   0.776   0.013   1.258
 1330SOL     OW 4888   4.624   6.374   1.107
 1330SOL    HW1 4889   4.556   6.409   1.172
 1330SOL    HW2 4890   4.678   6.303   1.151
 1331SOL     OW 4891   6.661   1.761   2.149
 1331SOL    HW1 4892   6.741   1.735   2.095
 1331SOL    HW2 4893   6.657   1.861   2.157
 1332SOL     OW 4894   4.089   1.957   1.244
 1332SOL    HW1 4895   4.171   1.906   1.271
 1332SOL    HW2 4896   4.103   1.995   1.152
 1333SOL     OW 4897   4.085   3.647   4.753
 1333SOL    HW1 4898   4.115   3.613   4.663
 1333SOL    HW2 4899   4.157   3.631   4.820
 1334SOL     OW 4900   0.370   4.210   3.687
 1334SOL    HW1 4901   0.340   4.115   3.699
 1334SOL    HW2 4902   0.430   4.215   3.607
 1335SOL     OW 4903   2.729   5.563   1.747
 1335SOL    HW1 4904   2.632   5.579   1.762
 1335SOL    HW2 4905   2.782   5.603   1.822
 1336SOL     OW 4906   0.389   0.777   4.740
 1336SOL    HW1 4907   0.435   0.840   4.677
 1336SOL    HW2 4908   0.442   0.772   4.825
 1337SOL     OW 4909   3.385   0.586   6.542
 1337SOL    HW1 4910   3.468   0.565   6.594
 1337SOL    HW2 4911   3.371   0.516   6.472
 1338SOL     OW 4912   3.559   5.583   1.418
 1338SOL    HW1 4913   3.613   5.560   1.499
 1338SOL    HW2 4914   3.607   5.553   1.336
 1339SOL     OW 4915   0.190   4.491   6.269
 1339SOL    HW1 4916   0.168   4.588   6.268
 1339SOL    HW2 4917   0.169   4.453   6.359
 1340SOL     OW 4918   1.836   0.927   6.389
 1340SOL    HW1 4919   1.760   0.951   6.450
 1340SOL    HW2 4920   1.800   0.910   6.297
 1341SOL     OW 4921   6.385   2.865   3.981
 1341SOL    HW1 4922   6.432   2.948   3.952
 1341SOL    HW2 4923   6.448   2.808   4.034
 1342SOL     OW 4924   0.669   6.068   1.852
 1342SOL    HW1 4925   0.760   6.074   1.810
 1342SOL    HW2 4926   0.630   6.159   1.860
 1343SOL     OW 4927   3.188   5.303   3.626
 1343SOL    HW1 4928   3.154   5.313   3.719
 1343SOL    HW2 4929   3.283   5.270   3.628
 1344SOL     OW 4930   5.122   1.401   2.955
 1344SOL    HW1 4931   5.044   1.369   3.009
 1344SOL    HW2 4932   5.088   1.455   2.878
 1345SOL     OW 4933   1.048   6.713   3.037
 1345SOL    HW1 4934   0.979   6.674   3.098
 1345SOL    HW2 4935   1.127   6.742   3.089
 1346SOL     OW 4936   0.083   0.870   3.952
 1346SOL    HW1 4937   0.176   0.842   3.976
 1346SOL    HW2 4938   0.039   0.911   4.032
 1347SOL     OW 4939   5.163   0.564   3.620
 1347SOL    HW1 4940   5.229   0.541   3.548
 1347SOL    HW2 4941   5.119   0.480   3.652
 1348SOL     OW 4942   4.816   6.130   4.634
 1348SOL    HW1 4943   4.904   6.172   4.654
 1348SOL    HW2 4944   4.820   6.087   4.543
 1349SOL     OW 4945   4.633   2.388   0.384
 1349SOL    HW1 4946   4.669   2.479   0.407
 1349SOL    HW2 4947   4.533   2.393   0.376
 1350SOL     OW 4948   3.586   0.285   4.803
 1350SOL    HW1 4949   3.666   0.244   4.760
 1350SOL    HW2 4950   3.605   0.382   4.822
 1351SOL     OW 4951   1.221   1.631   4.435
 1351SOL    HW1 4952   1.153   1.698   4.464
 1351SOL    HW2 4953   1.230   1.560   4.505
 1352SOL     OW 4954   0.607   6.500   4.161
 1352SOL    HW1 4955   0.705   6.486   4.178
 1352SOL    HW2 4956   0.564   6.537   4.243
 1353SOL     OW 4957   2.174   2.381   4.585
 1353SOL    HW1 4958   2.121   2.374   4.669
 1353SOL    HW2 4959   2.166   2.473   4.548
 1354SOL     OW 4960   0.413   6.888   0.605
 1354SOL    HW1 4961   0.375   6.943   0.679
 1354SOL    HW2 4962   0.364   6.907   0.520
 1355SOL     OW 4963   4.109   3.196   6.867
 1355SOL    HW1 4964   4.110   3.271   6.933
 1355SOL    HW2 4965   4.035   3.209   6.802
 1356SOL     OW 4966   3.187   2.814   1.747
 1356SOL    HW1 4967   3.188   2.819   1.847
 1356SOL    HW2 4968   3.121   2.881   1.712
 1357SOL     OW 4969   2.716   2.920   5.739
 1357SOL    HW1 4970   2.688   2.833   5.698
 1357SOL    HW2 4971   2.638   2.962   5.785
 1358SOL     OW 4972   1.940   3.649   6.031
 1358SOL    HW1 4973   1.875   3.603   6.091
 1358SOL    HW2 4974   2.021   3.677   6.083
 1359SOL     OW 4975   6.740   1.142   0.248
 1359SOL    HW1 4976   6.642   1.133   0.265
 1359SOL    HW2 4977   6.758   1.229   0.202
 1360SOL     OW 4978   3.570   3.106   3.820
 1360SOL    HW1 4979   3.514   3.059   3.888
 1360SOL    HW2 4980   3.519   3.116   3.735
 1361SOL     OW 4981   0.613   6.149   1.010
 1361SOL    HW1 4982   0.528   6.199   1.025
 1361SOL    HW2 4983   0.691   6.208   1.028
 1362SOL     OW 4984   3.047   1.892   6.560
 1362SOL    HW1 4985   2.979   1.958   6.529
 1362SOL    HW2 4986   3.118   1.939   6.611
 1363SOL     OW 4987   6.730   6.890   0.922
 1363SOL    HW1 4988   6.748   6.986   0.943
 1363SOL    HW2 4989   6.707   6.880   0.825
 1364SOL     OW 4990   1.093   3.683   1.048
 1364SOL    HW1 4991   1.109   3.593   1.090
 1364SOL    HW2 4992   1.175   3.739   1.059
 1365SOL     OW 4993   1.039   4.031   5.481
 1365SOL    HW1 4994   0.986   4.089   5.543
 1365SOL    HW2 4995   1.129   4.071   5.466
 1366SOL     OW 4996   3.857   0.593   1.510
 1366SOL    HW1 4997   3.952   0.561   1.516
 1366SOL    HW2 4998   3.834   0.611   1.414
 1367SOL     OW 4999   1.766   0.028   4.544
 1367SOL    HW1 5000   1.759   6.986   4.468
 1367SOL    HW2 5001   1.825   7.013   4.615
 1368SOL     OW 5002   1.587   6.733   4.552
 1368SOL    HW1 5003   1.651   6.738   4.629
 1368SOL    HW2 5004   1.509   6.677   4.578
 1369SOL     OW 5005   2.383   5.354   3.767
 1369SOL    HW1 5006   2.354   5.378   3.859
 1369SOL    HW2 5007   2.456   5.286   3.771
 1370SOL     OW 5008   6.997   2.499   2.886
 1370SOL    HW1 5009   0.021   2.566   2.945
 1370SOL    HW2 5010   6.898   2.509   2.897
 1371SOL     OW 5011   6.132   2.365   5.685
 1371SOL    HW1 5012   6.078   2.336   5.764
 1371SOL    HW2 5013   6.118   2.301   5.609
 1372SOL     OW 5014   5.971   2.968   1.241
 1372SOL    HW1 5015   5.941   2.958   1.336
 1372SOL    HW2 5016   6.016   3.057   1.230
 1373SOL     OW 5017   5.944   3.186   2.361
 1373SOL    HW1 5018   6.016   3.225   2.303
 1373SOL    HW2 5019   5.886   3.125   2.306
 1374SOL     OW 5020   3.723   3.259   1.878
 1374SOL    HW1 5021   3.680   3.171   1.857
 1374SOL    HW2 5022   3.806   3.243   1.931
 1375SOL     OW 5023   5.363   4.679   4.578
 1375SOL    HW1 5024   5.299   4.727   4.638
 1375SOL    HW2 5025   5.347   4.580   4.584
 1376SOL     OW 5026   3.147   4.564   6.223
 1376SOL    HW1 5027   3.119   4.513   6.141
 1376SOL    HW2 5028   3.222   4.626   6.199
 1377SOL     OW 5029   2.158   1.619   2.772
 1377SOL    HW1 5030   2.084   1.686   2.775
 1377SOL    HW2 5031   2.139   1.551   2.701
 1378SOL     OW 5032   5.493   2.502   4.323
 1378SOL    HW1 5033   5.422   2.569   4.346
 1378SOL    HW2 5034   5.567   2.548   4.274
 1379SOL     OW 5035   4.549   5.497   0.136
 1379SOL    HW1 5036   4.519   5.587   0.166
 1379SOL    HW2 5037   4.597   5.451   0.211
 1380SOL     OW 5038   0.285   5.920   2.707
 1380SOL    HW1 5039   0.323   5.859   2.638
 1380SOL    HW2 5040   0.233   5.993   2.662
 1381SOL     OW 5041   6.409   2.609   6.148
 1381SOL    HW1 5042   6.420   2.563   6.236
 1381SOL    HW2 5043   6.348   2.687   6.158
 1382SOL     OW 5044   5.089   2.327   6.992
 1382SOL    HW1 5045   5.170   2.275   7.019
 1382SOL    HW2 5046   5.036   2.350   0.050
 1383SOL     OW 5047   6.838   0.670   0.770
 1383SOL    HW1 5048   6.853   0.575   0.746
 1383SOL    HW2 5049   6.822   0.677   0.868
 1384SOL     OW 5050   6.031   1.934   1.946
 1384SOL    HW1 5051   6.088   1.851   1.943
 1384SOL    HW2 5052   5.948   1.915   1.998
 1385SOL     OW 5053   0.413   5.977   1.392
 1385SOL    HW1 5054   0.406   6.039   1.314
 1385SOL    HW2 5055   0.413   5.882   1.359
 1386SOL     OW 5056   2.304   5.534   4.360
 1386SOL    HW1 5057   2.380   5.500   4.414
 1386SOL    HW2 5058   2.231   5.466   4.357
 1387SOL     OW 5059   2.426   5.866   1.755
 1387SOL    HW1 5060   2.345   5.836   1.805
 1387SOL    HW2 5061   2.454   5.794   1.690
 1388SOL     OW 5062   6.488   0.145   2.138
 1388SOL    HW1 5063   6.500   0.167   2.041
 1388SOL    HW2 5064   6.538   0.211   2.194
 1389SOL     OW 5065   6.224   0.941   2.281
 1389SOL    HW1 5066   6.162   1.015   2.309
 1389SOL    HW2 5067   6.271   0.905   2.361
 1390SOL     OW 5068   1.633   1.757   4.902
 1390SOL    HW1 5069   1.714   1.802   4.865
 1390SOL    HW2 5070   1.568   1.740   4.828
 1391SOL     OW 5071   0.284   2.951   3.356
 1391SOL    HW1 5072   0.246   2.985   3.270
 1391SOL    HW2 5073   0.341   2.871   3.338
 1392SOL     OW 5074   4.939   4.340   4.381
 1392SOL    HW1 5075   4.897   4.362   4.469
 1392SOL    HW2 5076   4.869   4.305   4.319
 1393SOL     OW 5077   3.396   5.911   6.335
 1393SOL    HW1 5078   3.311   5.859   6.346
 1393SOL    HW2 5079   3.454   5.897   6.415
 1394SOL     OW 5080   1.700   6.192   6.406
 1394SOL    HW1 5081   1.670   6.122   6.341
 1394SOL    HW2 5082   1.641   6.272   6.399
 1395SOL     OW 5083   3.424   4.743   5.741
 1395SOL    HW1 5084   3.523   4.747   5.730
 1395SOL    HW2 5085   3.399   4.776   5.832
 1396SOL     OW 5086   6.174   6.200   3.915
 1396SOL    HW1 5087   6.084   6.223   3.953
 1396SOL    HW2 5088   6.210   6.279   3.867
 1397SOL     OW 5089   4.371   6.149   5.778
 1397SOL    HW1 5090   4.321   6.233   5.757
 1397SOL    HW2 5091   4.394   6.102   5.693
 1398SOL     OW 5092   2.161   1.006   4.429
 1398SOL    HW1 5093   2.124   1.053   4.349
 1398SOL    HW2 5094   2.117   1.039   4.512
 1399SOL     OW 5095   2.920   6.058   2.118
 1399SOL    HW1 5096   2.950   6.050   2.023
 1399SOL    HW2 5097   2.956   6.142   2.158
 1400SOL     OW 5098   2.032   6.527   2.406
 1400SOL    HW1 5099   2.020   6.489   2.497
 1400SOL    HW2 5100   2.015   6.455   2.338
 1401SOL     OW 5101   6.590   1.683   4.370
 1401SOL    HW1 5102   6.687   1.682   4.346
 1401SOL    HW2 5103   6.546   1.761   4.325
 1402SOL     OW 5104   0.018   3.251   0.407
 1402SOL    HW1 5105   0.112   3.254   0.439
 1402SOL    HW2 5106   6.983   3.210   0.477
 1403SOL     OW 5107   3.449   0.424   2.150
 1403SOL    HW1 5108   3.442   0.327   2.127
 1403SOL    HW2 5109   3.506   0.434   2.232
 1404SOL     OW 5110   5.750   1.520   0.535
 1404SOL    HW1 5111   5.734   1.432   0.580
 1404SOL    HW2 5112   5.744   1.593   0.603
 1405SOL     OW 5113   3.361   2.791   1.146
 1405SOL    HW1 5114   3.343   2.814   1.242
 1405SOL    HW2 5115   3.315   2.705   1.123
 1406SOL     OW 5116   1.770   4.344   1.170
 1406SOL    HW1 5117   1.823   4.306   1.095
 1406SOL    HW2 5118   1.829   4.355   1.250
 1407SOL     OW 5119   6.225   2.365   3.266
 1407SOL    HW1 5120   6.154   2.384   3.199
 1407SOL    HW2 5121   6.231   2.441   3.331
 1408SOL     OW 5122   6.062   0.465   6.168
 1408SOL    HW1 5123   6.028   0.404   6.240
 1408SOL    HW2 5124   6.008   0.453   6.085
 1409SOL     OW 5125   0.294   1.618   4.432
 1409SOL    HW1 5126   0.356   1.559   4.382
 1409SOL    HW2 5127   0.346   1.690   4.479
 1410SOL     OW 5128   6.999   2.931   0.059
 1410SOL    HW1 5129   6.910   2.932   0.105
 1410SOL    HW2 5130   6.998   2.995   7.005
 1411SOL     OW 5131   1.536   0.137   1.644
 1411SOL    HW1 5132   1.483   0.113   1.725
 1411SOL    HW2 5133   1.548   0.236   1.640
 1412SOL     OW 5134   1.289   3.058   0.234
 1412SOL    HW1 5135   1.339   2.972   0.251
 1412SOL    HW2 5136   1.259   3.061   0.139
 1413SOL     OW 5137   3.085   0.190   3.721
 1413SOL    HW1 5138   3.017   0.123   3.691
 1413SOL    HW2 5139   3.096   0.184   3.820
 1414SOL     OW 5140   3.244   0.964   1.654
 1414SOL    HW1 5141   3.221   0.894   1.586
 1414SOL    HW2 5142   3.220   0.931   1.746
 1415SOL     OW 5143   4.151   6.063   5.949
 1415SOL    HW1 5144   4.118   5.979   5.906
 1415SOL    HW2 5145   4.227   6.101   5.896
 1416SOL     OW 5146   4.623   5.694   3.171
 1416SOL    HW1 5147   4.568   5.777   3.176
 1416SOL    HW2 5148   4.636   5.657   3.263
 1417SOL     OW 5149   3.410   2.639   6.388
 1417SOL    HW1 5150   3.344   2.575   6.348
 1417SOL    HW2 5151   3.384   2.733   6.363
 1418SOL     OW 5152   3.226   4.069   2.658
 1418SOL    HW1 5153   3.258   4.163   2.642
 1418SOL    HW2 5154   3.201   4.028   2.570
 1419SOL     OW 5155   4.617   6.300   4.701
 1419SOL    HW1 5156   4.699   6.245   4.685
 1419SOL    HW2 5157   4.621   6.342   4.791
 1420SOL     OW 5158   6.918   5.378   1.685
 1420SOL    HW1 5159   6.974   5.398   1.766
 1420SOL    HW2 5160   6.841   5.321   1.711
 1421SOL     OW 5161   3.574   1.101   2.903
 1421SOL    HW1 5162   3.547   1.123   2.809
 1421SOL    HW2 5163   3.652   1.159   2.929
 1422SOL     OW 5164   2.709   6.504   6.959
 1422SOL    HW1 5165   2.757   6.575   6.907
 1422SOL    HW2 5166   2.768   6.424   6.968
 1423SOL     OW 5167   4.996   0.182   2.542
 1423SOL    HW1 5168   5.064   0.244   2.504
 1423SOL    HW2 5169   4.911   0.190   2.490
 1424SOL     OW 5170   6.549   4.996   3.057
 1424SOL    HW1 5171   6.641   5.024   3.083
 1424SOL    HW2 5172   6.506   5.070   3.004
 1425SOL     OW 5173   1.913   0.060   4.973
 1425SOL    HW1 5174   1.944   0.154   4.967
 1425SOL    HW2 5175   1.955   0.016   5.052
 1426SOL     OW 5176   1.650   1.389   5.668
 1426SOL    HW1 5177   1.594   1.368   5.588
 1426SOL    HW2 5178   1.705   1.470   5.650
 1427SOL     OW 5179   5.929   0.882   4.790
 1427SOL    HW1 5180   5.961   0.790   4.768
 1427SOL    HW2 5181   5.891   0.882   4.883
 1428SOL     OW 5182   5.525   1.372   0.016
 1428SOL    HW1 5183   5.539   1.366   0.115
 1428SOL    HW2 5184   5.613   1.381   6.993
 1429SOL     OW 5185   5.210   0.084   0.153
 1429SOL    HW1 5186   5.249   0.162   0.201
 1429SOL    HW2 5187   5.149   0.117   0.080
 1430SOL     OW 5188   2.008   4.637   3.861
 1430SOL    HW1 5189   2.078   4.703   3.888
 1430SOL    HW2 5190   2.022   4.551   3.910
 1431SOL     OW 5191   1.114   0.710   1.188
 1431SOL    HW1 5192   1.029   0.657   1.182
 1431SOL    HW2 5193   1.192   0.651   1.165
 1432SOL     OW 5194   2.886   0.161   1.970
 1432SOL    HW1 5195   2.858   0.242   1.919
 1432SOL    HW2 5196   2.986   0.154   1.969
 1433SOL     OW 5197   4.593   0.820   4.248
 1433SOL    HW1 5198   4.543   0.825   4.335
 1433SOL    HW2 5199   4.691   0.816   4.267
 1434SOL     OW 5200   0.644   0.895   5.103
 1434SOL    HW1 5201   0.690   0.854   5.024
 1434SOL    HW2 5202   0.686   0.983   5.125
 1435SOL     OW 5203   0.066   1.638   3.512
 1435SOL    HW1 5204   0.015   1.686   3.584
 1435SOL    HW2 5205   0.071   1.696   3.430
 1436SOL     OW 5206   4.274   4.106   0.835
 1436SOL    HW1 5207   4.312   4.095   0.744
 1436SOL    HW2 5208   4.326   4.174   0.885
 1437SOL     OW 5209   3.891   0.982   2.391
 1437SOL    HW1 5210   3.917   1.065   2.342
 1437SOL    HW2 5211   3.964   0.914   2.382
 1438SOL     OW 5212   2.118   0.627   1.090
 1438SOL    HW1 5213   2.150   0.533   1.089
 1438SOL    HW2 5214   2.019   0.629   1.100
 1439SOL     OW 5215   0.505   5.578   2.876
 1439SOL    HW1 5216   0.502   5.641   2.954
 1439SOL    HW2 5217   0.577   5.510   2.890
 1440SOL     OW 5218   2.425   3.220   1.702
 1440SOL    HW1 5219   2.349   3.175   1.749
 1440SOL    HW2 5220   2.506   3.161   1.705
 1441SOL     OW 5221   4.935   5.895   1.021
 1441SOL    HW1 5222   4.844   5.915   0.986
 1441SOL    HW2 5223   4.991   5.978   1.020
 1442SOL     OW 5224   5.134   5.705   0.690
 1442SOL    HW1 5225   5.122   5.657   0.777
 1442SOL    HW2 5226   5.162   5.800   0.708
 1443SOL     OW 5227   0.516   2.797   2.706
 1443SOL    HW1 5228   0.600   2.842   2.738
 1443SOL    HW2 5229   0.448   2.797   2.779
 1444SOL     OW 5230   0.481   4.846   6.627
 1444SOL    HW1 5231   0.548   4.888   6.689
 1444SOL    HW2 5232   0.390   4.853   6.668
 1445SOL     OW 5233   1.187   3.508   1.593
 1445SOL    HW1 5234   1.265   3.505   1.531
 1445SOL    HW2 5235   1.123   3.579   1.563
 1446SOL     OW 5236   6.355   6.591   1.046
 1446SOL    HW1 5237   6.269   6.615   1.001
 1446SOL    HW2 5238   6.338   6.529   1.122
 1447SOL     OW 5239   5.516   5.502   4.540
 1447SOL    HW1 5240   5.477   5.588   4.505
 1447SOL    HW2 5241   5.547   5.515   4.634
 1448SOL     OW 5242   0.910   2.776   5.695
 1448SOL    HW1 5243   0.924   2.832   5.614
 1448SOL    HW2 5244   0.824   2.802   5.739
 1449SOL     OW 5245   2.130   3.031   3.120
 1449SOL    HW1 5246   2.164   3.068   3.033
 1449SOL    HW2 5247   2.169   3.083   3.196
 1450SOL     OW 5248   2.849   2.211   3.568
 1450SOL    HW1 5249   2.819   2.277   3.500
 1450SOL    HW2 5250   2.840   2.250   3.660
 1451SOL     OW 5251   2.783   1.281   2.563
 1451SOL    HW1 5252   2.694   1.322   2.542
 1451SOL    HW2 5253   2.791   1.269   2.662
 1452SOL     OW 5254   4.978   3.076   6.796
 1452SOL    HW1 5255   4.883   3.105   6.803
 1452SOL    HW2 5256   5.025   3.094   6.883
 1453SOL     OW 5257   6.955   4.403   5.417
 1453SOL    HW1 5258   0.001   4.472   5.393
 1453SOL    HW2 5259   6.952   4.334   5.345
 1454SOL     OW 5260   3.514   2.079   3.158
 1454SOL    HW1 5261   3.461   2.097   3.241
 1454SOL    HW2 5262   3.598   2.030   3.182
 1455SOL     OW 5263   0.307   5.782   2.046
 1455SOL    HW1 5264   0.282   5.863   2.100
 1455SOL    HW2 5265   0.406   5.768   2.052
 1456SOL     OW 5266   6.300   5.079   4.302
 1456SOL    HW1 5267   6.243   5.119   4.374
 1456SOL    HW2 5268   6.395   5.109   4.315
 1457SOL     OW 5269   1.106   5.303   6.182
 1457SOL    HW1 5270   1.186   5.363   6.177
 1457SOL    HW2 5271   1.029   5.354   6.221
 1458SOL     OW 5272   5.448   5.019   5.202
 1458SOL    HW1 5273   5.466   5.102   5.149
 1458SOL    HW2 5274   5.468   4.938   5.146
 1459SOL     OW 5275   5.816   6.640   5.222
 1459SOL    HW1 5276   5.808   6.621   5.320
 1459SOL    HW2 5277   5.833   6.737   5.208
 1460SOL     OW 5278   1.339   6.687   4.897
 1460SOL    HW1 5279   1.284   6.634   4.961
 1460SOL    HW2 5280   1.300   6.779   4.887
 1461SOL     OW 5281   6.583   3.079   4.073
 1461SOL    HW1 5282   6.668   3.028   4.080
 1461SOL    HW2 5283   6.553   3.107   4.164
 1462SOL     OW 5284   0.247   1.036   1.663
 1462SOL    HW1 5285   0.191   1.076   1.735
 1462SOL    HW2 5286   0.301   1.108   1.618
 1463SOL     OW 5287   2.234   5.464   6.883
 1463SOL    HW1 5288   2.208   5.534   6.949
 1463SOL    HW2 5289   2.214   5.374   6.922
 1464SOL     OW 5290   0.904   4.355   3.887
 1464SOL    HW1 5291   0.917   4.447   3.850
 1464SOL    HW2 5292   0.814   4.321   3.862
 1465SOL     OW 5293   1.176   3.390   4.388
 1465SOL    HW1 5294   1.238   3.455   4.345
 1465SOL    HW2 5295   1.087   3.394   4.342
 1466SOL     OW 5296   5.449   2.162   2.791
 1466SOL    HW1 5297   5.439   2.125   2.698
 1466SOL    HW2 5298   5.361   2.196   2.823
 1467SOL     OW 5299   0.548   0.486   3.606
 1467SOL    HW1 5300   0.510   0.474   3.697
 1467SOL    HW2 5301   0.527   0.578   3.573
 1468SOL     OW 5302   3.093   5.462   2.375
 1468SOL    HW1 5303   3.139   5.425   2.456
 1468SOL    HW2 5304   3.043   5.545   2.402
 1469SOL     OW 5305   6.259   3.820   3.387
 1469SOL    HW1 5306   6.160   3.834   3.398
 1469SOL    HW2 5307   6.309   3.892   3.434
 1470SOL     OW 5308   5.969   1.879   2.412
 1470SOL    HW1 5309   6.030   1.884   2.491
 1470SOL    HW2 5310   6.021   1.854   2.331
 1471SOL     OW 5311   4.431   6.893   1.171
 1471SOL    HW1 5312   4.365   6.956   1.211
 1471SOL    HW2 5313   4.413   6.885   1.072
 1472SOL     OW 5314   1.379   0.064   6.215
 1472SOL    HW1 5315   1.473   0.037   6.192
 1472SOL    HW2 5316   1.335   0.105   6.135
 1473SOL     OW 5317   1.523   5.708   3.562
 1473SOL    HW1 5318   1.579   5.786   3.592
 1473SOL    HW2 5319   1.457   5.684   3.633
 1474SOL     OW 5320   2.618   4.900   1.157
 1474SOL    HW1 5321   2.656   4.822   1.107
 1474SOL    HW2 5322   2.675   4.920   1.236
 1475SOL     OW 5323   5.573   0.338   6.503
 1475SOL    HW1 5324   5.609   0.391   6.580
 1475SOL    HW2 5325   5.642   0.274   6.471
 1476SOL     OW 5326   4.830   0.476   0.108
 1476SOL    HW1 5327   4.919   0.516   0.089
 1476SOL    HW2 5328   4.798   0.426   0.027
 1477SOL     OW 5329   3.328   4.668   1.355
 1477SOL    HW1 5330   3.392   4.743   1.337
 1477SOL    HW2 5331   3.240   4.688   1.314
 1478SOL     OW 5332   4.514   5.473   6.876
 1478SOL    HW1 5333   4.598   5.488   6.823
 1478SOL    HW2 5334   4.536   5.477   6.974
 1479SOL     OW 5335   4.379   3.440   1.691
 1479SOL    HW1 5336   4.316   3.366   1.716
 1479SOL    HW2 5337   4.335   3.500   1.624
 1480SOL     OW 5338   3.220   0.354   4.174
 1480SOL    HW1 5339   3.196   0.442   4.133
 1480SOL    HW2 5340   3.140   0.316   4.219
 1481SOL     OW 5341   5.003   2.903   6.155
 1481SOL    HW1 5342   5.012   2.806   6.131
 1481SOL    HW2 5343   4.907   2.926   6.164
 1482SOL     OW 5344   5.646   1.217   1.353
 1482SOL    HW1 5345   5.730   1.193   1.401
 1482SOL    HW2 5346   5.655   1.194   1.256
 1483SOL     OW 5347   6.098   1.049   0.203
 1483SOL    HW1 5348   6.101   0.986   0.125
 1483SOL    HW2 5349   6.010   1.095   0.206
 1484SOL     OW 5350   3.759   5.476   5.350
 1484SOL    HW1 5351   3.745   5.568   5.312
 1484SOL    HW2 5352   3.792   5.415   5.277
 1485SOL     OW 5353   5.115   2.929   3.521
 1485SOL    HW1 5354   5.122   2.852   3.458
 1485SOL    HW2 5355   5.150   3.012   3.477
 1486SOL     OW 5356   4.690   6.102   3.829
 1486SOL    HW1 5357   4.787   6.085   3.845
 1486SOL    HW2 5358   4.636   6.034   3.879
 1487SOL     OW 5359   6.772   0.811   0.555
 1487SOL    HW1 5360   6.838   0.864   0.503
 1487SOL    HW2 5361   6.819   0.756   0.624
 1488SOL     OW 5362   6.456   1.981   2.781
 1488SOL    HW1 5363   6.505   2.034   2.712
 1488SOL    HW2 5364   6.441   1.888   2.747
 1489SOL     OW 5365   2.801   4.649   0.416
 1489SOL    HW1 5366   2.832   4.636   0.510
 1489SOL    HW2 5367   2.878   4.677   0.358
 1490SOL     OW 5368   6.428   2.259   1.980
 1490SOL    HW1 5369   6.415   2.337   2.041
 1490SOL    HW2 5370   6.525   2.237   1.974
 1491SOL     OW 5371   6.042   2.398   4.196
 1491SOL    HW1 5372   5.973   2.380   4.267
 1491SOL    HW2 5373   6.034   2.330   4.124
 1492SOL     OW 5374   6.250   1.308   3.367
 1492SOL    HW1 5375   6.268   1.392   3.315
 1492SOL    HW2 5376   6.318   1.239   3.343
 1493SOL     OW 5377   5.736   1.715   6.055
 1493SOL    HW1 5378   5.708   1.633   6.005
 1493SOL    HW2 5379   5.782   1.778   5.992
 1494SOL     OW 5380   6.673   4.875   6.085
 1494SOL    HW1 5381   6.736   4.943   6.122
 1494SOL    HW2 5382   6.627   4.828   6.160
 1495SOL     OW 5383   6.687   3.971   4.266
 1495SOL    HW1 5384   6.630   3.990   4.186
 1495SOL    HW2 5385   6.629   3.947   4.344
 1496SOL     OW 5386   6.026   6.604   5.968
 1496SOL    HW1 5387   6.004   6.564   6.057
 1496SOL    HW2 5388   6.087   6.543   5.918
 1497SOL     OW 5389   6.318   2.402   2.242
 1497SOL    HW1 5390   6.330   2.345   2.323
 1497SOL    HW2 5391   6.222   2.429   2.234
 1498SOL     OW 5392   3.306   3.727   0.728
 1498SOL    HW1 5393   3.238   3.675   0.779
 1498SOL    HW2 5394   3.387   3.670   0.713
 1499SOL     OW 5395   0.328   4.491   4.316
 1499SOL    HW1 5396   0.385   4.482   4.397
 1499SOL    HW2 5397   0.323   4.587   4.289
 1500SOL     OW 5398   0.450   5.799   2.313
 1500SOL    HW1 5399   0.395   5.878   2.286
 1500SOL    HW2 5400   0.507   5.770   2.236
 1501SOL     OW 5401   6.207   1.471   0.516
 1501SOL    HW1 5402   6.147   1.392   0.507
 1501SOL    HW2 5403   6.218   1.515   0.427
 1502SOL     OW 5404   6.612   0.363   6.240
 1502SOL    HW1 5405   6.519   0.378   6.273
 1502SOL    HW2 5406   6.614   0.279   6.185
 1503SOL     OW 5407   0.554   4.662   1.122
 1503SOL    HW1 5408   0.649   4.683   1.099
 1503SOL    HW2 5409   0.496   4.741   1.103
 1504SOL     OW 5410   2.038   6.833   2.524
 1504SOL    HW1 5411   2.037   6.758   2.457
 1504SOL    HW2 5412   1.962   6.821   2.588
 1505SOL     OW 5413   6.443   5.304   5.008
 1505SOL    HW1 5414   6.356   5.285   5.054
 1505SOL    HW2 5415   6.510   5.236   5.036
 1506SOL     OW 5416   0.767   1.149   0.620
 1506SOL    HW1 5417   0.763   1.178   0.716
 1506SOL    HW2 5418   0.855   1.105   0.602
 1507SOL     OW 5419   2.112   2.599   3.698
 1507SOL    HW1 5420   2.147   2.570   3.787
 1507SOL    HW2 5421   2.186   2.597   3.631
 1508SOL     OW 5422   1.956   1.141   1.513
 1508SOL    HW1 5423   2.029   1.182   1.568
 1508SOL    HW2 5424   1.996   1.093   1.435
 1509SOL     OW 5425   5.445   0.997   4.433
 1509SOL    HW1 5426   5.523   1.051   4.463
 1509SOL    HW2 5427   5.449   0.907   4.477
 1510SOL     OW 5428   3.595   6.270   4.625
 1510SOL    HW1 5429   3.513   6.312   4.586
 1510SOL    HW2 5430   3.571   6.220   4.709
 1511SOL     OW 5431   3.121   3.440   5.221
 1511SOL    HW1 5432   3.043   3.477   5.169
 1511SOL    HW2 5433   3.112   3.468   5.317
 1512SOL     OW 5434   5.610   6.793   1.044
 1512SOL    HW1 5435   5.653   6.707   1.017
 1512SOL    HW2 5436   5.681   6.860   1.066
 1513SOL     OW 5437   2.271   6.906   5.994
 1513SOL    HW1 5438   2.299   6.887   6.089
 1513SOL    HW2 5439   2.338   6.966   5.951
 1514SOL     OW 5440   2.974   2.895   6.256
 1514SOL    HW1 5441   3.051   2.930   6.202
 1514SOL    HW2 5442   2.928   2.823   6.204
 1515SOL     OW 5443   4.482   0.461   2.167
 1515SOL    HW1 5444   4.453   0.537   2.108
 1515SOL    HW2 5445   4.578   0.475   2.193
 1516SOL     OW 5446   5.904   7.018   5.475
 1516SOL    HW1 5447   5.824   6.960   5.487
 1516SOL    HW2 5448   5.933   0.030   5.564
 1517SOL     OW 5449   3.238   6.516   3.944
 1517SOL    HW1 5450   3.314   6.452   3.952
 1517SOL    HW2 5451   3.170   6.479   3.881
 1518SOL     OW 5452   0.710   3.465   6.389
 1518SOL    HW1 5453   0.775   3.461   6.465
 1518SOL    HW2 5454   0.742   3.407   6.314
 1519SOL     OW 5455   6.758   5.227   0.278
 1519SOL    HW1 5456   6.674   5.238   0.331
 1519SOL    HW2 5457   6.833   5.202   0.340
 1520SOL     OW 5458   0.517   6.486   3.139
 1520SOL    HW1 5459   0.587   6.450   3.201
 1520SOL    HW2 5460   0.516   6.432   3.055
 1521SOL     OW 5461   2.104   5.258   6.238
 1521SOL    HW1 5462   2.168   5.289   6.167
 1521SOL    HW2 5463   2.132   5.168   6.271
 1522SOL     OW 5464   6.173   5.925   3.967
 1522SOL    HW1 5465   6.175   6.025   3.956
 1522SOL    HW2 5466   6.240   5.884   3.905
 1523SOL     OW 5467   3.555   6.412   0.690
 1523SOL    HW1 5468   3.580   6.509   0.696
 1523SOL    HW2 5469   3.464   6.403   0.648
 1524SOL     OW 5470   2.383   1.411   3.249
 1524SOL    HW1 5471   2.323   1.452   3.180
 1524SOL    HW2 5472   2.353   1.318   3.269
 1525SOL     OW 5473   5.610   4.650   0.016
 1525SOL    HW1 5474   5.648   4.730   0.063
 1525SOL    HW2 5475   5.583   4.676   6.947
 1526SOL     OW 5476   0.992   1.759   0.859
 1526SOL    HW1 5477   0.992   1.677   0.915
 1526SOL    HW2 5478   1.081   1.805   0.868
 1527SOL     OW 5479   4.487   2.074   3.457
 1527SOL    HW1 5480   4.575   2.120   3.463
 1527SOL    HW2 5481   4.414   2.142   3.446
 1528SOL     OW 5482   3.267   3.890   1.953
 1528SOL    HW1 5483   3.295   3.850   1.866
 1528SOL    HW2 5484   3.212   3.824   2.004
 1529SOL     OW 5485   4.600   1.679   6.097
 1529SOL    HW1 5486   4.693   1.650   6.072
 1529SOL    HW2 5487   4.605   1.742   6.175
 1530SOL     OW 5488   2.786   6.564   0.983
 1530SOL    HW1 5489   2.835   6.510   0.914
 1530SOL    HW2 5490   2.765   6.654   0.945
 1531SOL     OW 5491   4.687   6.245   4.289
 1531SOL    HW1 5492   4.595   6.224   4.322
 1531SOL    HW2 5493   4.720   6.171   4.231
 1532SOL     OW 5494   3.199   5.522   0.234
 1532SOL    HW1 5495   3.113   5.520   0.184
 1532SOL    HW2 5496   3.271   5.559   0.176
 1533SOL     OW 5497   5.646   6.004   1.270
 1533SOL    HW1 5498   5.599   6.059   1.339
 1533SOL    HW2 5499   5.585   5.932   1.237
 1534SOL     OW 5500   3.066   4.314   6.840
 1534SOL    HW1 5501   3.092   4.392   6.897
 1534SOL    HW2 5502   2.993   4.342   6.778
 1535SOL     OW 5503   5.487   4.594   3.901
 1535SOL    HW1 5504   5.469   4.679   3.952
 1535SOL    HW2 5505   5.450   4.517   3.952
 1536SOL     OW 5506   4.837   3.625   6.763
 1536SOL    HW1 5507   4.844   3.651   6.666
 1536SOL    HW2 5508   4.876   3.698   6.819
 1537SOL     OW 5509   3.148   5.447   2.648
 1537SOL    HW1 5510   3.058   5.485   2.672
 1537SOL    HW2 5511   3.217   5.519   2.651
 1538SOL     OW 5512   2.720   1.562   0.585
 1538SOL    HW1 5513   2.693   1.480   0.535
 1538SOL    HW2 5514   2.688   1.554   0.680
 1539SOL     OW 5515   5.772   3.431   1.057
 1539SOL    HW1 5516   5.754   3.529   1.065
 1539SOL    HW2 5517   5.692   3.385   1.017
 1540SOL     OW 5518   3.556   0.193   3.467
 1540SOL    HW1 5519   3.500   0.169   3.387
 1540SOL    HW2 5520   3.512   0.267   3.517
 1541SOL     OW 5521   3.951   3.132   5.909
 1541SOL    HW1 5522   4.016   3.090   5.973
 1541SOL    HW2 5523   3.894   3.061   5.869
 1542SOL     OW 5524   0.274   6.240   2.539
 1542SOL    HW1 5525   0.273   6.331   2.497
 1542SOL    HW2 5526   0.190   6.227   2.592
 1543SOL     OW 5527   2.971   4.749   0.250
 1543SOL    HW1 5528   2.979   4.840   0.290
 1543SOL    HW2 5529   3.046   4.734   0.185
 1544SOL     OW 5530   3.832   3.737   3.942
 1544SOL    HW1 5531   3.746   3.786   3.953
 1544SOL    HW2 5532   3.814   3.639   3.937
 1545SOL     OW 5533   5.733   5.885   1.681
 1545SOL    HW1 5534   5.647   5.847   1.716
 1545SOL    HW2 5535   5.746   5.978   1.717
 1546SOL     OW 5536   5.654   6.338   5.937
 1546SOL    HW1 5537   5.615   6.247   5.921
 1546SOL    HW2 5538   5.753   6.335   5.922
 1547SOL     OW 5539   1.850   3.093   6.690
 1547SOL    HW1 5540   1.874   3.030   6.764
 1547SOL    HW2 5541   1.786   3.161   6.726
 1548SOL     OW 5542   6.603   2.236   0.478
 1548SOL    HW1 5543   6.521   2.206   0.429
 1548SOL    HW2 5544   6.632   2.325   0.443
 1549SOL     OW 5545   5.196   0.994   4.816
 1549SOL    HW1 5546   5.206   0.920   4.883
 1549SOL    HW2 5547   5.120   1.053   4.842
 1550SOL     OW 5548   4.018   3.258   4.295
 1550SOL    HW1 5549   3.980   3.175   4.338
 1550SOL    HW2 5550   3.992   3.260   4.199
 1551SOL     OW 5551   6.813   4.844   5.326
 1551SOL    HW1 5552   6.720   4.815   5.302
 1551SOL    HW2 5553   6.847   4.788   5.402
 1552SOL     OW 5554   1.850   4.068   0.934
 1552SOL    HW1 5555   1.934   4.072   0.880
 1552SOL    HW2 5556   1.775   4.106   0.880
 1553SOL     OW 5557   2.017   1.555   6.038
 1553SOL    HW1 5558   2.116   1.550   6.020
 1553SOL    HW2 5559   2.001   1.615   6.116
 1554SOL     OW 5560   3.625   2.097   3.889
 1554SOL    HW1 5561   3.610   2.134   3.797
 1554SOL    HW2 5562   3.587   2.159   3.957
 1555SOL     OW 5563   6.156   4.554   6.244
 1555SOL    HW1 5564   6.133   4.651   6.253
 1555SOL    HW2 5565   6.179   4.517   6.334
 1556SOL     OW 5566   2.039   0.840   5.861
 1556SOL    HW1 5567   2.021   0.755   5.910
 1556SOL    HW2 5568   2.093   0.901   5.919
 1557SOL     OW 5569   0.120   2.869   5.393
 1557SOL    HW1 5570   0.175   2.831   5.467
 1557SOL    HW2 5571   0.058   2.799   5.358
 1558SOL     OW 5572   0.244   0.138   4.746
 1558SOL    HW1 5573   0.284   0.113   4.835
 1558SOL    HW2 5574   0.150   0.170   4.760
 1559SOL     OW 5575   1.398   1.495   6.050
 1559SOL    HW1 5576   1.403   1.545   5.964
 1559SOL    HW2 5577   1.483   1.443   6.063
 1560SOL     OW 5578   6.979   0.299   6.841
 1560SOL    HW1 5579   0.005   0.239   6.904
 1560SOL    HW2 5580   6.996   0.270   6.747
 1561SOL     OW 5581   5.752   6.152   1.769
 1561SOL    HW1 5582   5.678   6.189   1.826
 1561SOL    HW2 5583   5.839   6.192   1.798
 1562SOL     OW 5584   6.375   0.628   3.728
 1562SOL    HW1 5585   6.454   0.592   3.779
 1562SOL    HW2 5586   6.291   0.606   3.777
 1563SOL     OW 5587   3.859   0.021   5.083
 1563SOL    HW1 5588   3.861   6.961   5.139
 1563SOL    HW2 5589   3.882   7.021   4.989
 1564SOL     OW 5590   0.769   2.053   2.573
 1564SOL    HW1 5591   0.684   2.100   2.598
 1564SOL    HW2 5592   0.844   2.119   2.569
 1565SOL     OW 5593   5.815   4.640   1.244
 1565SOL    HW1 5594   5.866   4.697   1.181
 1565SOL    HW2 5595   5.858   4.642   1.334
 1566SOL     OW 5596   5.849   4.463   3.331
 1566SOL    HW1 5597   5.752   4.457   3.308
 1566SOL    HW2 5598   5.865   4.544   3.387
 1567SOL     OW 5599   5.971   5.560   5.309
 1567SOL    HW1 5600   6.050   5.570   5.370
 1567SOL    HW2 5601   5.946   5.463   5.302
 1568SOL     OW 5602   0.442   7.000   6.991
 1568SOL    HW1 5603   0.378   0.026   6.932
 1568SOL    HW2 5604   0.533   7.002   6.952
 1569SOL     OW 5605   3.595   6.667   5.043
 1569SOL    HW1 5606   3.561   6.580   5.008
 1569SOL    HW2 5607   3.674   6.696   4.990
 1570SOL     OW 5608   3.278   1.991   1.860
 1570SOL    HW1 5609   3.320   2.009   1.949
 1570SOL    HW2 5610   3.220   2.068   1.834
 1571SOL     OW 5611   7.018   3.885   0.709
 1571SOL    HW1 5612   6.935   3.886   0.653
 1571SOL    HW2 5613   0.025   3.790   0.722
 1572SOL     OW 5614   1.436   5.884   2.236
 1572SOL    HW1 5615   1.425   5.935   2.151
 1572SOL    HW2 5616   1.395   5.934   2.312
 1573SOL     OW 5617   3.995   0.546   0.684
 1573SOL    HW1 5618   3.996   0.450   0.711
 1573SOL    HW2 5619   4.055   0.560   0.606
 1574SOL     OW 5620   6.067   2.529   2.263
 1574SOL    HW1 5621   6.040   2.588   2.339
 1574SOL    HW2 5622   6.017   2.443   2.268
 1575SOL     OW 5623   3.023   1.928   0.200
 1575SOL    HW1 5624   3.082   1.914   0.120
 1575SOL    HW2 5625   2.989   1.840   0.232
 1576SOL     OW 5626   6.398   5.807   3.843
 1576SOL    HW1 5627   6.405   5.890   3.788
 1576SOL    HW2 5628   6.468   5.808   3.914
 1577SOL     OW 5629   1.582   0.394   0.252
 1577SOL    HW1 5630   1.552   0.350   0.336
 1577SOL    HW2 5631   1.659   0.343   0.213
 1578SOL     OW 5632   5.748   5.781   4.615
 1578SOL    HW1 5633   5.760   5.711   4.545
 1578SOL    HW2 5634   5.791   5.751   4.700
 1579SOL     OW 5635   0.184   7.011   3.352
 1579SOL    HW1 5636   0.207   0.068   3.408
 1579SOL    HW2 5637   0.085   7.006   3.341
 1580SOL     OW 5638   3.251   3.817   5.967
 1580SOL    HW1 5639   3.332   3.822   6.026
 1580SOL    HW2 5640   3.279   3.815   5.871
 1581SOL     OW 5641   6.515   3.936   4.006
 1581SOL    HW1 5642   6.466   3.852   4.031
 1581SOL    HW2 5643   6.450   4.002   3.968
 1582SOL     OW 5644   6.498   5.677   4.940
 1582SOL    HW1 5645   6.558   5.747   4.902
 1582SOL    HW2 5646   6.404   5.692   4.908
 1583SOL     OW 5647   2.385   1.672   2.196
 1583SOL    HW1 5648   2.302   1.715   2.230
 1583SOL    HW2 5649   2.370   1.573   2.186
 1584SOL     OW 5650   1.916   0.305   6.103
 1584SOL    HW1 5651   1.948   0.259   6.186
 1584SOL    HW2 5652   1.965   0.391   6.091
 1585SOL     OW 5653   5.685   1.228   5.704
 1585SOL    HW1 5654   5.760   1.293   5.688
 1585SOL    HW2 5655   5.707   1.172   5.784
 1586SOL     OW 5656   3.861   4.055   3.021
 1586SOL    HW1 5657   3.904   4.073   3.110
 1586SOL    HW2 5658   3.891   3.965   2.988
 1587SOL     OW 5659   2.262   6.405   6.266
 1587SOL    HW1 5660   2.334   6.360   6.319
 1587SOL    HW2 5661   2.238   6.491   6.310
 1588SOL     OW 5662   5.650   3.909   1.394
 1588SOL    HW1 5663   5.561   3.866   1.380
 1588SOL    HW2 5664   5.645   3.969   1.474
 1589SOL     OW 5665   5.125   4.067   3.279
 1589SOL    HW1 5666   5.098   4.159   3.309
 1589SOL    HW2 5667   5.050   4.026   3.226
 1590SOL     OW 5668   1.801   6.989   5.362
 1590SOL    HW1 5669   1.793   6.893   5.389
 1590SOL    HW2 5670   1.715   0.014   5.381
 1591SOL     OW 5671   0.626   3.907   1.151
 1591SOL    HW1 5672   0.722   3.884   1.164
 1591SOL    HW2 5673   0.611   3.936   1.056
 1592SOL     OW 5674   3.159   4.004   3.679
 1592SOL    HW1 5675   3.189   4.025   3.772
 1592SOL    HW2 5676   3.089   3.933   3.682
 1593SOL     OW 5677   1.111   5.255   4.793
 1593SOL    HW1 5678   1.106   5.169   4.844
 1593SOL    HW2 5679   1.128   5.236   4.697
 1594SOL     OW 5680   1.005   5.009   3.081
 1594SOL    HW1 5681   1.076   5.056   3.133
 1594SOL    HW2 5682   0.963   4.939   3.138
 1595SOL     OW 5683   0.085   5.206   5.826
 1595SOL    HW1 5684   0.014   5.269   5.856
 1595SOL    HW2 5685   0.045   5.135   5.769
 1596SOL     OW 5686   2.756   4.867   6.953
 1596SOL    HW1 5687   2.794   4.775   6.943
 1596SOL    HW2 5688   2.724   4.879   0.024
 1597SOL     OW 5689   2.683   6.779   0.396
 1597SOL    HW1 5690   2.671   6.695   0.448
 1597SOL    HW2 5691   2.614   6.846   0.423
 1598SOL     OW 5692   6.567   5.743   1.621
 1598SOL    HW1 5693   6.577   5.843   1.629
 1598SOL    HW2 5694   6.655   5.700   1.641
 1599SOL     OW 5695   3.377   4.870   0.652
 1599SOL    HW1 5696   3.382   4.836   0.746
 1599SOL    HW2 5697   3.331   4.959   0.652
 1600SOL     OW 5698   3.521   1.131   5.098
 1600SOL    HW1 5699   3.541   1.221   5.059
 1600SOL    HW2 5700   3.523   1.062   5.026
 1601SOL     OW 5701   1.115   4.976   5.180
 1601SOL    HW1 5702   1.100   4.877   5.171
 1601SOL    HW2 5703   1.128   5.015   5.089
 1602SOL     OW 5704   0.313   4.174   2.240
 1602SOL    HW1 5705   0.271   4.132   2.160
 1602SOL    HW2 5706   0.409   4.195   2.219
 1603SOL     OW 5707   5.923   6.456   1.056
 1603SOL    HW1 5708   5.849   6.418   1.001
 1603SOL    HW2 5709   5.889   6.477   1.148
 1604SOL     OW 5710   0.232   5.834   5.160
 1604SOL    HW1 5711   0.278   5.764   5.105
 1604SOL    HW2 5712   0.271   5.924   5.140
 1605SOL     OW 5713   5.187   6.781   3.041
 1605SOL    HW1 5714   5.088   6.787   3.031
 1605SOL    HW2 5715   5.212   6.793   3.138
 1606SOL     OW 5716   5.171   0.095   5.494
 1606SOL    HW1 5717   5.252   0.082   5.437
 1606SOL    HW2 5718   5.110   0.161   5.450
 1607SOL     OW 5719   4.949   3.137   0.888
 1607SOL    HW1 5720   4.866   3.092   0.855
 1607SOL    HW2 5721   5.008   3.160   0.811
 1608SOL     OW 5722   2.164   0.440   0.408
 1608SOL    HW1 5723   2.214   0.523   0.434
 1608SOL    HW2 5724   2.168   0.374   0.483
 1609SOL     OW 5725   5.256   1.208   5.700
 1609SOL    HW1 5726   5.230   1.251   5.614
 1609SOL    HW2 5727   5.341   1.156   5.687
 1610SOL     OW 5728   5.618   6.660   4.015
 1610SOL    HW1 5729   5.610   6.563   4.041
 1610SOL    HW2 5730   5.530   6.705   4.029
 1611SOL     OW 5731   3.725   2.870   1.432
 1611SOL    HW1 5732   3.807   2.928   1.434
 1611SOL    HW2 5733   3.731   2.806   1.355
 1612SOL     OW 5734   3.197   1.045   4.432
 1612SOL    HW1 5735   3.184   0.977   4.360
 1612SOL    HW2 5736   3.295   1.054   4.452
 1613SOL     OW 5737   1.502   6.707   0.935
 1613SOL    HW1 5738   1.589   6.727   0.889
 1613SOL    HW2 5739   1.517   6.640   1.007
 1614SOL     OW 5740   0.826   3.078   6.216
 1614SOL    HW1 5741   0.820   3.057   6.119
 1614SOL    HW2 5742   0.743   3.124   6.246
 1615SOL     OW 5743   6.345   4.970   5.895
 1615SOL    HW1 5744   6.363   4.876   5.865
 1615SOL    HW2 5745   6.255   4.973   5.940
 1616SOL     OW 5746   2.437   1.622   5.523
 1616SOL    HW1 5747   2.499   1.697   5.546
 1616SOL    HW2 5748   2.453   1.594   5.428
 1617SOL     OW 5749   4.622   0.457   3.942
 1617SOL    HW1 5750   4.542   0.484   3.889
 1617SOL    HW2 5751   4.684   0.535   3.952
 1618SOL     OW 5752   5.982   1.739   1.580
 1618SOL    HW1 5753   5.973   1.652   1.627
 1618SOL    HW2 5754   5.987   1.814   1.646
 1619SOL     OW 5755   2.163   2.637   4.479
 1619SOL    HW1 5756   2.221   2.626   4.398
 1619SOL    HW2 5757   2.219   2.662   4.557
 1620SOL     OW 5758   3.470   5.969   1.772
 1620SOL    HW1 5759   3.461   6.024   1.855
 1620SOL    HW2 5760   3.509   5.880   1.795
 1621SOL     OW 5761   1.865   1.521   1.888
 1621SOL    HW1 5762   1.774   1.562   1.877
 1621SOL    HW2 5763   1.881   1.456   1.813
 1622SOL     OW 5764   2.052   2.148   4.837
 1622SOL    HW1 5765   2.073   2.241   4.865
 1622SOL    HW2 5766   1.996   2.104   4.908
 1623SOL     OW 5767   2.819   2.293   4.661
 1623SOL    HW1 5768   2.773   2.339   4.736
 1623SOL    HW2 5769   2.781   2.324   4.574
 1624SOL     OW 5770   2.311   0.630   0.512
 1624SOL    HW1 5771   2.246   0.701   0.539
 1624SOL    HW2 5772   2.354   0.591   0.593
 1625SOL     OW 5773   0.110   5.420   1.902
 1625SOL    HW1 5774   0.184   5.454   1.845
 1625SOL    HW2 5775   0.128   5.444   1.997
 1626SOL     OW 5776   2.026   2.922   5.790
 1626SOL    HW1 5777   2.064   2.987   5.855
 1626SOL    HW2 5778   2.096   2.896   5.724
 1627SOL     OW 5779   5.219   3.065   3.966
 1627SOL    HW1 5780   5.190   3.045   4.060
 1627SOL    HW2 5781   5.318   3.074   3.964
 1628SOL     OW 5782   3.139   3.390   0.488
 1628SOL    HW1 5783   3.232   3.382   0.524
 1628SOL    HW2 5784   3.138   3.455   0.412
 1629SOL     OW 5785   3.714   2.101   2.942
 1629SOL    HW1 5786   3.629   2.148   2.961
 1629SOL    HW2 5787   3.740   2.044   3.020
 1630SOL     OW 5788   0.050   4.817   4.816
 1630SOL    HW1 5789   0.008   4.837   4.904
 1630SOL    HW2 5790   0.015   4.730   4.781
 1631SOL     OW 5791   0.435   6.662   5.799
 1631SOL    HW1 5792   0.365   6.601   5.835
 1631SOL    HW2 5793   0.518   6.609   5.780
 1632SOL     OW 5794   4.870   0.061   0.867
 1632SOL    HW1 5795   4.919   0.138   0.825
 1632SOL    HW2 5796   4.925   7.001   0.857
 1633SOL     OW 5797   5.612   2.939   3.550
 1633SOL    HW1 5798   5.681   2.949   3.621
 1633SOL    HW2 5799   5.653   2.896   3.469
 1634SOL     OW 5800   4.002   0.635   0.266
 1634SOL    HW1 5801   3.980   0.560   0.329
 1634SOL    HW2 5802   4.060   0.702   0.314
 1635SOL     OW 5803   0.830   5.190   4.513
 1635SOL    HW1 5804   0.927   5.203   4.534
 1635SOL    HW2 5805   0.805   5.245   4.433
 1636SOL     OW 5806   2.689   6.581   1.220
 1636SOL    HW1 5807   2.724   6.572   1.126
 1636SOL    HW2 5808   2.728   6.663   1.262
 1637SOL     OW 5809   0.477   3.016   2.575
 1637SOL    HW1 5810   0.385   3.026   2.537
 1637SOL    HW2 5811   0.494   2.920   2.597
 1638SOL     OW 5812   1.333   2.772   5.699
 1638SOL    HW1 5813   1.429   2.744   5.692
 1638SOL    HW2 5814   1.326   2.870   5.683
 1639SOL     OW 5815   4.926   4.453   2.808
 1639SOL    HW1 5816   4.989   4.506   2.751
 1639SOL    HW2 5817   4.860   4.405   2.749
 1640SOL     OW 5818   5.449   0.647   1.315
 1640SOL    HW1 5819   5.412   0.585   1.246
 1640SOL    HW2 5820   5.432   0.741   1.288
 1641SOL     OW 5821   6.749   2.989   5.396
 1641SOL    HW1 5822   6.778   2.943   5.480
 1641SOL    HW2 5823   6.778   2.935   5.317
 1642SOL     OW 5824   0.305   1.874   1.282
 1642SOL    HW1 5825   0.352   1.908   1.200
 1642SOL    HW2 5826   0.248   1.947   1.319
 1643SOL     OW 5827   3.607   0.850   6.352
 1643SOL    HW1 5828   3.586   0.852   6.450
 1643SOL    HW2 5829   3.593   0.942   6.314
 1644SOL     OW 5830   3.001   0.581   0.637
 1644SOL    HW1 5831   3.061   0.658   0.662
 1644SOL    HW2 5832   3.048   0.495   0.660
 1645SOL     OW 5833   1.919   6.393   6.008
 1645SOL    HW1 5834   1.886   6.316   6.063
 1645SOL    HW2 5835   2.019   6.388   6.001
 1646SOL     OW 5836   1.371   4.056   0.180
 1646SOL    HW1 5837   1.272   4.069   0.184
 1646SOL    HW2 5838   1.398   3.985   0.245
 1647SOL     OW 5839   6.041   2.757   3.599
 1647SOL    HW1 5840   6.078   2.810   3.523
 1647SOL    HW2 5841   6.082   2.789   3.684
 1648SOL     OW 5842   4.118   0.195   2.289
 1648SOL    HW1 5843   4.208   0.234   2.307
 1648SOL    HW2 5844   4.058   0.212   2.368
 1649SOL     OW 5845   3.062   6.972   3.078
 1649SOL    HW1 5846   3.027   6.996   3.168
 1649SOL    HW2 5847   2.989   6.931   3.023
 1650SOL     OW 5848   3.476   0.115   3.850
 1650SOL    HW1 5849   3.504   0.079   3.938
 1650SOL    HW2 5850   3.409   0.188   3.863
 1651SOL     OW 5851   1.437   0.139   1.357
 1651SOL    HW1 5852   1.406   0.049   1.325
 1651SOL    HW2 5853   1.468   0.131   1.452
 1652SOL     OW 5854   2.947   3.260   1.530
 1652SOL    HW1 5855   2.944   3.196   1.454
 1652SOL    HW2 5856   2.987   3.346   1.500
 1653SOL     OW 5857   1.272   4.898   0.854
 1653SOL    HW1 5858   1.309   4.809   0.830
 1653SOL    HW2 5859   1.231   4.894   0.945
 1654SOL     OW 5860   0.351   2.290   3.175
 1654SOL    HW1 5861   0.382   2.380   3.146
 1654SOL    HW2 5862   0.422   2.223   3.156
 1655SOL     OW 5863   4.686   4.766   5.792
 1655SOL    HW1 5864   4.757   4.751   5.723
 1655SOL    HW2 5865   4.656   4.862   5.789
 1656SOL     OW 5866   0.472   4.310   2.940
 1656SOL    HW1 5867   0.556   4.290   2.888
 1656SOL    HW2 5868   0.394   4.313   2.877
 1657SOL     OW 5869   0.866   0.761   4.952
 1657SOL    HW1 5870   0.876   0.662   4.959
 1657SOL    HW2 5871   0.948   0.806   4.988
 1658SOL     OW 5872   6.600   6.544   2.870
 1658SOL    HW1 5873   6.546   6.467   2.836
 1658SOL    HW2 5874   6.571   6.567   2.963
 1659SOL     OW 5875   4.941   1.825   6.336
 1659SOL    HW1 5876   4.920   1.764   6.260
 1659SOL    HW2 5877   4.905   1.786   6.421
 1660SOL     OW 5878   2.017   6.134   3.299
 1660SOL    HW1 5879   2.096   6.126   3.360
 1660SOL    HW2 5880   2.041   6.097   3.209
 1661SOL     OW 5881   3.251   0.128   2.944
 1661SOL    HW1 5882   3.261   0.112   2.846
 1661SOL    HW2 5883   3.168   0.083   2.977
 1662SOL     OW 5884   0.323   0.124   2.893
 1662SOL    HW1 5885   0.418   0.146   2.915
 1662SOL    HW2 5886   0.287   0.062   2.963
 1663SOL     OW 5887   2.173   6.954   3.440
 1663SOL    HW1 5888   2.164   6.937   3.539
 1663SOL    HW2 5889   2.270   6.953   3.415
 1664SOL     OW 5890   2.461   5.204   4.305
 1664SOL    HW1 5891   2.399   5.127   4.296
 1664SOL    HW2 5892   2.554   5.170   4.322
 1665SOL     OW 5893   0.858   0.483   4.387
 1665SOL    HW1 5894   0.811   0.419   4.447
 1665SOL    HW2 5895   0.914   0.545   4.442
 1666SOL     OW 5896   5.334   3.674   6.761
 1666SOL    HW1 5897   5.423   3.673   6.714
 1666SOL    HW2 5898   5.277   3.746   6.723
 1667SOL     OW 5899   6.930   0.916   6.461
 1667SOL    HW1 5900   6.992   0.942   6.535
 1667SOL    HW2 5901   6.861   0.989   6.449
 1668SOL     OW 5902   2.438   0.222   5.146
 1668SOL    HW1 5903   2.468   0.259   5.058
 1668SOL    HW2 5904   2.338   0.217   5.147
 1669SOL     OW 5905   5.670   6.602   6.614
 1669SOL    HW1 5906   5.758   6.617   6.569
 1669SOL    HW2 5907   5.685   6.578   6.710
 1670SOL     OW 5908   5.927   3.611   6.333
 1670SOL    HW1 5909   5.887   3.528   6.294
 1670SOL    HW2 5910   5.877   3.691   6.300
 1671SOL     OW 5911   6.293   4.912   0.298
 1671SOL    HW1 5912   6.386   4.942   0.274
 1671SOL    HW2 5913   6.261   4.963   0.378
 1672SOL     OW 5914   2.045   5.047   1.856
 1672SOL    HW1 5915   2.104   5.029   1.777
 1672SOL    HW2 5916   2.078   4.995   1.934
 1673SOL     OW 5917   6.451   2.126   3.667
 1673SOL    HW1 5918   6.358   2.161   3.671
 1673SOL    HW2 5919   6.450   2.031   3.634
 1674SOL     OW 5920   2.217   5.242   6.589
 1674SOL    HW1 5921   2.207   5.242   6.688
 1674SOL    HW2 5922   2.276   5.167   6.561
 1675SOL     OW 5923   4.601   2.130   0.847
 1675SOL    HW1 5924   4.683   2.074   0.862
 1675SOL    HW2 5925   4.600   2.162   0.753
 1676SOL     OW 5926   2.303   1.370   4.316
 1676SOL    HW1 5927   2.324   1.276   4.290
 1676SOL    HW2 5928   2.284   1.375   4.414
 1677SOL     OW 5929   6.008   0.921   5.615
 1677SOL    HW1 5930   5.939   0.849   5.616
 1677SOL    HW2 5931   6.013   0.964   5.706
 1678SOL     OW 5932   4.895   0.378   1.345
 1678SOL    HW1 5933   4.841   0.338   1.271
 1678SOL    HW2 5934   4.992   0.372   1.323
 1679SOL     OW 5935   6.114   4.266   0.501
 1679SOL    HW1 5936   6.039   4.304   0.448
 1679SOL    HW2 5937   6.106   4.166   0.504
 1680SOL     OW 5938   1.652   2.451   4.789
 1680SOL    HW1 5939   1.645   2.353   4.806
 1680SOL    HW2 5940   1.576   2.498   4.833
 1681SOL     OW 5941   4.675   5.849   0.906
 1681SOL    HW1 5942   4.582   5.816   0.888
 1681SOL    HW2 5943   4.704   5.910   0.832
 1682SOL     OW 5944   6.693   3.603   5.520
 1682SOL    HW1 5945   6.716   3.516   5.477
 1682SOL    HW2 5946   6.777   3.648   5.552
 1683SOL     OW 5947   5.406   5.857   6.647
 1683SOL    HW1 5948   5.436   5.929   6.585
 1683SOL    HW2 5949   5.463   5.857   6.729
 1684SOL     OW 5950   0.408   6.222   4.926
 1684SOL    HW1 5951   0.351   6.192   4.849
 1684SOL    HW2 5952   0.500   6.244   4.893
 1685SOL     OW 5953   1.224   1.481   0.361
 1685SOL    HW1 5954   1.268   1.438   0.282
 1685SOL    HW2 5955   1.148   1.538   0.330
 1686SOL     OW 5956   2.071   5.590   6.659
 1686SOL    HW1 5957   2.106   5.683   6.670
 1686SOL    HW2 5958   2.135   5.525   6.701
 1687SOL     OW 5959   2.050   6.195   1.900
 1687SOL    HW1 5960   2.107   6.217   1.979
 1687SOL    HW2 5961   1.956   6.223   1.917
 1688SOL     OW 5962   0.604   1.458   3.883
 1688SOL    HW1 5963   0.551   1.541   3.900
 1688SOL    HW2 5964   0.698   1.483   3.861
 1689SOL     OW 5965   3.294   1.169   2.369
 1689SOL    HW1 5966   3.297   1.130   2.461
 1689SOL    HW2 5967   3.318   1.266   2.374
 1690SOL     OW 5968   0.732   2.199   0.788
 1690SOL    HW1 5969   0.763   2.283   0.832
 1690SOL    HW2 5970   0.734   2.212   0.688
 1691SOL     OW 5971   4.707   4.450   2.570
 1691SOL    HW1 5972   4.635   4.453   2.501
 1691SOL    HW2 5973   4.779   4.515   2.546
 1692SOL     OW 5974   1.775   6.976   3.302
 1692SOL    HW1 5975   1.804   6.994   3.396
 1692SOL    HW2 5976   1.701   0.016   3.277
 1693SOL     OW 5977   2.867   1.979   3.838
 1693SOL    HW1 5978   2.769   2.002   3.837
 1693SOL    HW2 5979   2.920   2.063   3.835
 1694SOL     OW 5980   4.682   6.252   5.829
 1694SOL    HW1 5981   4.673   6.197   5.912
 1694SOL    HW2 5982   4.595   6.296   5.808
 1695SOL     OW 5983   3.180   1.285   6.016
 1695SOL    HW1 5984   3.205   1.208   6.075
 1695SOL    HW2 5985   3.260   1.312   5.962
 1696SOL     OW 5986   3.430   5.508   1.755
 1696SOL    HW1 5987   3.408   5.411   1.754
 1696SOL    HW2 5988   3.394   5.552   1.672
 1697SOL     OW 5989   1.302   1.091   2.407
 1697SOL    HW1 5990   1.295   1.167   2.471
 1697SOL    HW2 5991   1.216   1.083   2.355
 1698SOL     OW 5992   5.456   1.694   0.798
 1698SOL    HW1 5993   5.489   1.686   0.891
 1698SOL    HW2 5994   5.377   1.634   0.785
 1699SOL     OW 5995   2.744   3.993   0.663
 1699SOL    HW1 5996   2.836   3.993   0.624
 1699SOL    HW2 5997   2.746   3.955   0.755
 1700SOL     OW 5998   6.380   2.842   4.637
 1700SOL    HW1 5999   6.440   2.763   4.654
 1700SOL    HW2 6000   6.285   2.815   4.649
 1701SOL     OW 6001   5.819   3.111   5.003
 1701SOL    HW1 6002   5.897   3.100   5.065
 1701SOL    HW2 6003   5.752   3.173   5.044
 1702SOL     OW 6004   4.998   2.980   1.871
 1702SOL    HW1 6005   5.018   3.057   1.810
 1702SOL    HW2 6006   4.905   2.989   1.906
 1703SOL     OW 6007   1.448   3.534   0.029
 1703SOL    HW1 6008   1.537   3.573   0.050
 1703SOL    HW2 6009   1.381   3.608   0.017
 1704SOL     OW 6010   0.495   0.607   1.493
 1704SOL    HW1 6011   0.466   0.602   1.397
 1704SOL    HW2 6012   0.417   0.587   1.552
 1705SOL     OW 6013   3.834   3.555   2.513
 1705SOL    HW1 6014   3.886   3.631   2.551
 1705SOL    HW2 6015   3.804   3.578   2.420
 1706SOL     OW 6016   2.334   0.612   6.534
 1706SOL    HW1 6017   2.381   0.585   6.617
 1706SOL    HW2 6018   2.357   0.708   6.512
 1707SOL     OW 6019   5.614   1.231   2.921
 1707SOL    HW1 6020   5.525   1.252   2.963
 1707SOL    HW2 6021   5.606   1.148   2.866
 1708SOL     OW 6022   0.647   4.517   1.670
 1708SOL    HW1 6023   0.725   4.567   1.708
 1708SOL    HW2 6024   0.636   4.541   1.573
 1709SOL     OW 6025   3.081   5.895   4.723
 1709SOL    HW1 6026   3.171   5.936   4.740
 1709SOL    HW2 6027   3.082   5.849   4.634
 1710SOL     OW 6028   0.341   5.648   4.123
 1710SOL    HW1 6029   0.410   5.593   4.170
 1710SOL    HW2 6030   0.253   5.600   4.125
 1711SOL     OW 6031   2.207   4.347   5.349
 1711SOL    HW1 6032   2.245   4.263   5.389
 1711SOL    HW2 6033   2.120   4.368   5.394
 1712SOL     OW 6034   1.764   4.934   1.058
 1712SOL    HW1 6035   1.691   4.963   1.120
 1712SOL    HW2 6036   1.853   4.948   1.102
 1713SOL     OW 6037   1.946   3.482   0.360
 1713SOL    HW1 6038   2.013   3.553   0.382
 1713SOL    HW2 6039   1.957   3.406   0.423
 1714SOL     OW 6040   3.679   1.534   1.137
 1714SOL    HW1 6041   3.732   1.618   1.144
 1714SOL    HW2 6042   3.583   1.552   1.159
 1715SOL     OW 6043   0.362   2.925   3.665
 1715SOL    HW1 6044   0.363   3.025   3.665
 1715SOL    HW2 6045   0.407   2.891   3.582
 1716SOL     OW 6046   7.000   0.157   0.192
 1716SOL    HW1 6047   6.976   0.085   0.127
 1716SOL    HW2 6048   6.976   0.127   0.284
 1717SOL     OW 6049   3.152   0.126   0.061
 1717SOL    HW1 6050   3.188   0.039   0.097
 1717SOL    HW2 6051   3.056   0.136   0.089
 1718SOL     OW 6052   1.230   4.715   5.726
 1718SOL    HW1 6053   1.194   4.641   5.669
 1718SOL    HW2 6054   1.324   4.695   5.753
 1719SOL     OW 6055   2.231   3.433   1.568
 1719SOL    HW1 6056   2.244   3.440   1.667
 1719SOL    HW2 6057   2.140   3.469   1.544
 1720SOL     OW 6058   6.513   1.472   2.827
 1720SOL    HW1 6059   6.514   1.527   2.911
 1720SOL    HW2 6060   6.588   1.406   2.830
 1721SOL     OW 6061   1.679   6.224   3.580
 1721SOL    HW1 6062   1.695   6.185   3.489
 1721SOL    HW2 6063   1.658   6.321   3.572
 1722SOL     OW 6064   5.663   7.015   1.598
 1722SOL    HW1 6065   5.624   6.927   1.571
 1722SOL    HW2 6066   5.636   0.062   1.533
 1723SOL     OW 6067   5.952   1.016   2.937
 1723SOL    HW1 6068   6.048   1.017   2.907
 1723SOL    HW2 6069   5.934   0.931   2.987
 1724SOL     OW 6070   5.053   0.598   0.019
 1724SOL    HW1 6071   5.128   0.567   6.983
 1724SOL    HW2 6072   5.075   0.690   0.054
 1725SOL     OW 6073   4.106   5.200   2.199
 1725SOL    HW1 6074   4.094   5.174   2.295
 1725SOL    HW2 6075   4.108   5.300   2.192
 1726SOL     OW 6076   0.274   4.071   4.282
 1726SOL    HW1 6077   0.360   4.059   4.233
 1726SOL    HW2 6078   0.202   4.097   4.217
 1727SOL     OW 6079   3.137   3.201   5.397
 1727SOL    HW1 6080   3.216   3.261   5.384
 1727SOL    HW2 6081   3.123   3.147   5.314
 1728SOL     OW 6082   4.295   4.737   3.500
 1728SOL    HW1 6083   4.217   4.747   3.561
 1728SOL    HW2 6084   4.264   4.742   3.405
 1729SOL     OW 6085   2.101   3.429   2.500
 1729SOL    HW1 6086   2.172   3.500   2.502
 1729SOL    HW2 6087   2.011   3.472   2.492
 1730SOL     OW 6088   5.875   2.285   4.411
 1730SOL    HW1 6089   5.955   2.289   4.471
 1730SOL    HW2 6090   5.819   2.366   4.423
 1731SOL     OW 6091   0.842   6.108   0.473
 1731SOL    HW1 6092   0.903   6.181   0.444
 1731SOL    HW2 6093   0.808   6.128   0.565
 1732SOL     OW 6094   0.707   4.530   6.828
 1732SOL    HW1 6095   0.617   4.564   6.854
 1732SOL    HW2 6096   0.700   4.435   6.796
 1733SOL     OW 6097   1.076   4.049   0.393
 1733SOL    HW1 6098   1.099   3.975   0.457
 1733SOL    HW2 6099   1.034   4.010   0.312
 1734SOL     OW 6100   4.769   3.475   1.205
 1734SOL    HW1 6101   4.795   3.570   1.189
 1734SOL    HW2 6102   4.851   3.418   1.207
 1735SOL     OW 6103   5.430   6.350   0.751
 1735SOL    HW1 6104   5.336   6.367   0.781
 1735SOL    HW2 6105   5.448   6.251   0.752
 1736SOL     OW 6106   3.333   3.812   0.254
 1736SOL    HW1 6107   3.297   3.816   0.161
 1736SOL    HW2 6108   3.420   3.861   0.259
 1737SOL     OW 6109   1.078   6.194   3.535
 1737SOL    HW1 6110   1.162   6.153   3.499
 1737SOL    HW2 6111   1.000   6.135   3.514
 1738SOL     OW 6112   1.115   1.446   1.740
 1738SOL    HW1 6113   1.147   1.360   1.701
 1738SOL    HW2 6114   1.108   1.437   1.839
 1739SOL     OW 6115   4.452   2.554   6.213
 1739SOL    HW1 6116   4.375   2.616   6.224
 1739SOL    HW2 6117   4.519   2.596   6.151
 1740SOL     OW 6118   0.958   1.298   5.312
 1740SOL    HW1 6119   0.937   1.308   5.409
 1740SOL    HW2 6120   0.995   1.384   5.277
 1741SOL     OW 6121   2.315   0.898   2.288
 1741SOL    HW1 6122   2.237   0.909   2.350
 1741SOL    HW2 6123   2.386   0.845   2.335
 1742SOL     OW 6124   6.320   6.241   4.556
 1742SOL    HW1 6125   6.314   6.142   4.567
 1742SOL    HW2 6126   6.229   6.282   4.571
 1743SOL     OW 6127   4.555   1.174   0.794
 1743SOL    HW1 6128   4.463   1.164   0.831
 1743SOL    HW2 6129   4.549   1.211   0.701
 1744SOL     OW 6130   2.905   6.981   1.745
 1744SOL    HW1 6131   3.000   6.976   1.714
 1744SOL    HW2 6132   2.890   0.045   1.792
 1745SOL     OW 6133   6.073   3.037   5.135
 1745SOL    HW1 6134   6.120   3.118   5.103
 1745SOL    HW2 6135   6.108   2.956   5.087
 1746SOL     OW 6136   2.450   0.986   5.459
 1746SOL    HW1 6137   2.380   0.920   5.487
 1746SOL    HW2 6138   2.524   0.987   5.526
 1747SOL     OW 6139   4.967   6.964   5.752
 1747SOL    HW1 6140   5.015   6.890   5.799
 1747SOL    HW2 6141   5.020   6.993   5.673
 1748SOL     OW 6142   5.899   1.484   1.710
 1748SOL    HW1 6143   5.989   1.490   1.752
 1748SOL    HW2 6144   5.831   1.465   1.781
 1749SOL     OW 6145   4.404   0.229   5.900
 1749SOL    HW1 6146   4.401   0.252   5.997
 1749SOL    HW2 6147   4.313   0.237   5.860
 1750SOL     OW 6148   4.917   0.379   3.868
 1750SOL    HW1 6149   4.951   0.469   3.895
 1750SOL    HW2 6150   4.893   0.327   3.949
 1751SOL     OW 6151   1.796   5.561   3.543
 1751SOL    HW1 6152   1.882   5.578   3.496
 1751SOL    HW2 6153   1.727   5.627   3.513
 1752SOL     OW 6154   6.960   1.988   6.990
 1752SOL    HW1 6155   6.910   1.998   6.904
 1752SOL    HW2 6156   0.008   2.058   6.996
 1753SOL     OW 6157   2.290   6.950   2.362
 1753SOL    HW1 6158   2.386   6.955   2.391
 1753SOL    HW2 6159   2.282   6.889   2.283
 1754SOL     OW 6160   3.753   2.618   1.264
 1754SOL    HW1 6161   3.785   2.585   1.353
 1754SOL    HW2 6162   3.676   2.562   1.233
 1755SOL     OW 6163   5.762   3.548   0.383
 1755SOL    HW1 6164   5.767   3.648   0.386
 1755SOL    HW2 6165   5.763   3.512   0.477
 1756SOL     OW 6166   5.884   5.732   4.852
 1756SOL    HW1 6167   5.839   5.648   4.882
 1756SOL    HW2 6168   5.909   5.787   4.931
 1757SOL     OW 6169   3.599   0.569   5.249
 1757SOL    HW1 6170   3.540   0.489   5.261
 1757SOL    HW2 6171   3.597   0.598   5.154
 1758SOL     OW 6172   2.807   1.761   3.314
 1758SOL    HW1 6173   2.745   1.683   3.308
 1758SOL    HW2 6174   2.756   1.842   3.344
 1759SOL     OW 6175   0.475   5.238   5.977
 1759SOL    HW1 6176   0.383   5.277   5.980
 1759SOL    HW2 6177   0.534   5.297   5.922
 1760SOL     OW 6178   5.062   0.347   2.158
 1760SOL    HW1 6179   5.122   0.289   2.102
 1760SOL    HW2 6180   5.062   0.440   2.121
 1761SOL     OW 6181   5.815   2.632   1.691
 1761SOL    HW1 6182   5.763   2.716   1.711
 1761SOL    HW2 6183   5.761   2.574   1.631
 1762SOL     OW 6184   5.590   2.746   0.586
 1762SOL    HW1 6185   5.613   2.690   0.666
 1762SOL    HW2 6186   5.602   2.692   0.503
 1763SOL     OW 6187   2.109   3.633   3.786
 1763SOL    HW1 6188   2.146   3.725   3.776
 1763SOL    HW2 6189   2.163   3.583   3.854
 1764SOL     OW 6190   6.477   3.077   4.450
 1764SOL    HW1 6191   6.407   3.090   4.380
 1764SOL    HW2 6192   6.463   2.990   4.496
 1765SOL     OW 6193   2.208   2.898   6.058
 1765SOL    HW1 6194   2.110   2.916   6.050
 1765SOL    HW2 6195   2.236   2.835   5.986
 1766SOL     OW 6196   6.098   3.071   5.402
 1766SOL    HW1 6197   6.086   3.034   5.310
 1766SOL    HW2 6198   6.016   3.122   5.428
 1767SOL     OW 6199   6.723   3.915   1.567
 1767SOL    HW1 6200   6.673   3.929   1.481
 1767SOL    HW2 6201   6.798   3.851   1.551
 1768SOL     OW 6202   5.813   6.567   3.840
 1768SOL    HW1 6203   5.863   6.651   3.820
 1768SOL    HW2 6204   5.745   6.585   3.912
 1769SOL     OW 6205   5.580   0.494   3.652
 1769SOL    HW1 6206   5.562   0.404   3.691
 1769SOL    HW2 6207   5.640   0.545   3.713
 1770SOL     OW 6208   3.370   5.375   5.033
 1770SOL    HW1 6209   3.347   5.280   5.050
 1770SOL    HW2 6210   3.402   5.386   4.939
 1771SOL     OW 6211   4.574   6.674   7.016
 1771SOL    HW1 6212   4.606   6.653   0.085
 1771SOL    HW2 6213   4.486   6.629   7.000
 1772SOL     OW 6214   3.150   6.351   3.088
 1772SOL    HW1 6215   3.166   6.410   3.167
 1772SOL    HW2 6216   3.236   6.336   3.040
 1773SOL     OW 6217   0.917   6.236   6.838
 1773SOL    HW1 6218   0.912   6.248   6.937
 1773SOL    HW2 6219   0.894   6.321   6.792
 1774SOL     OW 6220   3.162   4.932   2.245
 1774SOL    HW1 6221   3.233   4.979   2.194
 1774SOL    HW2 6222   3.098   4.889   2.182
 1775SOL     OW 6223   0.937   4.514   1.314
 1775SOL    HW1 6224   0.878   4.440   1.345
 1775SOL    HW2 6225   1.019   4.475   1.271
 1776SOL     OW 6226   3.048   5.908   5.462
 1776SOL    HW1 6227   2.951   5.885   5.460
 1776SOL    HW2 6228   3.059   6.008   5.466
 1777SOL     OW 6229   3.219   5.756   0.428
 1777SOL    HW1 6230   3.234   5.679   0.365
 1777SOL    HW2 6231   3.127   5.792   0.414
 1778SOL     OW 6232   6.518   4.011   5.852
 1778SOL    HW1 6233   6.549   4.101   5.884
 1778SOL    HW2 6234   6.596   3.960   5.816
 1779SOL     OW 6235   3.736   0.463   5.625
 1779SOL    HW1 6236   3.782   0.539   5.670
 1779SOL    HW2 6237   3.668   0.499   5.561
 1780SOL     OW 6238   3.657   3.647   6.770
 1780SOL    HW1 6239   3.738   3.670   6.824
 1780SOL    HW2 6240   3.673   3.563   6.719
 1781SOL     OW 6241   3.847   5.589   3.736
 1781SOL    HW1 6242   3.763   5.635   3.708
 1781SOL    HW2 6243   3.848   5.496   3.700
 1782SOL     OW 6244   3.347   1.819   4.368
 1782SOL    HW1 6245   3.399   1.777   4.294
 1782SOL    HW2 6246   3.326   1.751   4.438
 1783SOL     OW 6247   2.218   5.827   6.925
 1783SOL    HW1 6248   2.278   5.807   6.848
 1783SOL    HW2 6249   2.135   5.871   6.891
 1784SOL     OW 6250   3.443   6.621   5.740
 1784SOL    HW1 6251   3.468   6.698   5.681
 1784SOL    HW2 6252   3.421   6.654   5.831
 1785SOL     OW 6253   0.050   4.519   1.433
 1785SOL    HW1 6254   0.110   4.592   1.401
 1785SOL    HW2 6255   0.104   4.438   1.455
 1786SOL     OW 6256   3.948   2.269   1.087
 1786SOL    HW1 6257   4.007   2.218   1.025
 1786SOL    HW2 6258   3.904   2.206   1.151
 1787SOL     OW 6259   3.695   0.707   6.081
 1787SOL    HW1 6260   3.617   0.727   6.021
 1787SOL    HW2 6261   3.665   0.710   6.177
 1788SOL     OW 6262   1.524   4.743   6.125
 1788SOL    HW1 6263   1.522   4.729   6.224
 1788SOL    HW2 6264   1.619   4.740   6.093
 1789SOL     OW 6265   5.965   0.457   0.296
 1789SOL    HW1 6266   5.976   0.539   0.240
 1789SOL    HW2 6267   6.050   0.439   0.346
 1790SOL     OW 6268   3.289   6.802   2.992
 1790SOL    HW1 6269   3.220   6.875   2.993
 1790SOL    HW2 6270   3.244   6.713   2.991
 1791SOL     OW 6271   0.087   6.658   2.375
 1791SOL    HW1 6272   0.081   6.633   2.472
 1791SOL    HW2 6273   0.154   6.732   2.364
 1792SOL     OW 6274   1.144   3.976   5.093
 1792SOL    HW1 6275   1.202   3.942   5.167
 1792SOL    HW2 6276   1.192   3.966   5.006
 1793SOL     OW 6277   0.225   0.690   3.548
 1793SOL    HW1 6278   0.150   0.633   3.581
 1793SOL    HW2 6279   0.249   0.758   3.619
 1794SOL     OW 6280   4.501   6.113   6.426
 1794SOL    HW1 6281   4.556   6.147   6.350
 1794SOL    HW2 6282   4.404   6.115   6.402
 1795SOL     OW 6283   0.874   3.079   0.073
 1795SOL    HW1 6284   0.893   3.036   7.008
 1795SOL    HW2 6285   0.928   3.034   0.145
 1796SOL     OW 6286   3.348   0.418   6.350
 1796SOL    HW1 6287   3.255   0.388   6.331
 1796SOL    HW2 6288   3.409   0.339   6.350
 1797SOL     OW 6289   0.909   0.529   0.650
 1797SOL    HW1 6290   0.864   0.558   0.566
 1797SOL    HW2 6291   0.843   0.527   0.725
 1798SOL     OW 6292   5.433   2.390   3.580
 1798SOL    HW1 6293   5.432   2.308   3.636
 1798SOL    HW2 6294   5.515   2.444   3.601
 1799SOL     OW 6295   2.273   1.556   6.777
 1799SOL    HW1 6296   2.281   1.476   6.837
 1799SOL    HW2 6297   2.203   1.618   6.813
 1800SOL     OW 6298   4.087   4.745   2.382
 1800SOL    HW1 6299   4.130   4.813   2.321
 1800SOL    HW2 6300   3.988   4.747   2.369
 1801SOL     OW 6301   5.644   0.158   0.998
 1801SOL    HW1 6302   5.692   0.091   1.056
 1801SOL    HW2 6303   5.598   0.225   1.056
 1802SOL     OW 6304   5.329   5.160   3.898
 1802SOL    HW1 6305   5.251   5.170   3.837
 1802SOL    HW2 6306   5.409   5.128   3.846
 1803SOL     OW 6307   5.743   5.621   1.027
 1803SOL    HW1 6308   5.721   5.673   1.109
 1803SOL    HW2 6309   5.767   5.683   0.953
 1804SOL     OW 6310   3.380   3.184   5.944
 1804SOL    HW1 6311   3.352   3.160   5.851
 1804SOL    HW2 6312   3.391   3.283   5.951
 1805SOL     OW 6313   5.812   2.963   6.461
 1805SOL    HW1 6314   5.759   2.900   6.518
 1805SOL    HW2 6315   5.792   3.057   6.488
 1806SOL     OW 6316   0.210   0.803   0.628
 1806SOL    HW1 6317   0.281   0.830   0.563
 1806SOL    HW2 6318   0.181   0.883   0.681
 1807SOL     OW 6319   5.878   1.902   5.928
 1807SOL    HW1 6320   5.885   1.947   6.018
 1807SOL    HW2 6321   5.882   1.971   5.856
 1808SOL     OW 6322   2.090   4.448   4.060
 1808SOL    HW1 6323   2.127   4.492   4.142
 1808SOL    HW2 6324   2.134   4.359   4.047
 1809SOL     OW 6325   3.512   0.177   6.321
 1809SOL    HW1 6326   3.593   0.199   6.267
 1809SOL    HW2 6327   3.535   0.109   6.390
 1810SOL     OW 6328   3.646   5.743   2.882
 1810SOL    HW1 6329   3.557   5.786   2.897
 1810SOL    HW2 6330   3.716   5.813   2.876
 1811SOL     OW 6331   6.370   5.531   2.594
 1811SOL    HW1 6332   6.376   5.499   2.500
 1811SOL    HW2 6333   6.439   5.602   2.610
 1812SOL     OW 6334   4.351   5.347   6.714
 1812SOL    HW1 6335   4.415   5.378   6.785
 1812SOL    HW2 6336   4.365   5.399   6.630
 1813SOL     OW 6337   6.632   5.194   5.452
 1813SOL    HW1 6338   6.654   5.161   5.544
 1813SOL    HW2 6339   6.706   5.168   5.389
 1814SOL     OW 6340   5.113   6.449   2.433
 1814SOL    HW1 6341   5.144   6.426   2.341
 1814SOL    HW2 6342   5.186   6.496   2.482
 1815SOL     OW 6343   0.285   0.991   2.283
 1815SOL    HW1 6344   0.373   0.968   2.323
 1815SOL    HW2 6345   0.278   1.091   2.274
 1816SOL     OW 6346   0.908   4.261   0.462
 1816SOL    HW1 6347   0.993   4.209   0.451
 1816SOL    HW2 6348   0.896   4.321   0.383
 1817SOL     OW 6349   1.060   5.368   2.000
 1817SOL    HW1 6350   0.984   5.387   1.939
 1817SOL    HW2 6351   1.102   5.281   1.975
 1818SOL     OW 6352   2.052   1.037   2.951
 1818SOL    HW1 6353   1.972   0.990   2.913
 1818SOL    HW2 6354   2.031   1.069   3.043
 1819SOL     OW 6355   1.293   4.287   2.497
 1819SOL    HW1 6356   1.269   4.381   2.472
 1819SOL    HW2 6357   1.271   4.272   2.594
 1820SOL     OW 6358   5.589   0.350   2.725
 1820SOL    HW1 6359   5.519   0.338   2.796
 1820SOL    HW2 6360   5.674   0.381   2.768
 1821SOL     OW 6361   1.886   1.845   3.320
 1821SOL    HW1 6362   1.891   1.766   3.380
 1821SOL    HW2 6363   1.883   1.814   3.225
 1822SOL     OW 6364   3.518   3.572   1.531
 1822SOL    HW1 6365   3.602   3.518   1.536
 1822SOL    HW2 6366   3.444   3.524   1.579
 1823SOL     OW 6367   4.344   0.047   2.742
 1823SOL    HW1 6368   4.404   0.127   2.739
 1823SOL    HW2 6369   4.306   0.038   2.834
 1824SOL     OW 6370   5.177   2.121   1.795
 1824SOL    HW1 6371   5.249   2.069   1.841
 1824SOL    HW2 6372   5.133   2.064   1.725
 1825SOL     OW 6373   1.053   1.168   1.319
 1825SOL    HW1 6374   1.129   1.225   1.351
 1825SOL    HW2 6375   0.990   1.223   1.266
 1826SOL     OW 6376   3.056   6.084   6.492
 1826SOL    HW1 6377   2.956   6.087   6.488
 1826SOL    HW2 6378   3.094   6.138   6.417
 1827SOL     OW 6379   6.062   6.815   1.740
 1827SOL    HW1 6380   6.077   6.775   1.650
 1827SOL    HW2 6381   5.970   6.791   1.772
 1828SOL     OW 6382   1.646   2.015   0.310
 1828SOL    HW1 6383   1.634   2.101   0.360
 1828SOL    HW2 6384   1.569   1.955   0.327
 1829SOL     OW 6385   6.119   5.618   1.457
 1829SOL    HW1 6386   6.197   5.561   1.430
 1829SOL    HW2 6387   6.083   5.666   1.377
 1830SOL     OW 6388   5.554   5.920   3.712
 1830SOL    HW1 6389   5.579   5.963   3.626
 1830SOL    HW2 6390   5.457   5.938   3.732
 1831SOL     OW 6391   5.156   0.735   3.384
 1831SOL    HW1 6392   5.150   0.688   3.473
 1831SOL    HW2 6393   5.081   0.801   3.376
 1832SOL     OW 6394   5.248   2.803   0.647
 1832SOL    HW1 6395   5.168   2.798   0.707
 1832SOL    HW2 6396   5.264   2.714   0.605
 1833SOL     OW 6397   5.854   1.877   5.491
 1833SOL    HW1 6398   5.907   1.839   5.415
 1833SOL    HW2 6399   5.842   1.806   5.561
 1834SOL     OW 6400   2.985   3.747   0.447
 1834SOL    HW1 6401   3.046   3.808   0.498
 1834SOL    HW2 6402   2.924   3.700   0.511
 1835SOL     OW 6403   1.095   4.266   0.156
 1835SOL    HW1 6404   1.069   4.179   0.117
 1835SOL    HW2 6405   1.014   4.314   0.189
 1836SOL     OW 6406   0.445   5.972   0.622
 1836SOL    HW1 6407   0.352   5.935   0.614
 1836SOL    HW2 6408   0.440   6.070   0.642
 1837SOL     OW 6409   0.949   2.201   4.667
 1837SOL    HW1 6410   0.854   2.169   4.664
 1837SOL    HW2 6411   0.955   2.291   4.624
 1838SOL     OW 6412   0.685   2.569   4.006
 1838SOL    HW1 6413   0.766   2.571   3.947
 1838SOL    HW2 6414   0.639   2.657   4.003
 1839SOL     OW 6415   0.111   1.908   5.990
 1839SOL    HW1 6416   0.181   1.839   6.007
 1839SOL    HW2 6417   0.155   1.991   5.955
 1840SOL     OW 6418   1.812   5.146   0.462
 1840SOL    HW1 6419   1.896   5.128   0.513
 1840SOL    HW2 6420   1.782   5.061   0.417
 1841SOL     OW 6421   1.712   2.998   2.839
 1841SOL    HW1 6422   1.758   2.916   2.872
 1841SOL    HW2 6423   1.651   3.033   2.909
 1842SOL     OW 6424   0.716   4.925   0.083
 1842SOL    HW1 6425   0.800   4.925   0.137
 1842SOL    HW2 6426   0.653   4.994   0.120
 1843SOL     OW 6427   3.592   2.117   4.915
 1843SOL    HW1 6428   3.600   2.217   4.923
 1843SOL    HW2 6429   3.500   2.094   4.885
 1844SOL     OW 6430   5.485   3.678   3.734
 1844SOL    HW1 6431   5.401   3.724   3.761
 1844SOL    HW2 6432   5.517   3.621   3.810
 1845SOL     OW 6433   4.020   0.286   0.697
 1845SOL    HW1 6434   4.041   0.212   0.761
 1845SOL    HW2 6435   3.936   0.265   0.647
 1846SOL     OW 6436   3.306   0.927   5.438
 1846SOL    HW1 6437   3.399   0.964   5.426
 1846SOL    HW2 6438   3.268   0.960   5.525
 1847SOL     OW 6439   1.944   6.902   0.308
 1847SOL    HW1 6440   1.995   6.888   0.223
 1847SOL    HW2 6441   1.887   6.822   0.326
 1848SOL     OW 6442   2.970   6.730   2.509
 1848SOL    HW1 6443   3.051   6.723   2.567
 1848SOL    HW2 6444   2.917   6.811   2.535
 1849SOL     OW 6445   2.785   1.297   6.275
 1849SOL    HW1 6446   2.841   1.321   6.195
 1849SOL    HW2 6447   2.778   1.198   6.283
 1850SOL     OW 6448   5.491   1.394   1.872
 1850SOL    HW1 6449   5.525   1.320   1.929
 1850SOL    HW2 6450   5.563   1.462   1.859
 1851SOL     OW 6451   6.645   3.547   3.251
 1851SOL    HW1 6452   6.736   3.588   3.242
 1851SOL    HW2 6453   6.593   3.596   3.321
 1852SOL     OW 6454   5.450   3.138   6.855
 1852SOL    HW1 6455   5.397   3.159   6.773
 1852SOL    HW2 6456   5.517   3.210   6.871
 1853SOL     OW 6457   1.601   4.484   0.566
 1853SOL    HW1 6458   1.662   4.489   0.487
 1853SOL    HW2 6459   1.506   4.494   0.536
 1854SOL     OW 6460   3.130   5.301   3.896
 1854SOL    HW1 6461   3.133   5.249   3.982
 1854SOL    HW2 6462   3.086   5.389   3.913
 1855SOL     OW 6463   5.450   4.347   1.699
 1855SOL    HW1 6464   5.531   4.392   1.736
 1855SOL    HW2 6465   5.368   4.389   1.738
 1856SOL     OW 6466   4.872   3.251   6.136
 1856SOL    HW1 6467   4.903   3.163   6.171
 1856SOL    HW2 6468   4.940   3.321   6.158
 1857SOL     OW 6469   4.867   1.266   3.822
 1857SOL    HW1 6470   4.892   1.345   3.878
 1857SOL    HW2 6471   4.842   1.296   3.730
 1858SOL     OW 6472   5.335   3.699   3.484
 1858SOL    HW1 6473   5.335   3.798   3.467
 1858SOL    HW2 6474   5.385   3.681   3.569
 1859SOL     OW 6475   5.152   1.369   3.687
 1859SOL    HW1 6476   5.109   1.329   3.769
 1859SOL    HW2 6477   5.097   1.348   3.607
 1860SOL     OW 6478   4.173   2.009   5.412
 1860SOL    HW1 6479   4.195   1.912   5.409
 1860SOL    HW2 6480   4.151   2.036   5.506
 1861SOL     OW 6481   5.313   6.311   1.963
 1861SOL    HW1 6482   5.283   6.216   1.965
 1861SOL    HW2 6483   5.410   6.315   1.988
 1862SOL     OW 6484   1.569   1.751   0.695
 1862SOL    HW1 6485   1.495   1.805   0.656
 1862SOL    HW2 6486   1.546   1.653   0.688
 1863SOL     OW 6487   2.252   2.637   1.696
 1863SOL    HW1 6488   2.175   2.627   1.634
 1863SOL    HW2 6489   2.338   2.633   1.644
 1864SOL     OW 6490   1.122   6.630   3.758
 1864SOL    HW1 6491   1.152   6.688   3.683
 1864SOL    HW2 6492   1.153   6.668   3.845
 1865SOL     OW 6493   5.131   2.341   6.623
 1865SOL    HW1 6494   5.155   2.270   6.689
 1865SOL    HW2 6495   5.116   2.428   6.670
 1866SOL     OW 6496   5.551   5.602   2.652
 1866SOL    HW1 6497   5.522   5.697   2.661
 1866SOL    HW2 6498   5.540   5.555   2.739
 1867SOL     OW 6499   0.843   4.936   6.632
 1867SOL    HW1 6500   0.795   4.938   6.545
 1867SOL    HW2 6501   0.776   4.942   6.707
 1868SOL     OW 6502   6.167   4.015   5.738
 1868SOL    HW1 6503   6.131   4.107   5.757
 1868SOL    HW2 6504   6.251   4.024   5.684
 1869SOL     OW 6505   5.842   1.324   4.864
 1869SOL    HW1 6506   5.775   1.332   4.938
 1869SOL    HW2 6507   5.820   1.390   4.792
 1870SOL     OW 6508   2.365   4.304   4.310
 1870SOL    HW1 6509   2.424   4.373   4.352
 1870SOL    HW2 6510   2.324   4.248   4.382
 1871SOL     OW 6511   1.417   0.359   1.004
 1871SOL    HW1 6512   1.325   0.323   1.017
 1871SOL    HW2 6513   1.426   0.392   0.910
 1872SOL     OW 6514   2.513   4.545   0.056
 1872SOL    HW1 6515   2.538   4.636   0.090
 1872SOL    HW2 6516   2.546   4.534   6.986
 1873SOL     OW 6517   5.223   1.050   0.691
 1873SOL    HW1 6518   5.317   1.050   0.658
 1873SOL    HW2 6519   5.161   1.079   0.618
 1874SOL     OW 6520   1.323   3.633   2.784
 1874SOL    HW1 6521   1.288   3.681   2.704
 1874SOL    HW2 6522   1.423   3.638   2.785
 1875SOL     OW 6523   1.221   6.938   1.115
 1875SOL    HW1 6524   1.252   6.969   1.025
 1875SOL    HW2 6525   1.299   6.936   1.178
 1876SOL     OW 6526   2.387   6.899   4.529
 1876SOL    HW1 6527   2.304   6.947   4.503
 1876SOL    HW2 6528   2.405   6.913   4.627
 1877SOL     OW 6529   6.790   6.806   3.841
 1877SOL    HW1 6530   6.868   6.788   3.900
 1877SOL    HW2 6531   6.819   6.862   3.763
 1878SOL     OW 6532   5.955   2.284   5.897
 1878SOL    HW1 6533   5.947   2.229   5.980
 1878SOL    HW2 6534   5.904   2.370   5.909
 1879SOL     OW 6535   1.877   4.768   5.640
 1879SOL    HW1 6536   1.785   4.738   5.614
 1879SOL    HW2 6537   1.943   4.734   5.573
 1880SOL     OW 6538   6.025   0.290   5.266
 1880SOL    HW1 6539   5.987   0.201   5.237
 1880SOL    HW2 6540   6.043   0.346   5.185
 1881SOL     OW 6541   0.449   2.676   6.821
 1881SOL    HW1 6542   0.429   2.632   6.734
 1881SOL    HW2 6543   0.431   2.774   6.813
 1882SOL     OW 6544   1.229   6.114   6.391
 1882SOL    HW1 6545   1.136   6.106   6.429
 1882SOL    HW2 6546   1.239   6.202   6.345
 1883SOL     OW 6547   0.337   2.096   4.155
 1883SOL    HW1 6548   0.315   2.194   4.152
 1883SOL    HW2 6549   0.256   2.043   4.131
 1884SOL     OW 6550   0.376   2.797   0.879
 1884SOL    HW1 6551   0.354   2.819   0.974
 1884SOL    HW2 6552   0.294   2.765   0.832
 1885SOL     OW 6553   1.831   1.153   4.479
 1885SOL    HW1 6554   1.891   1.225   4.445
 1885SOL    HW2 6555   1.735   1.181   4.469
 1886SOL     OW 6556   0.834   6.648   3.199
 1886SOL    HW1 6557   0.849   6.589   3.278
 1886SOL    HW2 6558   0.739   6.679   3.198
 1887SOL     OW 6559   2.940   6.340   6.100
 1887SOL    HW1 6560   2.931   6.245   6.070
 1887SOL    HW2 6561   2.853   6.370   6.139
 1888SOL     OW 6562   2.808   1.166   2.848
 1888SOL    HW1 6563   2.762   1.233   2.906
 1888SOL    HW2 6564   2.906   1.186   2.846
 1889SOL     OW 6565   0.646   3.239   2.652
 1889SOL    HW1 6566   0.583   3.165   2.631
 1889SOL    HW2 6567   0.727   3.202   2.697
 1890SOL     OW 6568   0.959   5.820   4.586
 1890SOL    HW1 6569   0.898   5.758   4.635
 1890SOL    HW2 6570   1.039   5.769   4.554
 1891SOL     OW 6571   3.117   3.025   3.483
 1891SOL    HW1 6572   3.194   2.969   3.453
 1891SOL    HW2 6573   3.117   3.112   3.432
 1892SOL     OW 6574   0.878   0.453   2.529
 1892SOL    HW1 6575   0.930   0.457   2.444
 1892SOL    HW2 6576   0.911   0.523   2.592
 1893SOL     OW 6577   3.921   3.714   4.338
 1893SOL    HW1 6578   4.001   3.671   4.379
 1893SOL    HW2 6579   3.839   3.659   4.357
 1894SOL     OW 6580   3.182   3.288   4.248
 1894SOL    HW1 6581   3.156   3.212   4.188
 1894SOL    HW2 6582   3.100   3.323   4.293
 1895SOL     OW 6583   1.696   6.238   0.390
 1895SOL    HW1 6584   1.776   6.234   0.331
 1895SOL    HW2 6585   1.641   6.155   0.379
 1896SOL     OW 6586   5.639   2.734   1.360
 1896SOL    HW1 6587   5.701   2.728   1.282
 1896SOL    HW2 6588   5.566   2.799   1.340
 1897SOL     OW 6589   1.488   4.505   4.592
 1897SOL    HW1 6590   1.575   4.552   4.609
 1897SOL    HW2 6591   1.481   4.484   4.494
 1898SOL     OW 6592   1.756   6.334   2.998
 1898SOL    HW1 6593   1.792   6.414   3.047
 1898SOL    HW2 6594   1.660   6.350   2.975
 1899SOL     OW 6595   0.028   0.866   2.060
 1899SOL    HW1 6596   7.002   0.934   2.005
 1899SOL    HW2 6597   0.029   0.896   2.156
 1900SOL     OW 6598   2.467   6.643   6.775
 1900SOL    HW1 6599   2.386   6.672   6.826
 1900SOL    HW2 6600   2.523   6.585   6.834
 1901SOL     OW 6601   2.668   3.907   1.612
 1901SOL    HW1 6602   2.692   3.880   1.519
 1901SOL    HW2 6603   2.747   3.895   1.672
 1902SOL     OW 6604   1.440   0.377   4.583
 1902SOL    HW1 6605   1.453   0.280   4.603
 1902SOL    HW2 6606   1.345   0.402   4.596
 1903SOL     OW 6607   1.441   2.551   4.099
 1903SOL    HW1 6608   1.511   2.481   4.082
 1903SOL    HW2 6609   1.406   2.585   4.012
 1904SOL     OW 6610   5.906   5.661   1.677
 1904SOL    HW1 6611   5.825   5.720   1.679
 1904SOL    HW2 6612   5.985   5.714   1.647
 1905SOL     OW 6613   1.078   1.827   4.004
 1905SOL    HW1 6614   1.054   1.876   4.088
 1905SOL    HW2 6615   1.100   1.732   4.025
 1906SOL     OW 6616   1.362   6.826   4.386
 1906SOL    HW1 6617   1.446   6.789   4.427
 1906SOL    HW2 6618   1.322   6.894   4.447
 1907SOL     OW 6619   4.745   2.684   0.474
 1907SOL    HW1 6620   4.786   2.711   0.387
 1907SOL    HW2 6621   4.738   2.764   0.533
 1908SOL     OW 6622   3.439   1.163   1.250
 1908SOL    HW1 6623   3.419   1.224   1.326
 1908SOL    HW2 6624   3.484   1.081   1.284
 1909SOL     OW 6625   6.315   5.141   4.727
 1909SOL    HW1 6626   6.290   5.169   4.820
 1909SOL    HW2 6627   6.232   5.120   4.675
 1910SOL     OW 6628   0.464   5.958   6.028
 1910SOL    HW1 6629   0.401   6.035   6.040
 1910SOL    HW2 6630   0.558   5.989   6.040
 1911SOL     OW 6631   6.163   6.091   4.299
 1911SOL    HW1 6632   6.121   6.062   4.213
 1911SOL    HW2 6633   6.095   6.092   4.372
 1912SOL     OW 6634   3.478   4.976   1.891
 1912SOL    HW1 6635   3.383   4.944   1.889
 1912SOL    HW2 6636   3.538   4.900   1.915
 1913SOL     OW 6637   3.687   4.253   6.576
 1913SOL    HW1 6638   3.713   4.168   6.622
 1913SOL    HW2 6639   3.767   4.294   6.533
 1914SOL     OW 6640   3.531   4.392   6.979
 1914SOL    HW1 6641   3.448   4.406   0.009
 1914SOL    HW2 6642   3.544   4.294   6.961
 1915SOL     OW 6643   3.534   2.827   6.656
 1915SOL    HW1 6644   3.435   2.844   6.659
 1915SOL    HW2 6645   3.565   2.796   6.746
 1916SOL     OW 6646   4.110   0.841   2.407
 1916SOL    HW1 6647   4.153   0.878   2.489
 1916SOL    HW2 6648   4.161   0.869   2.326
 1917SOL     OW 6649   1.918   4.041   1.211
 1917SOL    HW1 6650   1.936   4.072   1.118
 1917SOL    HW2 6651   2.003   4.046   1.264
 1918SOL     OW 6652   5.683   2.348   3.926
 1918SOL    HW1 6653   5.769   2.297   3.921
 1918SOL    HW2 6654   5.611   2.295   3.881
 1919SOL     OW 6655   0.084   2.904   5.957
 1919SOL    HW1 6656   0.130   2.983   5.996
 1919SOL    HW2 6657   0.003   2.881   6.012
 1920SOL     OW 6658   5.107   3.373   0.952
 1920SOL    HW1 6659   5.066   3.434   0.883
 1920SOL    HW2 6660   5.035   3.329   1.005
 1921SOL     OW 6661   2.771   2.060   6.724
 1921SOL    HW1 6662   2.828   2.097   6.798
 1921SOL    HW2 6663   2.747   1.965   6.745
 1922SOL     OW 6664   3.122   3.090   3.180
 1922SOL    HW1 6665   3.091   3.133   3.265
 1922SOL    HW2 6666   3.205   3.037   3.197
 1923SOL     OW 6667   3.560   0.955   4.354
 1923SOL    HW1 6668   3.613   0.913   4.281
 1923SOL    HW2 6669   3.572   0.902   4.438
 1924SOL     OW 6670   4.889   1.281   0.733
 1924SOL    HW1 6671   4.905   1.219   0.656
 1924SOL    HW2 6672   4.847   1.231   0.808
 1925SOL     OW 6673   1.252   3.697   1.348
 1925SOL    HW1 6674   1.297   3.609   1.332
 1925SOL    HW2 6675   1.320   3.770   1.345
 1926SOL     OW 6676   3.831   0.527   2.282
 1926SOL    HW1 6677   3.760   0.485   2.338
 1926SOL    HW2 6678   3.916   0.532   2.335
 1927SOL     OW 6679   2.148   5.195   0.951
 1927SOL    HW1 6680   2.081   5.249   1.001
 1927SOL    HW2 6681   2.239   5.211   0.989
 1928SOL     OW 6682   6.129   4.607   2.749
 1928SOL    HW1 6683   6.200   4.545   2.714
 1928SOL    HW2 6684   6.171   4.695   2.773
 1929SOL     OW 6685   3.386   6.873   3.439
 1929SOL    HW1 6686   3.459   6.824   3.486
 1929SOL    HW2 6687   3.343   6.938   3.502
 1930SOL     OW 6688   3.739   3.190   0.295
 1930SOL    HW1 6689   3.719   3.242   0.379
 1930SOL    HW2 6690   3.837   3.191   0.278
 1931SOL     OW 6691   0.139   1.918   4.039
 1931SOL    HW1 6692   0.113   1.945   3.946
 1931SOL    HW2 6693   0.099   1.829   4.060
 1932SOL     OW 6694   4.841   1.789   2.322
 1932SOL    HW1 6695   4.777   1.823   2.253
 1932SOL    HW2 6696   4.933   1.819   2.299
 1933SOL     OW 6697   1.177   0.920   0.991
 1933SOL    HW1 6698   1.184   0.865   1.074
 1933SOL    HW2 6699   1.199   1.015   1.012
 1934SOL     OW 6700   0.007   0.958   6.752
 1934SOL    HW1 6701   0.091   0.971   6.805
 1934SOL    HW2 6702   6.996   0.865   6.765
 1935SOL     OW 6703   6.001   4.943   3.734
 1935SOL    HW1 6704   5.965   4.850   3.722
 1935SOL    HW2 6705   5.926   5.007   3.744
 1936SOL     OW 6706   4.605   3.335   6.091
 1936SOL    HW1 6707   4.556   3.248   6.101
 1936SOL    HW2 6708   4.703   3.317   6.089
 1937SOL     OW 6709   6.123   5.079   6.792
 1937SOL    HW1 6710   6.210   5.099   6.747
 1937SOL    HW2 6711   6.087   4.992   6.759
 1938SOL     OW 6712   6.573   3.119   0.273
 1938SOL    HW1 6713   6.590   3.171   0.356
 1938SOL    HW2 6714   6.534   3.179   0.203
 1939SOL     OW 6715   0.415   0.495   4.321
 1939SOL    HW1 6716   0.334   0.543   4.289
 1939SOL    HW2 6717   0.465   0.458   4.243
 1940SOL     OW 6718   0.237   4.856   0.639
 1940SOL    HW1 6719   0.310   4.921   0.659
 1940SOL    HW2 6720   0.275   4.777   0.592
 1941SOL     OW 6721   5.276   1.805   4.566
 1941SOL    HW1 6722   5.255   1.903   4.573
 1941SOL    HW2 6723   5.200   1.759   4.520
 1942SOL     OW 6724   0.418   4.625   1.787
 1942SOL    HW1 6725   0.498   4.618   1.727
 1942SOL    HW2 6726   0.405   4.539   1.835
 1943SOL     OW 6727   0.779   2.821   3.443
 1943SOL    HW1 6728   0.864   2.770   3.433
 1943SOL    HW2 6729   0.782   2.875   3.527
 1944SOL     OW 6730   0.378   3.182   3.651
 1944SOL    HW1 6731   0.461   3.206   3.600
 1944SOL    HW2 6732   0.303   3.241   3.621
 1945SOL     OW 6733   5.069   1.411   2.024
 1945SOL    HW1 6734   5.091   1.325   2.069
 1945SOL    HW2 6735   5.150   1.470   2.024
 1946SOL     OW 6736   6.335   5.983   0.656
 1946SOL    HW1 6737   6.295   5.924   0.585
 1946SOL    HW2 6738   6.290   5.964   0.743
 1947SOL     OW 6739   6.424   5.252   2.922
 1947SOL    HW1 6740   6.398   5.343   2.887
 1947SOL    HW2 6741   6.352   5.218   2.982
 1948SOL     OW 6742   5.169   3.304   3.818
 1948SOL    HW1 6743   5.201   3.217   3.855
 1948SOL    HW2 6744   5.148   3.293   3.721
 1949SOL     OW 6745   3.489   4.235   6.382
 1949SOL    HW1 6746   3.565   4.241   6.446
 1949SOL    HW2 6747   3.416   4.298   6.411
 1950SOL     OW 6748   3.888   4.004   3.350
 1950SOL    HW1 6749   3.886   4.023   3.448
 1950SOL    HW2 6750   3.794   3.991   3.317
 1951SOL     OW 6751   6.338   5.235   5.964
 1951SOL    HW1 6752   6.331   5.137   5.945
 1951SOL    HW2 6753   6.275   5.258   6.038
 1952SOL     OW 6754   5.684   4.882   0.103
 1952SOL    HW1 6755   5.650   4.957   0.046
 1952SOL    HW2 6756   5.654   4.896   0.197
 1953SOL     OW 6757   1.184   1.599   0.088
 1953SOL    HW1 6758   1.233   1.582   0.002
 1953SOL    HW2 6759   1.211   1.688   0.124
 1954SOL     OW 6760   3.896   6.637   1.795
 1954SOL    HW1 6761   3.843   6.555   1.776
 1954SOL    HW2 6762   3.866   6.711   1.734
 1955SOL     OW 6763   0.029   2.758   3.444
 1955SOL    HW1 6764   0.098   2.831   3.445
 1955SOL    HW2 6765   0.071   2.673   3.412
 1956SOL     OW 6766   5.184   1.041   1.562
 1956SOL    HW1 6767   5.218   1.129   1.593
 1956SOL    HW2 6768   5.158   0.985   1.642
 1957SOL     OW 6769   6.654   2.361   4.197
 1957SOL    HW1 6770   6.576   2.414   4.166
 1957SOL    HW2 6771   6.664   2.371   4.296
 1958SOL     OW 6772   3.847   1.604   0.612
 1958SOL    HW1 6773   3.929   1.605   0.556
 1958SOL    HW2 6774   3.871   1.578   0.706
 1959SOL     OW 6775   1.020   2.239   5.044
 1959SOL    HW1 6776   1.072   2.303   5.101
 1959SOL    HW2 6777   1.082   2.196   4.978
 1960SOL     OW 6778   5.797   3.948   3.778
 1960SOL    HW1 6779   5.778   3.876   3.712
 1960SOL    HW2 6780   5.754   3.927   3.865
 1961SOL     OW 6781   0.727   3.683   3.559
 1961SOL    HW1 6782   0.662   3.631   3.503
 1961SOL    HW2 6783   0.771   3.622   3.625
 1962SOL     OW 6784   0.515   0.539   1.806
 1962SOL    HW1 6785   0.492   0.632   1.834
 1962SOL    HW2 6786   0.614   0.529   1.802
 1963SOL     OW 6787   0.790   2.578   6.775
 1963SOL    HW1 6788   0.808   2.571   6.873
 1963SOL    HW2 6789   0.864   2.532   6.725
 1964SOL     OW 6790   5.718   3.535   0.666
 1964SOL    HW1 6791   5.695   3.497   0.755
 1964SOL    HW2 6792   5.793   3.600   0.676
 1965SOL     OW 6793   6.270   4.229   3.651
 1965SOL    HW1 6794   6.226   4.302   3.598
 1965SOL    HW2 6795   6.200   4.169   3.688
 1966SOL     OW 6796   0.941   4.685   6.395
 1966SOL    HW1 6797   0.853   4.731   6.399
 1966SOL    HW2 6798   0.929   4.592   6.361
 1967SOL     OW 6799   6.256   3.217   5.079
 1967SOL    HW1 6800   6.326   3.229   5.149
 1967SOL    HW2 6801   6.295   3.234   4.989
 1968SOL     OW 6802   2.609   1.005   5.712
 1968SOL    HW1 6803   2.599   0.909   5.740
 1968SOL    HW2 6804   2.558   1.063   5.774
 1969SOL     OW 6805   1.420   6.046   0.800
 1969SOL    HW1 6806   1.344   6.111   0.796
 1969SOL    HW2 6807   1.389   5.956   0.770
 1970SOL     OW 6808   5.216   4.638   4.125
 1970SOL    HW1 6809   5.153   4.561   4.117
 1970SOL    HW2 6810   5.304   4.606   4.160
 1971SOL     OW 6811   2.016   4.396   4.954
 1971SOL    HW1 6812   2.066   4.339   5.019
 1971SOL    HW2 6813   2.029   4.359   4.862
 1972SOL     OW 6814   6.267   2.138   2.598
 1972SOL    HW1 6815   6.193   2.175   2.542
 1972SOL    HW2 6816   6.259   2.174   2.691
 1973SOL     OW 6817   3.192   2.027   0.813
 1973SOL    HW1 6818   3.202   2.076   0.727
 1973SOL    HW2 6819   3.276   1.976   0.832
 1974SOL     OW 6820   2.205   6.907   5.075
 1974SOL    HW1 6821   2.287   6.869   5.117
 1974SOL    HW2 6822   2.150   6.953   5.145
 1975SOL     OW 6823   2.116   2.718   2.908
 1975SOL    HW1 6824   2.151   2.713   3.001
 1975SOL    HW2 6825   2.187   2.754   2.847
 1976SOL     OW 6826   1.074   0.876   5.137
 1976SOL    HW1 6827   1.116   0.861   5.047
 1976SOL    HW2 6828   1.144   0.867   5.208
 1977SOL     OW 6829   1.770   3.770   6.698
 1977SOL    HW1 6830   1.691   3.830   6.688
 1977SOL    HW2 6831   1.741   3.675   6.687
 1978SOL     OW 6832   3.106   0.445   2.186
 1978SOL    HW1 6833   3.151   0.364   2.225
 1978SOL    HW2 6834   3.011   0.422   2.163
 1979SOL     OW 6835   5.929   4.631   6.510
 1979SOL    HW1 6836   5.908   4.596   6.418
 1979SOL    HW2 6837   5.861   4.597   6.575
 1980SOL     OW 6838   3.752   0.755   0.730
 1980SOL    HW1 6839   3.822   0.688   0.707
 1980SOL    HW2 6840   3.761   0.781   0.826
 1981SOL     OW 6841   3.989   1.752   2.048
 1981SOL    HW1 6842   3.947   1.835   2.084
 1981SOL    HW2 6843   3.960   1.739   1.953
 1982SOL     OW 6844   1.594   2.803   6.052
 1982SOL    HW1 6845   1.524   2.739   6.021
 1982SOL    HW2 6846   1.667   2.809   5.984
 1983SOL     OW 6847   6.520   1.452   1.924
 1983SOL    HW1 6848   6.453   1.493   1.863
 1983SOL    HW2 6849   6.600   1.423   1.872
 1984SOL     OW 6850   4.532   4.025   5.993
 1984SOL    HW1 6851   4.556   4.020   6.090
 1984SOL    HW2 6852   4.547   3.936   5.950
 1985SOL     OW 6853   6.123   4.469   4.204
 1985SOL    HW1 6854   6.074   4.490   4.289
 1985SOL    HW2 6855   6.219   4.449   4.224
 1986SOL     OW 6856   3.194   3.703   2.164
 1986SOL    HW1 6857   3.156   3.611   2.167
 1986SOL    HW2 6858   3.208   3.736   2.258
 1987SOL     OW 6859   2.357   0.544   2.062
 1987SOL    HW1 6860   2.284   0.530   2.129
 1987SOL    HW2 6861   2.363   0.641   2.040
 1988SOL     OW 6862   0.601   1.807   1.919
 1988SOL    HW1 6863   0.582   1.791   2.015
 1988SOL    HW2 6864   0.602   1.720   1.870
 1989SOL     OW 6865   2.816   5.835   5.164
 1989SOL    HW1 6866   2.843   5.818   5.259
 1989SOL    HW2 6867   2.721   5.806   5.150
 1990SOL     OW 6868   3.917   0.551   0.028
 1990SOL    HW1 6869   3.954   0.574   0.118
 1990SOL    HW2 6870   3.989   0.508   6.996
 1991SOL     OW 6871   2.523   5.376   1.477
 1991SOL    HW1 6872   2.439   5.323   1.463
 1991SOL    HW2 6873   2.516   5.463   1.427
 1992SOL     OW 6874   0.769   6.504   2.596
 1992SOL    HW1 6875   0.770   6.517   2.695
 1992SOL    HW2 6876   0.790   6.591   2.551
 1993SOL     OW 6877   1.990   1.694   3.080
 1993SOL    HW1 6878   1.912   1.631   3.076
 1993SOL    HW2 6879   1.987   1.757   3.003
 1994SOL     OW 6880   3.872   3.016   1.148
 1994SOL    HW1 6881   3.897   2.930   1.105
 1994SOL    HW2 6882   3.801   3.061   1.093
 1995SOL     OW 6883   5.903   1.735   4.158
 1995SOL    HW1 6884   5.963   1.763   4.233
 1995SOL    HW2 6885   5.923   1.788   4.077
 1996SOL     OW 6886   4.985   0.976   0.780
 1996SOL    HW1 6887   4.938   1.042   0.838
 1996SOL    HW2 6888   5.079   1.006   0.765
 1997SOL     OW 6889   3.530   1.059   3.511
 1997SOL    HW1 6890   3.590   1.005   3.453
 1997SOL    HW2 6891   3.436   1.026   3.501
 1998SOL     OW 6892   2.700   3.835   1.222
 1998SOL    HW1 6893   2.607   3.865   1.205
 1998SOL    HW2 6894   2.743   3.896   1.288
 1999SOL     OW 6895   0.522   6.835   6.679
 1999SOL    HW1 6896   0.506   6.931   6.656
 1999SOL    HW2 6897   0.589   6.830   6.754
 2000SOL     OW 6898   3.992   4.347   5.981
 2000SOL    HW1 6899   3.980   4.312   6.073
 2000SOL    HW2 6900   4.061   4.293   5.933
 2001SOL     OW 6901   1.415   2.464   1.031
 2001SOL    HW1 6902   1.415   2.557   1.068
 2001SOL    HW2 6903   1.470   2.405   1.090
 2002SOL     OW 6904   6.631   5.511   0.797
 2002SOL    HW1 6905   6.601   5.490   0.890
 2002SOL    HW2 6906   6.555   5.552   0.746
 2003SOL     OW 6907   5.700   5.461   2.063
 2003SOL    HW1 6908   5.708   5.410   2.149
 2003SOL    HW2 6909   5.711   5.398   1.986
 2004SOL     OW 6910   3.847   6.573   2.926
 2004SOL    HW1 6911   3.840   6.592   3.024
 2004SOL    HW2 6912   3.758   6.585   2.883
 2005SOL     OW 6913   1.323   6.652   0.362
 2005SOL    HW1 6914   1.266   6.653   0.444
 2005SOL    HW2 6915   1.414   6.616   0.384
 2006SOL     OW 6916   5.400   6.633   2.449
 2006SOL    HW1 6917   5.425   6.728   2.430
 2006SOL    HW2 6918   5.463   6.572   2.400
 2007SOL     OW 6919   5.865   5.217   5.913
 2007SOL    HW1 6920   5.799   5.275   5.865
 2007SOL    HW2 6921   5.847   5.121   5.891
 2008SOL     OW 6922   1.906   3.435   2.875
 2008SOL    HW1 6923   1.922   3.365   2.806
 2008SOL    HW2 6924   1.964   3.515   2.856
 2009SOL     OW 6925   6.304   7.007   2.652
 2009SOL    HW1 6926   6.277   0.051   2.721
 2009SOL    HW2 6927   6.270   6.917   2.678
 2010SOL     OW 6928   6.616   2.019   2.142
 2010SOL    HW1 6929   6.585   2.095   2.201
 2010SOL    HW2 6930   6.656   2.057   2.059
 2011SOL     OW 6931   1.010   7.023   4.671
 2011SOL    HW1 6932   0.925   6.997   4.625
 2011SOL    HW2 6933   0.993   0.014   4.768
 2012SOL     OW 6934   0.404   3.066   0.729
 2012SOL    HW1 6935   0.476   3.112   0.782
 2012SOL    HW2 6936   0.360   2.997   0.786
 2013SOL     OW 6937   0.513   2.506   2.090
 2013SOL    HW1 6938   0.457   2.433   2.051
 2013SOL    HW2 6939   0.587   2.466   2.145
 2014SOL     OW 6940   3.869   1.496   4.166
 2014SOL    HW1 6941   3.801   1.466   4.098
 2014SOL    HW2 6942   3.956   1.451   4.148
 2015SOL     OW 6943   4.036   6.563   1.999
 2015SOL    HW1 6944   3.966   6.576   1.929
 2015SOL    HW2 6945   4.127   6.572   1.958
 2016SOL     OW 6946   2.148   0.720   4.435
 2016SOL    HW1 6947   2.167   0.722   4.533
 2016SOL    HW2 6948   2.160   0.812   4.397
 2017SOL     OW 6949   3.200   6.246   3.569
 2017SOL    HW1 6950   3.286   6.194   3.571
 2017SOL    HW2 6951   3.217   6.337   3.606
 2018SOL     OW 6952   0.603   0.518   4.033
 2018SOL    HW1 6953   0.666   0.448   3.999
 2018SOL    HW2 6954   0.518   0.514   3.981
 2019SOL     OW 6955   5.914   5.221   6.554
 2019SOL    HW1 6956   5.962   5.290   6.608
 2019SOL    HW2 6957   5.819   5.249   6.541
 2020SOL     OW 6958   1.936   6.888   0.713
 2020SOL    HW1 6959   1.889   6.803   0.686
 2020SOL    HW2 6960   1.905   6.915   0.804
 2021SOL     OW 6961   0.211   5.745   4.806
 2021SOL    HW1 6962   0.247   5.697   4.886
 2021SOL    HW2 6963   0.239   5.696   4.723
 2022SOL     OW 6964   1.835   3.442   4.446
 2022SOL    HW1 6965   1.902   3.434   4.372
 2022SOL    HW2 6966   1.876   3.488   4.524
 2023SOL     OW 6967   6.699   5.881   6.439
 2023SOL    HW1 6968   6.772   5.950   6.437
 2023SOL    HW2 6969   6.695   5.840   6.530
 2024SOL     OW 6970   0.401   5.861   3.980
 2024SOL    HW1 6971   0.381   5.797   4.054
 2024SOL    HW2 6972   0.316   5.888   3.935
 2025SOL     OW 6973   1.899   6.063   4.312
 2025SOL    HW1 6974   1.930   6.153   4.344
 2025SOL    HW2 6975   1.958   6.032   4.237
 2026SOL     OW 6976   0.434   0.421   5.808
 2026SOL    HW1 6977   0.496   0.444   5.882
 2026SOL    HW2 6978   0.353   0.375   5.845
 2027SOL     OW 6979   6.910   6.303   2.109
 2027SOL    HW1 6980   6.811   6.318   2.104
 2027SOL    HW2 6981   6.948   6.355   2.185
 2028SOL     OW 6982   3.180   5.472   4.818
 2028SOL    HW1 6983   3.279   5.470   4.800
 2028SOL    HW2 6984   3.160   5.543   4.885
 2029SOL     OW 6985   6.561   2.873   6.512
 2029SOL    HW1 6986   6.471   2.831   6.507
 2029SOL    HW2 6987   6.569   2.926   6.596
 2030SOL     OW 6988   2.416   6.708   2.827
 2030SOL    HW1 6989   2.395   6.806   2.829
 2030SOL    HW2 6990   2.453   6.684   2.737
 2031SOL     OW 6991   0.725   6.226   5.108
 2031SOL    HW1 6992   0.780   6.167   5.166
 2031SOL    HW2 6993   0.736   6.199   5.012
 2032SOL     OW 6994   2.299   2.747   5.845
 2032SOL    HW1 6995   2.323   2.785   5.756
 2032SOL    HW2 6996   2.289   2.648   5.837
 2033SOL     OW 6997   1.950   1.286   0.679
 2033SOL    HW1 6998   1.958   1.385   0.685
 2033SOL    HW2 6999   1.967   1.246   0.770
 2034SOL     OW 7000   0.907   4.406   5.194
 2034SOL    HW1 7001   0.904   4.475   5.122
 2034SOL    HW2 7002   0.826   4.348   5.189
 2035SOL     OW 7003   5.534   5.952   3.314
 2035SOL    HW1 7004   5.630   5.929   3.330
 2035SOL    HW2 7005   5.480   5.868   3.311
 2036SOL     OW 7006   0.409   4.347   6.174
 2036SOL    HW1 7007   0.447   4.261   6.209
 2036SOL    HW2 7008   0.315   4.358   6.206
 2037SOL     OW 7009   1.203   2.556   6.775
 2037SOL    HW1 7010   1.275   2.594   6.717
 2037SOL    HW2 7011   1.216   2.586   6.869
 2038SOL     OW 7012   0.821   1.384   5.559
 2038SOL    HW1 7013   0.840   1.480   5.542
 2038SOL    HW2 7014   0.836   1.363   5.656
 2039SOL     OW 7015   5.085   5.938   3.382
 2039SOL    HW1 7016   5.003   5.882   3.379
 2039SOL    HW2 7017   5.129   5.938   3.293
 2040SOL     OW 7018   2.688   2.016   0.042
 2040SOL    HW1 7019   2.757   2.075   7.023
 2040SOL    HW2 7020   2.649   2.062   0.122
 2041SOL     OW 7021   3.021   6.668   6.612
 2041SOL    HW1 7022   3.027   6.643   6.515
 2041SOL    HW2 7023   3.049   6.590   6.668
 2042SOL     OW 7024   5.840   0.529   6.005
 2042SOL    HW1 7025   5.763   0.592   6.011
 2042SOL    HW2 7026   5.875   0.528   5.912
 2043SOL     OW 7027   0.702   4.111   0.404
 2043SOL    HW1 7028   0.725   4.014   0.405
 2043SOL    HW2 7029   0.781   4.164   0.435
 2044SOL     OW 7030   4.323   0.397   1.761
 2044SOL    HW1 7031   4.335   0.315   1.817
 2044SOL    HW2 7032   4.268   0.464   1.811
 2045SOL     OW 7033   1.984   5.821   4.039
 2045SOL    HW1 7034   2.069   5.854   4.080
 2045SOL    HW2 7035   1.954   5.738   4.087
 2046SOL     OW 7036   0.857   3.041   5.948
 2046SOL    HW1 7037   0.952   3.055   5.921
 2046SOL    HW2 7038   0.839   2.943   5.955
 2047SOL     OW 7039   6.737   0.161   1.333
 2047SOL    HW1 7040   6.705   0.256   1.334
 2047SOL    HW2 7041   6.779   0.140   1.421
 2048SOL     OW 7042   2.054   1.123   4.208
 2048SOL    HW1 7043   2.069   1.111   4.110
 2048SOL    HW2 7044   2.029   1.217   4.228
 2049SOL     OW 7045   4.821   2.838   5.225
 2049SOL    HW1 7046   4.725   2.863   5.228
 2049SOL    HW2 7047   4.873   2.897   5.287
 2050SOL     OW 7048   0.485   0.920   3.570
 2050SOL    HW1 7049   0.523   0.875   3.652
 2050SOL    HW2 7050   0.545   0.996   3.543
 2051SOL     OW 7051   3.275   6.334   0.648
 2051SOL    HW1 7052   3.249   6.268   0.718
 2051SOL    HW2 7053   3.309   6.285   0.568
 2052SOL     OW 7054   0.989   3.766   0.792
 2052SOL    HW1 7055   1.018   3.780   0.698
 2052SOL    HW2 7056   1.061   3.718   0.842
 2053SOL     OW 7057   6.330   4.803   2.844
 2053SOL    HW1 7058   6.390   4.794   2.764
 2053SOL    HW2 7059   6.360   4.738   2.914
 2054SOL     OW 7060   2.987   3.872   2.935
 2054SOL    HW1 7061   2.955   3.894   2.843
 2054SOL    HW2 7062   3.009   3.775   2.940
 2055SOL     OW 7063   4.537   2.659   5.762
 2055SOL    HW1 7064   4.494   2.568   5.762
 2055SOL    HW2 7065   4.473   2.726   5.801
 2056SOL     OW 7066   3.126   5.047   1.781
 2056SOL    HW1 7067   3.086   4.959   1.807
 2056SOL    HW2 7068   3.151   5.098   1.864
 2057SOL     OW 7069   5.952   3.158   4.237
 2057SOL    HW1 7070   5.876   3.118   4.289
 2057SOL    HW2 7071   6.035   3.105   4.252
 2058SOL     OW 7072   5.912   6.997   3.619
 2058SOL    HW1 7073   5.826   6.976   3.573
 2058SOL    HW2 7074   5.965   0.037   3.562
 2059SOL     OW 7075   2.239   2.023   5.486
 2059SOL    HW1 7076   2.314   2.038   5.550
 2059SOL    HW2 7077   2.211   1.927   5.488
 2060SOL     OW 7078   2.026   2.134   6.378
 2060SOL    HW1 7079   1.995   2.154   6.471
 2060SOL    HW2 7080   2.108   2.188   6.358
 2061SOL     OW 7081   2.098   2.040   3.446
 2061SOL    HW1 7082   2.116   2.025   3.543
 2061SOL    HW2 7083   2.095   1.953   3.398
 2062SOL     OW 7084   6.106   4.988   4.562
 2062SOL    HW1 7085   6.013   4.967   4.591
 2062SOL    HW2 7086   6.106   5.069   4.504
 2063SOL     OW 7087   1.554   2.293   4.182
 2063SOL    HW1 7088   1.605   2.315   4.265
 2063SOL    HW2 7089   1.463   2.258   4.206
 2064SOL     OW 7090   0.728   3.707   4.180
 2064SOL    HW1 7091   0.705   3.624   4.129
 2064SOL    HW2 7092   0.712   3.787   4.122
 2065SOL     OW 7093   4.054   3.627   5.882
 2065SOL    HW1 7094   4.046   3.540   5.833
 2065SOL    HW2 7095   3.964   3.657   5.912
 2066SOL     OW 7096   1.658   3.071   5.072
 2066SOL    HW1 7097   1.601   2.989   5.075
 2066SOL    HW2 7098   1.602   3.150   5.046
 2067SOL     OW 7099   6.349   4.567   2.018
 2067SOL    HW1 7100   6.392   4.477   2.020
 2067SOL    HW2 7101   6.319   4.592   2.111
 2068SOL     OW 7102   4.437   6.511   4.322
 2068SOL    HW1 7103   4.532   6.496   4.350
 2068SOL    HW2 7104   4.424   6.474   4.230
 2069SOL     OW 7105   6.444   1.067   3.694
 2069SOL    HW1 7106   6.540   1.096   3.699
 2069SOL    HW2 7107   6.385   1.144   3.719
 2070SOL     OW 7108   1.449   4.904   1.132
 2070SOL    HW1 7109   1.385   4.839   1.173
 2070SOL    HW2 7110   1.477   4.871   1.042
 2071SOL     OW 7111   0.114   2.584   4.710
 2071SOL    HW1 7112   0.151   2.492   4.699
 2071SOL    HW2 7113   0.016   2.579   4.727
 2072SOL     OW 7114   5.685   4.154   5.323
 2072SOL    HW1 7115   5.668   4.131   5.419
 2072SOL    HW2 7116   5.720   4.073   5.275
 2073SOL     OW 7117   3.448   5.488   6.531
 2073SOL    HW1 7118   3.356   5.497   6.492
 2073SOL    HW2 7119   3.499   5.572   6.514
 2074SOL     OW 7120   2.442   4.572   5.814
 2074SOL    HW1 7121   2.466   4.660   5.853
 2074SOL    HW2 7122   2.404   4.513   5.885
 2075SOL     OW 7123   5.424   2.564   1.713
 2075SOL    HW1 7124   5.502   2.562   1.650
 2075SOL    HW2 7125   5.368   2.482   1.699
 2076SOL     OW 7126   0.026   6.636   4.792
 2076SOL    HW1 7127   0.074   6.717   4.826
 2076SOL    HW2 7128   0.090   6.559   4.785
 2077SOL     OW 7129   6.396   4.635   0.387
 2077SOL    HW1 7130   6.496   4.639   0.377
 2077SOL    HW2 7131   6.355   4.714   0.343
 2078SOL     OW 7132   0.972   2.615   6.297
 2078SOL    HW1 7133   0.936   2.684   6.359
 2078SOL    HW2 7134   1.072   2.617   6.300
 2079SOL     OW 7135   5.357   1.267   3.004
 2079SOL    HW1 7136   5.270   1.311   2.983
 2079SOL    HW2 7137   5.364   1.251   3.102
 2080SOL     OW 7138   2.389   3.303   6.149
 2080SOL    HW1 7139   2.393   3.316   6.050
 2080SOL    HW2 7140   2.385   3.393   6.194
 2081SOL     OW 7141   6.988   6.399   2.357
 2081SOL    HW1 7142   6.896   6.377   2.389
 2081SOL    HW2 7143   7.013   6.491   2.387
 2082SOL     OW 7144   0.078   5.783   4.092
 2082SOL    HW1 7145   0.126   5.695   4.102
 2082SOL    HW2 7146   0.068   5.805   3.995
 2083SOL     OW 7147   0.563   5.836   4.278
 2083SOL    HW1 7148   0.601   5.874   4.362
 2083SOL    HW2 7149   0.617   5.867   4.200
 2084SOL     OW 7150   6.882   2.157   1.096
 2084SOL    HW1 7151   6.915   2.217   1.023
 2084SOL    HW2 7152   6.787   2.180   1.118
 2085SOL     OW 7153   6.577   5.926   0.310
 2085SOL    HW1 7154   6.522   5.899   0.231
 2085SOL    HW2 7155   6.543   6.014   0.345
 2086SOL     OW 7156   5.309   0.305   6.953
 2086SOL    HW1 7157   5.325   0.381   6.890
 2086SOL    HW2 7158   5.369   0.229   6.929
 2087SOL     OW 7159   4.248   1.744   6.666
 2087SOL    HW1 7160   4.208   1.826   6.707
 2087SOL    HW2 7161   4.242   1.669   6.732
 2088SOL     OW 7162   6.831   4.467   6.006
 2088SOL    HW1 7163   6.760   4.507   5.949
 2088SOL    HW2 7164   6.790   4.418   6.083
 2089SOL     OW 7165   2.465   4.288   6.199
 2089SOL    HW1 7166   2.445   4.296   6.297
 2089SOL    HW2 7167   2.549   4.337   6.178
 2090SOL     OW 7168   5.232   3.022   0.362
 2090SOL    HW1 7169   5.308   3.019   0.297
 2090SOL    HW2 7170   5.255   2.969   0.443
 2091SOL     OW 7171   5.171   6.376   0.820
 2091SOL    HW1 7172   5.155   6.372   0.722
 2091SOL    HW2 7173   5.097   6.328   0.868
 2092SOL     OW 7174   3.418   3.508   1.999
 2092SOL    HW1 7175   3.328   3.486   2.039
 2092SOL    HW2 7176   3.489   3.456   2.047
 2093SOL     OW 7177   4.372   0.668   1.291
 2093SOL    HW1 7178   4.386   0.585   1.235
 2093SOL    HW2 7179   4.440   0.671   1.364
 2094SOL     OW 7180   5.157   2.151   0.552
 2094SOL    HW1 7181   5.207   2.237   0.549
 2094SOL    HW2 7182   5.164   2.112   0.644
 2095SOL     OW 7183   5.150   5.427   4.454
 2095SOL    HW1 7184   5.192   5.512   4.423
 2095SOL    HW2 7185   5.218   5.354   4.457
 2096SOL     OW 7186   4.095   6.996   2.626
 2096SOL    HW1 7187   4.185   0.001   2.659
 2096SOL    HW2 7188   4.028   0.044   2.648
 2097SOL     OW 7189   0.699   5.914   5.558
 2097SOL    HW1 7190   0.734   5.830   5.515
 2097SOL    HW2 7191   0.688   5.899   5.656
 2098SOL     OW 7192   2.453   6.907   3.739
 2098SOL    HW1 7193   2.504   6.931   3.657
 2098SOL    HW2 7194   2.378   6.845   3.715
 2099SOL     OW 7195   4.097   1.881   0.181
 2099SOL    HW1 7196   4.034   1.932   0.239
 2099SOL    HW2 7197   4.046   1.834   0.110
 2100SOL     OW 7198   4.615   0.663   0.026
 2100SOL    HW1 7199   4.702   0.631   0.065
 2100SOL    HW2 7200   4.541   0.645   0.091
 2101SOL     OW 7201   1.833   0.116   2.608
 2101SOL    HW1 7202   1.872   0.031   2.644
 2101SOL    HW2 7203   1.860   0.128   2.513
 2102SOL     OW 7204   3.865   2.525   1.494
 2102SOL    HW1 7205   3.955   2.558   1.523
 2102SOL    HW2 7206   3.870   2.428   1.470
 2103SOL     OW 7207   1.272   0.064   0.876
 2103SOL    HW1 7208   1.268   6.993   0.841
 2103SOL    HW2 7209   1.243   0.127   0.804
 2104SOL     OW 7210   2.229   4.185   2.649
 2104SOL    HW1 7211   2.299   4.236   2.597
 2104SOL    HW2 7212   2.139   4.223   2.629
 2105SOL     OW 7213   5.204   0.350   5.316
 2105SOL    HW1 7214   5.239   0.312   5.230
 2105SOL    HW2 7215   5.110   0.321   5.330
 2106SOL     OW 7216   3.479   2.459   1.412
 2106SOL    HW1 7217   3.564   2.418   1.379
 2106SOL    HW2 7218   3.485   2.473   1.510
 2107SOL     OW 7219   4.982   4.512   4.930
 2107SOL    HW1 7220   5.003   4.420   4.897
 2107SOL    HW2 7221   5.064   4.568   4.929
 2108SOL     OW 7222   4.800   6.982   4.778
 2108SOL    HW1 7223   4.815   6.920   4.855
 2108SOL    HW2 7224   4.874   0.026   4.774
 2109SOL     OW 7225   2.641   6.030   1.816
 2109SOL    HW1 7226   2.647   6.014   1.915
 2109SOL    HW2 7227   2.566   5.976   1.778
 2110SOL     OW 7228   3.395   5.858   0.236
 2110SOL    HW1 7229   3.417   5.771   0.191
 2110SOL    HW2 7230   3.332   5.840   0.312
 2111SOL     OW 7231   1.056   2.207   6.466
 2111SOL    HW1 7232   1.130   2.271   6.449
 2111SOL    HW2 7233   1.092   2.115   6.478
 2112SOL     OW 7234   1.009   0.276   6.718
 2112SOL    HW1 7235   0.955   0.358   6.736
 2112SOL    HW2 7236   0.954   0.195   6.740
 2113SOL     OW 7237   6.406   1.410   5.103
 2113SOL    HW1 7238   6.343   1.477   5.064
 2113SOL    HW2 7239   6.355   1.332   5.138
 2114SOL     OW 7240   2.183   0.787   5.237
 2114SOL    HW1 7241   2.267   0.783   5.183
 2114SOL    HW2 7242   2.122   0.713   5.209
 2115SOL     OW 7243   6.910   6.518   3.110
 2115SOL    HW1 7244   7.006   6.548   3.103
 2115SOL    HW2 7245   6.891   6.490   3.204
 2116SOL     OW 7246   2.350   1.264   6.816
 2116SOL    HW1 7247   2.257   1.235   6.796
 2116SOL    HW2 7248   2.414   1.195   6.782
 2117SOL     OW 7249   6.380   2.134   3.218
 2117SOL    HW1 7250   6.353   2.084   3.135
 2117SOL    HW2 7251   6.309   2.201   3.240
 2118SOL     OW 7252   6.895   2.934   2.885
 2118SOL    HW1 7253   6.807   2.920   2.929
 2118SOL    HW2 7254   6.890   3.017   2.828
 2119SOL     OW 7255   0.706   3.050   0.374
 2119SOL    HW1 7256   0.665   2.972   0.422
 2119SOL    HW2 7257   0.774   3.017   0.309
 2120SOL     OW 7258   5.640   2.076   0.560
 2120SOL    HW1 7259   5.566   2.066   0.627
 2120SOL    HW2 7260   5.637   1.999   0.496
 2121SOL     OW 7261   2.092   6.515   1.479
 2121SOL    HW1 7262   2.105   6.499   1.381
 2121SOL    HW2 7263   2.168   6.474   1.529
 2122SOL     OW 7264   6.479   0.904   4.969
 2122SOL    HW1 7265   6.391   0.901   5.017
 2122SOL    HW2 7266   6.471   0.962   4.888
 2123SOL     OW 7267   1.017   5.176   3.659
 2123SOL    HW1 7268   0.969   5.250   3.611
 2123SOL    HW2 7269   1.092   5.143   3.602
 2124SOL     OW 7270   4.831   3.666   6.106
 2124SOL    HW1 7271   4.818   3.582   6.159
 2124SOL    HW2 7272   4.799   3.744   6.159
 2125SOL     OW 7273   1.392   5.722   4.534
 2125SOL    HW1 7274   1.491   5.727   4.534
 2125SOL    HW2 7275   1.360   5.694   4.625
 2126SOL     OW 7276   3.157   3.582   0.288
 2126SOL    HW1 7277   3.223   3.645   0.246
 2126SOL    HW2 7278   3.090   3.634   0.340
 2127SOL     OW 7279   1.228   3.587   4.075
 2127SOL    HW1 7280   1.265   3.652   4.009
 2127SOL    HW2 7281   1.238   3.494   4.040
 2128SOL     OW 7282   5.491   3.305   2.308
 2128SOL    HW1 7283   5.539   3.368   2.247
 2128SOL    HW2 7284   5.395   3.299   2.281
 2129SOL     OW 7285   5.279   4.440   3.732
 2129SOL    HW1 7286   5.272   4.540   3.728
 2129SOL    HW2 7287   5.264   4.409   3.825
 2130SOL     OW 7288   1.578   0.665   1.714
 2130SOL    HW1 7289   1.522   0.732   1.762
 2130SOL    HW2 7290   1.667   0.705   1.691
 2131SOL     OW 7291   5.890   0.575   6.671
 2131SOL    HW1 7292   5.855   0.668   6.660
 2131SOL    HW2 7293   5.815   0.514   6.695
 2132SOL     OW 7294   2.767   2.541   6.978
 2132SOL    HW1 7295   2.806   2.482   6.907
 2132SOL    HW2 7296   2.679   2.577   6.947
 2133SOL     OW 7297   3.859   2.093   1.287
 2133SOL    HW1 7298   3.942   2.040   1.303
 2133SOL    HW2 7299   3.782   2.030   1.275
 2134SOL     OW 7300   1.793   6.730   5.450
 2134SOL    HW1 7301   1.814   6.637   5.420
 2134SOL    HW2 7302   1.803   6.735   5.550
 2135SOL     OW 7303   0.909   6.194   4.089
 2135SOL    HW1 7304   0.962   6.123   4.041
 2135SOL    HW2 7305   0.871   6.157   4.173
 2136SOL     OW 7306   1.145   5.154   4.209
 2136SOL    HW1 7307   1.225   5.107   4.247
 2136SOL    HW2 7308   1.175   5.227   4.148
 2137SOL     OW 7309   0.160   0.175   4.158
 2137SOL    HW1 7310   0.061   0.160   4.163
 2137SOL    HW2 7311   0.206   0.104   4.211
 2138SOL     OW 7312   1.345   2.191   5.921
 2138SOL    HW1 7313   1.300   2.254   5.985
 2138SOL    HW2 7314   1.394   2.120   5.972
 2139SOL     OW 7315   2.820   6.671   4.147
 2139SOL    HW1 7316   2.832   6.756   4.197
 2139SOL    HW2 7317   2.781   6.602   4.207
 2140SOL     OW 7318   1.052   5.767   3.781
 2140SOL    HW1 7319   1.105   5.685   3.801
 2140SOL    HW2 7320   1.061   5.831   3.857
 2141SOL     OW 7321   6.741   2.044   6.822
 2141SOL    HW1 7322   6.673   2.064   6.893
 2141SOL    HW2 7323   6.771   2.129   6.779
 2142SOL     OW 7324   3.747   0.925   3.411
 2142SOL    HW1 7325   3.793   0.992   3.470
 2142SOL    HW2 7326   3.775   0.939   3.316
 2143SOL     OW 7327   3.624   5.960   0.236
 2143SOL    HW1 7328   3.653   5.999   0.323
 2143SOL    HW2 7329   3.530   5.926   0.244
 2144SOL     OW 7330   1.118   1.143   1.783
 2144SOL    HW1 7331   1.150   1.098   1.866
 2144SOL    HW2 7332   1.019   1.133   1.774
 2145SOL     OW 7333   3.226   5.713   2.751
 2145SOL    HW1 7334   3.186   5.679   2.836
 2145SOL    HW2 7335   3.165   5.780   2.710
 2146SOL     OW 7336   2.537   2.161   0.843
 2146SOL    HW1 7337   2.574   2.213   0.920
 2146SOL    HW2 7338   2.549   2.213   0.758
 2147SOL     OW 7339   0.187   1.170   4.366
 2147SOL    HW1 7340   0.151   1.152   4.457
 2147SOL    HW2 7341   0.219   1.084   4.325
 2148SOL     OW 7342   6.029   3.571   4.418
 2148SOL    HW1 7343   5.959   3.641   4.432
 2148SOL    HW2 7344   6.079   3.555   4.503
 2149SOL     OW 7345   2.827   0.356   3.028
 2149SOL    HW1 7346   2.825   0.339   2.930
 2149SOL    HW2 7347   2.777   0.440   3.048
 2150SOL     OW 7348   4.690   0.058   3.174
 2150SOL    HW1 7349   4.716   6.987   3.152
 2150SOL    HW2 7350   4.761   0.121   3.142
 2151SOL     OW 7351   4.088   4.548   5.821
 2151SOL    HW1 7352   4.074   4.516   5.915
 2151SOL    HW2 7353   4.057   4.477   5.757
 2152SOL     OW 7354   6.522   6.832   2.370
 2152SOL    HW1 7355   6.508   6.867   2.277
 2152SOL    HW2 7356   6.435   6.801   2.407
 2153SOL     OW 7357   4.369   1.867   3.584
 2153SOL    HW1 7358   4.394   1.946   3.527
 2153SOL    HW2 7359   4.375   1.893   3.680
 2154SOL     OW 7360   3.849   6.794   5.247
 2154SOL    HW1 7361   3.890   6.721   5.193
 2154SOL    HW2 7362   3.869   6.780   5.344
 2155SOL     OW 7363   6.274   3.347   6.473
 2155SOL    HW1 7364   6.175   3.336   6.466
 2155SOL    HW2 7365   6.319   3.266   6.433
 2156SOL     OW 7366   6.459   0.432   1.948
 2156SOL    HW1 7367   6.431   0.448   1.853
 2156SOL    HW2 7368   6.395   0.477   2.010
 2157SOL     OW 7369   6.102   0.947   4.452
 2157SOL    HW1 7370   6.028   1.013   4.469
 2157SOL    HW2 7371   6.062   0.856   4.438
 2158SOL     OW 7372   5.053   0.292   3.628
 2158SOL    HW1 7373   5.005   0.279   3.541
 2158SOL    HW2 7374   4.986   0.313   3.700
 2159SOL     OW 7375   2.438   0.402   5.388
 2159SOL    HW1 7376   2.419   0.367   5.480
 2159SOL    HW2 7377   2.492   0.335   5.337
 2160SOL     OW 7378   2.724   2.818   0.682
 2160SOL    HW1 7379   2.822   2.836   0.674
 2160SOL    HW2 7380   2.680   2.831   0.593
 2161SOL     OW 7381   4.965   2.511   4.299
 2161SOL    HW1 7382   4.964   2.520   4.399
 2161SOL    HW2 7383   4.958   2.601   4.257
 2162SOL     OW 7384   2.155   1.309   1.640
 2162SOL    HW1 7385   2.226   1.320   1.570
 2162SOL    HW2 7386   2.192   1.336   1.729
 2163SOL     OW 7387   2.229   1.626   0.890
 2163SOL    HW1 7388   2.306   1.593   0.946
 2163SOL    HW2 7389   2.211   1.722   0.912
 2164SOL     OW 7390   6.733   0.842   1.343
 2164SOL    HW1 7391   6.652   0.861   1.398
 2164SOL    HW2 7392   6.805   0.804   1.402
 2165SOL     OW 7393   3.214   6.970   2.161
 2165SOL    HW1 7394   3.169   6.957   2.073
 2165SOL    HW2 7395   3.186   6.897   2.223
 2166SOL     OW 7396   5.582   2.284   5.516
 2166SOL    HW1 7397   5.597   2.216   5.587
 2166SOL    HW2 7398   5.661   2.286   5.454
 2167SOL     OW 7399   3.173   1.087   1.268
 2167SOL    HW1 7400   3.272   1.085   1.254
 2167SOL    HW2 7401   3.133   1.157   1.209
 2168SOL     OW 7402   5.876   6.623   4.668
 2168SOL    HW1 7403   5.809   6.662   4.731
 2168SOL    HW2 7404   5.932   6.697   4.629
 2169SOL     OW 7405   5.603   1.286   6.088
 2169SOL    HW1 7406   5.546   1.226   6.144
 2169SOL    HW2 7407   5.546   1.336   6.023
 2170SOL     OW 7408   5.072   4.693   4.419
 2170SOL    HW1 7409   5.063   4.629   4.343
 2170SOL    HW2 7410   5.163   4.686   4.459
 2171SOL     OW 7411   6.834   3.738   0.390
 2171SOL    HW1 7412   6.755   3.783   0.431
 2171SOL    HW2 7413   6.862   3.660   0.447
 2172SOL     OW 7414   2.451   0.331   1.924
 2172SOL    HW1 7415   2.380   0.284   1.871
 2172SOL    HW2 7416   2.409   0.401   1.981
 2173SOL     OW 7417   4.719   2.519   4.836
 2173SOL    HW1 7418   4.779   2.440   4.824
 2173SOL    HW2 7419   4.649   2.498   4.904
 2174SOL     OW 7420   1.495   5.448   4.743
 2174SOL    HW1 7421   1.416   5.456   4.804
 2174SOL    HW2 7422   1.556   5.377   4.778
 2175SOL     OW 7423   1.410   5.989   5.714
 2175SOL    HW1 7424   1.372   5.917   5.656
 2175SOL    HW2 7425   1.444   6.063   5.657
 2176SOL     OW 7426   1.904   2.195   2.524
 2176SOL    HW1 7427   2.002   2.209   2.538
 2176SOL    HW2 7428   1.871   2.261   2.457
 2177SOL     OW 7429   1.351   1.955   0.718
 2177SOL    HW1 7430   1.332   1.953   0.816
 2177SOL    HW2 7431   1.265   1.960   0.667
 2178SOL     OW 7432   6.144   6.282   0.973
 2178SOL    HW1 7433   6.093   6.329   1.045
 2178SOL    HW2 7434   6.178   6.194   1.008
 2179SOL     OW 7435   1.118   4.352   4.048
 2179SOL    HW1 7436   1.097   4.304   4.133
 2179SOL    HW2 7437   1.035   4.360   3.993
 2180SOL     OW 7438   3.280   2.624   1.588
 2180SOL    HW1 7439   3.242   2.692   1.651
 2180SOL    HW2 7440   3.350   2.571   1.635
 2181SOL     OW 7441   3.261   6.684   1.537
 2181SOL    HW1 7442   3.196   6.732   1.477
 2181SOL    HW2 7443   3.282   6.741   1.616
 2182SOL     OW 7444   5.091   2.911   1.005
 2182SOL    HW1 7445   5.054   2.999   0.976
 2182SOL    HW2 7446   5.040   2.878   1.085
 2183SOL     OW 7447   3.564   2.190   1.035
 2183SOL    HW1 7448   3.487   2.128   1.017
 2183SOL    HW2 7449   3.642   2.162   0.978
 2184SOL     OW 7450   5.118   3.414   6.314
 2184SOL    HW1 7451   5.132   3.483   6.243
 2184SOL    HW2 7452   5.199   3.355   6.319
 2185SOL     OW 7453   6.767   6.834   1.917
 2185SOL    HW1 7454   6.779   6.870   1.825
 2185SOL    HW2 7455   6.849   6.853   1.971
 2186SOL     OW 7456   0.416   3.899   3.445
 2186SOL    HW1 7457   0.486   3.900   3.517
 2186SOL    HW2 7458   0.328   3.927   3.482
 2187SOL     OW 7459   6.129   1.087   0.505
 2187SOL    HW1 7460   6.126   1.028   0.424
 2187SOL    HW2 7461   6.066   1.164   0.493
 2188SOL     OW 7462   4.639   1.104   3.888
 2188SOL    HW1 7463   4.721   1.158   3.871
 2188SOL    HW2 7464   4.614   1.111   3.985
 2189SOL     OW 7465   3.235   0.203   6.826
 2189SOL    HW1 7466   3.181   0.284   6.804
 2189SOL    HW2 7467   3.204   0.165   6.913
 2190SOL     OW 7468   5.354   2.975   0.837
 2190SOL    HW1 7469   5.287   2.978   0.910
 2190SOL    HW2 7470   5.317   2.924   0.759
 2191SOL     OW 7471   2.550   1.638   0.259
 2191SOL    HW1 7472   2.542   1.542   0.232
 2191SOL    HW2 7473   2.460   1.682   0.253
 2192SOL     OW 7474   4.185   5.558   2.856
 2192SOL    HW1 7475   4.266   5.521   2.810
 2192SOL    HW2 7476   4.168   5.507   2.940
 2193SOL     OW 7477   6.779   6.149   4.694
 2193SOL    HW1 7478   6.730   6.226   4.653
 2193SOL    HW2 7479   6.837   6.105   4.626
 2194SOL     OW 7480   2.674   0.013   1.947
 2194SOL    HW1 7481   2.755   0.071   1.959
 2194SOL    HW2 7482   2.702   6.944   1.922
 2195SOL     OW 7483   0.818   4.690   2.006
 2195SOL    HW1 7484   0.805   4.682   1.907
 2195SOL    HW2 7485   0.875   4.616   2.038
 2196SOL     OW 7486   4.361   3.904   0.564
 2196SOL    HW1 7487   4.316   3.835   0.509
 2196SOL    HW2 7488   4.422   3.958   0.506
 2197SOL     OW 7489   4.385   4.055   7.019
 2197SOL    HW1 7490   4.378   4.154   0.007
 2197SOL    HW2 7491   4.300   4.013   0.027
 2198SOL     OW 7492   6.321   4.579   0.667
 2198SOL    HW1 7493   6.222   4.564   0.666
 2198SOL    HW2 7494   6.350   4.619   0.580
 2199SOL     OW 7495   4.480   1.113   3.211
 2199SOL    HW1 7496   4.546   1.060   3.158
 2199SOL    HW2 7497   4.498   1.210   3.198
 2200SOL     OW 7498   3.111   6.908   4.211
 2200SOL    HW1 7499   3.167   6.992   4.208
 2200SOL    HW2 7500   3.132   6.858   4.295
 2201SOL     OW 7501   4.786   4.107   4.055
 2201SOL    HW1 7502   4.732   4.101   3.971
 2201SOL    HW2 7503   4.736   4.162   4.122
 2202SOL     OW 7504   4.621   5.376   3.597
 2202SOL    HW1 7505   4.545   5.339   3.651
 2202SOL    HW2 7506   4.703   5.322   3.612
 2203SOL     OW 7507   2.981   2.042   2.347
 2203SOL    HW1 7508   2.929   2.119   2.312
 2203SOL    HW2 7509   3.003   2.057   2.443
 2204SOL     OW 7510   2.627   2.417   0.179
 2204SOL    HW1 7511   2.626   2.473   0.261
 2204SOL    HW2 7512   2.688   2.458   0.111
 2205SOL     OW 7513   2.961   1.041   1.933
 2205SOL    HW1 7514   2.974   1.023   1.836
 2205SOL    HW2 7515   2.962   0.955   1.984
 2206SOL     OW 7516   1.789   3.077   0.471
 2206SOL    HW1 7517   1.805   3.085   0.372
 2206SOL    HW2 7518   1.797   3.167   0.513
 2207SOL     OW 7519   6.906   4.596   4.684
 2207SOL    HW1 7520   6.960   4.550   4.754
 2207SOL    HW2 7521   6.808   4.588   4.706
 2208SOL     OW 7522   6.767   4.743   2.366
 2208SOL    HW1 7523   6.827   4.772   2.440
 2208SOL    HW2 7524   6.751   4.819   2.304
 2209SOL     OW 7525   0.381   6.731   1.684
 2209SOL    HW1 7526   0.371   6.750   1.781
 2209SOL    HW2 7527   0.454   6.789   1.646
 2210SOL     OW 7528   2.033   4.965   3.821
 2210SOL    HW1 7529   2.102   4.904   3.858
 2210SOL    HW2 7530   2.076   5.030   3.758
 2211SOL     OW 7531   6.599   1.991   4.912
 2211SOL    HW1 7532   6.686   1.980   4.961
 2211SOL    HW2 7533   6.529   1.935   4.956
 2212SOL     OW 7534   2.607   6.722   6.168
 2212SOL    HW1 7535   2.641   6.745   6.077
 2212SOL    HW2 7536   2.684   6.702   6.228
 2213SOL     OW 7537   4.458   0.625   3.161
 2213SOL    HW1 7538   4.422   0.658   3.248
 2213SOL    HW2 7539   4.558   0.633   3.161
 2214SOL     OW 7540   4.207   0.016   5.172
 2214SOL    HW1 7541   4.166   0.047   5.087
 2214SOL    HW2 7542   4.163   0.061   5.250
 2215SOL     OW 7543   5.512   2.064   5.163
 2215SOL    HW1 7544   5.512   2.070   5.063
 2215SOL    HW2 7545   5.605   2.074   5.197
 2216SOL     OW 7546   2.916   1.239   2.340
 2216SOL    HW1 7547   2.973   1.158   2.350
 2216SOL    HW2 7548   2.861   1.252   2.423
 2217SOL     OW 7549   4.140   0.598   1.833
 2217SOL    HW1 7550   4.047   0.560   1.827
 2217SOL    HW2 7551   4.155   0.659   1.755
 2218SOL     OW 7552   0.712   0.257   2.849
 2218SOL    HW1 7553   0.677   0.205   2.927
 2218SOL    HW2 7554   0.648   0.331   2.827
 2219SOL     OW 7555   1.855   1.948   2.379
 2219SOL    HW1 7556   1.884   2.020   2.443
 2219SOL    HW2 7557   1.817   1.872   2.431
 2220SOL     OW 7558   1.155   0.619   2.091
 2220SOL    HW1 7559   1.106   0.683   2.032
 2220SOL    HW2 7560   1.092   0.578   2.156
 2221SOL     OW 7561   0.314   0.742   6.058
 2221SOL    HW1 7562   0.309   0.827   6.111
 2221SOL    HW2 7563   0.226   0.726   6.013
 2222SOL     OW 7564   6.590   5.031   3.916
 2222SOL    HW1 7565   6.535   5.103   3.959
 2222SOL    HW2 7566   6.530   4.961   3.878
 2223SOL     OW 7567   6.755   6.674   1.486
 2223SOL    HW1 7568   6.780   6.578   1.497
 2223SOL    HW2 7569   6.686   6.683   1.414
 2224SOL     OW 7570   0.839   5.029   0.884
 2224SOL    HW1 7571   0.909   5.018   0.813
 2224SOL    HW2 7572   0.874   4.997   0.972
 2225SOL     OW 7573   0.833   3.705   0.242
 2225SOL    HW1 7574   0.870   3.639   0.307
 2225SOL    HW2 7575   0.873   3.689   0.152
 2226SOL     OW 7576   3.783   3.648   2.248
 2226SOL    HW1 7577   3.880   3.637   2.229
 2226SOL    HW2 7578   3.750   3.733   2.205
 2227SOL     OW 7579   0.907   2.595   3.848
 2227SOL    HW1 7580   0.921   2.668   3.781
 2227SOL    HW2 7581   0.927   2.507   3.804
 2228SOL     OW 7582   2.901   4.809   3.683
 2228SOL    HW1 7583   2.990   4.822   3.726
 2228SOL    HW2 7584   2.831   4.802   3.753
 2229SOL     OW 7585   5.730   6.448   3.055
 2229SOL    HW1 7586   5.739   6.515   2.982
 2229SOL    HW2 7587   5.798   6.376   3.044
 2230SOL     OW 7588   2.398   5.319   1.893
 2230SOL    HW1 7589   2.325   5.356   1.836
 2230SOL    HW2 7590   2.473   5.287   1.835
 2231SOL     OW 7591   2.012   5.884   1.164
 2231SOL    HW1 7592   1.993   5.827   1.244
 2231SOL    HW2 7593   1.998   5.980   1.188
 2232SOL     OW 7594   5.656   2.555   4.097
 2232SOL    HW1 7595   5.572   2.600   4.066
 2232SOL    HW2 7596   5.665   2.467   4.051
 2233SOL     OW 7597   3.434   1.208   6.735
 2233SOL    HW1 7598   3.450   1.306   6.749
 2233SOL    HW2 7599   3.384   1.195   6.650
 2234SOL     OW 7600   3.578   2.448   1.115
 2234SOL    HW1 7601   3.487   2.444   1.158
 2234SOL    HW2 7602   3.596   2.362   1.068
 2235SOL     OW 7603   2.106   1.615   1.820
 2235SOL    HW1 7604   2.109   1.713   1.838
 2235SOL    HW2 7605   2.019   1.578   1.851
 2236SOL     OW 7606   1.345   4.779   5.471
 2236SOL    HW1 7607   1.427   4.834   5.457
 2236SOL    HW2 7608   1.310   4.794   5.564
 2237SOL     OW 7609   6.636   3.334   4.551
 2237SOL    HW1 7610   6.725   3.350   4.509
 2237SOL    HW2 7611   6.597   3.249   4.517
 2238SOL     OW 7612   5.740   6.610   0.707
 2238SOL    HW1 7613   5.785   6.556   0.635
 2238SOL    HW2 7614   5.692   6.687   0.666
 2239SOL     OW 7615   6.099   6.004   1.796
 2239SOL    HW1 7616   6.079   5.948   1.877
 2239SOL    HW2 7617   6.139   5.946   1.725
 2240SOL     OW 7618   6.337   3.625   1.949
 2240SOL    HW1 7619   6.352   3.654   1.854
 2240SOL    HW2 7620   6.350   3.526   1.956
 2241SOL     OW 7621   0.976   0.547   3.781
 2241SOL    HW1 7622   0.923   0.507   3.706
 2241SOL    HW2 7623   1.069   0.509   3.780
 2242SOL     OW 7624   3.310   1.734   2.221
 2242SOL    HW1 7625   3.364   1.709   2.301
 2242SOL    HW2 7626   3.325   1.831   2.199
 2243SOL     OW 7627   2.757   0.200   5.227
 2243SOL    HW1 7628   2.764   0.151   5.140
 2243SOL    HW2 7629   2.747   0.298   5.209
 2244SOL     OW 7630   3.799   1.036   5.210
 2244SOL    HW1 7631   3.727   1.033   5.279
 2244SOL    HW2 7632   3.811   1.130   5.179
 2245SOL     OW 7633   0.486   2.016   1.727
 2245SOL    HW1 7634   0.537   1.981   1.648
 2245SOL    HW2 7635   0.510   1.964   1.809
 2246SOL     OW 7636   1.099   4.737   5.378
 2246SOL    HW1 7637   1.041   4.730   5.460
 2246SOL    HW2 7638   1.186   4.779   5.404
 2247SOL     OW 7639   1.534   1.259   4.649
 2247SOL    HW1 7640   1.538   1.247   4.550
 2247SOL    HW2 7641   1.606   1.204   4.693
 2248SOL     OW 7642   4.275   3.995   5.622
 2248SOL    HW1 7643   4.225   4.018   5.706
 2248SOL    HW2 7644   4.284   3.896   5.615
 2249SOL     OW 7645   4.253   5.585   5.691
 2249SOL    HW1 7646   4.216   5.557   5.780
 2249SOL    HW2 7647   4.179   5.624   5.636
 2250SOL     OW 7648   4.696   5.085   1.728
 2250SOL    HW1 7649   4.718   5.077   1.825
 2250SOL    HW2 7650   4.643   5.169   1.713
 2251SOL     OW 7651   0.505   0.914   6.445
 2251SOL    HW1 7652   0.405   0.905   6.444
 2251SOL    HW2 7653   0.546   0.833   6.486
 2252SOL     OW 7654   3.177   0.722   6.479
 2252SOL    HW1 7655   3.251   0.656   6.492
 2252SOL    HW2 7656   3.181   0.757   6.385
 2253SOL     OW 7657   1.141   4.117   6.614
 2253SOL    HW1 7658   1.156   4.029   6.658
 2253SOL    HW2 7659   1.137   4.104   6.514
 2254SOL     OW 7660   1.753   4.667   6.563
 2254SOL    HW1 7661   1.756   4.664   6.663
 2254SOL    HW2 7662   1.812   4.595   6.526
 2255SOL     OW 7663   6.330   3.592   6.603
 2255SOL    HW1 7664   6.429   3.599   6.586
 2255SOL    HW2 7665   6.293   3.517   6.548
 2256SOL     OW 7666   2.496   4.532   2.024
 2256SOL    HW1 7667   2.431   4.587   1.971
 2256SOL    HW2 7668   2.589   4.564   2.006
 2257SOL     OW 7669   1.784   3.755   4.936
 2257SOL    HW1 7670   1.758   3.677   4.993
 2257SOL    HW2 7671   1.756   3.840   4.981
 2258SOL     OW 7672   2.277   5.185   4.740
 2258SOL    HW1 7673   2.208   5.170   4.669
 2258SOL    HW2 7674   2.368   5.185   4.698
 2259SOL     OW 7675   6.192   3.058   6.379
 2259SOL    HW1 7676   6.201   3.058   6.280
 2259SOL    HW2 7677   6.120   3.121   6.406
 2260SOL     OW 7678   4.403   3.046   0.762
 2260SOL    HW1 7679   4.441   2.968   0.713
 2260SOL    HW2 7680   4.353   3.013   0.842
 2261SOL     OW 7681   2.557   6.237   4.989
 2261SOL    HW1 7682   2.628   6.173   5.019
 2261SOL    HW2 7683   2.589   6.288   4.910
 2262SOL     OW 7684   3.512   1.863   2.965
 2262SOL    HW1 7685   3.495   1.936   3.031
 2262SOL    HW2 7686   3.608   1.835   2.970
 2263SOL     OW 7687   1.087   4.275   6.105
 2263SOL    HW1 7688   1.056   4.331   6.028
 2263SOL    HW2 7689   1.157   4.324   6.156
 2264SOL     OW 7690   3.273   3.888   3.326
 2264SOL    HW1 7691   3.217   3.894   3.243
 2264SOL    HW2 7692   3.263   3.972   3.379
 2265SOL     OW 7693   0.350   6.881   3.580
 2265SOL    HW1 7694   0.311   6.918   3.496
 2265SOL    HW2 7695   0.447   6.863   3.566
 2266SOL     OW 7696   6.454   0.634   5.902
 2266SOL    HW1 7697   6.515   0.650   5.979
 2266SOL    HW2 7698   6.398   0.553   5.921
 2267SOL     OW 7699   5.017   1.512   5.193
 2267SOL    HW1 7700   5.052   1.593   5.241
 2267SOL    HW2 7701   4.922   1.528   5.166
 2268SOL     OW 7702   6.890   5.672   0.163
 2268SOL    HW1 7703   6.889   5.726   0.247
 2268SOL    HW2 7704   6.824   5.597   0.171
 2269SOL     OW 7705   0.340   6.783   2.914
 2269SOL    HW1 7706   0.302   6.864   2.959
 2269SOL    HW2 7707   0.308   6.701   2.960
 2270SOL     OW 7708   3.926   3.071   3.547
 2270SOL    HW1 7709   3.978   3.143   3.501
 2270SOL    HW2 7710   3.987   2.996   3.571
 2271SOL     OW 7711   1.161   4.849   3.318
 2271SOL    HW1 7712   1.178   4.908   3.396
 2271SOL    HW2 7713   1.063   4.830   3.311
 2272SOL     OW 7714   5.030   1.047   5.733
 2272SOL    HW1 7715   5.093   1.125   5.739
 2272SOL    HW2 7716   4.948   1.066   5.788
 2273SOL     OW 7717   0.546   0.963   2.358
 2273SOL    HW1 7718   0.635   0.961   2.313
 2273SOL    HW2 7719   0.533   0.880   2.412
 2274SOL     OW 7720   0.768   4.086   3.543
 2274SOL    HW1 7721   0.821   4.087   3.458
 2274SOL    HW2 7722   0.830   4.097   3.621
 2275SOL     OW 7723   5.127   6.223   3.983
 2275SOL    HW1 7724   5.226   6.232   3.989
 2275SOL    HW2 7725   5.084   6.313   3.997
 2276SOL     OW 7726   3.240   5.784   2.257
 2276SOL    HW1 7727   3.316   5.774   2.321
 2276SOL    HW2 7728   3.248   5.714   2.185
 2277SOL     OW 7729   3.185   3.292   1.896
 2277SOL    HW1 7730   3.229   3.298   1.985
 2277SOL    HW2 7731   3.240   3.233   1.836
 2278SOL     OW 7732   4.154   5.619   1.632
 2278SOL    HW1 7733   4.113   5.560   1.562
 2278SOL    HW2 7734   4.210   5.689   1.589
 2279SOL     OW 7735   5.543   4.117   5.768
 2279SOL    HW1 7736   5.608   4.170   5.824
 2279SOL    HW2 7737   5.464   4.092   5.825
 2280SOL     OW 7738   5.338   0.115   5.984
 2280SOL    HW1 7739   5.300   0.145   5.897
 2280SOL    HW2 7740   5.434   0.088   5.971
 2281SOL     OW 7741   2.017   1.011   0.108
 2281SOL    HW1 7742   2.044   0.994   0.203
 2281SOL    HW2 7743   1.918   1.001   0.099
 2282SOL     OW 7744   4.052   5.795   2.805
 2282SOL    HW1 7745   4.094   5.705   2.817
 2282SOL    HW2 7746   4.087   5.837   2.721
 2283SOL     OW 7747   0.821   3.368   1.893
 2283SOL    HW1 7748   0.858   3.276   1.912
 2283SOL    HW2 7749   0.782   3.405   1.977
 2284SOL     OW 7750   2.164   2.213   1.822
 2284SOL    HW1 7751   2.211   2.300   1.831
 2284SOL    HW2 7752   2.181   2.157   1.903
 2285SOL     OW 7753   1.682   3.375   6.339
 2285SOL    HW1 7754   1.710   3.279   6.333
 2285SOL    HW2 7755   1.584   3.380   6.358
 2286SOL     OW 7756   6.875   6.614   4.465
 2286SOL    HW1 7757   6.905   6.709   4.452
 2286SOL    HW2 7758   6.952   6.559   4.497
 2287SOL     OW 7759   2.317   2.026   0.349
 2287SOL    HW1 7760   2.224   1.999   0.375
 2287SOL    HW2 7761   2.344   1.976   0.267
 2288SOL     OW 7762   2.506   5.721   4.574
 2288SOL    HW1 7763   2.490   5.634   4.622
 2288SOL    HW2 7764   2.529   5.792   4.641
 2289SOL     OW 7765   3.806   0.936   0.010
 2289SOL    HW1 7766   3.840   0.863   6.974
 2289SOL    HW2 7767   3.724   0.977   6.991
 2290SOL     OW 7768   3.262   3.611   4.453
 2290SOL    HW1 7769   3.250   3.515   4.477
 2290SOL    HW2 7770   3.340   3.649   4.503
 2291SOL     OW 7771   2.314   2.679   6.934
 2291SOL    HW1 7772   2.298   2.773   6.963
 2291SOL    HW2 7773   2.319   2.675   6.834
 2292SOL     OW 7774   4.774   1.909   3.316
 2292SOL    HW1 7775   4.683   1.880   3.285
 2292SOL    HW2 7776   4.823   1.951   3.239
 2293SOL     OW 7777   0.568   1.407   6.261
 2293SOL    HW1 7778   0.603   1.500   6.255
 2293SOL    HW2 7779   0.643   1.344   6.283
 2294SOL     OW 7780   6.425   1.847   5.033
 2294SOL    HW1 7781   6.434   1.820   5.128
 2294SOL    HW2 7782   6.328   1.866   5.013
 2295SOL     OW 7783   5.538   5.734   0.789
 2295SOL    HW1 7784   5.633   5.755   0.813
 2295SOL    HW2 7785   5.511   5.789   0.710
 2296SOL     OW 7786   3.724   5.549   4.891
 2296SOL    HW1 7787   3.768   5.605   4.961
 2296SOL    HW2 7788   3.771   5.462   4.883
 2297SOL     OW 7789   6.319   3.394   5.918
 2297SOL    HW1 7790   6.342   3.484   5.880
 2297SOL    HW2 7791   6.278   3.405   6.008
 2298SOL     OW 7792   2.736   3.318   5.345
 2298SOL    HW1 7793   2.637   3.322   5.356
 2298SOL    HW2 7794   2.780   3.328   5.434
 2299SOL     OW 7795   5.889   3.583   4.718
 2299SOL    HW1 7796   5.918   3.488   4.712
 2299SOL    HW2 7797   5.790   3.589   4.701
 2300SOL     OW 7798   5.272   0.171   2.844
 2300SOL    HW1 7799   5.247   0.116   2.764
 2300SOL    HW2 7800   5.303   0.261   2.813
 2301SOL     OW 7801   3.643   3.354   5.206
 2301SOL    HW1 7802   3.606   3.395   5.289
 2301SOL    HW2 7803   3.569   3.317   5.150
 2302SOL     OW 7804   6.724   3.041   6.017
 2302SOL    HW1 7805   6.795   3.108   5.998
 2302SOL    HW2 7806   6.708   3.036   6.115
 2303SOL     OW 7807   2.655   1.755   6.518
 2303SOL    HW1 7808   2.711   1.784   6.595
 2303SOL    HW2 7809   2.705   1.688   6.463
 2304SOL     OW 7810   6.167   0.068   2.444
 2304SOL    HW1 7811   6.225   0.039   2.521
 2304SOL    HW2 7812   6.137   7.011   2.393
 2305SOL     OW 7813   2.942   6.978   5.236
 2305SOL    HW1 7814   2.928   6.883   5.210
 2305SOL    HW2 7815   2.902   0.015   5.166
 2306SOL     OW 7816   1.652   4.297   4.713
 2306SOL    HW1 7817   1.559   4.322   4.739
 2306SOL    HW2 7818   1.700   4.262   4.793
 2307SOL     OW 7819   6.789   3.690   4.669
 2307SOL    HW1 7820   6.783   3.773   4.724
 2307SOL    HW2 7821   6.856   3.627   4.709
 2308SOL     OW 7822   0.550   5.492   2.193
 2308SOL    HW1 7823   0.561   5.588   2.165
 2308SOL    HW2 7824   0.587   5.480   2.286
 2309SOL     OW 7825   2.020   0.345   4.876
 2309SOL    HW1 7826   2.020   0.444   4.865
 2309SOL    HW2 7827   2.006   0.301   4.787
 2310SOL     OW 7828   4.120   6.978   0.339
 2310SOL    HW1 7829   4.128   0.054   0.350
 2310SOL    HW2 7830   4.149   6.933   0.423
 2311SOL     OW 7831   2.339   5.913   0.853
 2311SOL    HW1 7832   2.344   6.001   0.901
 2311SOL    HW2 7833   2.343   5.839   0.920
 2312SOL     OW 7834   3.328   4.877   2.752
 2312SOL    HW1 7835   3.301   4.805   2.688
 2312SOL    HW2 7836   3.335   4.964   2.703
 2313SOL     OW 7837   4.617   4.692   1.513
 2313SOL    HW1 7838   4.567   4.716   1.596
 2313SOL    HW2 7839   4.622   4.593   1.505
 2314SOL     OW 7840   2.525   4.579   3.376
 2314SOL    HW1 7841   2.585   4.585   3.296
 2314SOL    HW2 7842   2.571   4.618   3.455
 2315SOL     OW 7843   5.013   1.960   6.718
 2315SOL    HW1 7844   4.953   2.033   6.685
 2315SOL    HW2 7845   4.964   1.873   6.718
 2316SOL     OW 7846   4.852   3.472   1.854
 2316SOL    HW1 7847   4.767   3.494   1.808
 2316SOL    HW2 7848   4.842   3.387   1.907
 2317SOL     OW 7849   0.378   6.100   3.641
 2317SOL    HW1 7850   0.282   6.096   3.613
 2317SOL    HW2 7851   0.420   6.182   3.603
 2318SOL     OW 7852   0.291   1.357   3.812
 2318SOL    HW1 7853   0.230   1.388   3.740
 2318SOL    HW2 7854   0.364   1.301   3.772
 2319SOL     OW 7855   1.259   4.636   1.719
 2319SOL    HW1 7856   1.344   4.614   1.670
 2319SOL    HW2 7857   1.232   4.729   1.696
 2320SOL     OW 7858   6.196   4.712   4.570
 2320SOL    HW1 7859   6.276   4.685   4.623
 2320SOL    HW2 7860   6.185   4.811   4.575
 2321SOL     OW 7861   3.760   5.161   4.285
 2321SOL    HW1 7862   3.856   5.143   4.262
 2321SOL    HW2 7863   3.703   5.149   4.204
 2322SOL     OW 7864   2.792   0.906   4.443
 2322SOL    HW1 7865   2.771   0.809   4.452
 2322SOL    HW2 7866   2.713   0.960   4.471
 2323SOL     OW 7867   5.054   3.669   1.749
 2323SOL    HW1 7868   5.007   3.589   1.789
 2323SOL    HW2 7869   5.031   3.750   1.802
 2324SOL     OW 7870   0.913   5.222   4.088
 2324SOL    HW1 7871   0.861   5.163   4.027
 2324SOL    HW2 7872   0.980   5.166   4.139
 2325SOL     OW 7873   0.347   2.324   0.528
 2325SOL    HW1 7874   0.412   2.394   0.557
 2325SOL    HW2 7875   0.293   2.359   0.451
 2326SOL     OW 7876   0.740   4.375   0.625
 2326SOL    HW1 7877   0.792   4.322   0.559
 2326SOL    HW2 7878   0.666   4.319   0.662
 2327SOL     OW 7879   4.949   1.272   3.505
 2327SOL    HW1 7880   5.009   1.258   3.426
 2327SOL    HW2 7881   4.872   1.209   3.501
 2328SOL     OW 7882   6.369   5.145   4.031
 2328SOL    HW1 7883   6.336   5.097   4.113
 2328SOL    HW2 7884   6.293   5.158   3.967
 2329SOL     OW 7885   1.140   5.791   3.517
 2329SOL    HW1 7886   1.114   5.792   3.614
 2329SOL    HW2 7887   1.209   5.861   3.500
 2330SOL     OW 7888   1.286   4.646   0.751
 2330SOL    HW1 7889   1.187   4.641   0.736
 2330SOL    HW2 7890   1.322   4.554   0.767
 2331SOL     OW 7891   0.975   4.714   5.125
 2331SOL    HW1 7892   0.995   4.725   5.222
 2331SOL    HW2 7893   1.052   4.669   5.080
 2332SOL     OW 7894   5.461   3.045   5.749
 2332SOL    HW1 7895   5.559   3.056   5.730
 2332SOL    HW2 7896   5.443   3.071   5.844
 2333SOL     OW 7897   2.706   4.806   3.491
 2333SOL    HW1 7898   2.684   4.903   3.497
 2333SOL    HW2 7899   2.774   4.783   3.561
 2334SOL     OW 7900   2.279   0.506   6.064
 2334SOL    HW1 7901   2.357   0.547   6.017
 2334SOL    HW2 7902   2.309   0.466   6.151
 2335SOL     OW 7903   4.614   4.375   4.498
 2335SOL    HW1 7904   4.526   4.394   4.541
 2335SOL    HW2 7905   4.682   4.355   4.568
 2336SOL     OW 7906   4.268   2.842   5.804
 2336SOL    HW1 7907   4.279   2.908   5.878
 2336SOL    HW2 7908   4.215   2.882   5.730
 2337SOL     OW 7909   6.103   0.340   4.557
 2337SOL    HW1 7910   6.186   0.355   4.502
 2337SOL    HW2 7911   6.038   0.286   4.504
 2338SOL     OW 7912   1.678   0.121   6.837
 2338SOL    HW1 7913   1.720   0.119   6.746
 2338SOL    HW2 7914   1.646   0.213   6.857
 2339SOL     OW 7915   3.986   4.937   6.984
 2339SOL    HW1 7916   3.948   5.020   0.002
 2339SOL    HW2 7917   4.032   4.960   6.898
 2340SOL     OW 7918   3.424   5.326   4.353
 2340SOL    HW1 7919   3.461   5.273   4.429
 2340SOL    HW2 7920   3.360   5.394   4.388
 2341SOL     OW 7921   5.949   4.972   6.431
 2341SOL    HW1 7922   5.889   4.971   6.351
 2341SOL    HW2 7923   5.932   5.055   6.484
 2342SOL     OW 7924   6.528   0.912   5.597
 2342SOL    HW1 7925   6.531   1.010   5.616
 2342SOL    HW2 7926   6.621   0.879   5.577
 2343SOL     OW 7927   0.845   6.945   0.415
 2343SOL    HW1 7928   0.943   6.934   0.397
 2343SOL    HW2 7929   0.833   6.993   0.502
 2344SOL     OW 7930   2.453   0.820   2.717
 2344SOL    HW1 7931   2.362   0.860   2.718
 2344SOL    HW2 7932   2.509   0.867   2.648
 2345SOL     OW 7933   1.049   2.042   2.014
 2345SOL    HW1 7934   0.959   2.041   1.969
 2345SOL    HW2 7935   1.052   1.970   2.083
 2346SOL     OW 7936   4.734   3.213   5.498
 2346SOL    HW1 7937   4.784   3.231   5.413
 2346SOL    HW2 7938   4.790   3.156   5.558
 2347SOL     OW 7939   2.028   3.562   0.740
 2347SOL    HW1 7940   2.084   3.502   0.797
 2347SOL    HW2 7941   1.939   3.577   0.783
 2348SOL     OW 7942   2.126   6.633   1.834
 2348SOL    HW1 7943   2.049   6.586   1.790
 2348SOL    HW2 7944   2.201   6.642   1.768
 2349SOL     OW 7945   5.160   3.923   6.727
 2349SOL    HW1 7946   5.072   3.892   6.762
 2349SOL    HW2 7947   5.205   3.978   6.798
 2350SOL     OW 7948   2.309   6.144   5.063
 2350SOL    HW1 7949   2.227   6.192   5.034
 2350SOL    HW2 7950   2.389   6.187   5.022
 2351SOL     OW 7951   1.675   5.286   2.771
 2351SOL    HW1 7952   1.595   5.308   2.715
 2351SOL    HW2 7953   1.753   5.341   2.742
 2352SOL     OW 7954   5.770   5.032   1.145
 2352SOL    HW1 7955   5.823   4.990   1.218
 2352SOL    HW2 7956   5.811   5.009   1.057
 2353SOL     OW 7957   2.378   3.408   5.908
 2353SOL    HW1 7958   2.394   3.503   5.883
 2353SOL    HW2 7959   2.401   3.348   5.831
 2354SOL     OW 7960   4.441   1.608   1.942
 2354SOL    HW1 7961   4.521   1.581   1.888
 2354SOL    HW2 7962   4.422   1.705   1.927
 2355SOL     OW 7963   0.184   1.696   1.718
 2355SOL    HW1 7964   0.246   1.695   1.640
 2355SOL    HW2 7965   0.173   1.790   1.751
 2356SOL     OW 7966   2.967   5.096   3.763
 2356SOL    HW1 7967   2.956   5.075   3.860
 2356SOL    HW2 7968   3.065   5.099   3.741
 2357SOL     OW 7969   1.200   4.882   0.594
 2357SOL    HW1 7970   1.248   4.897   0.681
 2357SOL    HW2 7971   1.204   4.785   0.570
 2358SOL     OW 7972   3.126   0.701   5.024
 2358SOL    HW1 7973   3.158   0.780   5.076
 2358SOL    HW2 7974   3.109   0.624   5.086
 2359SOL     OW 7975   1.872   2.121   5.776
 2359SOL    HW1 7976   1.930   2.055   5.729
 2359SOL    HW2 7977   1.880   2.109   5.875
 2360SOL     OW 7978   3.215   5.100   0.984
 2360SOL    HW1 7979   3.143   5.060   0.927
 2360SOL    HW2 7980   3.193   5.196   1.003
 2361SOL     OW 7981   3.501   5.863   1.032
 2361SOL    HW1 7982   3.451   5.785   0.995
 2361SOL    HW2 7983   3.511   5.852   1.131
 2362SOL     OW 7984   3.444   4.898   3.952
 2362SOL    HW1 7985   3.445   4.884   4.051
 2362SOL    HW2 7986   3.506   4.973   3.928
 2363SOL     OW 7987   2.188   3.740   1.136
 2363SOL    HW1 7988   2.198   3.795   1.219
 2363SOL    HW2 7989   2.122   3.784   1.075
 2364SOL     OW 7990   4.045   1.552   2.367
 2364SOL    HW1 7991   3.950   1.573   2.341
 2364SOL    HW2 7992   4.104   1.562   2.287
 2365SOL     OW 7993   5.697   4.163   3.151
 2365SOL    HW1 7994   5.599   4.167   3.130
 2365SOL    HW2 7995   5.745   4.234   3.100
 2366SOL     OW 7996   2.855   5.524   5.082
 2366SOL    HW1 7997   2.908   5.603   5.050
 2366SOL    HW2 7998   2.882   5.443   5.031
 2367SOL     OW 7999   5.959   5.016   5.575
 2367SOL    HW1 8000   5.919   5.007   5.484
 2367SOL    HW2 8001   6.023   5.093   5.576
 2368SOL     OW 8002   5.020   0.755   5.001
 2368SOL    HW1 8003   5.120   0.763   5.002
 2368SOL    HW2 8004   4.987   0.776   4.909
 2369SOL     OW 8005   3.961   2.100   4.367
 2369SOL    HW1 8006   3.875   2.090   4.417
 2369SOL    HW2 8007   4.038   2.094   4.430
 2370SOL     OW 8008   5.506   1.728   2.150
 2370SOL    HW1 8009   5.551   1.689   2.069
 2370SOL    HW2 8010   5.481   1.655   2.213
 2371SOL     OW 8011   1.317   6.609   1.680
 2371SOL    HW1 8012   1.391   6.664   1.642
 2371SOL    HW2 8013   1.314   6.620   1.779
 2372SOL     OW 8014   6.661   0.605   6.107
 2372SOL    HW1 8015   6.705   0.601   6.017
 2372SOL    HW2 8016   6.649   0.512   6.142
 2373SOL     OW 8017   5.952   4.410   5.990
 2373SOL    HW1 8018   5.859   4.372   5.982
 2373SOL    HW2 8019   5.988   4.391   6.081
 2374SOL     OW 8020   6.665   6.426   2.129
 2374SOL    HW1 8021   6.580   6.451   2.176
 2374SOL    HW2 8022   6.672   6.478   2.044
 2375SOL     OW 8023   1.534   0.161   4.096
 2375SOL    HW1 8024   1.470   0.092   4.128
 2375SOL    HW2 8025   1.603   0.178   4.167
 2376SOL     OW 8026   4.958   2.432   3.389
 2376SOL    HW1 8027   4.934   2.382   3.472
 2376SOL    HW2 8028   4.891   2.410   3.317
 2377SOL     OW 8029   4.148   3.955   5.891
 2377SOL    HW1 8030   4.178   4.051   5.886
 2377SOL    HW2 8031   4.072   3.941   5.829
 2378SOL     OW 8032   0.396   0.872   0.436
 2378SOL    HW1 8033   0.433   0.943   0.495
 2378SOL    HW2 8034   0.410   0.897   0.340
 2379SOL     OW 8035   0.493   4.776   2.593
 2379SOL    HW1 8036   0.557   4.846   2.561
 2379SOL    HW2 8037   0.535   4.725   2.668
 2380SOL     OW 8038   4.307   5.727   6.693
 2380SOL    HW1 8039   4.376   5.796   6.714
 2380SOL    HW2 8040   4.308   5.656   6.762
 2381SOL     OW 8041   2.160   3.452   4.047
 2381SOL    HW1 8042   2.164   3.383   3.975
 2381SOL    HW2 8043   2.171   3.408   4.136
 2382SOL     OW 8044   0.085   5.168   3.294
 2382SOL    HW1 8045   0.058   5.181   3.199
 2382SOL    HW2 8046   0.050   5.244   3.349
 2383SOL     OW 8047   4.785   4.167   5.766
 2383SOL    HW1 8048   4.779   4.265   5.744
 2383SOL    HW2 8049   4.720   4.117   5.709
 2384SOL     OW 8050   0.427   2.166   2.329
 2384SOL    HW1 8051   0.479   2.085   2.299
 2384SOL    HW2 8052   0.491   2.238   2.355
 2385SOL     OW 8053   0.245   0.951   6.897
 2385SOL    HW1 8054   0.275   0.861   6.867
 2385SOL    HW2 8055   0.292   1.022   6.844
 2386SOL     OW 8056   6.035   5.758   5.121
 2386SOL    HW1 8057   6.009   5.702   5.199
 2386SOL    HW2 8058   6.120   5.723   5.081
 2387SOL     OW 8059   0.821   0.489   3.544
 2387SOL    HW1 8060   0.850   0.577   3.508
 2387SOL    HW2 8061   0.722   0.479   3.533
 2388SOL     OW 8062   0.844   3.438   5.595
 2388SOL    HW1 8063   0.816   3.482   5.509
 2388SOL    HW2 8064   0.911   3.496   5.641
 2389SOL     OW 8065   4.328   5.247   3.624
 2389SOL    HW1 8066   4.386   5.187   3.680
 2389SOL    HW2 8067   4.353   5.235   3.527
 2390SOL     OW 8068   5.057   2.662   6.361
 2390SOL    HW1 8069   4.958   2.644   6.353
 2390SOL    HW2 8070   5.087   2.717   6.284
 2391SOL     OW 8071   3.234   3.819   6.808
 2391SOL    HW1 8072   3.185   3.777   6.731
 2391SOL    HW2 8073   3.210   3.916   6.812
 2392SOL     OW 8074   3.797   5.233   5.916
 2392SOL    HW1 8075   3.745   5.151   5.938
 2392SOL    HW2 8076   3.758   5.312   5.963
 2393SOL     OW 8077   3.818   4.398   0.256
 2393SOL    HW1 8078   3.774   4.471   0.203
 2393SOL    HW2 8079   3.748   4.337   0.293
 2394SOL     OW 8080   6.486   1.407   3.797
 2394SOL    HW1 8081   6.387   1.422   3.806
 2394SOL    HW2 8082   6.516   1.435   3.706
 2395SOL     OW 8083   1.669   2.798   4.006
 2395SOL    HW1 8084   1.718   2.863   4.064
 2395SOL    HW2 8085   1.577   2.834   3.986
 2396SOL     OW 8086   6.708   0.229   6.600
 2396SOL    HW1 8087   6.608   0.241   6.597
 2396SOL    HW2 8088   6.741   0.241   6.693
 2397SOL     OW 8089   2.331   4.468   5.163
 2397SOL    HW1 8090   2.277   4.400   5.212
 2397SOL    HW2 8091   2.368   4.534   5.227
 2398SOL     OW 8092   4.110   6.042   4.331
 2398SOL    HW1 8093   4.112   6.062   4.233
 2398SOL    HW2 8094   4.204   6.044   4.367
 2399SOL     OW 8095   3.005   1.523   2.445
 2399SOL    HW1 8096   2.990   1.597   2.379
 2399SOL    HW2 8097   3.011   1.436   2.397
 2400SOL     OW 8098   1.686   3.372   0.307
 2400SOL    HW1 8099   1.708   3.345   0.213
 2400SOL    HW2 8100   1.760   3.431   0.342
 2401SOL     OW 8101   1.940   6.300   6.971
 2401SOL    HW1 8102   1.851   6.261   6.949
 2401SOL    HW2 8103   1.983   6.335   6.888
 2402SOL     OW 8104   1.165   4.180   2.281
 2402SOL    HW1 8105   1.225   4.231   2.343
 2402SOL    HW2 8106   1.124   4.243   2.215
 2403SOL     OW 8107   3.042   3.895   5.364
 2403SOL    HW1 8108   3.012   3.990   5.356
 2403SOL    HW2 8109   3.102   3.873   5.288
 2404SOL     OW 8110   6.077   1.480   1.290
 2404SOL    HW1 8111   6.088   1.579   1.304
 2404SOL    HW2 8112   6.057   1.462   1.194
 2405SOL     OW 8113   2.312   2.935   0.687
 2405SOL    HW1 8114   2.292   3.010   0.624
 2405SOL    HW2 8115   2.368   2.968   0.762
 2406SOL     OW 8116   3.881   5.310   4.880
 2406SOL    HW1 8117   3.976   5.322   4.851
 2406SOL    HW2 8118   3.825   5.289   4.800
 2407SOL     OW 8119   2.176   1.629   3.518
 2407SOL    HW1 8120   2.209   1.715   3.480
 2407SOL    HW2 8121   2.119   1.582   3.451
 2408SOL     OW 8122   3.591   0.354   5.930
 2408SOL    HW1 8123   3.565   0.260   5.910
 2408SOL    HW2 8124   3.689   0.365   5.917
 2409SOL     OW 8125   0.726   2.851   6.885
 2409SOL    HW1 8126   0.662   2.779   6.857
 2409SOL    HW2 8127   0.702   2.936   6.839
 2410SOL     OW 8128   7.010   3.482   4.647
 2410SOL    HW1 8129   7.008   3.414   4.573
 2410SOL    HW2 8130   0.014   3.437   4.733
 2411SOL     OW 8131   3.098   1.684   7.009
 2411SOL    HW1 8132   3.026   1.645   0.043
 2411SOL    HW2 8133   3.137   1.612   6.951
 2412SOL     OW 8134   3.497   2.399   6.181
 2412SOL    HW1 8135   3.596   2.392   6.190
 2412SOL    HW2 8136   3.455   2.399   6.271
 2413SOL     OW 8137   0.514   3.715   6.764
 2413SOL    HW1 8138   0.525   3.680   6.672
 2413SOL    HW2 8139   0.423   3.756   6.773
 2414SOL     OW 8140   6.889   1.422   5.520
 2414SOL    HW1 8141   6.891   1.440   5.618
 2414SOL    HW2 8142   6.968   1.365   5.495
 2415SOL     OW 8143   3.150   4.890   6.687
 2415SOL    HW1 8144   3.200   4.964   6.641
 2415SOL    HW2 8145   3.078   4.856   6.628
 2416SOL     OW 8146   0.401   2.500   2.958
 2416SOL    HW1 8147   0.382   2.591   2.994
 2416SOL    HW2 8148   0.496   2.495   2.927
 2417SOL     OW 8149   3.269   2.424   1.131
 2417SOL    HW1 8150   3.232   2.451   1.220
 2417SOL    HW2 8151   3.230   2.336   1.105
 2418SOL     OW 8152   5.229   4.379   6.871
 2418SOL    HW1 8153   5.203   4.471   6.900
 2418SOL    HW2 8154   5.326   4.365   6.891
 2419SOL     OW 8155   3.326   1.013   3.258
 2419SOL    HW1 8156   3.378   1.086   3.213
 2419SOL    HW2 8157   3.305   0.942   3.192
 2420SOL     OW 8158   1.576   3.679   2.704
 2420SOL    HW1 8159   1.576   3.650   2.609
 2420SOL    HW2 8160   1.618   3.770   2.712
 2421SOL     OW 8161   2.803   6.886   3.502
 2421SOL    HW1 8162   2.846   6.941   3.574
 2421SOL    HW2 8163   2.749   6.814   3.544
 2422SOL     OW 8164   4.101   5.629   0.493
 2422SOL    HW1 8165   4.011   5.587   0.496
 2422SOL    HW2 8166   4.120   5.672   0.582
 2423SOL     OW 8167   2.709   5.295   3.948
 2423SOL    HW1 8168   2.617   5.328   3.967
 2423SOL    HW2 8169   2.770   5.373   3.934
 2424SOL     OW 8170   4.828   6.837   6.397
 2424SOL    HW1 8171   4.838   6.757   6.455
 2424SOL    HW2 8172   4.745   6.829   6.342
 2425SOL     OW 8173   4.061   5.712   4.928
 2425SOL    HW1 8174   4.120   5.675   4.999
 2425SOL    HW2 8175   4.109   5.710   4.840
 2426SOL     OW 8176   2.899   2.176   5.028
 2426SOL    HW1 8177   2.999   2.180   5.029
 2426SOL    HW2 8178   2.864   2.204   5.117
 2427SOL     OW 8179   4.726   1.800   0.694
 2427SOL    HW1 8180   4.628   1.814   0.707
 2427SOL    HW2 8181   4.744   1.702   0.689
 2428SOL     OW 8182   1.548   1.553   3.067
 2428SOL    HW1 8183   1.513   1.642   3.038
 2428SOL    HW2 8184   1.647   1.551   3.057
 2429SOL     OW 8185   6.263   6.077   1.129
 2429SOL    HW1 8186   6.222   6.037   1.211
 2429SOL    HW2 8187   6.363   6.068   1.134
 2430SOL     OW 8188   6.315   0.535   6.243
 2430SOL    HW1 8189   6.311   0.630   6.211
 2430SOL    HW2 8190   6.242   0.482   6.199
 2431SOL     OW 8191   1.104   3.368   1.996
 2431SOL    HW1 8192   1.078   3.309   1.919
 2431SOL    HW2 8193   1.053   3.342   2.077
 2432SOL     OW 8194   2.338   5.572   2.308
 2432SOL    HW1 8195   2.350   5.671   2.301
 2432SOL    HW2 8196   2.297   5.550   2.397
 2433SOL     OW 8197   0.514   4.336   5.161
 2433SOL    HW1 8198   0.514   4.414   5.097
 2433SOL    HW2 8199   0.604   4.293   5.159
 2434SOL     OW 8200   4.547   1.171   3.490
 2434SOL    HW1 8201   4.473   1.155   3.556
 2434SOL    HW2 8202   4.509   1.166   3.397
 2435SOL     OW 8203   5.903   6.627   6.492
 2435SOL    HW1 8204   5.926   6.637   6.395
 2435SOL    HW2 8205   5.975   6.668   6.548
 2436SOL     OW 8206   0.313   3.339   0.283
 2436SOL    HW1 8207   0.224   3.383   0.273
 2436SOL    HW2 8208   0.339   3.298   0.195
 2437SOL     OW 8209   0.170   4.038   1.202
 2437SOL    HW1 8210   0.227   4.085   1.134
 2437SOL    HW2 8211   0.224   3.967   1.247
 2438SOL     OW 8212   3.718   1.603   4.618
 2438SOL    HW1 8213   3.714   1.702   4.609
 2438SOL    HW2 8214   3.706   1.560   4.529
 2439SOL     OW 8215   0.596   5.537   1.243
 2439SOL    HW1 8216   0.624   5.475   1.170
 2439SOL    HW2 8217   0.629   5.503   1.331
 2440SOL     OW 8218   6.365   1.269   5.384
 2440SOL    HW1 8219   6.317   1.259   5.471
 2440SOL    HW2 8220   6.302   1.256   5.308
 2441SOL     OW 8221   6.151   0.689   0.695
 2441SOL    HW1 8222   6.131   0.625   0.769
 2441SOL    HW2 8223   6.226   0.749   0.722
 2442SOL     OW 8224   5.153   3.564   2.315
 2442SOL    HW1 8225   5.177   3.483   2.261
 2442SOL    HW2 8226   5.064   3.549   2.359
 2443SOL     OW 8227   0.604   3.340   1.313
 2443SOL    HW1 8228   0.574   3.313   1.221
 2443SOL    HW2 8229   0.543   3.300   1.381
 2444SOL     OW 8230   3.395   5.523   2.461
 2444SOL    HW1 8231   3.318   5.488   2.408
 2444SOL    HW2 8232   3.408   5.467   2.543
 2445SOL     OW 8233   0.438   2.178   0.788
 2445SOL    HW1 8234   0.428   2.256   0.726
 2445SOL    HW2 8235   0.533   2.169   0.815
 2446SOL     OW 8236   0.101   5.848   1.867
 2446SOL    HW1 8237   0.089   5.939   1.907
 2446SOL    HW2 8238   0.160   5.793   1.926
 2447SOL     OW 8239   1.877   0.046   0.531
 2447SOL    HW1 8240   1.889   7.004   0.606
 2447SOL    HW2 8241   1.878   7.020   0.444
 2448SOL     OW 8242   5.689   0.922   4.281
 2448SOL    HW1 8243   5.609   0.863   4.290
 2448SOL    HW2 8244   5.661   1.009   4.240
 2449SOL     OW 8245   1.676   4.208   0.771
 2449SOL    HW1 8246   1.661   4.307   0.780
 2449SOL    HW2 8247   1.721   4.188   0.684
 2450SOL     OW 8248   0.558   6.483   4.875
 2450SOL    HW1 8249   0.612   6.568   4.869
 2450SOL    HW2 8250   0.586   6.421   4.801
 2451SOL     OW 8251   1.988   6.603   5.837
 2451SOL    HW1 8252   1.966   6.520   5.888
 2451SOL    HW2 8253   2.063   6.584   5.773
 2452SOL     OW 8254   2.456   1.576   4.249
 2452SOL    HW1 8255   2.440   1.632   4.330
 2452SOL    HW2 8256   2.406   1.490   4.258
 2453SOL     OW 8257   1.282   2.021   5.682
 2453SOL    HW1 8258   1.360   2.059   5.633
 2453SOL    HW2 8259   1.278   2.060   5.774
 2454SOL     OW 8260   3.091   6.104   0.882
 2454SOL    HW1 8261   3.073   6.077   0.977
 2454SOL    HW2 8262   3.068   6.028   0.821
 2455SOL     OW 8263   4.110   2.053   0.973
 2455SOL    HW1 8264   4.202   2.039   0.937
 2455SOL    HW2 8265   4.043   2.017   0.908
 2456SOL     OW 8266   0.605   3.790   5.842
 2456SOL    HW1 8267   0.533   3.796   5.912
 2456SOL    HW2 8268   0.694   3.789   5.887
 2457SOL     OW 8269   3.857   1.940   5.619
 2457SOL    HW1 8270   3.874   1.985   5.531
 2457SOL    HW2 8271   3.797   1.862   5.605
 2458SOL     OW 8272   0.305   6.848   2.431
 2458SOL    HW1 8273   0.356   6.836   2.517
 2458SOL    HW2 8274   0.370   6.861   2.356
 2459SOL     OW 8275   1.697   6.985   1.140
 2459SOL    HW1 8276   1.744   0.044   1.174
 2459SOL    HW2 8277   1.760   6.931   1.084
 2460SOL     OW 8278   0.569   0.849   4.291
 2460SOL    HW1 8279   0.585   0.805   4.379
 2460SOL    HW2 8280   0.476   0.887   4.290
 2461SOL     OW 8281   3.659   1.487   3.950
 2461SOL    HW1 8282   3.731   1.556   3.948
 2461SOL    HW2 8283   3.634   1.462   3.857
 2462SOL     OW 8284   0.712   5.233   0.549
 2462SOL    HW1 8285   0.683   5.325   0.524
 2462SOL    HW2 8286   0.768   5.194   0.477
 2463SOL     OW 8287   6.587   6.992   0.341
 2463SOL    HW1 8288   6.567   0.017   0.427
 2463SOL    HW2 8289   6.533   6.908   0.336
 2464SOL     OW 8290   0.786   2.563   4.321
 2464SOL    HW1 8291   0.842   2.516   4.252
 2464SOL    HW2 8292   0.813   2.659   4.326
 2465SOL     OW 8293   6.654   6.990   6.537
 2465SOL    HW1 8294   6.682   6.952   6.625
 2465SOL    HW2 8295   6.670   0.066   6.537
 2466SOL     OW 8296   0.818   2.006   1.879
 2466SOL    HW1 8297   0.761   1.927   1.904
 2466SOL    HW2 8298   0.838   2.003   1.781
 2467SOL     OW 8299   5.287   3.247   4.970
 2467SOL    HW1 8300   5.348   3.323   4.947
 2467SOL    HW2 8301   5.237   3.269   5.053
 2468SOL     OW 8302   3.498   0.175   5.402
 2468SOL    HW1 8303   3.439   0.095   5.413
 2468SOL    HW2 8304   3.445   0.259   5.418
 2469SOL     OW 8305   3.370   2.104   6.106
 2469SOL    HW1 8306   3.412   2.054   6.030
 2469SOL    HW2 8307   3.334   2.191   6.072
 2470SOL     OW 8308   2.475   5.396   6.731
 2470SOL    HW1 8309   2.380   5.425   6.727
 2470SOL    HW2 8310   2.482   5.310   6.780
 2471SOL     OW 8311   2.886   5.087   1.994
 2471SOL    HW1 8312   2.983   5.111   2.004
 2471SOL    HW2 8313   2.831   5.169   2.006
 2472SOL     OW 8314   4.695   1.467   3.454
 2472SOL    HW1 8315   4.654   1.558   3.442
 2472SOL    HW2 8316   4.627   1.397   3.432
 2473SOL     OW 8317   0.413   3.905   3.819
 2473SOL    HW1 8318   0.489   3.916   3.755
 2473SOL    HW2 8319   0.399   3.808   3.837
 2474SOL     OW 8320   0.941   6.076   1.778
 2474SOL    HW1 8321   0.995   6.009   1.726
 2474SOL    HW2 8322   0.933   6.160   1.725
 2475SOL     OW 8323   4.761   1.149   0.433
 2475SOL    HW1 8324   4.816   1.090   0.493
 2475SOL    HW2 8325   4.804   1.154   0.343
 2476SOL     OW 8326   4.354   0.665   0.879
 2476SOL    HW1 8327   4.312   0.667   0.789
 2476SOL    HW2 8328   4.318   0.587   0.931
 2477SOL     OW 8329   3.814   0.259   3.507
 2477SOL    HW1 8330   3.823   0.358   3.517
 2477SOL    HW2 8331   3.721   0.237   3.477
 2478SOL     OW 8332   4.581   0.151   4.702
 2478SOL    HW1 8333   4.668   0.102   4.709
 2478SOL    HW2 8334   4.511   0.100   4.753
 2479SOL     OW 8335   5.751   3.267   1.470
 2479SOL    HW1 8336   5.772   3.362   1.444
 2479SOL    HW2 8337   5.818   3.206   1.430
 2480SOL     OW 8338   3.719   2.313   1.349
 2480SOL    HW1 8339   3.707   2.358   1.260
 2480SOL    HW2 8340   3.772   2.229   1.336
 2481SOL     OW 8341   3.152   6.747   2.308
 2481SOL    HW1 8342   3.082   6.729   2.377
 2481SOL    HW2 8343   3.233   6.693   2.326
 2482SOL     OW 8344   6.618   3.210   6.961
 2482SOL    HW1 8345   6.530   3.202   7.009
 2482SOL    HW2 8346   6.689   3.236   0.003
 2483SOL     OW 8347   1.780   2.520   0.752
 2483SOL    HW1 8348   1.710   2.517   0.680
 2483SOL    HW2 8349   1.796   2.615   0.778
 2484SOL     OW 8350   4.369   0.581   0.137
 2484SOL    HW1 8351   4.375   0.482   0.150
 2484SOL    HW2 8352   4.338   0.624   0.222
 2485SOL     OW 8353   0.691   2.347   6.042
 2485SOL    HW1 8354   0.633   2.271   6.070
 2485SOL    HW2 8355   0.779   2.341   6.090
 2486SOL     OW 8356   0.268   5.664   3.755
 2486SOL    HW1 8357   0.366   5.643   3.768
 2486SOL    HW2 8358   0.214   5.582   3.776
 2487SOL     OW 8359   4.503   6.028   0.116
 2487SOL    HW1 8360   4.522   6.035   0.018
 2487SOL    HW2 8361   4.501   6.119   0.156
 2488SOL     OW 8362   6.619   4.277   0.586
 2488SOL    HW1 8363   6.576   4.358   0.626
 2488SOL    HW2 8364   6.670   4.304   0.504
 2489SOL     OW 8365   6.139   5.263   4.455
 2489SOL    HW1 8366   6.130   5.326   4.531
 2489SOL    HW2 8367   6.090   5.298   4.375
 2490SOL     OW 8368   2.823   5.798   3.090
 2490SOL    HW1 8369   2.802   5.774   3.185
 2490SOL    HW2 8370   2.912   5.843   3.086
 2491SOL     OW 8371   3.750   4.584   1.534
 2491SOL    HW1 8372   3.686   4.520   1.577
 2491SOL    HW2 8373   3.726   4.597   1.438
 2492SOL     OW 8374   6.441   4.916   1.700
 2492SOL    HW1 8375   6.429   4.883   1.793
 2492SOL    HW2 8376   6.453   5.016   1.701
 2493SOL     OW 8377   5.340   6.801   1.010
 2493SOL    HW1 8378   5.317   6.709   1.043
 2493SOL    HW2 8379   5.439   6.810   1.005
 2494SOL     OW 8380   6.815   3.491   1.310
 2494SOL    HW1 8381   6.888   3.505   1.243
 2494SOL    HW2 8382   6.775   3.400   1.298
 2495SOL     OW 8383   0.607   4.496   1.993
 2495SOL    HW1 8384   0.697   4.510   1.952
 2495SOL    HW2 8385   0.605   4.540   2.083
 2496SOL     OW 8386   5.712   4.903   6.782
 2496SOL    HW1 8387   5.668   4.961   6.851
 2496SOL    HW2 8388   5.809   4.892   6.805
 2497SOL     OW 8389   0.315   6.994   2.115
 2497SOL    HW1 8390   0.410   6.968   2.131
 2497SOL    HW2 8391   0.298   0.062   2.154
 2498SOL     OW 8392   1.839   3.531   5.376
 2498SOL    HW1 8393   1.817   3.460   5.443
 2498SOL    HW2 8394   1.887   3.606   5.423
 2499SOL     OW 8395   0.349   3.778   1.545
 2499SOL    HW1 8396   0.362   3.793   1.447
 2499SOL    HW2 8397   0.261   3.815   1.574
 2500SOL     OW 8398   3.664   3.187   1.341
 2500SOL    HW1 8399   3.575   3.167   1.299
 2500SOL    HW2 8400   3.725   3.109   1.330
 2501SOL     OW 8401   6.153   5.430   6.403
 2501SOL    HW1 8402   6.082   5.463   6.465
 2501SOL    HW2 8403   6.169   5.498   6.331
 2502SOL     OW 8404   2.204   6.150   4.550
 2502SOL    HW1 8405   2.268   6.095   4.496
 2502SOL    HW2 8406   2.212   6.246   4.524
 2503SOL     OW 8407   3.076   6.701   5.844
 2503SOL    HW1 8408   3.105   6.759   5.921
 2503SOL    HW2 8409   3.065   6.607   5.876
 2504SOL     OW 8410   4.053   6.763   3.582
 2504SOL    HW1 8411   4.129   6.708   3.548
 2504SOL    HW2 8412   4.031   6.834   3.515
 2505SOL     OW 8413   0.007   4.360   4.046
 2505SOL    HW1 8414   7.013   4.289   4.113
 2505SOL    HW2 8415   6.978   4.341   3.963
 2506SOL     OW 8416   5.418   5.471   5.986
 2506SOL    HW1 8417   5.420   5.570   5.970
 2506SOL    HW2 8418   5.359   5.427   5.919
 2507SOL     OW 8419   6.590   2.908   1.914
 2507SOL    HW1 8420   6.596   2.847   1.992
 2507SOL    HW2 8421   6.514   2.972   1.927
 2508SOL     OW 8422   5.324   1.404   4.504
 2508SOL    HW1 8423   5.373   1.424   4.420
 2508SOL    HW2 8424   5.290   1.311   4.502
 2509SOL     OW 8425   0.447   3.594   5.703
 2509SOL    HW1 8426   0.362   3.582   5.754
 2509SOL    HW2 8427   0.522   3.608   5.767
 2510SOL     OW 8428   3.149   4.039   2.388
 2510SOL    HW1 8429   3.083   4.083   2.327
 2510SOL    HW2 8430   3.150   3.941   2.370
 2511SOL     OW 8431   2.095   0.256   4.374
 2511SOL    HW1 8432   2.171   0.320   4.375
 2511SOL    HW2 8433   2.129   0.164   4.357
 2512SOL     OW 8434   4.011   4.861   4.198
 2512SOL    HW1 8435   4.008   4.823   4.290
 2512SOL    HW2 8436   4.027   4.959   4.203
 2513SOL     OW 8437   2.565   5.434   6.045
 2513SOL    HW1 8438   2.528   5.347   6.079
 2513SOL    HW2 8439   2.624   5.474   6.115
 2514SOL     OW 8440   1.354   1.909   2.713
 2514SOL    HW1 8441   1.397   1.999   2.726
 2514SOL    HW2 8442   1.317   1.878   2.800
 2515SOL     OW 8443   0.814   1.291   1.517
 2515SOL    HW1 8444   0.832   1.295   1.419
 2515SOL    HW2 8445   0.901   1.283   1.566
 2516SOL     OW 8446   5.831   2.215   4.812
 2516SOL    HW1 8447   5.744   2.188   4.854
 2516SOL    HW2 8448   5.839   2.170   4.723
 2517SOL     OW 8449   1.301   1.374   3.949
 2517SOL    HW1 8450   1.327   1.288   3.993
 2517SOL    HW2 8451   1.236   1.356   3.875
 2518SOL     OW 8452   2.334   4.816   1.507
 2518SOL    HW1 8453   2.312   4.873   1.587
 2518SOL    HW2 8454   2.386   4.736   1.537
 2519SOL     OW 8455   0.910   1.203   1.019
 2519SOL    HW1 8456   0.911   1.127   0.955
 2519SOL    HW2 8457   0.965   1.278   0.983
 2520SOL     OW 8458   2.634   2.171   0.266
 2520SOL    HW1 8459   2.600   2.161   0.360
 2520SOL    HW2 8460   2.611   2.263   0.233
 2521SOL     OW 8461   4.926   1.008   5.153
 2521SOL    HW1 8462   4.897   1.001   5.248
 2521SOL    HW2 8463   4.926   0.917   5.111
 2522SOL     OW 8464   1.194   2.102   6.744
 2522SOL    HW1 8465   1.219   2.180   6.802
 2522SOL    HW2 8466   1.275   2.067   6.698
 2523SOL     OW 8467   1.551   5.260   6.904
 2523SOL    HW1 8468   1.601   5.345   6.888
 2523SOL    HW2 8469   1.617   5.187   6.923
 2524SOL     OW 8470   1.421   0.565   4.354
 2524SOL    HW1 8471   1.447   0.486   4.409
 2524SOL    HW2 8472   1.329   0.551   4.318
 2525SOL     OW 8473   6.676   2.648   5.352
 2525SOL    HW1 8474   6.620   2.617   5.275
 2525SOL    HW2 8475   6.741   2.717   5.320
 2526SOL     OW 8476   1.448   6.901   1.283
 2526SOL    HW1 8477   1.534   6.917   1.235
 2526SOL    HW2 8478   1.466   6.857   1.371
 2527SOL     OW 8479   4.742   5.149   6.201
 2527SOL    HW1 8480   4.734   5.247   6.180
 2527SOL    HW2 8481   4.653   5.106   6.186
 2528SOL     OW 8482   4.610   5.975   6.627
 2528SOL    HW1 8483   4.556   6.025   6.559
 2528SOL    HW2 8484   4.683   6.035   6.662
 2529SOL     OW 8485   0.629   7.013   6.366
 2529SOL    HW1 8486   0.581   0.071   6.331
 2529SOL    HW2 8487   0.571   6.933   6.357
 2530SOL     OW 8488   2.329   5.612   6.381
 2530SOL    HW1 8489   2.239   5.619   6.338
 2530SOL    HW2 8490   2.354   5.516   6.390
 2531SOL     OW 8491   0.084   5.450   6.508
 2531SOL    HW1 8492   7.016   5.411   6.491
 2531SOL    HW2 8493   0.143   5.434   6.429
 2532SOL     OW 8494   5.508   6.417   1.169
 2532SOL    HW1 8495   5.570   6.448   1.097
 2532SOL    HW2 8496   5.485   6.321   1.155
 2533SOL     OW 8497   4.752   0.681   4.012
 2533SOL    HW1 8498   4.839   0.725   3.992
 2533SOL    HW2 8499   4.725   0.701   4.106
 2534SOL     OW 8500   4.066   1.279   2.919
 2534SOL    HW1 8501   4.086   1.376   2.933
 2534SOL    HW2 8502   4.068   1.258   2.821
 2535SOL     OW 8503   3.835   2.962   6.545
 2535SOL    HW1 8504   3.910   3.027   6.533
 2535SOL    HW2 8505   3.775   2.965   6.466
 2536SOL     OW 8506   1.310   1.184   0.786
 2536SOL    HW1 8507   1.249   1.203   0.710
 2536SOL    HW2 8508   1.261   1.198   0.873
 2537SOL     OW 8509   3.945   6.983   6.655
 2537SOL    HW1 8510   3.900   6.894   6.660
 2537SOL    HW2 8511   3.894   0.020   6.594
 2538SOL     OW 8512   6.443   3.132   3.527
 2538SOL    HW1 8513   6.478   3.095   3.612
 2538SOL    HW2 8514   6.404   3.223   3.544
 2539SOL     OW 8515   5.465   2.555   5.540
 2539SOL    HW1 8516   5.510   2.465   5.544
 2539SOL    HW2 8517   5.511   2.618   5.602
 2540SOL     OW 8518   2.754   1.774   1.770
 2540SOL    HW1 8519   2.831   1.759   1.708
 2540SOL    HW2 8520   2.786   1.774   1.864
 2541SOL     OW 8521   4.002   6.513   4.369
 2541SOL    HW1 8522   3.985   6.416   4.386
 2541SOL    HW2 8523   3.985   6.565   4.452
 2542SOL     OW 8524   1.948   5.243   6.557
 2542SOL    HW1 8525   2.046   5.245   6.536
 2542SOL    HW2 8526   1.910   5.335   6.546
 2543SOL     OW 8527   1.186   1.250   3.265
 2543SOL    HW1 8528   1.275   1.291   3.245
 2543SOL    HW2 8529   1.169   1.174   3.203
 2544SOL     OW 8530   1.128   5.626   6.953
 2544SOL    HW1 8531   1.056   5.695   6.953
 2544SOL    HW2 8532   1.149   5.601   0.025
 2545SOL     OW 8533   3.029   5.984   3.026
 2545SOL    HW1 8534   3.129   5.981   3.030
 2545SOL    HW2 8535   2.994   6.047   3.094
 2546SOL     OW 8536   6.804   1.451   1.152
 2546SOL    HW1 8537   6.783   1.516   1.226
 2546SOL    HW2 8538   6.883   1.396   1.178
 2547SOL     OW 8539   0.869   3.542   4.747
 2547SOL    HW1 8540   0.873   3.582   4.839
 2547SOL    HW2 8541   0.962   3.523   4.715
 2548SOL     OW 8542   0.893   0.263   4.233
 2548SOL    HW1 8543   0.896   0.315   4.319
 2548SOL    HW2 8544   0.812   0.289   4.181
 2549SOL     OW 8545   6.482   2.517   1.412
 2549SOL    HW1 8546   6.393   2.556   1.393
 2549SOL    HW2 8547   6.481   2.419   1.392
 2550SOL     OW 8548   5.987   6.285   0.128
 2550SOL    HW1 8549   5.944   6.369   0.161
 2550SOL    HW2 8550   6.043   6.245   0.201
 2551SOL     OW 8551   1.210   4.482   6.544
 2551SOL    HW1 8552   1.110   4.487   6.544
 2551SOL    HW2 8553   1.242   4.467   6.638
 2552SOL     OW 8554   1.836   5.338   3.265
 2552SOL    HW1 8555   1.854   5.283   3.347
 2552SOL    HW2 8556   1.749   5.310   3.225
 2553SOL     OW 8557   4.239   3.554   6.875
 2553SOL    HW1 8558   4.162   3.532   6.816
 2553SOL    HW2 8559   4.286   3.636   6.840
 2554SOL     OW 8560   1.947   1.432   0.215
 2554SOL    HW1 8561   1.914   1.505   0.274
 2554SOL    HW2 8562   1.869   1.387   0.171
 2555SOL     OW 8563   6.251   1.056   6.631
 2555SOL    HW1 8564   6.295   1.142   6.657
 2555SOL    HW2 8565   6.234   1.055   6.533
 2556SOL     OW 8566   3.012   5.636   0.730
 2556SOL    HW1 8567   3.022   5.732   0.705
 2556SOL    HW2 8568   3.032   5.625   0.828
 2557SOL     OW 8569   1.890   4.209   0.159
 2557SOL    HW1 8570   1.886   4.214   0.059
 2557SOL    HW2 8571   1.815   4.151   0.192
 2558SOL     OW 8572   3.832   0.255   5.792
 2558SOL    HW1 8573   3.910   0.203   5.758
 2558SOL    HW2 8574   3.833   0.346   5.751
 2559SOL     OW 8575   0.073   5.325   4.940
 2559SOL    HW1 8576   0.013   5.355   5.014
 2559SOL    HW2 8577   0.061   5.385   4.860
 2560SOL     OW 8578   6.364   1.290   7.010
 2560SOL    HW1 8579   6.396   1.288   0.082
 2560SOL    HW2 8580   6.333   1.199   6.984
 2561SOL     OW 8581   3.459   5.478   4.792
 2561SOL    HW1 8582   3.469   5.405   4.724
 2561SOL    HW2 8583   3.546   5.525   4.804
 2562SOL     OW 8584   2.033   4.003   6.621
 2562SOL    HW1 8585   1.940   4.017   6.656
 2562SOL    HW2 8586   2.052   4.071   6.549
 2563SOL     OW 8587   1.713   0.981   0.092
 2563SOL    HW1 8588   1.727   0.956   0.187
 2563SOL    HW2 8589   1.727   1.080   0.081
 2564SOL     OW 8590   1.359   6.154   1.541
 2564SOL    HW1 8591   1.389   6.080   1.602
 2564SOL    HW2 8592   1.359   6.121   1.447
 2565SOL     OW 8593   1.388   0.600   1.502
 2565SOL    HW1 8594   1.403   0.635   1.594
 2565SOL    HW2 8595   1.305   0.545   1.500
 2566SOL     OW 8596   1.750   6.754   6.191
 2566SOL    HW1 8597   1.828   6.747   6.128
 2566SOL    HW2 8598   1.697   6.669   6.187
 2567SOL     OW 8599   0.563   6.658   0.627
 2567SOL    HW1 8600   0.487   6.722   0.620
 2567SOL    HW2 8601   0.579   6.616   0.538
 2568SOL     OW 8602   5.289   3.679   0.028
 2568SOL    HW1 8603   5.339   3.692   6.965
 2568SOL    HW2 8604   5.301   3.585   0.059
 2569SOL     OW 8605   2.726   0.672   2.835
 2569SOL    HW1 8606   2.685   0.654   2.924
 2569SOL    HW2 8607   2.761   0.766   2.832
 2570SOL     OW 8608   5.248   2.524   6.465
 2570SOL    HW1 8609   5.175   2.588   6.440
 2570SOL    HW2 8610   5.212   2.455   6.528
 2571SOL     OW 8611   1.068   3.935   4.544
 2571SOL    HW1 8612   1.146   3.892   4.498
 2571SOL    HW2 8613   0.983   3.906   4.501
 2572SOL     OW 8614   1.427   4.822   4.013
 2572SOL    HW1 8615   1.412   4.864   3.924
 2572SOL    HW2 8616   1.516   4.778   4.015
 2573SOL     OW 8617   1.177   0.213   0.680
 2573SOL    HW1 8618   1.205   0.308   0.693
 2573SOL    HW2 8619   1.078   0.205   0.698
 2574SOL     OW 8620   5.991   3.361   0.615
 2574SOL    HW1 8621   5.992   3.276   0.561
 2574SOL    HW2 8622   5.897   3.383   0.640
 2575SOL     OW 8623   0.752   5.871   5.814
 2575SOL    HW1 8624   0.833   5.814   5.800
 2575SOL    HW2 8625   0.778   5.953   5.864
 2576SOL     OW 8626   4.269   5.631   4.100
 2576SOL    HW1 8627   4.254   5.591   4.010
 2576SOL    HW2 8628   4.258   5.730   4.095
 2577SOL     OW 8629   2.271   4.180   2.260
 2577SOL    HW1 8630   2.328   4.200   2.339
 2577SOL    HW2 8631   2.318   4.210   2.177
 2578SOL     OW 8632   4.090   2.240   3.054
 2578SOL    HW1 8633   4.177   2.290   3.048
 2578SOL    HW2 8634   4.059   2.217   2.961
 2579SOL     OW 8635   1.297   6.701   3.238
 2579SOL    HW1 8636   1.377   6.760   3.227
 2579SOL    HW2 8637   1.309   6.643   3.319
 2580SOL     OW 8638   2.042   1.781   6.259
 2580SOL    HW1 8639   2.110   1.842   6.219
 2580SOL    HW2 8640   1.954   1.795   6.214
 2581SOL     OW 8641   3.581   0.640   5.496
 2581SOL    HW1 8642   3.483   0.641   5.516
 2581SOL    HW2 8643   3.595   0.628   5.397
 2582SOL     OW 8644   6.833   3.026   1.986
 2582SOL    HW1 8645   6.748   2.981   1.957
 2582SOL    HW2 8646   6.867   2.981   2.069
 2583SOL     OW 8647   6.004   0.364   0.566
 2583SOL    HW1 8648   5.920   0.311   0.570
 2583SOL    HW2 8649   6.063   0.339   0.643
 2584SOL     OW 8650   3.902   4.719   6.216
 2584SOL    HW1 8651   3.994   4.700   6.249
 2584SOL    HW2 8652   3.835   4.672   6.275
 2585SOL     OW 8653   3.046   4.519   6.475
 2585SOL    HW1 8654   3.032   4.615   6.499
 2585SOL    HW2 8655   3.088   4.513   6.384
 2586SOL     OW 8656   2.802   0.715   3.491
 2586SOL    HW1 8657   2.809   0.749   3.398
 2586SOL    HW2 8658   2.719   0.750   3.534
 2587SOL     OW 8659   6.689   0.884   4.015
 2587SOL    HW1 8660   6.748   0.849   4.088
 2587SOL    HW2 8661   6.668   0.811   3.951
 2588SOL     OW 8662   4.619   0.816   6.435
 2588SOL    HW1 8663   4.623   0.830   6.336
 2588SOL    HW2 8664   4.637   0.903   6.482
 2589SOL     OW 8665   2.100   6.518   0.347
 2589SOL    HW1 8666   2.112   6.511   0.248
 2589SOL    HW2 8667   2.178   6.566   0.387
 2590SOL     OW 8668   2.534   5.454   0.152
 2590SOL    HW1 8669   2.535   5.389   0.076
 2590SOL    HW2 8670   2.453   5.513   0.145
 2591SOL     OW 8671   6.380   5.633   3.628
 2591SOL    HW1 8672   6.288   5.659   3.597
 2591SOL    HW2 8673   6.398   5.675   3.717
 2592SOL     OW 8674   2.765   3.846   0.884
 2592SOL    HW1 8675   2.747   3.749   0.875
 2592SOL    HW2 8676   2.724   3.880   0.968
 2593SOL     OW 8677   3.646   4.012   0.808
 2593SOL    HW1 8678   3.645   4.021   0.908
 2593SOL    HW2 8679   3.681   3.922   0.783
 2594SOL     OW 8680   1.942   3.135   4.587
 2594SOL    HW1 8681   1.889   3.083   4.654
 2594SOL    HW2 8682   1.890   3.214   4.556
 2595SOL     OW 8683   1.927   1.290   2.787
 2595SOL    HW1 8684   2.001   1.250   2.841
 2595SOL    HW2 8685   1.965   1.361   2.727
 2596SOL     OW 8686   1.298   1.689   0.524
 2596SOL    HW1 8687   1.218   1.748   0.539
 2596SOL    HW2 8688   1.273   1.613   0.464
 2597SOL     OW 8689   6.969   6.427   0.329
 2597SOL    HW1 8690   6.976   6.490   0.406
 2597SOL    HW2 8691   7.001   6.473   0.246
 2598SOL     OW 8692   5.840   2.207   2.638
 2598SOL    HW1 8693   5.823   2.303   2.661
 2598SOL    HW2 8694   5.778   2.180   2.564
 2599SOL     OW 8695   2.951   5.789   2.177
 2599SOL    HW1 8696   3.050   5.793   2.193
 2599SOL    HW2 8697   2.916   5.882   2.164
 2600SOL     OW 8698   5.704   4.025   4.459
 2600SOL    HW1 8699   5.767   4.096   4.428
 2600SOL    HW2 8700   5.737   3.987   4.546
 2601SOL     OW 8701   6.598   1.376   3.508
 2601SOL    HW1 8702   6.586   1.278   3.491
 2601SOL    HW2 8703   6.689   1.404   3.477
 2602SOL     OW 8704   0.984   4.257   2.986
 2602SOL    HW1 8705   1.031   4.333   3.031
 2602SOL    HW2 8706   0.969   4.279   2.889
 2603SOL     OW 8707   2.580   6.098   2.664
 2603SOL    HW1 8708   2.561   6.005   2.633
 2603SOL    HW2 8709   2.510   6.127   2.729
 2604SOL     OW 8710   4.751   2.657   3.375
 2604SOL    HW1 8711   4.795   2.737   3.416
 2604SOL    HW2 8712   4.740   2.586   3.445
 2605SOL     OW 8713   1.792   3.642   1.898
 2605SOL    HW1 8714   1.878   3.600   1.925
 2605SOL    HW2 8715   1.799   3.741   1.903
 2606SOL     OW 8716   4.842   3.738   1.044
 2606SOL    HW1 8717   4.810   3.809   1.106
 2606SOL    HW2 8718   4.906   3.777   0.978
 2607SOL     OW 8719   2.586   2.139   1.334
 2607SOL    HW1 8720   2.565   2.237   1.334
 2607SOL    HW2 8721   2.627   2.113   1.421
 2608SOL     OW 8722   2.545   5.114   5.823
 2608SOL    HW1 8723   2.475   5.168   5.777
 2608SOL    HW2 8724   2.573   5.038   5.763
 2609SOL     OW 8725   0.165   2.454   0.699
 2609SOL    HW1 8726   0.233   2.398   0.652
 2609SOL    HW2 8727   0.074   2.430   0.666
 2610SOL     OW 8728   1.824   4.126   4.851
 2610SOL    HW1 8729   1.780   4.055   4.795
 2610SOL    HW2 8730   1.856   4.085   4.937
 2611SOL     OW 8731   5.121   0.294   6.637
 2611SOL    HW1 8732   5.072   0.381   6.642
 2611SOL    HW2 8733   5.208   0.306   6.590
 2612SOL     OW 8734   6.657   0.104   6.120
 2612SOL    HW1 8735   6.743   0.153   6.106
 2612SOL    HW2 8736   6.673   0.019   6.169
 2613SOL     OW 8737   0.838   6.816   6.816
 2613SOL    HW1 8738   0.883   6.768   6.741
 2613SOL    HW2 8739   0.861   6.772   6.902
 2614SOL     OW 8740   6.000   1.833   6.795
 2614SOL    HW1 8741   6.074   1.892   6.827
 2614SOL    HW2 8742   6.036   1.744   6.770
 2615SOL     OW 8743   0.491   3.243   6.749
 2615SOL    HW1 8744   0.512   3.146   6.749
 2615SOL    HW2 8745   0.393   3.257   6.734
 2616SOL     OW 8746   1.306   1.143   5.052
 2616SOL    HW1 8747   1.317   1.065   5.114
 2616SOL    HW2 8748   1.380   1.209   5.067
 2617SOL     OW 8749   4.871   0.547   1.549
 2617SOL    HW1 8750   4.791   0.606   1.542
 2617SOL    HW2 8751   4.885   0.499   1.462
 2618SOL     OW 8752   1.247   6.382   6.321
 2618SOL    HW1 8753   1.168   6.424   6.277
 2618SOL    HW2 8754   1.292   6.451   6.379
 2619SOL     OW 8755   4.758   1.119   2.785
 2619SOL    HW1 8756   4.779   1.216   2.797
 2619SOL    HW2 8757   4.824   1.078   2.721
 2620SOL     OW 8758   6.122   1.746   1.330
 2620SOL    HW1 8759   6.169   1.827   1.293
 2620SOL    HW2 8760   6.098   1.763   1.426
 2621SOL     OW 8761   1.687   6.098   1.568
 2621SOL    HW1 8762   1.589   6.114   1.565
 2621SOL    HW2 8763   1.705   6.001   1.585
 2622SOL     OW 8764   2.787   3.845   6.840
 2622SOL    HW1 8765   2.851   3.922   6.846
 2622SOL    HW2 8766   2.757   3.834   6.746
 2623SOL     OW 8767   0.061   6.251   3.692
 2623SOL    HW1 8768   0.019   6.223   3.779
 2623SOL    HW2 8769   0.039   6.183   3.622
 2624SOL     OW 8770   0.893   1.444   4.808
 2624SOL    HW1 8771   0.959   1.371   4.824
 2624SOL    HW2 8772   0.891   1.505   4.887
 2625SOL     OW 8773   2.736   4.904   6.569
 2625SOL    HW1 8774   2.747   5.001   6.591
 2625SOL    HW2 8775   2.671   4.863   6.633
 2626SOL     OW 8776   6.937   6.343   6.597
 2626SOL    HW1 8777   6.963   6.413   6.664
 2626SOL    HW2 8778   7.005   6.271   6.595
 2627SOL     OW 8779   2.041   0.168   6.300
 2627SOL    HW1 8780   2.127   0.167   6.351
 2627SOL    HW2 8781   1.975   0.106   6.344
 2628SOL     OW 8782   0.388   4.450   1.128
 2628SOL    HW1 8783   0.413   4.375   1.189
 2628SOL    HW2 8784   0.451   4.527   1.141
 2629SOL     OW 8785   3.407   4.101   2.407
 2629SOL    HW1 8786   3.307   4.109   2.397
 2629SOL    HW2 8787   3.439   4.020   2.359
 2630SOL     OW 8788   4.031   0.717   4.366
 2630SOL    HW1 8789   4.046   0.786   4.437
 2630SOL    HW2 8790   3.942   0.733   4.322
 2631SOL     OW 8791   5.375   6.959   0.022
 2631SOL    HW1 8792   5.465   7.004   0.024
 2631SOL    HW2 8793   5.312   7.009   0.081
 2632SOL     OW 8794   5.862   5.201   2.235
 2632SOL    HW1 8795   5.798   5.188   2.160
 2632SOL    HW2 8796   5.826   5.156   2.317
 2633SOL     OW 8797   0.130   3.378   6.078
 2633SOL    HW1 8798   0.096   3.425   6.159
 2633SOL    HW2 8799   0.176   3.443   6.018
 2634SOL     OW 8800   0.611   1.251   5.402
 2634SOL    HW1 8801   0.668   1.303   5.467
 2634SOL    HW2 8802   0.634   1.154   5.408
 2635SOL     OW 8803   4.500   5.163   3.823
 2635SOL    HW1 8804   4.512   5.071   3.860
 2635SOL    HW2 8805   4.531   5.230   3.889
 2636SOL     OW 8806   3.594   6.740   6.114
 2636SOL    HW1 8807   3.589   6.683   6.196
 2636SOL    HW2 8808   3.521   6.715   6.051
 2637SOL     OW 8809   0.538   1.108   3.091
 2637SOL    HW1 8810   0.635   1.093   3.069
 2637SOL    HW2 8811   0.484   1.106   3.006
 2638SOL     OW 8812   1.045   6.445   4.407
 2638SOL    HW1 8813   1.117   6.501   4.366
 2638SOL    HW2 8814   1.081   6.355   4.429
 2639SOL     OW 8815   4.300   4.764   4.612
 2639SOL    HW1 8816   4.376   4.826   4.632
 2639SOL    HW2 8817   4.305   4.685   4.673
 2640SOL     OW 8818   2.538   0.769   3.563
 2640SOL    HW1 8819   2.497   0.849   3.607
 2640SOL    HW2 8820   2.505   0.686   3.607
 2641SOL     OW 8821   5.535   2.001   0.111
 2641SOL    HW1 8822   5.466   1.929   0.107
 2641SOL    HW2 8823   5.624   1.962   0.089
 2642SOL     OW 8824   6.416   0.243   3.076
 2642SOL    HW1 8825   6.507   0.272   3.105
 2642SOL    HW2 8826   6.349   0.265   3.148
 2643SOL     OW 8827   1.919   4.657   4.266
 2643SOL    HW1 8828   2.019   4.652   4.258
 2643SOL    HW2 8829   1.883   4.715   4.193
 2644SOL     OW 8830   5.601   5.549   4.824
 2644SOL    HW1 8831   5.636   5.570   4.916
 2644SOL    HW2 8832   5.527   5.482   4.832
 2645SOL     OW 8833   4.836   5.831   3.407
 2645SOL    HW1 8834   4.812   5.738   3.380
 2645SOL    HW2 8835   4.773   5.896   3.364
 2646SOL     OW 8836   0.896   2.361   6.262
 2646SOL    HW1 8837   0.914   2.311   6.346
 2646SOL    HW2 8838   0.919   2.458   6.275
 2647SOL     OW 8839   4.675   6.781   2.635
 2647SOL    HW1 8840   4.610   6.712   2.603
 2647SOL    HW2 8841   4.689   6.849   2.562
 2648SOL     OW 8842   0.876   6.927   6.238
 2648SOL    HW1 8843   0.789   6.969   6.265
 2648SOL    HW2 8844   0.944   6.999   6.220
 2649SOL     OW 8845   5.154   1.624   3.601
 2649SOL    HW1 8846   5.153   1.529   3.632
 2649SOL    HW2 8847   5.112   1.630   3.511
 2650SOL     OW 8848   2.733   6.829   3.798
 2650SOL    HW1 8849   2.642   6.863   3.825
 2650SOL    HW2 8850   2.752   6.743   3.846
 2651SOL     OW 8851   3.994   2.198   4.124
 2651SOL    HW1 8852   4.077   2.249   4.144
 2651SOL    HW2 8853   3.962   2.153   4.208
 2652SOL     OW 8854   5.050   4.087   5.449
 2652SOL    HW1 8855   4.989   4.166   5.454
 2652SOL    HW2 8856   5.144   4.118   5.438
 2653SOL     OW 8857   2.363   6.318   6.769
 2653SOL    HW1 8858   2.278   6.367   6.750
 2653SOL    HW2 8859   2.437   6.358   6.714
 2654SOL     OW 8860   0.176   1.045   0.738
 2654SOL    HW1 8861   0.231   1.121   0.770
 2654SOL    HW2 8862   0.082   1.055   0.770
 2655SOL     OW 8863   5.283   6.438   2.799
 2655SOL    HW1 8864   5.259   6.368   2.732
 2655SOL    HW2 8865   5.261   6.406   2.891
 2656SOL     OW 8866   4.265   5.951   3.660
 2656SOL    HW1 8867   4.352   5.957   3.609
 2656SOL    HW2 8868   4.190   5.979   3.600
 2657SOL     OW 8869   1.223   3.838   6.733
 2657SOL    HW1 8870   1.297   3.849   6.668
 2657SOL    HW2 8871   1.258   3.845   6.826
 2658SOL     OW 8872   4.020   5.326   0.508
 2658SOL    HW1 8873   4.053   5.233   0.492
 2658SOL    HW2 8874   4.052   5.358   0.597
 2659SOL     OW 8875   0.070   2.427   5.131
 2659SOL    HW1 8876   0.021   2.361   5.074
 2659SOL    HW2 8877   0.161   2.392   5.152
 2660SOL     OW 8878   0.387   1.577   1.019
 2660SOL    HW1 8879   0.471   1.613   1.059
 2660SOL    HW2 8880   0.308   1.615   1.069
 2661SOL     OW 8881   1.627   1.371   1.048
 2661SOL    HW1 8882   1.551   1.428   1.019
 2661SOL    HW2 8883   1.606   1.275   1.031
 2662SOL     OW 8884   2.850   1.921   2.092
 2662SOL    HW1 8885   2.826   1.825   2.074
 2662SOL    HW2 8886   2.941   1.925   2.132
 2663SOL     OW 8887   3.838   0.145   0.528
 2663SOL    HW1 8888   3.899   0.072   0.560
 2663SOL    HW2 8889   3.769   0.107   0.467
 2664SOL     OW 8890   4.859   3.589   5.449
 2664SOL    HW1 8891   4.897   3.646   5.522
 2664SOL    HW2 8892   4.770   3.554   5.477
 2665SOL     OW 8893   1.815   3.322   3.791
 2665SOL    HW1 8894   1.819   3.400   3.854
 2665SOL    HW2 8895   1.907   3.298   3.762
 2666SOL     OW 8896   2.019   4.056   1.498
 2666SOL    HW1 8897   1.971   4.136   1.463
 2666SOL    HW2 8898   1.975   4.024   1.582
 2667SOL     OW 8899   6.353   2.894   5.699
 2667SOL    HW1 8900   6.391   2.949   5.625
 2667SOL    HW2 8901   6.426   2.864   5.760
 2668SOL     OW 8902   6.455   0.414   2.838
 2668SOL    HW1 8903   6.421   0.344   2.901
 2668SOL    HW2 8904   6.533   0.462   2.879
 2669SOL     OW 8905   2.358   1.084   0.722
 2669SOL    HW1 8906   2.361   0.991   0.759
 2669SOL    HW2 8907   2.282   1.134   0.763
 2670SOL     OW 8908   7.017   0.160   6.607
 2670SOL    HW1 8909   0.089   0.163   6.576
 2670SOL    HW2 8910   6.965   0.097   6.549
 2671SOL     OW 8911   5.375   4.798   6.098
 2671SOL    HW1 8912   5.436   4.750   6.035
 2671SOL    HW2 8913   5.419   4.807   6.187
 2672SOL     OW 8914   2.920   0.949   1.671
 2672SOL    HW1 8915   2.900   0.851   1.664
 2672SOL    HW2 8916   2.842   1.001   1.635
 2673SOL     OW 8917   3.822   0.161   2.678
 2673SOL    HW1 8918   3.863   0.241   2.722
 2673SOL    HW2 8919   3.805   0.090   2.747
 2674SOL     OW 8920   0.227   5.743   3.063
 2674SOL    HW1 8921   0.233   5.835   3.103
 2674SOL    HW2 8922   0.132   5.712   3.067
 2675SOL     OW 8923   4.461   1.077   5.075
 2675SOL    HW1 8924   4.398   1.133   5.021
 2675SOL    HW2 8925   4.551   1.120   5.077
 2676SOL     OW 8926   3.953   3.989   3.854
 2676SOL    HW1 8927   4.017   3.930   3.904
 2676SOL    HW2 8928   3.890   4.032   3.919
 2677SOL     OW 8929   1.637   5.854   1.124
 2677SOL    HW1 8930   1.594   5.819   1.207
 2677SOL    HW2 8931   1.612   5.795   1.047
 2678SOL     OW 8932   3.778   1.975   2.693
 2678SOL    HW1 8933   3.755   2.032   2.771
 2678SOL    HW2 8934   3.850   2.019   2.639
 2679SOL     OW 8935   2.157   3.177   2.384
 2679SOL    HW1 8936   2.130   3.251   2.446
 2679SOL    HW2 8937   2.160   3.212   2.290
 2680SOL     OW 8938   5.906   2.726   0.129
 2680SOL    HW1 8939   5.861   2.642   0.156
 2680SOL    HW2 8940   5.873   2.755   0.040
 2681SOL     OW 8941   2.282   2.415   3.483
 2681SOL    HW1 8942   2.286   2.381   3.577
 2681SOL    HW2 8943   2.226   2.354   3.428
 2682SOL     OW 8944   3.666   3.788   1.638
 2682SOL    HW1 8945   3.628   3.720   1.576
 2682SOL    HW2 8946   3.631   3.774   1.730
 2683SOL     OW 8947   2.255   4.174   1.351
 2683SOL    HW1 8948   2.226   4.175   1.447
 2683SOL    HW2 8949   2.348   4.209   1.344
 2684SOL     OW 8950   6.558   0.250   3.790
 2684SOL    HW1 8951   6.601   0.324   3.738
 2684SOL    HW2 8952   6.627   0.181   3.812
 2685SOL     OW 8953   0.693   6.534   5.889
 2685SOL    HW1 8954   0.700   6.612   5.826
 2685SOL    HW2 8955   0.769   6.472   5.873
 2686SOL     OW 8956   1.435   0.694   5.685
 2686SOL    HW1 8957   1.496   0.660   5.756
 2686SOL    HW2 8958   1.389   0.777   5.716
 2687SOL     OW 8959   4.198   1.757   1.623
 2687SOL    HW1 8960   4.256   1.835   1.597
 2687SOL    HW2 8961   4.121   1.749   1.560
 2688SOL     OW 8962   4.013   2.578   0.345
 2688SOL    HW1 8963   4.022   2.604   0.441
 2688SOL    HW2 8964   3.929   2.618   0.308
 2689SOL     OW 8965   1.119   3.522   3.202
 2689SOL    HW1 8966   1.176   3.476   3.134
 2689SOL    HW2 8967   1.091   3.612   3.166
 2690SOL     OW 8968   4.657   1.324   5.627
 2690SOL    HW1 8969   4.685   1.379   5.548
 2690SOL    HW2 8970   4.616   1.239   5.595
 2691SOL     OW 8971   0.222   4.122   5.008
 2691SOL    HW1 8972   0.274   4.065   5.073
 2691SOL    HW2 8973   0.161   4.182   5.059
 2692SOL     OW 8974   2.323   5.807   2.059
 2692SOL    HW1 8975   2.421   5.786   2.059
 2692SOL    HW2 8976   2.299   5.855   2.143
 2693SOL     OW 8977   0.865   6.160   3.223
 2693SOL    HW1 8978   0.949   6.191   3.179
 2693SOL    HW2 8979   0.887   6.086   3.288
 2694SOL     OW 8980   2.400   0.294   2.377
 2694SOL    HW1 8981   2.335   0.256   2.442
 2694SOL    HW2 8982   2.437   0.221   2.320
 2695SOL     OW 8983   0.100   5.043   3.897
 2695SOL    HW1 8984   0.071   5.001   3.983
 2695SOL    HW2 8985   0.029   5.031   3.828
 2696SOL     OW 8986   4.331   5.072   6.385
 2696SOL    HW1 8987   4.302   5.014   6.462
 2696SOL    HW2 8988   4.263   5.065   6.312
 2697SOL     OW 8989   3.904   2.030   0.375
 2697SOL    HW1 8990   3.852   2.064   0.297
 2697SOL    HW2 8991   3.841   2.009   0.450
 2698SOL     OW 8992   1.521   5.433   6.117
 2698SOL    HW1 8993   1.603   5.483   6.091
 2698SOL    HW2 8994   1.545   5.356   6.176
 2699SOL     OW 8995   2.556   6.503   2.395
 2699SOL    HW1 8996   2.463   6.534   2.376
 2699SOL    HW2 8997   2.554   6.411   2.434
 2700SOL     OW 8998   4.342   1.947   1.514
 2700SOL    HW1 8999   4.350   2.045   1.492
 2700SOL    HW2 9000   4.342   1.894   1.429
 2701SOL     OW 9001   4.949   3.799   4.873
 2701SOL    HW1 9002   4.887   3.839   4.807
 2701SOL    HW2 9003   4.903   3.726   4.923
 2702SOL     OW 9004   2.445   1.139   4.786
 2702SOL    HW1 9005   2.410   1.213   4.843
 2702SOL    HW2 9006   2.534   1.110   4.822
 2703SOL     OW 9007   2.537   6.402   2.703
 2703SOL    HW1 9008   2.610   6.461   2.670
 2703SOL    HW2 9009   2.542   6.314   2.655
 2704SOL     OW 9010   4.783   0.442   3.609
 2704SOL    HW1 9011   4.684   0.457   3.603
 2704SOL    HW2 9012   4.804   0.390   3.692
 2705SOL     OW 9013   0.729   0.637   5.199
 2705SOL    HW1 9014   0.742   0.644   5.298
 2705SOL    HW2 9015   0.674   0.714   5.167
 2706SOL     OW 9016   6.883   4.331   3.821
 2706SOL    HW1 9017   6.882   4.380   3.734
 2706SOL    HW2 9018   6.811   4.262   3.821
 2707SOL     OW 9019   4.210   1.288   3.676
 2707SOL    HW1 9020   4.266   1.320   3.600
 2707SOL    HW2 9021   4.257   1.213   3.722
 2708SOL     OW 9022   5.246   3.555   5.878
 2708SOL    HW1 9023   5.265   3.456   5.880
 2708SOL    HW2 9024   5.212   3.580   5.788
 2709SOL     OW 9025   4.378   1.578   5.676
 2709SOL    HW1 9026   4.372   1.586   5.776
 2709SOL    HW2 9027   4.350   1.664   5.634
 2710SOL     OW 9028   1.151   2.931   4.455
 2710SOL    HW1 9029   1.210   3.010   4.441
 2710SOL    HW2 9030   1.202   2.848   4.434
 2711SOL     OW 9031   3.869   0.862   1.791
 2711SOL    HW1 9032   3.770   0.856   1.791
 2711SOL    HW2 9033   3.905   0.825   1.705
 2712SOL     OW 9034   5.155   6.091   2.331
 2712SOL    HW1 9035   5.062   6.069   2.362
 2712SOL    HW2 9036   5.158   6.186   2.301
 2713SOL     OW 9037   3.729   4.935   5.512
 2713SOL    HW1 9038   3.778   4.959   5.429
 2713SOL    HW2 9039   3.690   5.018   5.553
 2714SOL     OW 9040   3.071   4.458   5.960
 2714SOL    HW1 9041   3.052   4.360   5.952
 2714SOL    HW2 9042   3.160   4.478   5.919
 2715SOL     OW 9043   4.271   6.958   6.524
 2715SOL    HW1 9044   4.341   6.967   6.595
 2715SOL    HW2 9045   4.219   6.874   6.539
 2716SOL     OW 9046   4.138   0.545   2.769
 2716SOL    HW1 9047   4.105   0.631   2.809
 2716SOL    HW2 9048   4.212   0.509   2.826
 2717SOL     OW 9049   1.041   2.276   1.723
 2717SOL    HW1 9050   1.004   2.291   1.631
 2717SOL    HW2 9051   1.123   2.219   1.718
 2718SOL     OW 9052   6.446   1.935   5.587
 2718SOL    HW1 9053   6.433   1.899   5.680
 2718SOL    HW2 9054   6.438   1.860   5.522
 2719SOL     OW 9055   1.634   5.224   4.013
 2719SOL    HW1 9056   1.600   5.140   4.057
 2719SOL    HW2 9057   1.691   5.200   3.935
 2720SOL     OW 9058   1.870   5.836   6.287
 2720SOL    HW1 9059   1.785   5.815   6.336
 2720SOL    HW2 9060   1.851   5.840   6.188
 2721SOL     OW 9061   2.367   6.708   1.725
 2721SOL    HW1 9062   2.442   6.697   1.661
 2721SOL    HW2 9063   2.351   6.806   1.742
 2722SOL     OW 9064   3.813   4.967   6.609
 2722SOL    HW1 9065   3.717   4.967   6.636
 2722SOL    HW2 9066   3.852   4.877   6.624
 2723SOL     OW 9067   3.776   6.366   6.720
 2723SOL    HW1 9068   3.707   6.320   6.663
 2723SOL    HW2 9069   3.832   6.426   6.662
 2724SOL     OW 9070   6.857   5.360   0.732
 2724SOL    HW1 9071   6.777   5.413   0.758
 2724SOL    HW2 9072   6.844   5.265   0.759
 2725SOL     OW 9073   5.725   4.514   3.712
 2725SOL    HW1 9074   5.730   4.414   3.699
 2725SOL    HW2 9075   5.632   4.540   3.738
 2726SOL     OW 9076   6.071   1.490   2.702
 2726SOL    HW1 9077   6.036   1.523   2.615
 2726SOL    HW2 9078   6.032   1.400   2.721
 2727SOL     OW 9079   1.394   5.833   3.354
 2727SOL    HW1 9080   1.436   5.800   3.438
 2727SOL    HW2 9081   1.418   5.773   3.278
 2728SOL     OW 9082   4.165   5.648   6.440
 2728SOL    HW1 9083   4.178   5.647   6.539
 2728SOL    HW2 9084   4.212   5.727   6.401
 2729SOL     OW 9085   6.178   0.199   6.724
 2729SOL    HW1 9086   6.233   0.239   6.651
 2729SOL    HW2 9087   6.220   0.220   6.812
 2730SOL     OW 9088   1.399   5.685   2.743
 2730SOL    HW1 9089   1.422   5.613   2.678
 2730SOL    HW2 9090   1.419   5.774   2.703
 2731SOL     OW 9091   3.104   3.972   4.712
 2731SOL    HW1 9092   3.080   4.048   4.773
 2731SOL    HW2 9093   3.169   3.912   4.759
 2732SOL     OW 9094   5.400   0.616   1.956
 2732SOL    HW1 9095   5.361   0.625   1.865
 2732SOL    HW2 9096   5.487   0.665   1.960
 2733SOL     OW 9097   0.663   6.325   0.036
 2733SOL    HW1 9098   0.745   6.269   0.043
 2733SOL    HW2 9099   0.583   6.267   0.024
 2734SOL     OW 9100   3.797   6.117   2.371
 2734SOL    HW1 9101   3.896   6.117   2.365
 2734SOL    HW2 9102   3.760   6.199   2.326
 2735SOL     OW 9103   0.885   1.562   1.933
 2735SOL    HW1 9104   0.892   1.468   1.966
 2735SOL    HW2 9105   0.799   1.575   1.884
 2736SOL     OW 9106   6.141   4.121   3.145
 2736SOL    HW1 9107   6.074   4.139   3.216
 2736SOL    HW2 9108   6.108   4.049   3.085
 2737SOL     OW 9109   3.022   0.539   5.239
 2737SOL    HW1 9110   3.021   0.630   5.280
 2737SOL    HW2 9111   2.932   0.498   5.246
 2738SOL     OW 9112   4.983   5.586   1.314
 2738SOL    HW1 9113   4.910   5.571   1.381
 2738SOL    HW2 9114   4.960   5.538   1.229
 2739SOL     OW 9115   6.574   5.455   1.060
 2739SOL    HW1 9116   6.483   5.478   1.097
 2739SOL    HW2 9117   6.596   5.360   1.081
 2740SOL     OW 9118   0.478   5.367   3.296
 2740SOL    HW1 9119   0.538   5.333   3.368
 2740SOL    HW2 9120   0.475   5.301   3.221
 2741SOL     OW 9121   0.578   0.135   5.386
 2741SOL    HW1 9122   0.562   0.231   5.410
 2741SOL    HW2 9123   0.518   0.076   5.440
 2742SOL     OW 9124   3.509   5.797   2.458
 2742SOL    HW1 9125   3.432   5.846   2.497
 2742SOL    HW2 9126   3.491   5.699   2.460
 2743SOL     OW 9127   4.572   1.510   2.518
 2743SOL    HW1 9128   4.557   1.596   2.566
 2743SOL    HW2 9129   4.628   1.526   2.437
 2744SOL     OW 9130   3.627   4.095   2.575
 2744SOL    HW1 9131   3.534   4.100   2.540
 2744SOL    HW2 9132   3.630   4.130   2.669
 2745SOL     OW 9133   0.677   5.892   0.387
 2745SOL    HW1 9134   0.733   5.968   0.420
 2745SOL    HW2 9135   0.664   5.826   0.461
 2746SOL     OW 9136   1.806   1.254   3.590
 2746SOL    HW1 9137   1.896   1.296   3.604
 2746SOL    HW2 9138   1.737   1.326   3.580
 2747SOL     OW 9139   3.936   4.030   1.086
 2747SOL    HW1 9140   3.960   4.101   1.019
 2747SOL    HW2 9141   3.979   3.944   1.060
 2748SOL     OW 9142   3.622   0.433   0.586
 2748SOL    HW1 9143   3.704   0.375   0.584
 2748SOL    HW2 9144   3.618   0.487   0.502
 2749SOL     OW 9145   2.911   1.701   1.003
 2749SOL    HW1 9146   2.984   1.635   0.984
 2749SOL    HW2 9147   2.897   1.708   1.101
 2750SOL     OW 9148   3.408   5.877   2.884
 2750SOL    HW1 9149   3.402   5.959   2.827
 2750SOL    HW2 9150   3.353   5.804   2.843
 2751SOL     OW 9151   6.369   5.099   0.910
 2751SOL    HW1 9152   6.299   5.169   0.892
 2751SOL    HW2 9153   6.397   5.105   1.005
 2752SOL     OW 9154   4.071   5.868   6.846
 2752SOL    HW1 9155   4.114   5.813   6.917
 2752SOL    HW2 9156   4.110   5.960   6.846
 2753SOL     OW 9157   5.384   5.973   5.328
 2753SOL    HW1 9158   5.357   5.878   5.345
 2753SOL    HW2 9159   5.390   5.989   5.230
 2754SOL     OW 9160   1.363   6.933   5.729
 2754SOL    HW1 9161   1.310   6.862   5.681
 2754SOL    HW2 9162   1.343   6.929   5.827
 2755SOL     OW 9163   3.984   0.268   2.499
 2755SOL    HW1 9164   3.997   0.365   2.521
 2755SOL    HW2 9165   3.917   0.229   2.561
 2756SOL     OW 9166   4.361   6.081   0.679
 2756SOL    HW1 9167   4.451   6.038   0.675
 2756SOL    HW2 9168   4.360   6.151   0.750
 2757SOL     OW 9169   0.587   4.936   0.923
 2757SOL    HW1 9170   0.571   4.847   0.880
 2757SOL    HW2 9171   0.675   4.973   0.891
 2758SOL     OW 9172   4.168   1.092   5.557
 2758SOL    HW1 9173   4.104   1.020   5.584
 2758SOL    HW2 9174   4.218   1.063   5.475
 2759SOL     OW 9175   4.918   4.895   4.214
 2759SOL    HW1 9176   4.971   4.918   4.132
 2759SOL    HW2 9177   4.889   4.799   4.209
 2760SOL     OW 9178   1.437   6.414   3.887
 2760SOL    HW1 9179   1.340   6.392   3.896
 2760SOL    HW2 9180   1.471   6.381   3.799
 2761SOL     OW 9181   2.486   5.011   3.844
 2761SOL    HW1 9182   2.386   5.013   3.837
 2761SOL    HW2 9183   2.525   5.085   3.789
 2762SOL     OW 9184   1.455   0.674   5.008
 2762SOL    HW1 9185   1.407   0.675   4.920
 2762SOL    HW2 9186   1.527   0.605   5.006
 2763SOL     OW 9187   5.019   1.447   2.600
 2763SOL    HW1 9188   5.049   1.444   2.505
 2763SOL    HW2 9189   5.007   1.542   2.628
 2764SOL     OW 9190   6.065   0.977   1.589
 2764SOL    HW1 9191   6.137   0.985   1.520
 2764SOL    HW2 9192   5.986   0.930   1.549
 2765SOL     OW 9193   5.132   1.822   2.986
 2765SOL    HW1 9194   5.189   1.754   3.033
 2765SOL    HW2 9195   5.170   1.913   3.003
 2766SOL     OW 9196   5.936   0.205   2.739
 2766SOL    HW1 9197   5.988   0.151   2.804
 2766SOL    HW2 9198   5.996   0.237   2.665
 2767SOL     OW 9199   6.075   4.270   5.760
 2767SOL    HW1 9200   6.146   4.339   5.753
 2767SOL    HW2 9201   6.009   4.296   5.830
 2768SOL     OW 9202   6.135   1.337   6.401
 2768SOL    HW1 9203   6.210   1.397   6.427
 2768SOL    HW2 9204   6.166   1.275   6.329
 2769SOL     OW 9205   1.494   4.631   1.356
 2769SOL    HW1 9206   1.507   4.553   1.295
 2769SOL    HW2 9207   1.401   4.666   1.345
 2770SOL     OW 9208   6.634   6.007   1.620
 2770SOL    HW1 9209   6.558   6.046   1.569
 2770SOL    HW2 9210   6.712   5.994   1.559
 2771SOL     OW 9211   4.986   1.396   1.048
 2771SOL    HW1 9212   4.888   1.378   1.039
 2771SOL    HW2 9213   5.038   1.332   0.991
 2772SOL     OW 9214   3.953   2.302   6.711
 2772SOL    HW1 9215   4.031   2.346   6.666
 2772SOL    HW2 9216   3.976   2.281   6.806
 2773SOL     OW 9217   3.305   4.494   0.763
 2773SOL    HW1 9218   3.312   4.409   0.815
 2773SOL    HW2 9219   3.326   4.571   0.823
 2774SOL     OW 9220   5.527   3.413   2.575
 2774SOL    HW1 9221   5.541   3.364   2.489
 2774SOL    HW2 9222   5.591   3.489   2.580
 2775SOL     OW 9223   6.544   6.895   2.088
 2775SOL    HW1 9224   6.608   6.865   2.017
 2775SOL    HW2 9225   6.541   6.995   2.090
 2776SOL     OW 9226   3.381   6.330   6.067
 2776SOL    HW1 9227   3.295   6.320   6.018
 2776SOL    HW2 9228   3.362   6.343   6.164
 2777SOL     OW 9229   2.643   1.527   3.335
 2777SOL    HW1 9230   2.715   1.470   3.375
 2777SOL    HW2 9231   2.566   1.470   3.308
 2778SOL     OW 9232   2.547   1.966   4.546
 2778SOL    HW1 9233   2.635   1.981   4.500
 2778SOL    HW2 9234   2.531   2.040   4.611
 2779SOL     OW 9235   6.350   1.577   1.033
 2779SOL    HW1 9236   6.377   1.586   1.129
 2779SOL    HW2 9237   6.298   1.492   1.020
 2780SOL     OW 9238   3.898   5.852   0.474
 2780SOL    HW1 9239   3.833   5.906   0.421
 2780SOL    HW2 9240   3.944   5.910   0.542
 2781SOL     OW 9241   4.684   4.619   0.128
 2781SOL    HW1 9242   4.622   4.653   0.199
 2781SOL    HW2 9243   4.634   4.606   0.043
 2782SOL     OW 9244   2.871   1.177   5.960
 2782SOL    HW1 9245   2.906   1.258   6.006
 2782SOL    HW2 9246   2.785   1.149   6.001
 2783SOL     OW 9247   0.139   4.197   5.890
 2783SOL    HW1 9248   0.081   4.174   5.969
 2783SOL    HW2 9249   0.129   4.294   5.869
 2784SOL     OW 9250   2.345   2.445   1.854
 2784SOL    HW1 9251   2.294   2.506   1.792
 2784SOL    HW2 9252   2.432   2.488   1.877
 2785SOL     OW 9253   5.829   1.060   1.831
 2785SOL    HW1 9254   5.740   1.017   1.815
 2785SOL    HW2 9255   5.893   0.992   1.866
 2786SOL     OW 9256   2.794   6.963   0.180
 2786SOL    HW1 9257   2.840   6.901   0.244
 2786SOL    HW2 9258   2.835   0.031   0.186
 2787SOL     OW 9259   2.045   2.808   5.126
 2787SOL    HW1 9260   1.960   2.825   5.176
 2787SOL    HW2 9261   2.042   2.855   5.037
 2788SOL     OW 9262   0.572   4.063   6.819
 2788SOL    HW1 9263   0.473   4.066   6.802
 2788SOL    HW2 9264   0.591   4.013   6.903
 2789SOL     OW 9265   0.077   2.211   4.332
 2789SOL    HW1 9266   0.118   2.291   4.375
 2789SOL    HW2 9267   0.018   2.240   4.257
 2790SOL     OW 9268   3.214   6.178   3.974
 2790SOL    HW1 9269   3.308   6.170   4.009
 2790SOL    HW2 9270   3.203   6.264   3.926
 2791SOL     OW 9271   2.293   2.877   2.762
 2791SOL    HW1 9272   2.377   2.823   2.756
 2791SOL    HW2 9273   2.256   2.891   2.670
 2792SOL     OW 9274   1.588   2.182   4.767
 2792SOL    HW1 9275   1.652   2.105   4.762
 2792SOL    HW2 9276   1.514   2.168   4.700
 2793SOL     OW 9277   5.125   0.929   4.287
 2793SOL    HW1 9278   5.063   1.006   4.270
 2793SOL    HW2 9279   5.099   0.885   4.373
 2794SOL     OW 9280   0.593   1.269   1.768
 2794SOL    HW1 9281   0.571   1.245   1.674
 2794SOL    HW2 9282   0.610   1.367   1.775
 2795SOL     OW 9283   1.944   4.329   1.394
 2795SOL    HW1 9284   2.039   4.345   1.369
 2795SOL    HW2 9285   1.908   4.407   1.444
 2796SOL     OW 9286   5.646   4.487   2.410
 2796SOL    HW1 9287   5.693   4.415   2.360
 2796SOL    HW2 9288   5.676   4.487   2.506
 2797SOL     OW 9289   4.577   4.426   4.795
 2797SOL    HW1 9290   4.619   4.512   4.767
 2797SOL    HW2 9291   4.490   4.445   4.841
 2798SOL     OW 9292   1.809   3.504   4.036
 2798SOL    HW1 9293   1.908   3.510   4.052
 2798SOL    HW2 9294   1.764   3.585   4.072
 2799SOL     OW 9295   6.513   5.457   5.886
 2799SOL    HW1 9296   6.452   5.384   5.918
 2799SOL    HW2 9297   6.594   5.417   5.844
 2800SOL     OW 9298   2.742   1.808   6.788
 2800SOL    HW1 9299   2.666   1.756   6.827
 2800SOL    HW2 9300   2.815   1.746   6.761
 2801SOL     OW 9301   4.529   5.419   2.412
 2801SOL    HW1 9302   4.455   5.360   2.445
 2801SOL    HW2 9303   4.555   5.483   2.484
 2802SOL     OW 9304   5.833   0.647   6.303
 2802SOL    HW1 9305   5.925   0.627   6.335
 2802SOL    HW2 9306   5.820   0.608   6.212
 2803SOL     OW 9307   2.275   5.539   5.494
 2803SOL    HW1 9308   2.218   5.558   5.415
 2803SOL    HW2 9309   2.366   5.578   5.479
 2804SOL     OW 9310   0.237   4.634   2.510
 2804SOL    HW1 9311   0.313   4.661   2.569
 2804SOL    HW2 9312   0.205   4.714   2.458
 2805SOL     OW 9313   5.356   4.095   5.989
 2805SOL    HW1 9314   5.314   4.182   6.014
 2805SOL    HW2 9315   5.285   4.028   5.971
 2806SOL     OW 9316   6.904   5.309   2.827
 2806SOL    HW1 9317   6.895   5.298   2.728
 2806SOL    HW2 9318   6.829   5.260   2.873
 2807SOL     OW 9319   4.258   4.692   4.098
 2807SOL    HW1 9320   4.304   4.665   4.183
 2807SOL    HW2 9321   4.171   4.735   4.121
 2808SOL     OW 9322   4.400   5.814   3.842
 2808SOL    HW1 9323   4.366   5.881   3.776
 2808SOL    HW2 9324   4.393   5.722   3.802
 2809SOL     OW 9325   5.414   3.174   0.649
 2809SOL    HW1 9326   5.513   3.183   0.635
 2809SOL    HW2 9327   5.397   3.112   0.727
 2810SOL     OW 9328   1.688   0.300   5.672
 2810SOL    HW1 9329   1.635   0.368   5.621
 2810SOL    HW2 9330   1.636   0.215   5.678
 2811SOL     OW 9331   0.038   1.237   4.114
 2811SOL    HW1 9332   0.058   1.202   4.206
 2811SOL    HW2 9333   6.977   1.194   4.079
 2812SOL     OW 9334   5.187   3.635   2.668
 2812SOL    HW1 9335   5.213   3.658   2.574
 2812SOL    HW2 9336   5.251   3.567   2.704
 2813SOL     OW 9337   6.106   1.907   6.494
 2813SOL    HW1 9338   6.148   1.878   6.408
 2813SOL    HW2 9339   6.176   1.948   6.553
 2814SOL     OW 9340   4.904   4.602   5.174
 2814SOL    HW1 9341   4.975   4.671   5.190
 2814SOL    HW2 9342   4.911   4.567   5.081
 2815SOL     OW 9343   0.059   1.628   5.001
 2815SOL    HW1 9344   0.083   1.557   5.067
 2815SOL    HW2 9345   6.984   1.623   4.981
 2816SOL     OW 9346   5.710   6.492   3.312
 2816SOL    HW1 9347   5.709   6.492   3.212
 2816SOL    HW2 9348   5.654   6.416   3.346
 2817SOL     OW 9349   1.399   1.526   1.465
 2817SOL    HW1 9350   1.407   1.481   1.554
 2817SOL    HW2 9351   1.386   1.624   1.478
 2818SOL     OW 9352   0.449   3.716   6.057
 2818SOL    HW1 9353   0.388   3.741   6.131
 2818SOL    HW2 9354   0.485   3.624   6.071
 2819SOL     OW 9355   5.842   2.985   0.785
 2819SOL    HW1 9356   5.929   3.014   0.825
 2819SOL    HW2 9357   5.845   2.886   0.768
 2820SOL     OW 9358   5.765   2.788   4.205
 2820SOL    HW1 9359   5.861   2.761   4.212
 2820SOL    HW2 9360   5.710   2.709   4.178
 2821SOL     OW 9361   1.433   3.176   3.677
 2821SOL    HW1 9362   1.465   3.270   3.664
 2821SOL    HW2 9363   1.503   3.123   3.725
 2822SOL     OW 9364   2.955   1.725   0.343
 2822SOL    HW1 9365   2.909   1.639   0.323
 2822SOL    HW2 9366   2.927   1.757   0.434
 2823SOL     OW 9367   1.969   6.399   3.418
 2823SOL    HW1 9368   1.981   6.302   3.396
 2823SOL    HW2 9369   1.886   6.433   3.374
 2824SOL     OW 9370   3.064   1.517   4.840
 2824SOL    HW1 9371   3.032   1.442   4.782
 2824SOL    HW2 9372   3.001   1.530   4.916
 2825SOL     OW 9373   6.396   6.147   1.522
 2825SOL    HW1 9374   6.301   6.177   1.522
 2825SOL    HW2 9375   6.454   6.220   1.483
 2826SOL     OW 9376   4.687   2.755   3.957
 2826SOL    HW1 9377   4.737   2.767   4.043
 2826SOL    HW2 9378   4.601   2.708   3.974
 2827SOL     OW 9379   5.534   0.999   6.453
 2827SOL    HW1 9380   5.620   1.049   6.455
 2827SOL    HW2 9381   5.508   0.981   6.358
 2828SOL     OW 9382   3.454   1.827   6.713
 2828SOL    HW1 9383   3.544   1.784   6.701
 2828SOL    HW2 9384   3.402   1.778   6.783
 2829SOL     OW 9385   2.049   7.011   6.551
 2829SOL    HW1 9386   2.001   0.004   6.637
 2829SOL    HW2 9387   2.018   6.925   6.511
 2830SOL     OW 9388   3.311   3.592   6.543
 2830SOL    HW1 9389   3.385   3.590   6.476
 2830SOL    HW2 9390   3.332   3.528   6.617
 2831SOL     OW 9391   6.149   5.591   4.325
 2831SOL    HW1 9392   6.232   5.540   4.351
 2831SOL    HW2 9393   6.175   5.679   4.286
 2832SOL     OW 9394   0.180   0.599   1.634
 2832SOL    HW1 9395   0.107   0.531   1.633
 2832SOL    HW2 9396   0.192   0.634   1.727
 2833SOL     OW 9397   6.386   2.985   2.281
 2833SOL    HW1 9398   6.344   2.940   2.202
 2833SOL    HW2 9399   6.314   3.011   2.345
 2834SOL     OW 9400   3.829   0.939   6.073
 2834SOL    HW1 9401   3.813   0.967   5.979
 2834SOL    HW2 9402   3.809   0.842   6.084
 2835SOL     OW 9403   0.537   6.758   3.165
 2835SOL    HW1 9404   0.533   6.794   3.072
 2835SOL    HW2 9405   0.524   6.659   3.162
 2836SOL     OW 9406   6.514   0.815   1.128
 2836SOL    HW1 9407   6.545   0.862   1.211
 2836SOL    HW2 9408   6.508   0.881   1.053
 2837SOL     OW 9409   6.487   3.023   3.775
 2837SOL    HW1 9410   6.526   3.115   3.787
 2837SOL    HW2 9411   6.387   3.030   3.775
 2838SOL     OW 9412   1.901   4.887   4.065
 2838SOL    HW1 9413   1.946   4.934   3.990
 2838SOL    HW2 9414   1.924   4.931   4.151
 2839SOL     OW 9415   5.528   2.054   1.744
 2839SOL    HW1 9416   5.483   2.065   1.655
 2839SOL    HW2 9417   5.463   2.019   1.811
 2840SOL     OW 9418   6.979   2.487   5.524
 2840SOL    HW1 9419   6.895   2.435   5.538
 2840SOL    HW2 9420   6.987   2.556   5.596
 2841SOL     OW 9421   0.564   6.400   1.478
 2841SOL    HW1 9422   0.527   6.484   1.438
 2841SOL    HW2 9423   0.613   6.423   1.563
 2842SOL     OW 9424   6.226   2.873   3.009
 2842SOL    HW1 9425   6.176   2.824   2.937
 2842SOL    HW2 9426   6.260   2.960   2.972
 2843SOL     OW 9427   3.982   2.194   4.832
 2843SOL    HW1 9428   4.064   2.224   4.783
 2843SOL    HW2 9429   4.001   2.191   4.931
 2844SOL     OW 9430   0.133   4.073   5.301
 2844SOL    HW1 9431   0.227   4.087   5.271
 2844SOL    HW2 9432   0.129   3.998   5.367
 2845SOL     OW 9433   6.607   4.239   5.950
 2845SOL    HW1 9434   6.608   4.231   6.050
 2845SOL    HW2 9435   6.698   4.219   5.914
 2846SOL     OW 9436   4.683   1.013   6.606
 2846SOL    HW1 9437   4.652   0.993   6.698
 2846SOL    HW2 9438   4.761   1.076   6.610
 2847SOL     OW 9439   4.724   4.277   3.716
 2847SOL    HW1 9440   4.779   4.197   3.689
 2847SOL    HW2 9441   4.694   4.326   3.634
 2848SOL     OW 9442   1.557   6.429   5.270
 2848SOL    HW1 9443   1.567   6.520   5.230
 2848SOL    HW2 9444   1.505   6.371   5.207
 2849SOL     OW 9445   2.284   2.886   1.552
 2849SOL    HW1 9446   2.256   2.933   1.469
 2849SOL    HW2 9447   2.205   2.841   1.594
 2850SOL     OW 9448   3.205   1.098   0.382
 2850SOL    HW1 9449   3.160   1.023   0.431
 2850SOL    HW2 9450   3.135   1.155   0.338
 2851SOL     OW 9451   2.093   4.621   6.200
 2851SOL    HW1 9452   2.067   4.640   6.106
 2851SOL    HW2 9453   2.150   4.696   6.235
 2852SOL     OW 9454   0.353   3.276   6.252
 2852SOL    HW1 9455   0.312   3.194   6.212
 2852SOL    HW2 9456   0.404   3.326   6.182
 2853SOL     OW 9457   3.355   2.832   1.428
 2853SOL    HW1 9458   3.451   2.835   1.454
 2853SOL    HW2 9459   3.310   2.755   1.474
 2854SOL     OW 9460   1.075   0.993   3.655
 2854SOL    HW1 9461   1.150   1.007   3.719
 2854SOL    HW2 9462   1.004   1.062   3.671
 2855SOL     OW 9463   3.176   0.918   5.180
 2855SOL    HW1 9464   3.133   1.004   5.152
 2855SOL    HW2 9465   3.236   0.936   5.258
 2856SOL     OW 9466   2.476   1.421   5.294
 2856SOL    HW1 9467   2.381   1.416   5.261
 2856SOL    HW2 9468   2.484   1.370   5.379
 2857SOL     OW 9469   3.362   3.455   3.312
 2857SOL    HW1 9470   3.448   3.502   3.330
 2857SOL    HW2 9471   3.306   3.510   3.250
 2858SOL     OW 9472   5.592   2.528   3.057
 2858SOL    HW1 9473   5.655   2.493   3.126
 2858SOL    HW2 9474   5.591   2.467   2.978
 2859SOL     OW 9475   5.617   6.205   0.435
 2859SOL    HW1 9476   5.653   6.273   0.370
 2859SOL    HW2 9477   5.691   6.175   0.496
 2860SOL     OW 9478   4.537   2.384   1.409
 2860SOL    HW1 9479   4.601   2.346   1.475
 2860SOL    HW2 9480   4.462   2.320   1.395
 2861SOL     OW 9481   3.066   5.078   5.839
 2861SOL    HW1 9482   2.968   5.090   5.828
 2861SOL    HW2 9483   3.110   5.075   5.749
 2862SOL     OW 9484   6.341   0.426   4.466
 2862SOL    HW1 9485   6.413   0.383   4.410
 2862SOL    HW2 9486   6.375   0.513   4.502
 2863SOL     OW 9487   6.249   1.898   0.533
 2863SOL    HW1 9488   6.234   1.807   0.572
 2863SOL    HW2 9489   6.179   1.917   0.464
 2864SOL     OW 9490   3.109   1.334   0.246
 2864SOL    HW1 9491   3.055   1.387   0.180
 2864SOL    HW2 9492   3.187   1.389   0.276
 2865SOL     OW 9493   4.395   5.090   4.988
 2865SOL    HW1 9494   4.315   5.051   5.034
 2865SOL    HW2 9495   4.429   5.026   4.920
 2866SOL     OW 9496   6.975   0.045   6.320
 2866SOL    HW1 9497   6.993   0.095   6.236
 2866SOL    HW2 9498   6.897   7.007   6.308
 2867SOL     OW 9499   6.548   4.166   3.313
 2867SOL    HW1 9500   6.631   4.110   3.314
 2867SOL    HW2 9501   6.503   4.159   3.224
 2868SOL     OW 9502   2.050   4.598   5.254
 2868SOL    HW1 9503   1.988   4.615   5.178
 2868SOL    HW2 9504   2.137   4.563   5.219
 2869SOL     OW 9505   6.305   1.215   2.744
 2869SOL    HW1 9506   6.374   1.143   2.733
 2869SOL    HW2 9507   6.214   1.178   2.727
 2870SOL     OW 9508   5.076   2.210   2.618
 2870SOL    HW1 9509   5.065   2.172   2.526
 2870SOL    HW2 9510   5.173   2.224   2.637
 2871SOL     OW 9511   2.280   1.556   5.987
 2871SOL    HW1 9512   2.332   1.641   5.998
 2871SOL    HW2 9513   2.332   1.479   6.023
 2872SOL     OW 9514   2.174   6.544   3.971
 2872SOL    HW1 9515   2.092   6.486   3.966
 2872SOL    HW2 9516   2.148   6.639   3.958
 2873SOL     OW 9517   0.103   5.236   1.555
 2873SOL    HW1 9518   0.025   5.271   1.608
 2873SOL    HW2 9519   0.147   5.162   1.605
 2874SOL     OW 9520   5.543   1.551   2.943
 2874SOL    HW1 9521   5.562   1.464   2.989
 2874SOL    HW2 9522   5.617   1.615   2.961
 2875SOL     OW 9523   2.911   5.011   0.777
 2875SOL    HW1 9524   2.827   5.037   0.825
 2875SOL    HW2 9525   2.946   5.090   0.726
 2876SOL     OW 9526   0.135   1.623   2.518
 2876SOL    HW1 9527   0.047   1.587   2.548
 2876SOL    HW2 9528   0.184   1.662   2.596
 2877SOL     OW 9529   2.271   3.139   5.796
 2877SOL    HW1 9530   2.260   3.158   5.698
 2877SOL    HW2 9531   2.326   3.056   5.808
 2878SOL     OW 9532   3.193   4.732   0.083
 2878SOL    HW1 9533   3.207   4.648   0.030
 2878SOL    HW2 9534   3.199   4.811   0.023
 2879SOL     OW 9535   4.942   5.129   6.870
 2879SOL    HW1 9536   4.851   5.098   6.845
 2879SOL    HW2 9537   4.939   5.177   6.958
 2880SOL     OW 9538   0.919   6.322   1.649
 2880SOL    HW1 9539   1.010   6.360   1.667
 2880SOL    HW2 9540   0.850   6.385   1.684
 2881SOL     OW 9541   0.272   0.147   6.563
 2881SOL    HW1 9542   0.264   0.131   6.465
 2881SOL    HW2 9543   0.358   0.110   6.596
 2882SOL     OW 9544   6.856   3.112   3.757
 2882SOL    HW1 9545   6.915   3.032   3.751
 2882SOL    HW2 9546   6.794   3.114   3.678
 2883SOL     OW 9547   4.803   6.249   2.730
 2883SOL    HW1 9548   4.871   6.267   2.802
 2883SOL    HW2 9549   4.770   6.335   2.693
 2884SOL     OW 9550   1.749   6.105   3.333
 2884SOL    HW1 9551   1.844   6.124   3.309
 2884SOL    HW2 9552   1.727   6.010   3.310
 2885SOL     OW 9553   0.521   2.001   3.580
 2885SOL    HW1 9554   0.474   2.039   3.660
 2885SOL    HW2 9555   0.614   2.037   3.575
 2886SOL     OW 9556   2.176   2.500   6.103
 2886SOL    HW1 9557   2.263   2.549   6.107
 2886SOL    HW2 9558   2.184   2.414   6.153
 2887SOL     OW 9559   2.244   0.958   4.857
 2887SOL    HW1 9560   2.150   0.984   4.838
 2887SOL    HW2 9561   2.306   1.020   4.810
 2888SOL     OW 9562   6.804   5.202   6.963
 2888SOL    HW1 9563   6.880   5.221   0.002
 2888SOL    HW2 9564   6.826   5.237   6.872
 2889SOL     OW 9565   0.077   0.163   1.568
 2889SOL    HW1 9566   7.023   0.110   1.533
 2889SOL    HW2 9567   0.105   0.126   1.657
 2890SOL     OW 9568   3.045   6.730   0.502
 2890SOL    HW1 9569   2.984   6.809   0.508
 2890SOL    HW2 9570   3.136   6.755   0.535
 2891SOL     OW 9571   2.866   5.112   4.363
 2891SOL    HW1 9572   2.941   5.052   4.337
 2891SOL    HW2 9573   2.785   5.057   4.383
 2892SOL     OW 9574   4.408   4.631   5.558
 2892SOL    HW1 9575   4.506   4.633   5.577
 2892SOL    HW2 9576   4.367   4.720   5.578
 2893SOL     OW 9577   2.476   0.633   5.925
 2893SOL    HW1 9578   2.565   0.599   5.954
 2893SOL    HW2 9579   2.477   0.647   5.826
 2894SOL     OW 9580   3.384   2.544   0.903
 2894SOL    HW1 9581   3.344   2.499   0.983
 2894SOL    HW2 9582   3.483   2.551   0.915
 2895SOL     OW 9583   3.370   3.386   6.725
 2895SOL    HW1 9584   3.319   3.404   6.809
 2895SOL    HW2 9585   3.409   3.294   6.729
 2896SOL     OW 9586   2.031   5.576   0.893
 2896SOL    HW1 9587   2.079   5.572   0.806
 2896SOL    HW2 9588   1.953   5.637   0.886
 2897SOL     OW 9589   1.694   6.539   3.624
 2897SOL    HW1 9590   1.678   6.621   3.570
 2897SOL    HW2 9591   1.698   6.563   3.721
 2898SOL     OW 9592   2.591   5.077   2.523
 2898SOL    HW1 9593   2.668   5.058   2.461
 2898SOL    HW2 9594   2.525   5.002   2.517
 2899SOL     OW 9595   6.559   0.604   0.531
 2899SOL    HW1 9596   6.629   0.637   0.594
 2899SOL    HW2 9597   6.575   0.642   0.440
 2900SOL     OW 9598   2.925   5.647   5.966
 2900SOL    HW1 9599   2.856   5.607   6.026
 2900SOL    HW2 9600   2.960   5.731   6.007
 2901SOL     OW 9601   3.004   0.242   1.468
 2901SOL    HW1 9602   2.950   0.181   1.525
 2901SOL    HW2 9603   3.075   0.286   1.524
 2902SOL     OW 9604   5.453   5.803   1.721
 2902SOL    HW1 9605   5.452   5.791   1.622
 2902SOL    HW2 9606   5.361   5.824   1.753
 2903SOL     OW 9607   2.629   2.495   1.910
 2903SOL    HW1 9608   2.649   2.551   1.830
 2903SOL    HW2 9609   2.710   2.441   1.934
 2904SOL     OW 9610   1.838   3.589   4.718
 2904SOL    HW1 9611   1.876   3.516   4.773
 2904SOL    HW2 9612   1.835   3.674   4.771
 2905SOL     OW 9613   0.986   2.270   1.392
 2905SOL    HW1 9614   1.063   2.333   1.399
 2905SOL    HW2 9615   0.925   2.299   1.318
 2906SOL     OW 9616   5.047   5.649   2.414
 2906SOL    HW1 9617   5.134   5.608   2.385
 2906SOL    HW2 9618   4.984   5.651   2.336
 2907SOL     OW 9619   6.464   0.690   4.197
 2907SOL    HW1 9620   6.369   0.719   4.190
 2907SOL    HW2 9621   6.523   0.770   4.204
 2908SOL     OW 9622   4.140   6.119   4.885
 2908SOL    HW1 9623   4.049   6.108   4.925
 2908SOL    HW2 9624   4.140   6.195   4.821
 2909SOL     OW 9625   1.266   6.208   5.505
 2909SOL    HW1 9626   1.320   6.130   5.475
 2909SOL    HW2 9627   1.177   6.177   5.538
 2910SOL     OW 9628   5.141   6.234   6.281
 2910SOL    HW1 9629   5.060   6.291   6.291
 2910SOL    HW2 9630   5.197   6.269   6.206
 2911SOL     OW 9631   2.136   4.230   3.434
 2911SOL    HW1 9632   2.111   4.250   3.529
 2911SOL    HW2 9633   2.193   4.304   3.398
 2912SOL     OW 9634   2.656   5.201   0.650
 2912SOL    HW1 9635   2.656   5.162   0.742
 2912SOL    HW2 9636   2.749   5.205   0.615
 2913SOL     OW 9637   1.061   2.847   2.878
 2913SOL    HW1 9638   1.048   2.945   2.866
 2913SOL    HW2 9639   1.151   2.821   2.845
 2914SOL     OW 9640   4.872   5.359   5.467
 2914SOL    HW1 9641   4.893   5.442   5.416
 2914SOL    HW2 9642   4.834   5.290   5.406
 2915SOL     OW 9643   4.064   1.051   3.981
 2915SOL    HW1 9644   4.143   1.112   3.981
 2915SOL    HW2 9645   3.980   1.105   3.974
 2916SOL     OW 9646   4.690   5.547   4.340
 2916SOL    HW1 9647   4.622   5.599   4.391
 2916SOL    HW2 9648   4.763   5.518   4.402
 2917SOL     OW 9649   4.365   1.383   2.676
 2917SOL    HW1 9650   4.276   1.424   2.659
 2917SOL    HW2 9651   4.435   1.432   2.625
 2918SOL     OW 9652   0.142   3.465   3.803
 2918SOL    HW1 9653   0.197   3.529   3.856
 2918SOL    HW2 9654   0.182   3.453   3.712
 2919SOL     OW 9655   6.817   6.368   0.049
 2919SOL    HW1 9656   6.883   6.309   0.094
 2919SOL    HW2 9657   6.760   6.413   0.118
 2920SOL     OW 9658   4.340   2.330   3.042
 2920SOL    HW1 9659   4.397   2.339   3.124
 2920SOL    HW2 9660   4.385   2.376   2.965
 2921SOL     OW 9661   0.446   0.127   1.721
 2921SOL    HW1 9662   0.358   0.081   1.732
 2921SOL    HW2 9663   0.461   0.189   1.799
 2922SOL     OW 9664   4.183   6.353   5.723
 2922SOL    HW1 9665   4.175   6.452   5.732
 2922SOL    HW2 9666   4.091   6.314   5.711
 2923SOL     OW 9667   6.917   4.339   0.677
 2923SOL    HW1 9668   6.956   4.253   0.710
 2923SOL    HW2 9669   6.828   4.321   0.635
 2924SOL     OW 9670   5.861   0.352   5.753
 2924SOL    HW1 9671   5.775   0.387   5.715
 2924SOL    HW2 9672   5.938   0.403   5.713
 2925SOL     OW 9673   5.494   3.824   1.066
 2925SOL    HW1 9674   5.569   3.890   1.060
 2925SOL    HW2 9675   5.479   3.799   1.162
 2926SOL     OW 9676   6.962   1.473   3.949
 2926SOL    HW1 9677   0.001   1.416   4.004
 2926SOL    HW2 9678   7.015   1.519   3.877
 2927SOL     OW 9679   0.666   2.568   2.703
 2927SOL    HW1 9680   0.732   2.600   2.771
 2927SOL    HW2 9681   0.604   2.642   2.679
 2928SOL     OW 9682   5.273   6.515   1.025
 2928SOL    HW1 9683   5.349   6.456   1.052
 2928SOL    HW2 9684   5.240   6.487   0.935
 2929SOL     OW 9685   1.019   0.346   5.772
 2929SOL    HW1 9686   0.966   0.340   5.688
 2929SOL    HW2 9687   0.968   0.304   5.847
 2930SOL     OW 9688   3.833   6.480   4.704
 2930SOL    HW1 9689   3.887   6.399   4.681
 2930SOL    HW2 9690   3.737   6.455   4.711
 2931SOL     OW 9691   3.528   5.553   6.834
 2931SOL    HW1 9692   3.539   5.513   6.743
 2931SOL    HW2 9693   3.611   5.602   6.860
 2932SOL     OW 9694   1.551   4.529   1.963
 2932SOL    HW1 9695   1.602   4.581   2.031
 2932SOL    HW2 9696   1.453   4.541   1.978
 2933SOL     OW 9697   4.940   1.593   3.413
 2933SOL    HW1 9698   4.954   1.584   3.315
 2933SOL    HW2 9699   4.864   1.534   3.441
 2934SOL     OW 9700   2.772   0.797   6.967
 2934SOL    HW1 9701   2.722   0.874   7.007
 2934SOL    HW2 9702   2.718   0.757   6.893
 2935SOL     OW 9703   6.671   1.880   1.149
 2935SOL    HW1 9704   6.602   1.862   1.079
 2935SOL    HW2 9705   6.762   1.875   1.108
 2936SOL     OW 9706   3.374   6.100   0.968
 2936SOL    HW1 9707   3.277   6.101   0.943
 2936SOL    HW2 9708   3.402   6.006   0.986
 2937SOL     OW 9709   2.630   4.058   0.274
 2937SOL    HW1 9710   2.678   3.984   0.226
 2937SOL    HW2 9711   2.647   4.145   0.227
 2938SOL     OW 9712   4.922   5.120   5.700
 2938SOL    HW1 9713   4.878   5.193   5.647
 2938SOL    HW2 9714   4.952   5.157   5.788
 2939SOL     OW 9715   0.140   6.725   5.676
 2939SOL    HW1 9716   0.224   6.688   5.636
 2939SOL    HW2 9717   0.155   6.819   5.707
 2940SOL     OW 9718   4.236   0.581   5.666
 2940SOL    HW1 9719   4.214   0.633   5.583
 2940SOL    HW2 9720   4.309   0.516   5.646
 2941SOL     OW 9721   2.877   1.718   5.624
 2941SOL    HW1 9722   2.812   1.643   5.612
 2941SOL    HW2 9723   2.836   1.790   5.680
 2942SOL     OW 9724   3.951   6.273   4.446
 2942SOL    HW1 9725   4.000   6.200   4.398
 2942SOL    HW2 9726   3.853   6.261   4.434
 2943SOL     OW 9727   5.934   3.719   2.877
 2943SOL    HW1 9728   5.960   3.653   2.806
 2943SOL    HW2 9729   5.932   3.672   2.966
 2944SOL     OW 9730   4.234   6.200   6.603
 2944SOL    HW1 9731   4.204   6.113   6.564
 2944SOL    HW2 9732   4.225   6.197   6.703
 2945SOL     OW 9733   3.019   3.869   3.216
 2945SOL    HW1 9734   3.013   3.852   3.118
 2945SOL    HW2 9735   2.958   3.944   3.241
 2946SOL     OW 9736   0.152   6.004   5.860
 2946SOL    HW1 9737   0.125   6.046   5.773
 2946SOL    HW2 9738   0.113   6.055   5.936
 2947SOL     OW 9739   0.336   5.294   0.566
 2947SOL    HW1 9740   0.264   5.248   0.619
 2947SOL    HW2 9741   0.375   5.368   0.621
 2948SOL     OW 9742   5.930   4.404   5.192
 2948SOL    HW1 9743   5.918   4.498   5.162
 2948SOL    HW2 9744   5.933   4.401   5.292
 2949SOL     OW 9745   1.017   6.108   0.884
 2949SOL    HW1 9746   1.108   6.149   0.882
 2949SOL    HW2 9747   1.011   6.041   0.958
 2950SOL     OW 9748   5.532   3.816   4.459
 2950SOL    HW1 9749   5.582   3.902   4.470
 2950SOL    HW2 9750   5.435   3.832   4.473
 2951SOL     OW 9751   6.023   1.221   1.368
 2951SOL    HW1 9752   6.035   1.319   1.354
 2951SOL    HW2 9753   5.969   1.205   1.451
 2952SOL     OW 9754   1.655   3.587   2.209
 2952SOL    HW1 9755   1.600   3.592   2.125
 2952SOL    HW2 9756   1.729   3.655   2.204
 2953SOL     OW 9757   5.587   0.780   2.868
 2953SOL    HW1 9758   5.615   0.876   2.861
 2953SOL    HW2 9759   5.651   0.731   2.927
 2954SOL     OW 9760   5.758   6.317   1.550
 2954SOL    HW1 9761   5.746   6.245   1.618
 2954SOL    HW2 9762   5.769   6.275   1.459
 2955SOL     OW 9763   6.471   3.061   0.606
 2955SOL    HW1 9764   6.455   3.059   0.507
 2955SOL    HW2 9765   6.456   2.969   0.643
 2956SOL     OW 9766   6.687   5.444   2.571
 2956SOL    HW1 9767   6.669   5.465   2.475
 2956SOL    HW2 9768   6.600   5.435   2.620
 2957SOL     OW 9769   1.297   4.019   1.596
 2957SOL    HW1 9770   1.267   4.114   1.604
 2957SOL    HW2 9771   1.248   3.963   1.662
 2958SOL     OW 9772   3.699   4.636   6.438
 2958SOL    HW1 9773   3.761   4.679   6.504
 2958SOL    HW2 9774   3.605   4.663   6.458
 2959SOL     OW 9775   4.562   5.748   6.921
 2959SOL    HW1 9776   4.568   5.656   6.882
 2959SOL    HW2 9777   4.512   5.744   7.008
 2960SOL     OW 9778   2.607   1.582   6.893
 2960SOL    HW1 9779   2.541   1.526   6.944
 2960SOL    HW2 9780   2.663   1.635   6.957
 2961SOL     OW 9781   5.632   2.447   4.842
 2961SOL    HW1 9782   5.605   2.417   4.750
 2961SOL    HW2 9783   5.714   2.397   4.870
 2962SOL     OW 9784   3.703   1.442   3.427
 2962SOL    HW1 9785   3.632   1.395   3.374
 2962SOL    HW2 9786   3.788   1.445   3.375
 2963SOL     OW 9787   2.001   2.854   4.858
 2963SOL    HW1 9788   2.081   2.850   4.798
 2963SOL    HW2 9789   1.958   2.763   4.863
 2964SOL     OW 9790   2.722   5.896   0.567
 2964SOL    HW1 9791   2.730   5.898   0.467
 2964SOL    HW2 9792   2.664   5.819   0.594
 2965SOL     OW 9793   0.754   2.482   5.801
 2965SOL    HW1 9794   0.672   2.539   5.799
 2965SOL    HW2 9795   0.747   2.414   5.874
 2966SOL     OW 9796   4.626   4.366   3.472
 2966SOL    HW1 9797   4.548   4.401   3.524
 2966SOL    HW2 9798   4.626   4.408   3.381
 2967SOL     OW 9799   5.974   2.100   4.137
 2967SOL    HW1 9800   6.064   2.091   4.181
 2967SOL    HW2 9801   5.902   2.077   4.203
 2968SOL     OW 9802   6.632   4.216   3.613
 2968SOL    HW1 9803   6.634   4.239   3.515
 2968SOL    HW2 9804   6.541   4.237   3.650
 2969SOL     OW 9805   4.679   0.927   4.506
 2969SOL    HW1 9806   4.765   0.908   4.459
 2969SOL    HW2 9807   4.693   1.002   4.571
 2970SOL     OW 9808   1.319   4.725   6.492
 2970SOL    HW1 9809   1.234   4.775   6.479
 2970SOL    HW2 9810   1.298   4.630   6.516
 2971SOL     OW 9811   4.831   3.388   3.480
 2971SOL    HW1 9812   4.782   3.415   3.564
 2971SOL    HW2 9813   4.848   3.470   3.425
 2972SOL     OW 9814   0.676   4.051   6.090
 2972SOL    HW1 9815   0.636   4.100   6.168
 2972SOL    HW2 9816   0.737   3.980   6.123
 2973SOL     OW 9817   5.339   6.492   4.157
 2973SOL    HW1 9818   5.368   6.418   4.096
 2973SOL    HW2 9819   5.297   6.565   4.104
 2974SOL     OW 9820   0.410   3.825   2.406
 2974SOL    HW1 9821   0.351   3.901   2.432
 2974SOL    HW2 9822   0.382   3.742   2.456
 2975SOL     OW 9823   0.110   1.510   4.619
 2975SOL    HW1 9824   0.040   1.573   4.653
 2975SOL    HW2 9825   0.172   1.559   4.558
 2976SOL     OW 9826   3.051   6.305   1.836
 2976SOL    HW1 9827   3.060   6.326   1.739
 2976SOL    HW2 9828   3.025   6.388   1.886
 2977SOL     OW 9829   3.751   6.128   4.094
 2977SOL    HW1 9830   3.741   6.163   4.187
 2977SOL    HW2 9831   3.820   6.055   4.093
 2978SOL     OW 9832   4.016   6.335   6.856
 2978SOL    HW1 9833   3.919   6.343   6.830
 2978SOL    HW2 9834   4.026   6.361   6.952
 2979SOL     OW 9835   3.216   1.124   3.484
 2979SOL    HW1 9836   3.130   1.089   3.520
 2979SOL    HW2 9837   3.244   1.071   3.404
 2980SOL     OW 9838   6.903   6.142   3.859
 2980SOL    HW1 9839   6.812   6.102   3.848
 2980SOL    HW2 9840   6.895   6.232   3.903
 2981SOL     OW 9841   1.646   1.213   5.345
 2981SOL    HW1 9842   1.632   1.125   5.392
 2981SOL    HW2 9843   1.741   1.241   5.356
 2982SOL     OW 9844   4.946   6.846   3.392
 2982SOL    HW1 9845   4.955   6.786   3.471
 2982SOL    HW2 9846   4.992   6.933   3.411
 2983SOL     OW 9847   6.785   0.157   2.423
 2983SOL    HW1 9848   6.724   0.236   2.424
 2983SOL    HW2 9849   6.758   0.093   2.495
 2984SOL     OW 9850   5.725   5.014   2.060
 2984SOL    HW1 9851   5.816   4.975   2.050
 2984SOL    HW2 9852   5.687   5.036   1.970
 2985SOL     OW 9853   6.015   1.975   3.217
 2985SOL    HW1 9854   6.006   2.049   3.151
 2985SOL    HW2 9855   6.055   2.011   3.302
 2986SOL     OW 9856   2.379   3.717   5.305
 2986SOL    HW1 9857   2.362   3.807   5.264
 2986SOL    HW2 9858   2.377   3.648   5.233
 2987SOL     OW 9859   4.309   1.998   4.436
 2987SOL    HW1 9860   4.219   1.961   4.459
 2987SOL    HW2 9861   4.331   1.976   4.341
 2988SOL     OW 9862   0.459   0.307   1.922
 2988SOL    HW1 9863   0.539   0.319   1.980
 2988SOL    HW2 9864   0.448   0.387   1.862
 2989SOL     OW 9865   6.783   5.106   0.891
 2989SOL    HW1 9866   6.755   5.074   0.982
 2989SOL    HW2 9867   6.859   5.050   0.858
 2990SOL     OW 9868   3.385   0.334   0.828
 2990SOL    HW1 9869   3.451   0.291   0.890
 2990SOL    HW2 9870   3.383   0.283   0.742
 2991SOL     OW 9871   6.669   4.794   0.151
 2991SOL    HW1 9872   6.663   4.705   0.196
 2991SOL    HW2 9873   6.667   4.781   0.051
 2992SOL     OW 9874   3.833   4.690   6.891
 2992SOL    HW1 9875   3.882   4.766   6.934
 2992SOL    HW2 9876   3.851   4.606   6.942
 2993SOL     OW 9877   1.980   5.542   0.402
 2993SOL    HW1 9878   1.924   5.572   0.325
 2993SOL    HW2 9879   2.053   5.483   0.369
 2994SOL     OW 9880   4.356   6.635   0.204
 2994SOL    HW1 9881   4.303   6.606   0.284
 2994SOL    HW2 9882   4.454   6.630   0.226
 2995SOL     OW 9883   2.540   0.673   5.639
 2995SOL    HW1 9884   2.454   0.654   5.592
 2995SOL    HW2 9885   2.616   0.666   5.574
 2996SOL     OW 9886   4.064   5.557   5.929
 2996SOL    HW1 9887   3.984   5.550   5.869
 2996SOL    HW2 9888   4.082   5.468   5.971
 2997SOL     OW 9889   4.954   6.636   0.454
 2997SOL    HW1 9890   4.976   6.659   0.359
 2997SOL    HW2 9891   4.865   6.673   0.478
 2998SOL     OW 9892   6.224   5.356   5.165
 2998SOL    HW1 9893   6.300   5.406   5.206
 2998SOL    HW2 9894   6.148   5.350   5.229
 2999SOL     OW 9895   3.215   6.345   2.382
 2999SOL    HW1 9896   3.250   6.430   2.342
 2999SOL    HW2 9897   3.173   6.364   2.471
 3000SOL     OW 9898   1.739   2.560   4.375
 3000SOL    HW1 9899   1.690   2.641   4.407
 3000SOL    HW2 9900   1.744   2.562   4.275
 3001SOL     OW 9901   4.513   0.111   6.402
 3001SOL    HW1 9902   4.597   0.066   6.431
 3001SOL    HW2 9903   4.491   0.185   6.465
 3002SOL     OW 9904   3.433   6.905   5.741
 3002SOL    HW1 9905   3.476   6.915   5.831
 3002SOL    HW2 9906   3.334   6.906   5.752
 3003SOL     OW 9907   2.434   0.040   6.425
 3003SOL    HW1 9908   2.355   0.100   6.437
 3003SOL    HW2 9909   2.452   7.013   6.510
 3004SOL     OW 9910   6.410   3.634   4.910
 3004SOL    HW1 9911   6.336   3.632   4.977
 3004SOL    HW2 9912   6.412   3.547   4.861
 3005SOL     OW 9913   4.544   2.526   1.963
 3005SOL    HW1 9914   4.563   2.613   1.918
 3005SOL    HW2 9915   4.483   2.541   2.041
 3006SOL     OW 9916   5.045   0.765   1.218
 3006SOL    HW1 9917   5.068   0.747   1.313
 3006SOL    HW2 9918   5.125   0.747   1.160
 3007SOL     OW 9919   6.747   5.912   2.072
 3007SOL    HW1 9920   6.696   5.985   2.026
 3007SOL    HW2 9921   6.790   5.853   2.004
 3008SOL     OW 9922   4.021   5.825   5.862
 3008SOL    HW1 9923   3.957   5.858   5.932
 3008SOL    HW2 9924   4.062   5.740   5.892
 3009SOL     OW 9925   0.850   1.108   2.603
 3009SOL    HW1 9926   0.936   1.153   2.624
 3009SOL    HW2 9927   0.781   1.134   2.670
 3010SOL     OW 9928   3.350   6.446   2.723
 3010SOL    HW1 9929   3.426   6.415   2.666
 3010SOL    HW2 9930   3.387   6.492   2.804
 3011SOL     OW 9931   5.974   0.468   6.902
 3011SOL    HW1 9932   5.991   0.518   6.817
 3011SOL    HW2 9933   5.943   0.376   6.881
 3012SOL     OW 9934   0.076   4.844   2.314
 3012SOL    HW1 9935   0.061   4.788   2.232
 3012SOL    HW2 9936   0.174   4.860   2.326
 3013SOL     OW 9937   5.846   4.345   2.277
 3013SOL    HW1 9938   5.880   4.438   2.264
 3013SOL    HW2 9939   5.916   4.291   2.325
 3014SOL     OW 9940   4.975   0.502   5.131
 3014SOL    HW1 9941   4.981   0.599   5.108
 3014SOL    HW2 9942   4.926   0.491   5.218
 3015SOL     OW 9943   3.248   2.498   6.834
 3015SOL    HW1 9944   3.236   2.546   6.747
 3015SOL    HW2 9945   3.346   2.488   6.853
 3016SOL     OW 9946   3.464   5.983   3.571
 3016SOL    HW1 9947   3.506   6.070   3.544
 3016SOL    HW2 9948   3.386   5.963   3.512
 3017SOL     OW 9949   6.517   6.081   1.221
 3017SOL    HW1 9950   6.558   6.144   1.287
 3017SOL    HW2 9951   6.569   6.083   1.136
 3018SOL     OW 9952   3.868   0.063   6.228
 3018SOL    HW1 9953   3.945   0.089   6.169
 3018SOL    HW2 9954   3.799   0.135   6.224
 3019SOL     OW 9955   5.156   6.328   2.198
 3019SOL    HW1 9956   5.233   6.365   2.146
 3019SOL    HW2 9957   5.070   6.355   2.154
 3020SOL     OW 9958   1.847   1.569   0.992
 3020SOL    HW1 9959   1.922   1.537   1.050
 3020SOL    HW2 9960   1.763   1.520   1.017
 3021SOL     OW 9961   3.621   1.107   6.198
 3021SOL    HW1 9962   3.678   1.046   6.143
 3021SOL    HW2 9963   3.656   1.200   6.190
 3022SOL     OW 9964   5.721   6.663   2.215
 3022SOL    HW1 9965   5.774   6.741   2.180
 3022SOL    HW2 9966   5.634   6.657   2.166
 3023SOL     OW 9967   5.677   0.175   1.373
 3023SOL    HW1 9968   5.670   0.242   1.446
 3023SOL    HW2 9969   5.590   0.168   1.325
 3024SOL     OW 9970   3.228   6.767   6.801
 3024SOL    HW1 9971   3.218   6.736   6.895
 3024SOL    HW2 9972   3.160   6.721   6.743
 3025SOL     OW 9973   1.981   2.265   1.654
 3025SOL    HW1 9974   1.988   2.236   1.559
 3025SOL    HW2 9975   2.059   2.230   1.705
 3026SOL     OW 9976   1.964   5.047   0.796
 3026SOL    HW1 9977   1.953   4.955   0.834
 3026SOL    HW2 9978   2.031   5.097   0.850
 3027SOL     OW 9979   2.068   1.388   4.081
 3027SOL    HW1 9980   2.161   1.411   4.110
 3027SOL    HW2 9981   2.071   1.308   4.021
 3028SOL     OW 9982   1.672   0.717   4.367
 3028SOL    HW1 9983   1.592   0.662   4.392
 3028SOL    HW2 9984   1.755   0.669   4.397
 3029SOL     OW 9985   4.779   6.031   5.640
 3029SOL    HW1 9986   4.794   6.042   5.542
 3029SOL    HW2 9987   4.725   6.108   5.674
 3030SOL     OW 9988   1.425   1.695   5.821
 3030SOL    HW1 9989   1.412   1.731   5.729
 3030SOL    HW2 9990   1.496   1.748   5.868
 3031SOL     OW 9991   1.321   5.236   6.766
 3031SOL    HW1 9992   1.409   5.263   6.805
 3031SOL    HW2 9993   1.336   5.192   6.677
 3032SOL     OW 9994   4.148   0.354   5.819
 3032SOL    HW1 9995   4.167   0.392   5.909
 3032SOL    HW2 9996   4.142   0.428   5.752
 3033SOL     OW 9997   5.227   5.053   6.046
 3033SOL    HW1 9998   5.290   4.979   6.072
 3033SOL    HW2 9999   5.234   5.128   6.112
 3034SOL     OW10000   2.314   0.149   4.145
 3034SOL    HW110001   2.241   0.081   4.130
 3034SOL    HW210002   2.292   0.232   4.094
 3035SOL     OW10003   6.591   6.670   6.917
 3035SOL    HW110004   6.521   6.599   6.911
 3035SOL    HW210005   6.614   6.687   7.013
 3036SOL     OW10006   1.246   4.668   6.118
 3036SOL    HW110007   1.342   4.694   6.111
 3036SOL    HW210008   1.189   4.748   6.099
 3037SOL     OW10009   6.734   6.737   5.491
 3037SOL    HW110010   6.711   6.690   5.576
 3037SOL    HW210011   6.705   6.681   5.413
 3038SOL     OW10012   5.780   6.939   5.780
 3038SOL    HW110013   5.762   6.851   5.825
 3038SOL    HW210014   5.760   6.930   5.682
 3039SOL     OW10015   0.375   5.071   0.811
 3039SOL    HW110016   0.449   5.014   0.846
 3039SOL    HW210017   0.408   5.122   0.731
 3040SOL     OW10018   1.895   2.229   6.593
 3040SOL    HW110019   1.822   2.161   6.594
 3040SOL    HW210020   1.938   2.233   6.683
 3041SOL     OW10021   1.819   1.799   6.139
 3041SOL    HW110022   1.795   1.753   6.053
 3041SOL    HW210023   1.742   1.795   6.202
 3042SOL     OW10024   5.017   7.008   2.033
 3042SOL    HW110025   5.043   6.947   1.958
 3042SOL    HW210026   5.098   0.009   2.087
 3043SOL     OW10027   0.087   4.988   0.434
 3043SOL    HW110028   0.142   4.936   0.499
 3043SOL    HW210029   0.004   4.936   0.411
 3044SOL     OW10030   3.415   3.886   5.745
 3044SOL    HW110031   3.347   3.912   5.677
 3044SOL    HW210032   3.501   3.863   5.700
 3045SOL     OW10033   5.417   1.833   3.942
 3045SOL    HW110034   5.495   1.780   3.974
 3045SOL    HW210035   5.407   1.824   3.843
 3046SOL     OW10036   2.598   2.016   5.778
 3046SOL    HW110037   2.595   2.083   5.852
 3046SOL    HW210038   2.691   1.982   5.766
 3047SOL     OW10039   0.107   4.393   2.143
 3047SOL    HW110040   0.085   4.315   2.202
 3047SOL    HW210041   0.205   4.392   2.122
 3048SOL     OW10042   2.953   2.632   1.659
 3048SOL    HW110043   3.034   2.661   1.608
 3048SOL    HW210044   2.980   2.580   1.739
 3049SOL     OW10045   0.825   0.368   1.820
 3049SOL    HW110046   0.797   0.403   1.731
 3049SOL    HW210047   0.879   0.285   1.808
 3050SOL     OW10048   2.974   5.517   3.946
 3050SOL    HW110049   3.001   5.610   3.919
 3050SOL    HW210050   2.944   5.517   4.041
 3051SOL     OW10051   2.570   4.723   5.515
 3051SOL    HW110052   2.520   4.748   5.432
 3051SOL    HW210053   2.590   4.625   5.514
 3052SOL     OW10054   4.694   6.490   2.675
 3052SOL    HW110055   4.722   6.528   2.763
 3052SOL    HW210056   4.595   6.501   2.664
 3053SOL     OW10057   4.698   6.988   1.170
 3053SOL    HW110058   4.679   0.062   1.182
 3053SOL    HW210059   4.623   6.934   1.210
 3054SOL     OW10060   2.041   3.418   6.191
 3054SOL    HW110061   2.066   3.403   6.096
 3054SOL    HW210062   2.091   3.354   6.250
 3055SOL     OW10063   5.567   6.018   3.021
 3055SOL    HW110064   5.651   5.998   2.970
 3055SOL    HW210065   5.585   6.011   3.119
 3056SOL     OW10066   6.424   0.953   1.396
 3056SOL    HW110067   6.327   0.962   1.376
 3056SOL    HW210068   6.474   1.028   1.352
 3057SOL     OW10069   6.781   5.878   2.487
 3057SOL    HW110070   6.830   5.881   2.400
 3057SOL    HW210071   6.821   5.809   2.547
 3058SOL     OW10072   6.189   5.044   1.484
 3058SOL    HW110073   6.241   5.129   1.484
 3058SOL    HW210074   6.252   4.966   1.487
 3059SOL     OW10075   1.914   2.609   4.571
 3059SOL    HW110076   2.006   2.613   4.530
 3059SOL    HW210077   1.850   2.570   4.505
 3060SOL     OW10078   6.482   6.799   0.836
 3060SOL    HW110079   6.445   6.708   0.852
 3060SOL    HW210080   6.563   6.812   0.893
 3061SOL     OW10081   0.055   0.661   5.939
 3061SOL    HW110082   7.008   0.731   5.926
 3061SOL    HW210083   0.017   0.585   5.992
 3062SOL     OW10084   3.060   5.648   6.320
 3062SOL    HW110085   3.056   5.714   6.245
 3062SOL    HW210086   3.101   5.691   6.400
 3063SOL     OW10087   1.712   5.502   0.827
 3063SOL    HW110088   1.754   5.428   0.774
 3063SOL    HW210089   1.738   5.493   0.923
 3064SOL     OW10090   6.860   4.772   3.511
 3064SOL    HW110091   6.915   4.766   3.427
 3064SOL    HW210092   6.769   4.733   3.494
 3065SOL     OW10093   2.096   1.099   1.267
 3065SOL    HW110094   2.038   1.133   1.193
 3065SOL    HW210095   2.142   1.015   1.237
 3066SOL     OW10096   5.364   5.613   0.959
 3066SOL    HW110097   5.272   5.650   0.941
 3066SOL    HW210098   5.430   5.660   0.901
 3067SOL     OW10099   5.296   6.436   3.408
 3067SOL    HW110100   5.213   6.397   3.368
 3067SOL    HW210101   5.289   6.436   3.508
 3068SOL     OW10102   6.032   4.649   0.363
 3068SOL    HW110103   6.111   4.658   0.424
 3068SOL    HW210104   6.063   4.639   0.268
 3069SOL     OW10105   1.154   5.553   3.366
 3069SOL    HW110106   1.081   5.578   3.303
 3069SOL    HW210107   1.166   5.626   3.434
 3070SOL     OW10108   4.052   1.588   4.488
 3070SOL    HW110109   4.072   1.502   4.441
 3070SOL    HW210110   3.955   1.589   4.514
 3071SOL     OW10111   5.909   0.335   3.716
 3071SOL    HW110112   5.890   0.261   3.780
 3071SOL    HW210113   5.924   0.297   3.625
 3072SOL     OW10114   0.719   0.301   2.063
 3072SOL    HW110115   0.753   0.341   1.978
 3072SOL    HW210116   0.774   0.222   2.087
 3073SOL     OW10117   1.612   2.923   4.366
 3073SOL    HW110118   1.602   2.988   4.441
 3073SOL    HW210119   1.522   2.906   4.325
 3074SOL     OW10120   4.818   3.317   5.770
 3074SOL    HW110121   4.786   3.229   5.733
 3074SOL    HW210122   4.744   3.361   5.820
 3075SOL     OW10123   0.943   5.494   1.562
 3075SOL    HW110124   1.020   5.515   1.622
 3075SOL    HW210125   0.868   5.557   1.582
 3076SOL     OW10126   0.239   0.335   5.140
 3076SOL    HW110127   0.333   0.368   5.135
 3076SOL    HW210128   0.219   0.277   5.061
 3077SOL     OW10129   5.035   5.007   3.968
 3077SOL    HW110130   4.980   5.088   3.984
 3077SOL    HW210131   5.053   4.997   3.869
 3078SOL     OW10132   2.166   3.113   0.534
 3078SOL    HW110133   2.084   3.168   0.552
 3078SOL    HW210134   2.210   3.146   0.451
 3079SOL     OW10135   5.979   2.857   6.270
 3079SOL    HW110136   5.960   2.759   6.276
 3079SOL    HW210137   5.917   2.907   6.331
 3080SOL     OW10138   6.207   5.965   0.879
 3080SOL    HW110139   6.114   6.001   0.878
 3080SOL    HW210140   6.257   6.006   0.956
 3081SOL     OW10141   6.721   5.349   5.713
 3081SOL    HW110142   6.708   5.251   5.697
 3081SOL    HW210143   6.783   5.386   5.644
 3082SOL     OW10144   2.158   0.104   2.537
 3082SOL    HW110145   2.167   0.055   2.624
 3082SOL    HW210146   2.158   0.039   2.461
 3083SOL     OW10147   3.413   0.694   1.988
 3083SOL    HW110148   3.375   0.602   1.991
 3083SOL    HW210149   3.464   0.712   2.072
 3084SOL     OW10150   4.936   6.397   4.718
 3084SOL    HW110151   4.953   6.423   4.814
 3084SOL    HW210152   4.868   6.458   4.679
 3085SOL     OW10153   0.684   5.941   1.325
 3085SOL    HW110154   0.776   5.953   1.361
 3085SOL    HW210155   0.619   5.990   1.383
 3086SOL     OW10156   5.974   1.545   4.416
 3086SOL    HW110157   6.033   1.622   4.393
 3086SOL    HW210158   5.992   1.470   4.353
 3087SOL     OW10159   5.760   3.257   2.689
 3087SOL    HW110160   5.751   3.265   2.788
 3087SOL    HW210161   5.693   3.315   2.644
 3088SOL     OW10162   3.082   4.169   5.955
 3088SOL    HW110163   3.155   4.106   5.926
 3088SOL    HW210164   3.064   4.156   6.052
 3089SOL     OW10165   2.042   2.425   0.681
 3089SOL    HW110166   2.096   2.479   0.616
 3089SOL    HW210167   1.955   2.471   0.699
 3090SOL     OW10168   0.849   1.344   1.234
 3090SOL    HW110169   0.845   1.295   1.147
 3090SOL    HW210170   0.889   1.434   1.219
 3091SOL     OW10171   2.580   0.335   0.597
 3091SOL    HW110172   2.625   0.256   0.557
 3091SOL    HW210173   2.638   0.416   0.588
 3092SOL     OW10174   4.216   6.337   1.132
 3092SOL    HW110175   4.122   6.332   1.167
 3092SOL    HW210176   4.280   6.304   1.201
 3093SOL     OW10177   5.157   5.649   3.727
 3093SOL    HW110178   5.067   5.683   3.757
 3093SOL    HW210179   5.211   5.622   3.806
 3094SOL     OW10180   3.184   5.081   5.587
 3094SOL    HW110181   3.261   5.114   5.533
 3094SOL    HW210182   3.104   5.071   5.527
 3095SOL     OW10183   2.851   4.786   4.345
 3095SOL    HW110184   2.931   4.845   4.337
 3095SOL    HW210185   2.819   4.786   4.440
 3096SOL     OW10186   0.004   0.843   5.326
 3096SOL    HW110187   0.069   0.774   5.359
 3096SOL    HW210188   6.958   0.799   5.269
 3097SOL     OW10189   1.707   2.828   0.069
 3097SOL    HW110190   1.690   2.731   0.080
 3097SOL    HW210191   1.636   2.868   0.011
 3098SOL     OW10192   4.183   2.174   0.551
 3098SOL    HW110193   4.140   2.088   0.524
 3098SOL    HW210194   4.133   2.251   0.512
 3099SOL     OW10195   1.137   5.946   4.961
 3099SOL    HW110196   1.095   5.988   4.881
 3099SOL    HW210197   1.198   5.872   4.932
 3100SOL     OW10198   6.373   6.369   0.217
 3100SOL    HW110199   6.299   6.429   0.249
 3100SOL    HW210200   6.454   6.424   0.198
 3101SOL     OW10201   4.186   0.087   0.833
 3101SOL    HW110202   4.283   0.099   0.853
 3101SOL    HW210203   4.134   0.080   0.918
 3102SOL     OW10204   1.062   5.337   0.568
 3102SOL    HW110205   1.030   5.357   0.661
 3102SOL    HW210206   1.127   5.407   0.540
 3103SOL     OW10207   3.956   3.941   1.946
 3103SOL    HW110208   3.942   3.894   1.859
 3103SOL    HW210209   3.999   4.029   1.930
 3104SOL     OW10210   6.827   5.165   3.976
 3104SOL    HW110211   6.875   5.146   4.061
 3104SOL    HW210212   6.772   5.085   3.950
 3105SOL     OW10213   6.610   6.097   3.904
 3105SOL    HW110214   6.580   6.185   3.939
 3105SOL    HW210215   6.543   6.063   3.837
 3106SOL     OW10216   6.710   2.903   4.420
 3106SOL    HW110217   6.710   2.803   4.421
 3106SOL    HW210218   6.616   2.936   4.410
 3107SOL     OW10219   2.728   0.250   3.698
 3107SOL    HW110220   2.827   0.237   3.706
 3107SOL    HW210221   2.682   0.194   3.768
 3108SOL     OW10222   3.322   0.209   3.187
 3108SOL    HW110223   3.315   0.160   3.099
 3108SOL    HW210224   3.357   0.301   3.171
 3109SOL     OW10225   4.675   5.985   3.238
 3109SOL    HW110226   4.580   5.977   3.209
 3109SOL    HW210227   4.721   6.056   3.184
 3110SOL     OW10228   1.117   3.062   2.172
 3110SOL    HW110229   1.109   3.075   2.270
 3110SOL    HW210230   1.074   2.975   2.146
 3111SOL     OW10231   6.376   4.858   3.786
 3111SOL    HW110232   6.333   4.895   3.704
 3111SOL    HW210233   6.418   4.770   3.766
 3112SOL     OW10234   3.095   3.729   6.549
 3112SOL    HW110235   3.121   3.804   6.488
 3112SOL    HW210236   3.171   3.665   6.558
 3113SOL     OW10237   3.941   0.243   3.834
 3113SOL    HW110238   3.978   0.244   3.741
 3113SOL    HW210239   3.978   0.321   3.885
 3114SOL     OW10240   5.579   5.442   0.856
 3114SOL    HW110241   5.498   5.499   0.841
 3114SOL    HW210242   5.654   5.498   0.891
 3115SOL     OW10243   2.680   3.430   1.785
 3115SOL    HW110244   2.764   3.374   1.783
 3115SOL    HW210245   2.697   3.513   1.837
 3116SOL     OW10246   6.809   1.647   6.834
 3116SOL    HW110247   6.776   1.662   6.740
 3116SOL    HW210248   6.761   1.708   6.897
 3117SOL     OW10249   4.065   3.965   5.231
 3117SOL    HW110250   4.104   3.903   5.163
 3117SOL    HW210251   4.137   3.995   5.294
 3118SOL     OW10252   5.931   5.063   0.304
 3118SOL    HW110253   6.025   5.055   0.337
 3118SOL    HW210254   5.927   5.131   0.231
 3119SOL     OW10255   1.675   4.902   5.862
 3119SOL    HW110256   1.691   4.946   5.774
 3119SOL    HW210257   1.744   4.933   5.927
 3120SOL     OW10258   2.798   5.824   5.447
 3120SOL    HW110259   2.820   5.731   5.477
 3120SOL    HW210260   2.701   5.842   5.462
 3121SOL     OW10261   0.607   6.076   2.985
 3121SOL    HW110262   0.614   6.174   2.966
 3121SOL    HW210263   0.514   6.045   2.966
 3122SOL     OW10264   2.712   5.140   0.930
 3122SOL    HW110265   2.662   5.063   0.971
 3122SOL    HW210266   2.685   5.225   0.975
 3123SOL     OW10267   4.110   6.709   4.890
 3123SOL    HW110268   4.191   6.673   4.842
 3123SOL    HW210269   4.140   6.758   4.973
 3124SOL     OW10270   3.289   0.073   6.143
 3124SOL    HW110271   3.348   0.084   6.223
 3124SOL    HW210272   3.281   0.161   6.096
 3125SOL     OW10273   6.750   2.114   5.946
 3125SOL    HW110274   6.767   2.095   5.849
 3125SOL    HW210275   6.785   2.039   6.001
 3126SOL     OW10276   3.773   6.573   0.331
 3126SOL    HW110277   3.854   6.572   0.389
 3126SOL    HW210278   3.787   6.639   0.257
 3127SOL     OW10279   1.071   1.393   3.780
 3127SOL    HW110280   1.034   1.301   3.767
 3127SOL    HW210281   1.044   1.451   3.704
 3128SOL     OW10282   1.281   1.025   0.115
 3128SOL    HW110283   1.189   1.062   0.128
 3128SOL    HW210284   1.275   0.934   0.073
 3129SOL     OW10285   1.748   2.558   4.095
 3129SOL    HW110286   1.693   2.635   4.063
 3129SOL    HW210287   1.783   2.507   4.017
 3130SOL     OW10288   2.045   5.406   2.819
 3130SOL    HW110289   2.048   5.392   2.918
 3130SOL    HW210290   2.138   5.407   2.783
 3131SOL     OW10291   0.086   3.038   3.570
 3131SOL    HW110292   0.003   2.983   3.558
 3131SOL    HW210293   0.162   2.996   3.521
 3132SOL     OW10294   4.929   6.171   5.001
 3132SOL    HW110295   5.009   6.159   4.943
 3132SOL    HW210296   4.921   6.092   5.063
 3133SOL     OW10297   2.454   1.682   3.087
 3133SOL    HW110298   2.518   1.648   3.155
 3133SOL    HW210299   2.377   1.619   3.078
 3134SOL     OW10300   5.178   3.283   2.295
 3134SOL    HW110301   5.179   3.248   2.201
 3134SOL    HW210302   5.083   3.299   2.323
 3135SOL     OW10303   2.923   1.659   3.068
 3135SOL    HW110304   2.929   1.720   3.147
 3135SOL    HW210305   2.834   1.669   3.024
 3136SOL     OW10306   6.274   6.317   5.248
 3136SOL    HW110307   6.301   6.388   5.182
 3136SOL    HW210308   6.223   6.360   5.323
 3137SOL     OW10309   6.675   2.032   4.650
 3137SOL    HW110310   6.672   2.015   4.748
 3137SOL    HW210311   6.711   2.124   4.633
 3138SOL     OW10312   4.899   1.411   4.691
 3138SOL    HW110313   4.869   1.388   4.783
 3138SOL    HW210314   4.990   1.451   4.695
 3139SOL     OW10315   4.870   6.474   5.761
 3139SOL    HW110316   4.771   6.467   5.773
 3139SOL    HW210317   4.916   6.416   5.828
 3140SOL     OW10318   6.489   6.129   6.579
 3140SOL    HW110319   6.565   6.068   6.602
 3140SOL    HW210320   6.445   6.160   6.663
 3141SOL     OW10321   0.978   5.016   0.642
 3141SOL    HW110322   0.986   5.110   0.606
 3141SOL    HW210323   1.066   4.970   0.636
 3142SOL     OW10324   3.642   0.006   6.496
 3142SOL    HW110325   3.639   6.968   6.575
 3142SOL    HW210326   3.691   6.985   6.421
 3143SOL     OW10327   0.007   1.494   0.261
 3143SOL    HW110328   0.076   1.565   0.258
 3143SOL    HW210329   7.011   1.470   0.357
 3144SOL     OW10330   1.755   3.195   6.149
 3144SOL    HW110331   1.770   3.294   6.152
 3144SOL    HW210332   1.709   3.171   6.063
 3145SOL     OW10333   3.684   6.100   3.804
 3145SOL    HW110334   3.710   6.133   3.894
 3145SOL    HW210335   3.607   6.155   3.770
 3146SOL     OW10336   2.197   0.804   3.583
 3146SOL    HW110337   2.107   0.763   3.596
 3146SOL    HW210338   2.268   0.744   3.620
 3147SOL     OW10339   3.840   4.096   0.656
 3147SOL    HW110340   3.759   4.076   0.711
 3147SOL    HW210341   3.922   4.071   0.707
 3148SOL     OW10342   3.543   5.580   5.149
 3148SOL    HW110343   3.604   5.613   5.076
 3148SOL    HW210344   3.489   5.502   5.115
 3149SOL     OW10345   3.120   6.510   6.038
 3149SOL    HW110346   3.071   6.593   6.062
 3149SOL    HW210347   3.058   6.431   6.045
 3150SOL     OW10348   6.504   6.685   4.257
 3150SOL    HW110349   6.504   6.642   4.167
 3150SOL    HW210350   6.460   6.775   4.252
 3151SOL     OW10351   3.535   0.208   0.209
 3151SOL    HW110352   3.454   0.267   0.214
 3151SOL    HW210353   3.603   0.249   0.148
 3152SOL     OW10354   1.518   4.982   0.028
 3152SOL    HW110355   1.510   4.887   0.056
 3152SOL    HW210356   1.428   5.024   0.023
 3153SOL     OW10357   0.021   4.039   2.668
 3153SOL    HW110358   6.984   4.109   2.630
 3153SOL    HW210359   0.098   4.023   2.606
 3154SOL     OW10360   5.743   2.353   6.654
 3154SOL    HW110361   5.719   2.288   6.726
 3154SOL    HW210362   5.661   2.398   6.620
 3155SOL     OW10363   4.501   6.286   0.212
 3155SOL    HW110364   4.558   6.367   0.204
 3155SOL    HW210365   4.408   6.313   0.236
 3156SOL     OW10366   3.617   3.407   3.163
 3156SOL    HW110367   3.696   3.371   3.212
 3156SOL    HW210368   3.536   3.401   3.221
 3157SOL     OW10369   2.206   2.242   4.270
 3157SOL    HW110370   2.238   2.330   4.306
 3157SOL    HW210371   2.106   2.239   4.275
 3158SOL     OW10372   3.907   5.931   1.279
 3158SOL    HW110373   3.866   5.867   1.345
 3158SOL    HW210374   3.844   5.945   1.203
 3159SOL     OW10375   5.780   4.261   0.628
 3159SOL    HW110376   5.694   4.276   0.579
 3159SOL    HW210377   5.847   4.330   0.601
 3160SOL     OW10378   5.545   4.683   0.666
 3160SOL    HW110379   5.605   4.649   0.595
 3160SOL    HW210380   5.450   4.680   0.635
 3161SOL     OW10381   0.742   1.882   2.368
 3161SOL    HW110382   0.660   1.893   2.312
 3161SOL    HW210383   0.750   1.959   2.431
 3162SOL     OW10384   6.209   6.810   5.648
 3162SOL    HW110385   6.200   6.798   5.549
 3162SOL    HW210386   6.276   6.745   5.683
 3163SOL     OW10387   2.716   4.825   5.154
 3163SOL    HW110388   2.711   4.761   5.077
 3163SOL    HW210389   2.787   4.796   5.218
 3164SOL     OW10390   6.017   5.705   6.223
 3164SOL    HW110391   6.099   5.649   6.212
 3164SOL    HW210392   5.966   5.674   6.302
 3165SOL     OW10393   6.908   2.987   1.184
 3165SOL    HW110394   6.849   2.950   1.256
 3165SOL    HW210395   6.902   3.087   1.184
 3166SOL     OW10396   5.229   2.934   6.422
 3166SOL    HW110397   5.325   2.934   6.451
 3166SOL    HW210398   5.172   2.898   6.496
 3167SOL     OW10399   0.578   4.219   2.233
 3167SOL    HW110400   0.603   4.316   2.241
 3167SOL    HW210401   0.641   4.173   2.171
 3168SOL     OW10402   5.140   3.194   0.695
 3168SOL    HW110403   5.239   3.178   0.703
 3168SOL    HW210404   5.123   3.291   0.676
 3169SOL     OW10405   1.946   1.898   5.288
 3169SOL    HW110406   1.999   1.818   5.260
 3169SOL    HW210407   1.863   1.868   5.336
 3170SOL     OW10408   4.602   0.880   5.905
 3170SOL    HW110409   4.531   0.944   5.877
 3170SOL    HW210410   4.577   0.788   5.876
 3171SOL     OW10411   6.088   0.135   3.487
 3171SOL    HW110412   6.184   0.160   3.499
 3171SOL    HW210413   6.066   0.129   3.389
 3172SOL     OW10414   5.663   0.317   5.932
 3172SOL    HW110415   5.718   0.332   5.850
 3172SOL    HW210416   5.621   0.226   5.928
 3173SOL     OW10417   1.914   1.424   1.634
 3173SOL    HW110418   1.939   1.518   1.610
 3173SOL    HW210419   1.995   1.366   1.631
 3174SOL     OW10420   1.864   3.558   6.296
 3174SOL    HW110421   1.952   3.518   6.271
 3174SOL    HW210422   1.804   3.487   6.333
 3175SOL     OW10423   6.658   5.987   0.962
 3175SOL    HW110424   6.619   6.057   0.902
 3175SOL    HW210425   6.718   5.927   0.908
 3176SOL     OW10426   1.633   6.028   6.203
 3176SOL    HW110427   1.555   6.092   6.201
 3176SOL    HW210428   1.599   5.934   6.208
 3177SOL     OW10429   0.784   0.035   4.038
 3177SOL    HW110430   0.814   0.037   4.134
 3177SOL    HW210431   0.741   6.970   4.019
 3178SOL     OW10432   2.162   3.094   0.888
 3178SOL    HW110433   2.254   3.131   0.905
 3178SOL    HW210434   2.161   3.045   0.801
 3179SOL     OW10435   1.310   2.248   3.253
 3179SOL    HW110436   1.255   2.313   3.305
 3179SOL    HW210437   1.391   2.295   3.217
 3180SOL     OW10438   5.458   1.429   6.466
 3180SOL    HW110439   5.470   1.514   6.517
 3180SOL    HW210440   5.435   1.449   6.371
 3181SOL     OW10441   0.386   1.762   3.545
 3181SOL    HW110442   0.441   1.843   3.525
 3181SOL    HW210443   0.338   1.774   3.632
 3182SOL     OW10444   1.580   4.938   5.483
 3182SOL    HW110445   1.521   5.017   5.469
 3182SOL    HW210446   1.670   4.955   5.442
 3183SOL     OW10447   4.916   2.846   1.207
 3183SOL    HW110448   4.958   2.898   1.282
 3183SOL    HW210449   4.817   2.844   1.221
 3184SOL     OW10450   1.423   1.375   3.223
 3184SOL    HW110451   1.473   1.375   3.310
 3184SOL    HW210452   1.457   1.448   3.165
 3185SOL     OW10453   0.358   6.479   6.250
 3185SOL    HW110454   0.387   6.521   6.164
 3185SOL    HW210455   0.404   6.526   6.326
 3186SOL     OW10456   3.185   0.384   1.635
 3186SOL    HW110457   3.158   0.461   1.692
 3186SOL    HW210458   3.284   0.372   1.638
 3187SOL     OW10459   3.274   4.403   0.091
 3187SOL    HW110460   3.183   4.444   0.096
 3187SOL    HW210461   3.277   4.320   0.147
 3188SOL     OW10462   4.601   0.123   3.423
 3188SOL    HW110463   4.527   0.190   3.421
 3188SOL    HW210464   4.630   0.102   3.330
 3189SOL     OW10465   6.742   6.894   1.652
 3189SOL    HW110466   6.650   6.928   1.668
 3189SOL    HW210467   6.738   6.808   1.601
 3190SOL     OW10468   0.799   6.554   1.118
 3190SOL    HW110469   0.724   6.523   1.176
 3190SOL    HW210470   0.825   6.480   1.056
 3191SOL     OW10471   2.948   0.489   0.938
 3191SOL    HW110472   2.923   0.549   0.862
 3191SOL    HW210473   2.871   0.428   0.959
 3192SOL     OW10474   5.915   2.201   3.879
 3192SOL    HW110475   5.911   2.159   3.969
 3192SOL    HW210476   5.875   2.140   3.811
 3193SOL     OW10477   4.821   4.345   0.629
 3193SOL    HW110478   4.870   4.423   0.588
 3193SOL    HW210479   4.881   4.265   0.629
 3194SOL     OW10480   2.090   4.767   5.466
 3194SOL    HW110481   2.070   4.710   5.386
 3194SOL    HW210482   2.181   4.807   5.456
 3195SOL     OW10483   0.998   3.755   3.097
 3195SOL    HW110484   0.936   3.721   3.026
 3195SOL    HW210485   1.060   3.823   3.057
 3196SOL     OW10486   0.389   6.392   5.472
 3196SOL    HW110487   0.352   6.340   5.549
 3196SOL    HW210488   0.486   6.408   5.485
 3197SOL     OW10489   0.652   4.031   4.196
 3197SOL    HW110490   0.609   3.955   4.245
 3197SOL    HW210491   0.582   4.085   4.149
 3198SOL     OW10492   5.410   6.672   0.018
 3198SOL    HW110493   5.407   6.638   0.112
 3198SOL    HW210494   5.391   6.770   0.017
 3199SOL     OW10495   3.345   1.651   2.851
 3199SOL    HW110496   3.430   1.685   2.893
 3199SOL    HW210497   3.275   1.722   2.858
 3200SOL     OW10498   0.034   2.038   0.681
 3200SOL    HW110499   7.013   1.996   0.760
 3200SOL    HW210500   6.989   2.082   0.623
 3201SOL     OW10501   4.753   4.232   3.171
 3201SOL    HW110502   4.724   4.326   3.192
 3201SOL    HW210503   4.756   4.179   3.256
 3202SOL     OW10504   1.078   5.804   2.207
 3202SOL    HW110505   1.161   5.793   2.261
 3202SOL    HW210506   1.057   5.719   2.160
 3203SOL     OW10507   4.926   0.511   1.029
 3203SOL    HW110508   4.932   0.573   0.951
 3203SOL    HW210509   4.993   0.539   1.098
 3204SOL     OW10510   6.404   6.229   1.848
 3204SOL    HW110511   6.329   6.230   1.782
 3204SOL    HW210512   6.390   6.300   1.916
 3205SOL     OW10513   1.162   3.851   3.457
 3205SOL    HW110514   1.209   3.762   3.456
 3205SOL    HW210515   1.117   3.866   3.369
 3206SOL     OW10516   1.590   6.505   0.347
 3206SOL    HW110517   1.616   6.408   0.347
 3206SOL    HW210518   1.663   6.559   0.389
 3207SOL     OW10519   0.560   1.227   2.501
 3207SOL    HW110520   0.565   1.159   2.427
 3207SOL    HW210521   0.479   1.284   2.488
 3208SOL     OW10522   5.995   0.621   4.712
 3208SOL    HW110523   5.930   0.547   4.728
 3208SOL    HW210524   6.086   0.583   4.699
 3209SOL     OW10525   2.212   0.112   2.897
 3209SOL    HW110526   2.255   0.137   2.984
 3209SOL    HW210527   2.117   0.142   2.897
 3210SOL     OW10528   0.640   4.853   2.114
 3210SOL    HW110529   0.693   4.934   2.139
 3210SOL    HW210530   0.702   4.781   2.084
 3211SOL     OW10531   1.174   3.892   2.791
 3211SOL    HW110532   1.226   3.809   2.810
 3211SOL    HW210533   1.233   3.958   2.744
 3212SOL     OW10534   4.955   2.994   5.415
 3212SOL    HW110535   4.922   2.980   5.508
 3212SOL    HW210536   5.055   2.989   5.414
 3213SOL     OW10537   4.820   0.130   1.463
 3213SOL    HW110538   4.851   0.225   1.452
 3213SOL    HW210539   4.897   0.068   1.449
 3214SOL     OW10540   3.988   4.233   6.237
 3214SOL    HW110541   3.909   4.193   6.284
 3214SOL    HW210542   4.070   4.182   6.261
 3215SOL     OW10543   6.032   1.370   0.142
 3215SOL    HW110544   5.947   1.355   0.193
 3215SOL    HW210545   6.016   1.353   0.045
 3216SOL     OW10546   6.373   6.519   5.091
 3216SOL    HW110547   6.458   6.560   5.059
 3216SOL    HW210548   6.299   6.587   5.084
 3217SOL     OW10549   7.018   4.083   0.504
 3217SOL    HW110550   0.047   4.004   0.472
 3217SOL    HW210551   0.027   4.109   0.595
 3218SOL     OW10552   3.439   1.082   2.137
 3218SOL    HW110553   3.381   1.116   2.063
 3218SOL    HW210554   3.411   1.123   2.223
 3219SOL     OW10555   6.962   6.483   4.198
 3219SOL    HW110556   6.905   6.565   4.193
 3219SOL    HW210557   0.030   6.508   4.232
 3220SOL     OW10558   5.649   2.801   6.615
 3220SOL    HW110559   5.585   2.774   6.544
 3220SOL    HW210560   5.623   2.758   6.702
 3221SOL     OW10561   3.656   0.121   2.473
 3221SOL    HW110562   3.562   0.103   2.500
 3221SOL    HW210563   3.710   0.146   2.553
 3222SOL     OW10564   6.369   3.819   2.127
 3222SOL    HW110565   6.455   3.867   2.107
 3222SOL    HW210566   6.353   3.749   2.058
 3223SOL     OW10567   2.456   4.610   3.829
 3223SOL    HW110568   2.433   4.584   3.923
 3223SOL    HW210569   2.547   4.651   3.828
 3224SOL     OW10570   3.263   5.896   1.446
 3224SOL    HW110571   3.283   5.982   1.400
 3224SOL    HW210572   3.197   5.913   1.520
 3225SOL     OW10573   1.831   2.888   1.014
 3225SOL    HW110574   1.873   2.918   1.100
 3225SOL    HW210575   1.731   2.899   1.020
 3226SOL     OW10576   0.377   0.538   3.899
 3226SOL    HW110577   0.302   0.474   3.919
 3226SOL    HW210578   0.345   0.631   3.916
 3227SOL     OW10579   1.899   1.598   5.319
 3227SOL    HW110580   1.994   1.604   5.285
 3227SOL    HW210581   1.837   1.593   5.241
 3228SOL     OW10582   5.058   3.327   4.520
 3228SOL    HW110583   5.047   3.258   4.592
 3228SOL    HW210584   5.154   3.330   4.491
 3229SOL     OW10585   4.300   1.723   5.322
 3229SOL    HW110586   4.374   1.661   5.349
 3229SOL    HW210587   4.305   1.739   5.223
 3230SOL     OW10588   1.583   0.549   4.067
 3230SOL    HW110589   1.552   0.456   4.052
 3230SOL    HW210590   1.549   0.583   4.154
 3231SOL     OW10591   4.882   5.195   0.172
 3231SOL    HW110592   4.932   5.109   0.185
 3231SOL    HW210593   4.818   5.207   0.248
 3232SOL     OW10594   1.972   4.594   3.309
 3232SOL    HW110595   2.020   4.581   3.396
 3232SOL    HW210596   1.890   4.537   3.309
 3233SOL     OW10597   1.430   3.832   0.371
 3233SOL    HW110598   1.357   3.772   0.405
 3233SOL    HW210599   1.504   3.777   0.334
 3234SOL     OW10600   6.549   2.537   5.142
 3234SOL    HW110601   6.491   2.598   5.087
 3234SOL    HW210602   6.611   2.488   5.081
 3235SOL     OW10603   5.393   0.711   2.505
 3235SOL    HW110604   5.308   0.705   2.453
 3235SOL    HW210605   5.444   0.793   2.478
 3236SOL     OW10606   0.003   3.049   1.465
 3236SOL    HW110607   7.010   2.952   1.483
 3236SOL    HW210608   0.034   3.094   1.549
 3237SOL     OW10609   3.143   6.526   4.447
 3237SOL    HW110610   3.227   6.477   4.429
 3237SOL    HW210611   3.068   6.461   4.460
 3238SOL     OW10612   6.532   6.158   6.255
 3238SOL    HW110613   6.594   6.091   6.213
 3238SOL    HW210614   6.521   6.137   6.352
 3239SOL     OW10615   0.788   6.168   5.438
 3239SOL    HW110616   0.844   6.138   5.360
 3239SOL    HW210617   0.771   6.091   5.499
 3240SOL     OW10618   6.997   2.204   4.953
 3240SOL    HW110619   6.995   2.167   4.860
 3240SOL    HW210620   6.935   2.151   5.011
 3241SOL     OW10621   4.813   6.695   5.326
 3241SOL    HW110622   4.805   6.757   5.405
 3241SOL    HW210623   4.727   6.646   5.315
 3242SOL     OW10624   3.207   6.795   0.958
 3242SOL    HW110625   3.216   6.739   0.876
 3242SOL    HW210626   3.179   6.737   1.035
 3243SOL     OW10627   3.109   5.532   1.271
 3243SOL    HW110628   3.126   5.612   1.329
 3243SOL    HW210629   3.196   5.491   1.245
 3244SOL     OW10630   1.279   6.397   5.692
 3244SOL    HW110631   1.268   6.302   5.664
 3244SOL    HW210632   1.304   6.453   5.613
 3245SOL     OW10633   3.254   2.038   5.715
 3245SOL    HW110634   3.267   1.961   5.652
 3245SOL    HW210635   3.319   2.030   5.790
 3246SOL     OW10636   5.795   6.290   3.816
 3246SOL    HW110637   5.846   6.255   3.738
 3246SOL    HW210638   5.805   6.390   3.820
 3247SOL     OW10639   6.495   2.522   5.583
 3247SOL    HW110640   6.534   2.566   5.501
 3247SOL    HW210641   6.444   2.440   5.555
 3248SOL     OW10642   5.220   3.955   2.783
 3248SOL    HW110643   5.210   3.887   2.710
 3248SOL    HW210644   5.137   4.010   2.789
 3249SOL     OW10645   2.979   4.797   5.650
 3249SOL    HW110646   2.956   4.751   5.736
 3249SOL    HW210647   2.924   4.880   5.642
 3250SOL     OW10648   4.797   5.462   1.525
 3250SOL    HW110649   4.856   5.391   1.563
 3250SOL    HW210650   4.711   5.422   1.495
 3251SOL     OW10651   3.749   0.662   3.519
 3251SOL    HW110652   3.696   0.649   3.602
 3251SOL    HW210653   3.755   0.759   3.498
 3252SOL     OW10654   3.365   2.111   3.398
 3252SOL    HW110655   3.288   2.147   3.450
 3252SOL    HW210656   3.378   2.014   3.420
 3253SOL     OW10657   4.595   4.546   1.016
 3253SOL    HW110658   4.643   4.592   1.091
 3253SOL    HW210659   4.515   4.601   0.990
 3254SOL     OW10660   6.061   4.273   2.471
 3254SOL    HW110661   6.045   4.366   2.503
 3254SOL    HW210662   6.146   4.271   2.417
 3255SOL     OW10663   4.373   5.226   0.851
 3255SOL    HW110664   4.364   5.181   0.940
 3255SOL    HW210665   4.448   5.292   0.855
 3256SOL     OW10666   5.909   6.300   5.829
 3256SOL    HW110667   5.995   6.256   5.856
 3256SOL    HW210668   5.929   6.388   5.787
 3257SOL     OW10669   2.176   1.856   1.019
 3257SOL    HW110670   2.094   1.906   0.991
 3257SOL    HW210671   2.176   1.846   1.119
 3258SOL     OW10672   5.111   6.765   1.387
 3258SOL    HW110673   5.025   6.775   1.337
 3258SOL    HW210674   5.100   6.693   1.457
 3259SOL     OW10675   5.930   6.257   3.000
 3259SOL    HW110676   5.924   6.298   2.909
 3259SOL    HW210677   5.970   6.166   2.992
 3260SOL     OW10678   1.528   1.736   0.994
 3260SOL    HW110679   1.589   1.779   1.061
 3260SOL    HW210680   1.579   1.716   0.911
 3261SOL     OW10681   4.437   6.887   3.769
 3261SOL    HW110682   4.344   6.915   3.791
 3261SOL    HW210683   4.501   6.937   3.827
 3262SOL     OW10684   3.834   1.173   3.993
 3262SOL    HW110685   3.826   1.260   3.944
 3262SOL    HW210686   3.744   1.143   4.023
 3263SOL     OW10687   3.913   5.033   2.805
 3263SOL    HW110688   3.924   5.116   2.749
 3263SOL    HW210689   4.003   5.003   2.838
 3264SOL     OW10690   4.965   4.770   6.197
 3264SOL    HW110691   4.957   4.855   6.145
 3264SOL    HW210692   5.023   4.706   6.147
 3265SOL     OW10693   5.087   6.912   6.446
 3265SOL    HW110694   5.165   6.916   6.384
 3265SOL    HW210695   5.010   6.869   6.400
 3266SOL     OW10696   1.135   2.780   6.506
 3266SOL    HW110697   1.052   2.802   6.455
 3266SOL    HW210698   1.112   2.762   6.601
 3267SOL     OW10699   5.170   3.176   2.047
 3267SOL    HW110700   5.149   3.177   1.949
 3267SOL    HW210701   5.220   3.093   2.071
 3268SOL     OW10702   1.727   4.627   6.862
 3268SOL    HW110703   1.776   4.683   6.929
 3268SOL    HW210704   1.667   4.562   6.909
 3269SOL     OW10705   4.806   3.563   0.507
 3269SOL    HW110706   4.876   3.632   0.528
 3269SOL    HW210707   4.773   3.522   0.591
 3270SOL     OW10708   0.685   5.331   4.339
 3270SOL    HW110709   0.686   5.366   4.246
 3270SOL    HW210710   0.592   5.304   4.364
 3271SOL     OW10711   4.799   0.313   2.208
 3271SOL    HW110712   4.894   0.332   2.186
 3271SOL    HW210713   4.767   0.236   2.153
 3272SOL     OW10714   5.021   6.542   6.925
 3272SOL    HW110715   5.103   6.484   6.920
 3272SOL    HW210716   5.044   6.629   6.967
 3273SOL     OW10717   1.176   1.183   2.888
 3273SOL    HW110718   1.081   1.205   2.864
 3273SOL    HW210719   1.228   1.268   2.895
 3274SOL     OW10720   2.834   1.419   6.797
 3274SOL    HW110721   2.742   1.451   6.821
 3274SOL    HW210722   2.891   1.497   6.772
 3275SOL     OW10723   4.147   0.977   6.985
 3275SOL    HW110724   4.099   0.997   0.047
 3275SOL    HW210725   4.175   0.881   6.984
 3276SOL     OW10726   2.045   6.259   0.474
 3276SOL    HW110727   2.000   6.242   0.387
 3276SOL    HW210728   2.085   6.351   0.473
 3277SOL     OW10729   6.970   6.493   6.110
 3277SOL    HW110730   0.026   6.528   6.060
 3277SOL    HW210731   7.000   6.425   6.177
 3278SOL     OW10732   1.054   1.146   0.110
 3278SOL    HW110733   0.965   1.170   0.150
 3278SOL    HW210734   1.100   1.230   0.081
 3279SOL     OW10735   1.975   6.367   0.843
 3279SOL    HW110736   1.937   6.342   0.754
 3279SOL    HW210737   1.945   6.299   0.911
 3280SOL     OW10738   2.577   6.189   4.477
 3280SOL    HW110739   2.568   6.286   4.457
 3280SOL    HW210740   2.616   6.142   4.397
 3281SOL     OW10741   2.501   6.281   0.525
 3281SOL    HW110742   2.427   6.219   0.551
 3281SOL    HW210743   2.517   6.276   0.427
 3282SOL     OW10744   1.943   5.656   2.394
 3282SOL    HW110745   1.912   5.563   2.417
 3282SOL    HW210746   1.869   5.705   2.349
 3283SOL     OW10747   2.183   6.915   4.102
 3283SOL    HW110748   2.112   6.864   4.053
 3283SOL    HW210749   2.273   6.882   4.074
 3284SOL     OW10750   1.340   4.926   5.985
 3284SOL    HW110751   1.395   4.852   5.948
 3284SOL    HW210752   1.374   5.014   5.952
 3285SOL     OW10753   0.207   2.590   4.207
 3285SOL    HW110754   0.248   2.680   4.195
 3285SOL    HW210755   0.176   2.554   4.118
 3286SOL     OW10756   4.290   4.791   6.500
 3286SOL    HW110757   4.305   4.768   6.404
 3286SOL    HW210758   4.377   4.811   6.544
 3287SOL     OW10759   0.626   3.760   1.570
 3287SOL    HW110760   0.527   3.755   1.557
 3287SOL    HW210761   0.657   3.679   1.619
 3288SOL     OW10762   1.143   6.752   6.441
 3288SOL    HW110763   1.241   6.750   6.422
 3288SOL    HW210764   1.092   6.717   6.362
 3289SOL     OW10765   1.316   5.914   4.116
 3289SOL    HW110766   1.316   5.815   4.108
 3289SOL    HW210767   1.378   5.953   4.047
 3290SOL     OW10768   0.018   4.854   3.313
 3290SOL    HW110769   7.004   4.947   3.308
 3290SOL    HW210770   7.000   4.797   3.242
 3291SOL     OW10771   1.621   0.475   2.031
 3291SOL    HW110772   1.556   0.505   1.962
 3291SOL    HW210773   1.690   0.416   1.988
 3292SOL     OW10774   0.818   5.671   4.806
 3292SOL    HW110775   0.782   5.637   4.893
 3292SOL    HW210776   0.891   5.610   4.774
 3293SOL     OW10777   5.986   1.277   3.123
 3293SOL    HW110778   6.081   1.249   3.132
 3293SOL    HW210779   5.980   1.362   3.071
 3294SOL     OW10780   0.353   6.584   1.022
 3294SOL    HW110781   0.255   6.600   1.011
 3294SOL    HW210782   0.368   6.523   1.100
 3295SOL     OW10783   2.169   2.000   6.152
 3295SOL    HW110784   2.083   2.050   6.149
 3295SOL    HW210785   2.208   2.006   6.244
 3296SOL     OW10786   0.621   6.760   2.332
 3296SOL    HW110787   0.702   6.773   2.389
 3296SOL    HW210788   0.612   6.838   2.270
 3297SOL     OW10789   2.996   1.581   5.836
 3297SOL    HW110790   2.978   1.636   5.755
 3297SOL    HW210791   3.069   1.623   5.890
 3298SOL     OW10792   6.917   4.276   2.553
 3298SOL    HW110793   6.821   4.298   2.570
 3298SOL    HW210794   6.975   4.343   2.600
 3299SOL     OW10795   0.984   1.800   4.530
 3299SOL    HW110796   0.922   1.838   4.599
 3299SOL    HW210797   0.946   1.715   4.494
 3300SOL     OW10798   6.680   0.076   5.288
 3300SOL    HW110799   6.778   0.090   5.277
 3300SOL    HW210800   6.656   7.005   5.261
 3301SOL     OW10801   0.010   3.849   2.167
 3301SOL    HW110802   0.090   3.894   2.129
 3301SOL    HW210803   0.036   3.758   2.201
 3302SOL     OW10804   1.183   6.153   5.167
 3302SOL    HW110805   1.232   6.098   5.234
 3302SOL    HW210806   1.175   6.102   5.081
 3303SOL     OW10807   2.962   3.288   3.899
 3303SOL    HW110808   2.964   3.210   3.961
 3303SOL    HW210809   2.938   3.370   3.950
 3304SOL     OW10810   1.363   0.672   3.280
 3304SOL    HW110811   1.268   0.644   3.291
 3304SOL    HW210812   1.394   0.651   3.187
 3305SOL     OW10813   0.621   2.732   0.237
 3305SOL    HW110814   0.560   2.803   0.202
 3305SOL    HW210815   0.671   2.768   0.317
 3306SOL     OW10816   1.193   2.706   2.242
 3306SOL    HW110817   1.162   2.762   2.165
 3306SOL    HW210818   1.113   2.670   2.291
 3307SOL     OW10819   0.788   0.062   0.660
 3307SOL    HW110820   0.737   0.013   0.731
 3307SOL    HW210821   0.849   0.128   0.703
 3308SOL     OW10822   5.081   6.156   1.042
 3308SOL    HW110823   5.156   6.107   1.086
 3308SOL    HW210824   5.079   6.250   1.075
 3309SOL     OW10825   1.805   5.187   2.491
 3309SOL    HW110826   1.826   5.154   2.399
 3309SOL    HW210827   1.877   5.159   2.554
 3310SOL     OW10828   1.544   6.916   2.177
 3310SOL    HW110829   1.582   6.905   2.085
 3310SOL    HW210830   1.525   6.826   2.216
 3311SOL     OW10831   3.817   5.939   1.022
 3311SOL    HW110832   3.741   5.893   0.977
 3311SOL    HW210833   3.834   6.026   0.976
 3312SOL     OW10834   2.165   2.919   6.319
 3312SOL    HW110835   2.197   2.890   6.229
 3312SOL    HW210836   2.092   2.858   6.349
 3313SOL     OW10837   6.462   6.260   4.808
 3313SOL    HW110838   6.452   6.304   4.719
 3313SOL    HW210839   6.386   6.197   4.823
 3314SOL     OW10840   0.950   4.559   6.688
 3314SOL    HW110841   0.855   4.554   6.720
 3314SOL    HW210842   0.957   4.628   6.616
 3315SOL     OW10843   6.560   2.945   3.374
 3315SOL    HW110844   6.497   2.905   3.308
 3315SOL    HW210845   6.512   3.013   3.430
 3316SOL     OW10846   4.072   1.440   0.053
 3316SOL    HW110847   4.081   1.356   7.022
 3316SOL    HW210848   4.096   1.421   0.148
 3317SOL     OW10849   4.142   2.606   1.577
 3317SOL    HW110850   4.215   2.670   1.602
 3317SOL    HW210851   4.159   2.517   1.621
 3318SOL     OW10852   2.663   5.283   5.557
 3318SOL    HW110853   2.692   5.331   5.475
 3318SOL    HW210854   2.635   5.349   5.627
 3319SOL     OW10855   6.865   6.508   6.840
 3319SOL    HW110856   6.786   6.565   6.817
 3319SOL    HW210857   6.847   6.459   6.925
 3320SOL     OW10858   0.571   0.125   0.492
 3320SOL    HW110859   0.523   0.082   0.416
 3320SOL    HW210860   0.616   0.054   0.547
 3321SOL     OW10861   4.076   3.785   4.017
 3321SOL    HW110862   3.977   3.775   4.009
 3321SOL    HW210863   4.114   3.703   4.059
 3322SOL     OW10864   4.328   1.884   1.915
 3322SOL    HW110865   4.382   1.962   1.946
 3322SOL    HW210866   4.233   1.912   1.904
 3323SOL     OW10867   2.215   4.645   0.320
 3323SOL    HW110868   2.302   4.599   0.301
 3323SOL    HW210869   2.158   4.585   0.376
 3324SOL     OW10870   6.410   3.291   1.423
 3324SOL    HW110871   6.318   3.281   1.461
 3324SOL    HW210872   6.470   3.333   1.491
 3325SOL     OW10873   0.962   4.842   6.060
 3325SOL    HW110874   1.013   4.912   6.110
 3325SOL    HW210875   0.945   4.764   6.120
 3326SOL     OW10876   5.650   0.667   2.297
 3326SOL    HW110877   5.742   0.631   2.312
 3326SOL    HW210878   5.590   0.593   2.267
 3327SOL     OW10879   4.530   6.132   2.234
 3327SOL    HW110880   4.619   6.091   2.214
 3327SOL    HW210881   4.542   6.227   2.262
 3328SOL     OW10882   6.248   6.561   4.201
 3328SOL    HW110883   6.340   6.580   4.236
 3328SOL    HW210884   6.220   6.469   4.230
 3329SOL     OW10885   5.510   0.571   6.310
 3329SOL    HW110886   5.603   0.534   6.316
 3329SOL    HW210887   5.463   0.557   6.397
 3330SOL     OW10888   6.755   6.744   2.743
 3330SOL    HW110889   6.704   6.669   2.785
 3330SOL    HW210890   6.700   6.785   2.670
 3331SOL     OW10891   1.703   4.124   2.845
 3331SOL    HW110892   1.627   4.085   2.897
 3331SOL    HW210893   1.738   4.205   2.892
 3332SOL     OW10894   3.317   5.321   0.366
 3332SOL    HW110895   3.321   5.255   0.291
 3332SOL    HW210896   3.275   5.406   0.334
 3333SOL     OW10897   1.854   3.375   1.057
 3333SOL    HW110898   1.862   3.463   1.011
 3333SOL    HW210899   1.876   3.301   0.993
 3334SOL     OW10900   1.291   2.410   1.933
 3334SOL    HW110901   1.287   2.310   1.936
 3334SOL    HW210902   1.202   2.448   1.957
 3335SOL     OW10903   3.485   4.274   5.517
 3335SOL    HW110904   3.532   4.359   5.539
 3335SOL    HW210905   3.409   4.261   5.581
 3336SOL     OW10906   3.823   5.968   5.667
 3336SOL    HW110907   3.886   5.945   5.741
 3336SOL    HW210908   3.784   6.059   5.683
 3337SOL     OW10909   3.829   3.081   3.810
 3337SOL    HW110910   3.858   3.074   3.714
 3337SOL    HW210911   3.731   3.098   3.813
 3338SOL     OW10912   2.767   2.929   1.522
 3338SOL    HW110913   2.754   2.955   1.426
 3338SOL    HW210914   2.680   2.938   1.571
 3339SOL     OW10915   0.715   0.041   6.897
 3339SOL    HW110916   0.712   0.069   6.801
 3339SOL    HW210917   0.763   6.977   6.905
 3340SOL     OW10918   4.183   1.684   6.129
 3340SOL    HW110919   4.179   1.687   6.228
 3340SOL    HW210920   4.099   1.722   6.090
 3341SOL     OW10921   1.237   4.039   1.144
 3341SOL    HW110922   1.296   3.968   1.183
 3341SOL    HW210923   1.189   4.087   1.218
 3342SOL     OW10924   6.125   0.442   2.112
 3342SOL    HW110925   6.131   0.462   2.014
 3342SOL    HW210926   6.176   0.358   2.132
 3343SOL     OW10927   3.353   5.474   1.166
 3343SOL    HW110928   3.378   5.557   1.116
 3343SOL    HW210929   3.432   5.413   1.170
 3344SOL     OW10930   1.391   3.304   2.016
 3344SOL    HW110931   1.299   3.345   2.015
 3344SOL    HW210932   1.451   3.357   1.957
 3345SOL     OW10933   5.564   5.727   1.201
 3345SOL    HW110934   5.519   5.663   1.138
 3345SOL    HW210935   5.572   5.684   1.291
 3346SOL     OW10936   1.373   0.755   0.394
 3346SOL    HW110937   1.313   0.793   0.323
 3346SOL    HW210938   1.353   0.657   0.405
 3347SOL     OW10939   1.291   4.093   5.486
 3347SOL    HW110940   1.307   4.191   5.498
 3347SOL    HW210941   1.366   4.042   5.529
 3348SOL     OW10942   3.592   4.276   6.124
 3348SOL    HW110943   3.585   4.270   6.224
 3348SOL    HW210944   3.542   4.201   6.083
 3349SOL     OW10945   1.788   5.234   1.763
 3349SOL    HW110946   1.830   5.165   1.821
 3349SOL    HW210947   1.710   5.275   1.810
 3350SOL     OW10948   2.025   4.898   4.927
 3350SOL    HW110949   2.065   4.987   4.951
 3350SOL    HW210950   2.091   4.826   4.947
 3351SOL     OW10951   5.401   0.130   1.998
 3351SOL    HW110952   5.312   0.169   1.971
 3351SOL    HW210953   5.401   0.112   2.096
 3352SOL     OW10954   5.218   1.510   0.148
 3352SOL    HW110955   5.220   1.566   0.065
 3352SOL    HW210956   5.301   1.455   0.153
 3353SOL     OW10957   3.911   1.263   6.728
 3353SOL    HW110958   3.866   1.287   6.642
 3353SOL    HW210959   3.844   1.265   6.802
 3354SOL     OW10960   2.253   3.211   0.280
 3354SOL    HW110961   2.199   3.146   0.227
 3354SOL    HW210962   2.330   3.243   0.225
 3355SOL     OW10963   1.002   0.705   4.494
 3355SOL    HW110964   1.005   0.787   4.551
 3355SOL    HW210965   1.004   0.731   4.398
 3356SOL     OW10966   2.886   0.736   6.122
 3356SOL    HW110967   2.964   0.732   6.184
 3356SOL    HW210968   2.853   0.643   6.104
 3357SOL     OW10969   2.913   3.516   3.099
 3357SOL    HW110970   2.917   3.446   3.171
 3357SOL    HW210971   2.859   3.593   3.132
 3358SOL     OW10972   0.170   1.654   1.193
 3358SOL    HW110973   0.139   1.596   1.269
 3358SOL    HW210974   0.227   1.728   1.229
 3359SOL     OW10975   1.097   6.967   3.992
 3359SOL    HW110976   1.132   6.873   3.996
 3359SOL    HW210977   1.074   6.997   4.085
 3360SOL     OW10978   1.973   5.015   4.522
 3360SOL    HW110979   1.932   5.029   4.432
 3360SOL    HW210980   1.956   5.096   4.579
 3361SOL     OW10981   6.824   6.478   4.890
 3361SOL    HW110982   6.750   6.474   4.823
 3361SOL    HW210983   6.902   6.528   4.850
 3362SOL     OW10984   3.808   0.412   4.434
 3362SOL    HW110985   3.857   0.402   4.520
 3362SOL    HW210986   3.862   0.372   4.360
 3363SOL     OW10987   5.362   3.888   0.186
 3363SOL    HW110988   5.342   3.803   0.137
 3363SOL    HW210989   5.335   3.879   0.282
 3364SOL     OW10990   1.768   3.531   1.640
 3364SOL    HW110991   1.783   3.432   1.638
 3364SOL    HW210992   1.785   3.565   1.733
 3365SOL     OW10993   1.312   2.708   2.665
 3365SOL    HW110994   1.325   2.808   2.664
 3365SOL    HW210995   1.348   2.672   2.751
 3366SOL     OW10996   6.249   2.814   4.229
 3366SOL    HW110997   6.317   2.863   4.174
 3366SOL    HW210998   6.210   2.877   4.297
 3367SOL     OW10999   3.400   3.066   3.622
 3367SOL    HW111000   3.477   3.011   3.590
 3367SOL    HW211001   3.318   3.043   3.570
 3368SOL     OW11002   2.396   1.093   3.290
 3368SOL    HW111003   2.486   1.122   3.319
 3368SOL    HW211004   2.335   1.086   3.369
 3369SOL     OW11005   5.308   2.761   1.105
 3369SOL    HW111006   5.224   2.810   1.081
 3369SOL    HW211007   5.285   2.672   1.143
 3370SOL     OW11008   1.227   5.969   3.124
 3370SOL    HW111009   1.308   5.912   3.115
 3370SOL    HW211010   1.162   5.926   3.186
 3371SOL     OW11011   2.551   3.206   1.182
 3371SOL    HW111012   2.483   3.207   1.255
 3371SOL    HW211013   2.619   3.134   1.200
 3372SOL     OW11014   5.831   2.944   3.751
 3372SOL    HW111015   5.878   2.863   3.717
 3372SOL    HW211016   5.896   3.019   3.760
 3373SOL     OW11017   0.078   4.525   0.763
 3373SOL    HW111018   0.023   4.604   0.736
 3373SOL    HW211019   0.022   4.442   0.759
 3374SOL     OW11020   0.817   6.017   4.307
 3374SOL    HW111021   0.841   6.056   4.396
 3374SOL    HW211022   0.895   5.967   4.270
 3375SOL     OW11023   0.613   6.289   6.000
 3375SOL    HW111024   0.633   6.364   5.938
 3375SOL    HW211025   0.514   6.271   5.999
 3376SOL     OW11026   3.001   3.217   4.773
 3376SOL    HW111027   2.937   3.249   4.842
 3376SOL    HW211028   3.033   3.125   4.796
 3377SOL     OW11029   6.565   5.114   4.334
 3377SOL    HW111030   6.636   5.177   4.367
 3377SOL    HW211031   6.519   5.072   4.412
 3378SOL     OW11032   0.983   5.873   0.533
 3378SOL    HW111033   0.970   5.801   0.464
 3378SOL    HW211034   0.928   5.953   0.508
 3379SOL     OW11035   6.173   4.246   4.012
 3379SOL    HW111036   6.168   4.334   3.964
 3379SOL    HW211037   6.238   4.252   4.087
 3380SOL     OW11038   1.883   5.418   1.357
 3380SOL    HW111039   1.946   5.421   1.434
 3380SOL    HW211040   1.865   5.322   1.332
 3381SOL     OW11041   3.001   3.721   6.018
 3381SOL    HW111042   3.084   3.763   5.983
 3381SOL    HW211043   3.025   3.648   6.083
 3382SOL     OW11044   6.739   3.732   6.809
 3382SOL    HW111045   6.764   3.823   6.844
 3382SOL    HW211046   6.762   3.663   6.877
 3383SOL     OW11047   3.211   5.444   0.865
 3383SOL    HW111048   3.118   5.409   0.875
 3383SOL    HW211049   3.225   5.475   0.771
 3384SOL     OW11050   2.692   2.931   6.318
 3384SOL    HW111051   2.779   2.934   6.269
 3384SOL    HW211052   2.707   2.950   6.415
 3385SOL     OW11053   6.129   2.748   4.658
 3385SOL    HW111054   6.058   2.815   4.635
 3385SOL    HW211055   6.097   2.691   4.734
 3386SOL     OW11056   0.618   6.396   4.632
 3386SOL    HW111057   0.690   6.463   4.615
 3386SOL    HW211058   0.658   6.312   4.669
 3387SOL     OW11059   6.089   0.617   2.821
 3387SOL    HW111060   6.150   0.625   2.900
 3387SOL    HW211061   6.136   0.568   2.747
 3388SOL     OW11062   0.288   3.745   0.687
 3388SOL    HW111063   0.377   3.699   0.688
 3388SOL    HW211064   0.224   3.697   0.747
 3389SOL     OW11065   6.666   5.469   6.522
 3389SOL    HW111066   6.649   5.382   6.476
 3389SOL    HW211067   6.718   5.529   6.461
 3390SOL     OW11068   3.073   5.008   0.330
 3390SOL    HW111069   3.085   4.969   0.421
 3390SOL    HW211070   3.163   5.033   0.292
 3391SOL     OW11071   4.896   3.858   5.295
 3391SOL    HW111072   4.950   3.913   5.358
 3391SOL    HW211073   4.802   3.890   5.294
 3392SOL     OW11074   5.351   6.712   5.517
 3392SOL    HW111075   5.360   6.629   5.572
 3392SOL    HW211076   5.257   6.745   5.520
 3393SOL     OW11077   3.395   6.712   0.294
 3393SOL    HW111078   3.394   6.622   0.252
 3393SOL    HW211079   3.489   6.748   0.295
 3394SOL     OW11080   2.979   5.303   0.957
 3394SOL    HW111081   2.936   5.356   1.030
 3394SOL    HW211082   2.916   5.232   0.927
 3395SOL     OW11083   1.852   6.490   2.747
 3395SOL    HW111084   1.805   6.568   2.706
 3395SOL    HW211085   1.846   6.496   2.847
 3396SOL     OW11086   4.765   0.599   4.652
 3396SOL    HW111087   4.689   0.539   4.678
 3396SOL    HW211088   4.834   0.546   4.603
 3397SOL     OW11089   2.440   6.159   0.979
 3397SOL    HW111090   2.522   6.210   0.952
 3397SOL    HW211091   2.359   6.216   0.966
 3398SOL     OW11092   6.750   1.135   6.471
 3398SOL    HW111093   6.665   1.096   6.435
 3398SOL    HW211094   6.749   1.130   6.571
 3399SOL     OW11095   6.972   6.504   1.680
 3399SOL    HW111096   6.910   6.470   1.752
 3399SOL    HW211097   6.979   6.604   1.687
 3400SOL     OW11098   3.380   2.669   5.306
 3400SOL    HW111099   3.466   2.618   5.312
 3400SOL    HW211100   3.400   2.767   5.308
 3401SOL     OW11101   0.256   2.954   4.153
 3401SOL    HW111102   0.298   3.041   4.178
 3401SOL    HW211103   0.252   2.946   4.053
 3402SOL     OW11104   5.456   3.271   0.377
 3402SOL    HW111105   5.405   3.217   0.444
 3402SOL    HW211106   5.393   3.326   0.323
 3403SOL     OW11107   5.343   6.310   5.294
 3403SOL    HW111108   5.244   6.319   5.287
 3403SOL    HW211109   5.384   6.317   5.203
 3404SOL     OW11110   5.219   5.244   3.270
 3404SOL    HW111111   5.239   5.192   3.353
 3404SOL    HW211112   5.199   5.181   3.195
 3405SOL     OW11113   4.280   6.279   0.869
 3405SOL    HW111114   4.360   6.338   0.877
 3405SOL    HW211115   4.232   6.274   0.957
 3406SOL     OW11116   3.563   5.114   1.252
 3406SOL    HW111117   3.594   5.183   1.187
 3406SOL    HW211118   3.550   5.155   1.342
 3407SOL     OW11119   1.449   2.920   0.495
 3407SOL    HW111120   1.535   2.903   0.544
 3407SOL    HW211121   1.453   2.877   0.405
 3408SOL     OW11122   3.951   6.654   4.149
 3408SOL    HW111123   4.016   6.665   4.073
 3408SOL    HW211124   3.980   6.577   4.206
 3409SOL     OW11125   4.470   1.674   7.005
 3409SOL    HW111126   4.440   1.729   0.060
 3409SOL    HW211127   4.392   1.627   6.965
 3410SOL     OW11128   6.778   0.611   2.631
 3410SOL    HW111129   6.834   0.627   2.549
 3410SOL    HW211130   6.707   0.544   2.610
 3411SOL     OW11131   5.738   3.065   5.724
 3411SOL    HW111132   5.822   3.055   5.778
 3411SOL    HW211133   5.759   3.113   5.639
 3412SOL     OW11134   5.640   2.937   3.962
 3412SOL    HW111135   5.698   2.923   4.043
 3412SOL    HW211136   5.698   2.947   3.881
 3413SOL     OW11137   6.896   2.770   0.831
 3413SOL    HW111138   6.813   2.805   0.876
 3413SOL    HW211139   6.908   2.674   0.855
 3414SOL     OW11140   3.986   3.204   1.989
 3414SOL    HW111141   4.053   3.275   1.964
 3414SOL    HW211142   4.031   3.115   1.991
 3415SOL     OW11143   2.154   1.217   6.228
 3415SOL    HW111144   2.180   1.311   6.253
 3415SOL    HW211145   2.123   1.169   6.309
 3416SOL     OW11146   5.609   6.707   6.079
 3416SOL    HW111147   5.703   6.736   6.061
 3416SOL    HW211148   5.558   6.783   6.119
 3417SOL     OW11149   6.055   0.563   2.345
 3417SOL    HW111150   6.144   0.606   2.359
 3417SOL    HW211151   6.060   0.500   2.268
 3418SOL     OW11152   4.344   5.989   1.020
 3418SOL    HW111153   4.356   6.078   0.976
 3418SOL    HW211154   4.359   5.997   1.118
 3419SOL     OW11155   3.062   4.830   5.042
 3419SOL    HW111156   2.992   4.901   5.038
 3419SOL    HW211157   3.020   4.742   5.064
 3420SOL     OW11158   4.121   0.867   1.894
 3420SOL    HW111159   4.138   0.768   1.904
 3420SOL    HW211160   4.039   0.881   1.839
 3421SOL     OW11161   0.234   1.904   4.631
 3421SOL    HW111162   0.253   1.977   4.696
 3421SOL    HW211163   0.320   1.863   4.600
 3422SOL     OW11164   3.523   5.899   2.053
 3422SOL    HW111165   3.561   5.817   2.012
 3422SOL    HW211166   3.492   5.879   2.146
 3423SOL     OW11167   1.809   4.405   5.865
 3423SOL    HW111168   1.863   4.489   5.864
 3423SOL    HW211169   1.863   4.331   5.826
 3424SOL     OW11170   5.430   0.182   2.270
 3424SOL    HW111171   5.521   0.141   2.269
 3424SOL    HW211172   5.425   0.250   2.342
 3425SOL     OW11173   6.243   2.862   6.128
 3425SOL    HW111174   6.206   2.861   6.035
 3425SOL    HW211175   6.168   2.862   6.194
 3426SOL     OW11176   6.564   5.542   6.972
 3426SOL    HW111177   6.579   5.641   6.969
 3426SOL    HW211178   6.468   5.523   6.955
 3427SOL     OW11179   1.720   1.273   6.268
 3427SOL    HW111180   1.650   1.223   6.216
 3427SOL    HW211181   1.808   1.265   6.221
 3428SOL     OW11182   4.845   0.090   4.482
 3428SOL    HW111183   4.879   0.137   4.563
 3428SOL    HW211184   4.882   7.021   4.478
 3429SOL     OW11185   4.085   6.462   0.733
 3429SOL    HW111186   4.132   6.393   0.788
 3429SOL    HW211187   4.148   6.537   0.714
 3430SOL     OW11188   3.116   4.624   6.787
 3430SOL    HW111189   3.210   4.592   6.792
 3430SOL    HW211190   3.114   4.719   6.757
 3431SOL     OW11191   0.891   4.528   3.227
 3431SOL    HW111192   0.918   4.523   3.323
 3431SOL    HW211193   0.964   4.492   3.170
 3432SOL     OW11194   0.211   5.151   6.890
 3432SOL    HW111195   0.216   5.140   6.989
 3432SOL    HW211196   0.156   5.232   6.868
 3433SOL     OW11197   0.916   0.880   0.371
 3433SOL    HW111198   0.879   0.916   0.285
 3433SOL    HW211199   0.976   0.803   0.352
 3434SOL     OW11200   4.059   2.214   1.907
 3434SOL    HW111201   4.058   2.115   1.892
 3434SOL    HW211202   3.969   2.251   1.888
 3435SOL     OW11203   2.229   2.713   1.102
 3435SOL    HW111204   2.142   2.706   1.151
 3435SOL    HW211205   2.217   2.681   1.008
 3436SOL     OW11206   3.957   6.443   5.969
 3436SOL    HW111207   3.899   6.524   5.975
 3436SOL    HW211208   3.953   6.405   5.876
 3437SOL     OW11209   1.387   6.747   0.121
 3437SOL    HW111210   1.345   6.708   0.203
 3437SOL    HW211211   1.474   6.702   0.104
 3438SOL     OW11212   2.240   4.275   0.651
 3438SOL    HW111213   2.228   4.197   0.589
 3438SOL    HW211214   2.335   4.305   0.650
 3439SOL     OW11215   3.026   5.458   0.531
 3439SOL    HW111216   3.009   5.486   0.436
 3439SOL    HW211217   3.007   5.534   0.592
 3440SOL     OW11218   3.780   3.746   5.842
 3440SOL    HW111219   3.710   3.817   5.831
 3440SOL    HW211220   3.735   3.658   5.859
 3441SOL     OW11221   6.629   4.947   4.898
 3441SOL    HW111222   6.555   4.880   4.894
 3441SOL    HW211223   6.678   4.948   4.811
 3442SOL     OW11224   1.671   2.271   0.423
 3442SOL    HW111225   1.655   2.257   0.521
 3442SOL    HW211226   1.745   2.337   0.411
 3443SOL     OW11227   0.598   5.849   2.523
 3443SOL    HW111228   0.573   5.935   2.566
 3443SOL    HW211229   0.531   5.827   2.452
 3444SOL     OW11230   0.558   4.172   6.318
 3444SOL    HW111231   0.552   4.076   6.342
 3444SOL    HW211232   0.598   4.223   6.395
 3445SOL     OW11233   5.409   5.358   4.854
 3445SOL    HW111234   5.322   5.383   4.811
 3445SOL    HW211235   5.421   5.259   4.847
 3446SOL     OW11236   4.787   1.925   0.288
 3446SOL    HW111237   4.701   1.886   0.320
 3446SOL    HW211238   4.861   1.861   0.308
 3447SOL     OW11239   4.876   1.486   6.258
 3447SOL    HW111240   4.827   1.557   6.309
 3447SOL    HW211241   4.857   1.496   6.160
 3448SOL     OW11242   1.163   5.123   5.720
 3448SOL    HW111243   1.244   5.082   5.680
 3448SOL    HW211244   1.114   5.055   5.774
 3449SOL     OW11245   1.280   3.866   5.292
 3449SOL    HW111246   1.370   3.861   5.249
 3449SOL    HW211247   1.285   3.923   5.374
 3450SOL     OW11248   2.647   6.716   2.583
 3450SOL    HW111249   2.606   6.676   2.501
 3450SOL    HW211250   2.645   6.816   2.577
 3451SOL     OW11251   2.245   2.298   0.208
 3451SOL    HW111252   2.176   2.277   0.277
 3451SOL    HW211253   2.279   2.212   0.168
 3452SOL     OW11254   4.324   1.401   6.521
 3452SOL    HW111255   4.280   1.443   6.442
 3452SOL    HW211256   4.379   1.323   6.492
 3453SOL     OW11257   4.727   6.269   6.268
 3453SOL    HW111258   4.794   6.338   6.238
 3453SOL    HW211259   4.773   6.181   6.279
 3454SOL     OW11260   1.325   2.971   2.749
 3454SOL    HW111261   1.252   3.036   2.773
 3454SOL    HW211262   1.404   3.021   2.714
 3455SOL     OW11263   1.079   4.129   6.338
 3455SOL    HW111264   1.051   4.187   6.261
 3455SOL    HW211265   1.151   4.066   6.307
 3456SOL     OW11266   4.268   5.229   3.324
 3456SOL    HW111267   4.291   5.152   3.265
 3456SOL    HW211268   4.170   5.231   3.341
 3457SOL     OW11269   3.995   4.476   6.998
 3457SOL    HW111270   4.034   4.467   0.067
 3457SOL    HW211271   3.950   4.391   6.972
 3458SOL     OW11272   4.735   1.773   1.372
 3458SOL    HW111273   4.831   1.783   1.346
 3458SOL    HW211274   4.692   1.863   1.378
 3459SOL     OW11275   6.400   6.510   2.259
 3459SOL    HW111276   6.331   6.463   2.204
 3459SOL    HW211277   6.373   6.507   2.356
 3460SOL     OW11278   3.626   1.419   5.314
 3460SOL    HW111279   3.653   1.515   5.303
 3460SOL    HW211280   3.526   1.413   5.316
 3461SOL     OW11281   4.621   4.382   3.957
 3461SOL    HW111282   4.652   4.339   3.873
 3461SOL    HW211283   4.533   4.427   3.942
 3462SOL     OW11284   1.134   5.024   6.158
 3462SOL    HW111285   1.127   5.124   6.166
 3462SOL    HW211286   1.184   5.002   6.074
 3463SOL     OW11287   5.762   3.823   0.394
 3463SOL    HW111288   5.796   3.909   0.356
 3463SOL    HW211289   5.727   3.840   0.486
 3464SOL     OW11290   0.387   4.565   3.906
 3464SOL    HW111291   0.409   4.471   3.931
 3464SOL    HW211292   0.294   4.586   3.937
 3465SOL     OW11293   0.621   3.142   1.979
 3465SOL    HW111294   0.720   3.129   1.982
 3465SOL    HW211295   0.600   3.233   1.944
 3466SOL     OW11296   6.315   3.319   3.666
 3466SOL    HW111297   6.304   3.285   3.759
 3466SOL    HW211298   6.281   3.413   3.660
 3467SOL     OW11299   1.676   2.600   6.264
 3467SOL    HW111300   1.765   2.601   6.218
 3467SOL    HW211301   1.629   2.687   6.248
 3468SOL     OW11302   4.617   6.083   1.938
 3468SOL    HW111303   4.544   6.139   1.977
 3468SOL    HW211304   4.645   6.013   2.004
 3469SOL     OW11305   5.336   4.430   0.580
 3469SOL    HW111306   5.327   4.393   0.673
 3469SOL    HW211307   5.339   4.530   0.584
 3470SOL     OW11308   5.951   4.997   1.375
 3470SOL    HW111309   6.034   5.016   1.427
 3470SOL    HW211310   5.952   4.902   1.344
 3471SOL     OW11311   4.292   6.524   4.578
 3471SOL    HW111312   4.331   6.515   4.487
 3471SOL    HW211313   4.310   6.615   4.614
 3472SOL     OW11314   4.290   0.672   4.306
 3472SOL    HW111315   4.193   0.695   4.306
 3472SOL    HW211316   4.341   0.739   4.362
 3473SOL     OW11317   4.392   6.634   3.780
 3473SOL    HW111318   4.417   6.731   3.778
 3473SOL    HW211319   4.471   6.579   3.809
 3474SOL     OW11320   4.495   4.796   0.524
 3474SOL    HW111321   4.543   4.867   0.575
 3474SOL    HW211322   4.401   4.787   0.559
 3475SOL     OW11323   1.617   5.342   5.132
 3475SOL    HW111324   1.660   5.432   5.143
 3475SOL    HW211325   1.636   5.308   5.040
 3476SOL     OW11326   4.153   1.780   3.964
 3476SOL    HW111327   4.118   1.803   3.873
 3476SOL    HW211328   4.087   1.810   4.033
 3477SOL     OW11329   4.892   5.240   2.183
 3477SOL    HW111330   4.836   5.194   2.114
 3477SOL    HW211331   4.839   5.255   2.266
 3478SOL     OW11332   3.511   4.046   0.449
 3478SOL    HW111333   3.428   4.032   0.502
 3478SOL    HW211334   3.559   4.127   0.484
 3479SOL     OW11335   1.850   0.397   0.773
 3479SOL    HW111336   1.784   0.334   0.733
 3479SOL    HW211337   1.806   0.485   0.791
 3480SOL     OW11338   1.415   6.926   4.142
 3480SOL    HW111339   1.382   6.898   4.232
 3480SOL    HW211340   1.443   6.845   4.090
 3481SOL     OW11341   2.049   5.967   0.162
 3481SOL    HW111342   2.122   5.947   0.096
 3481SOL    HW211343   2.051   5.898   0.235
 3482SOL     OW11344   0.280   2.483   1.105
 3482SOL    HW111345   0.199   2.538   1.083
 3482SOL    HW211346   0.282   2.464   1.204
 3483SOL     OW11347   3.767   1.087   0.799
 3483SOL    HW111348   3.691   1.037   0.840
 3483SOL    HW211349   3.825   1.023   0.748
 3484SOL     OW11350   3.655   3.968   3.232
 3484SOL    HW111351   3.672   3.882   3.184
 3484SOL    HW211352   3.571   4.009   3.197
 3485SOL     OW11353   5.957   1.930   5.133
 3485SOL    HW111354   5.929   2.024   5.111
 3485SOL    HW211355   5.877   1.878   5.163
 3486SOL     OW11356   5.788   0.761   3.357
 3486SOL    HW111357   5.816   0.671   3.389
 3486SOL    HW211358   5.764   0.819   3.435
 3487SOL     OW11359   0.927   0.222   0.840
 3487SOL    HW111360   0.848   0.269   0.879
 3487SOL    HW211361   0.934   0.131   0.879
 3488SOL     OW11362   6.425   3.907   4.402
 3488SOL    HW111363   6.383   3.908   4.493
 3488SOL    HW211364   6.354   3.916   4.332
 3489SOL     OW11365   2.612   5.799   0.069
 3489SOL    HW111366   2.529   5.748   0.093
 3489SOL    HW211367   2.660   5.752   7.018
 3490SOL     OW11368   4.792   3.916   0.338
 3490SOL    HW111369   4.744   3.930   0.425
 3490SOL    HW211370   4.767   3.826   0.300
 3491SOL     OW11371   5.859   2.642   5.160
 3491SOL    HW111372   5.863   2.669   5.256
 3491SOL    HW211373   5.855   2.724   5.103
 3492SOL     OW11374   6.365   4.936   6.892
 3492SOL    HW111375   6.380   4.852   6.840
 3492SOL    HW211376   6.382   5.015   6.833
 3493SOL     OW11377   6.609   4.786   1.558
 3493SOL    HW111378   6.564   4.871   1.587
 3493SOL    HW211379   6.638   4.795   1.462
 3494SOL     OW11380   2.854   6.320   1.260
 3494SOL    HW111381   2.923   6.323   1.188
 3494SOL    HW211382   2.789   6.394   1.246
 3495SOL     OW11383   5.636   4.363   6.531
 3495SOL    HW111384   5.610   4.299   6.603
 3495SOL    HW211385   5.695   4.434   6.569
 3496SOL     OW11386   1.002   5.338   0.842
 3496SOL    HW111387   0.915   5.310   0.802
 3496SOL    HW211388   0.988   5.361   0.938
 3497SOL     OW11389   4.028   6.807   4.506
 3497SOL    HW111390   4.078   6.789   4.590
 3497SOL    HW211391   4.087   6.855   4.441
 3498SOL     OW11392   0.958   1.610   0.403
 3498SOL    HW111393   0.886   1.566   0.457
 3498SOL    HW211394   0.999   1.684   0.456
 3499SOL     OW11395   7.012   4.091   4.157
 3499SOL    HW111396   6.983   4.137   4.242
 3499SOL    HW211397   6.982   3.996   4.159
 3500SOL     OW11398   5.609   2.992   0.949
 3500SOL    HW111399   5.684   2.986   0.883
 3500SOL    HW211400   5.523   3.009   0.900
 3501SOL     OW11401   0.478   4.805   3.035
 3501SOL    HW111402   0.527   4.718   3.039
 3501SOL    HW211403   0.380   4.788   3.045
 3502SOL     OW11404   0.535   5.032   1.699
 3502SOL    HW111405   0.543   4.962   1.628
 3502SOL    HW211406   0.467   5.004   1.766
 3503SOL     OW11407   3.589   6.762   3.566
 3503SOL    HW111408   3.636   6.846   3.539
 3503SOL    HW211409   3.616   6.737   3.659
 3504SOL     OW11410   2.142   2.961   2.534
 3504SOL    HW111411   2.046   2.961   2.561
 3504SOL    HW211412   2.155   3.024   2.457
 3505SOL     OW11413   4.859   6.675   4.626
 3505SOL    HW111414   4.921   6.692   4.702
 3505SOL    HW211415   4.765   6.697   4.654
 3506SOL     OW11416   6.504   4.510   2.458
 3506SOL    HW111417   6.436   4.543   2.393
 3506SOL    HW211418   6.596   4.530   2.424
 3507SOL     OW11419   0.183   0.341   5.868
 3507SOL    HW111420   0.157   0.246   5.851
 3507SOL    HW211421   0.105   0.401   5.851
 3508SOL     OW11422   6.380   4.724   6.731
 3508SOL    HW111423   6.410   4.628   6.730
 3508SOL    HW211424   6.325   4.742   6.650
 3509SOL     OW11425   5.711   6.717   6.992
 3509SOL    HW111426   5.612   6.731   6.990
 3509SOL    HW211427   5.735   6.639   6.935
 3510SOL     OW11428   1.609   1.391   1.953
 3510SOL    HW111429   1.659   1.423   2.034
 3510SOL    HW211430   1.668   1.331   1.899
 3511SOL     OW11431   0.779   0.858   4.664
 3511SOL    HW111432   0.820   0.820   4.747
 3511SOL    HW211433   0.750   0.783   4.604
 3512SOL     OW11434   3.937   3.055   1.406
 3512SOL    HW111435   4.014   3.013   1.453
 3512SOL    HW211436   3.951   3.048   1.307
 3513SOL     OW11437   5.909   4.256   1.508
 3513SOL    HW111438   5.893   4.172   1.457
 3513SOL    HW211439   5.838   4.322   1.486
 3514SOL     OW11440   2.213   6.230   2.120
 3514SOL    HW111441   2.254   6.320   2.109
 3514SOL    HW211442   2.284   6.160   2.119
 3515SOL     OW11443   3.817   5.776   3.406
 3515SOL    HW111444   3.859   5.806   3.321
 3515SOL    HW211445   3.889   5.747   3.470
 3516SOL     OW11446   1.952   0.634   0.135
 3516SOL    HW111447   1.864   0.665   0.101
 3516SOL    HW211448   1.939   0.557   0.198
 3517SOL     OW11449   0.555   0.672   6.581
 3517SOL    HW111450   0.651   0.692   6.598
 3517SOL    HW211451   0.548   0.600   6.512
 3518SOL     OW11452   4.227   3.549   6.312
 3518SOL    HW111453   4.316   3.580   6.344
 3518SOL    HW211454   4.218   3.568   6.214
 3519SOL     OW11455   3.317   6.789   0.571
 3519SOL    HW111456   3.346   6.885   0.570
 3519SOL    HW211457   3.365   6.740   0.499
 3520SOL     OW11458   3.661   4.940   1.551
 3520SOL    HW111459   3.578   4.994   1.536
 3520SOL    HW211460   3.741   4.995   1.529
 3521SOL     OW11461   6.695   2.240   6.291
 3521SOL    HW111462   6.733   2.156   6.328
 3521SOL    HW211463   6.752   2.271   6.215
 3522SOL     OW11464   2.744   0.547   0.524
 3522SOL    HW111465   2.668   0.602   0.558
 3522SOL    HW211466   2.825   0.561   0.580
 3523SOL     OW11467   2.401   4.772   5.295
 3523SOL    HW111468   2.382   4.844   5.361
 3523SOL    HW211469   2.394   4.810   5.202
 3524SOL     OW11470   2.609   0.930   3.142
 3524SOL    HW111471   2.537   0.892   3.085
 3524SOL    HW211472   2.571   0.998   3.205
 3525SOL     OW11473   1.402   2.992   3.383
 3525SOL    HW111474   1.488   2.967   3.428
 3525SOL    HW211475   1.354   3.060   3.439
 3526SOL     OW11476   3.478   6.560   3.421
 3526SOL    HW111477   3.494   6.546   3.324
 3526SOL    HW211478   3.528   6.640   3.452
 3527SOL     OW11479   5.615   3.666   6.960
 3527SOL    HW111480   5.545   3.596   6.969
 3527SOL    HW211481   5.681   3.659   0.012
 3528SOL     OW11482   1.920   6.901   4.769
 3528SOL    HW111483   1.886   6.812   4.800
 3528SOL    HW211484   1.926   6.963   4.846
 3529SOL     OW11485   3.808   5.444   0.343
 3529SOL    HW111486   3.892   5.395   0.366
 3529SOL    HW211487   3.729   5.387   0.367
 3530SOL     OW11488   1.840   6.108   2.835
 3530SOL    HW111489   1.812   6.113   2.740
 3530SOL    HW211490   1.794   6.180   2.888
 3531SOL     OW11491   5.312   4.728   7.012
 3531SOL    HW111492   5.305   4.817   0.034
 3531SOL    HW211493   5.401   4.687   0.010
 3532SOL     OW11494   2.031   6.671   1.191
 3532SOL    HW111495   2.066   6.580   1.168
 3532SOL    HW211496   2.108   6.735   1.199
 3533SOL     OW11497   1.449   0.953   3.308
 3533SOL    HW111498   1.438   0.854   3.306
 3533SOL    HW211499   1.384   0.995   3.244
 3534SOL     OW11500   5.213   6.906   4.937
 3534SOL    HW111501   5.132   6.858   4.900
 3534SOL    HW211502   5.217   6.998   4.899
 3535SOL     OW11503   4.828   6.405   0.126
 3535SOL    HW111504   4.883   6.380   0.206
 3535SOL    HW211505   4.823   6.505   0.119
 3536SOL     OW11506   1.460   3.349   2.706
 3536SOL    HW111507   1.498   3.264   2.671
 3536SOL    HW211508   1.501   3.370   2.796
 3537SOL     OW11509   2.897   5.111   1.565
 3537SOL    HW111510   2.920   5.199   1.523
 3537SOL    HW211511   2.959   5.092   1.641
 3538SOL     OW11512   3.955   0.808   3.699
 3538SOL    HW111513   3.894   0.742   3.656
 3538SOL    HW211514   4.050   0.784   3.678
 3539SOL     OW11515   4.886   5.526   5.255
 3539SOL    HW111516   4.978   5.533   5.215
 3539SOL    HW211517   4.833   5.607   5.230
 3540SOL     OW11518   3.817   5.026   6.286
 3540SOL    HW111519   3.730   5.001   6.242
 3540SOL    HW211520   3.801   5.047   6.382
 3541SOL     OW11521   0.693   2.596   2.428
 3541SOL    HW111522   0.639   2.668   2.385
 3541SOL    HW211523   0.674   2.594   2.526
 3542SOL     OW11524   5.768   1.863   0.033
 3542SOL    HW111525   5.728   1.775   0.007
 3542SOL    HW211526   5.803   1.909   6.975
 3543SOL     OW11527   0.497   2.347   3.561
 3543SOL    HW111528   0.422   2.338   3.496
 3543SOL    HW211529   0.461   2.350   3.654
 3544SOL     OW11530   2.706   4.174   6.795
 3544SOL    HW111531   2.754   4.114   6.860
 3544SOL    HW211532   2.773   4.230   6.746
 3545SOL     OW11533   3.574   6.700   0.712
 3545SOL    HW111534   3.663   6.729   0.748
 3545SOL    HW211535   3.502   6.755   0.754
 3546SOL     OW11536   6.288   4.787   1.510
 3546SOL    HW111537   6.217   4.737   1.561
 3546SOL    HW211538   6.365   4.806   1.571
 3547SOL     OW11539   0.652   3.702   3.896
 3547SOL    HW111540   0.601   3.781   3.862
 3547SOL    HW211541   0.612   3.618   3.859
 3548SOL     OW11542   6.646   0.509   5.459
 3548SOL    HW111543   6.584   0.576   5.500
 3548SOL    HW211544   6.668   0.438   5.526
 3549SOL     OW11545   2.107   6.410   6.730
 3549SOL    HW111546   2.103   6.403   6.630
 3549SOL    HW211547   2.072   6.499   6.759
 3550SOL     OW11548   5.890   2.076   6.137
 3550SOL    HW111549   5.984   2.084   6.106
 3550SOL    HW211550   5.889   2.048   6.233
 3551SOL     OW11551   5.342   1.657   4.932
 3551SOL    HW111552   5.369   1.672   5.027
 3551SOL    HW211553   5.266   1.718   4.909
 3552SOL     OW11554   6.926   7.006   3.274
 3552SOL    HW111555   6.915   6.972   3.180
 3552SOL    HW211556   6.855   6.966   3.332
 3553SOL     OW11557   6.484   5.821   6.141
 3553SOL    HW111558   6.559   5.806   6.077
 3553SOL    HW211559   6.425   5.895   6.107
 3554SOL     OW11560   4.794   4.490   6.833
 3554SOL    HW111561   4.815   4.485   6.735
 3554SOL    HW211562   4.744   4.575   6.851
 3555SOL     OW11563   2.696   1.131   5.099
 3555SOL    HW111564   2.700   1.228   5.074
 3555SOL    HW211565   2.672   1.077   5.019
 3556SOL     OW11566   6.315   0.723   0.176
 3556SOL    HW111567   6.262   0.718   0.260
 3556SOL    HW211568   6.350   0.816   0.164
 3557SOL     OW11569   4.819   6.709   1.975
 3557SOL    HW111570   4.812   6.692   2.073
 3557SOL    HW211571   4.746   6.773   1.948
 3558SOL     OW11572   4.023   5.736   2.497
 3558SOL    HW111573   4.109   5.757   2.451
 3558SOL    HW211574   3.954   5.804   2.470
 3559SOL     OW11575   4.033   6.640   6.822
 3559SOL    HW111576   4.004   6.717   6.879
 3559SOL    HW211577   3.965   6.624   6.750
 3560SOL     OW11578   2.177   5.939   4.162
 3560SOL    HW111579   2.225   5.898   4.240
 3560SOL    HW211580   2.192   6.037   4.161
 3561SOL     OW11581   3.882   3.045   5.609
 3561SOL    HW111582   3.956   3.111   5.622
 3561SOL    HW211583   3.860   3.002   5.696
 3562SOL     OW11584   2.493   1.239   0.540
 3562SOL    HW111585   2.438   1.322   0.525
 3562SOL    HW211586   2.439   1.173   0.592
 3563SOL     OW11587   0.371   2.492   0.016
 3563SOL    HW111588   0.393   2.569   6.980
 3563SOL    HW211589   0.275   2.467   0.004
 3564SOL     OW11590   6.763   3.737   2.972
 3564SOL    HW111591   6.785   3.773   2.881
 3564SOL    HW211592   6.672   3.768   2.999
 3565SOL     OW11593   4.709   6.372   5.500
 3565SOL    HW111594   4.794   6.321   5.510
 3565SOL    HW211595   4.698   6.436   5.575
 3566SOL     OW11596   1.029   0.768   5.671
 3566SOL    HW111597   1.063   0.716   5.750
 3566SOL    HW211598   1.079   0.741   5.589
 3567SOL     OW11599   6.715   4.556   6.906
 3567SOL    HW111600   6.756   4.639   6.943
 3567SOL    HW211601   6.733   4.479   6.967
 3568SOL     OW11602   3.914   3.755   5.479
 3568SOL    HW111603   3.962   3.669   5.498
 3568SOL    HW211604   3.964   3.831   5.521
 3569SOL     OW11605   1.677   0.209   3.578
 3569SOL    HW111606   1.599   0.147   3.569
 3569SOL    HW211607   1.646   0.293   3.624
 3570SOL     OW11608   5.903   2.066   4.571
 3570SOL    HW111609   5.885   2.145   4.514
 3570SOL    HW211610   5.846   1.989   4.542
 3571SOL     OW11611   6.095   5.804   4.658
 3571SOL    HW111612   6.169   5.740   4.638
 3571SOL    HW211613   6.030   5.762   4.721
 3572SOL     OW11614   6.234   6.745   5.384
 3572SOL    HW111615   6.171   6.770   5.310
 3572SOL    HW211616   6.323   6.787   5.367
 3573SOL     OW11617   0.294   2.186   1.362
 3573SOL    HW111618   0.254   2.174   1.271
 3573SOL    HW211619   0.297   2.283   1.385
 3574SOL     OW11620   6.070   3.716   6.762
 3574SOL    HW111621   6.143   3.694   6.828
 3574SOL    HW211622   6.087   3.806   6.723
 3575SOL     OW11623   6.228   7.004   1.829
 3575SOL    HW111624   6.176   6.920   1.815
 3575SOL    HW211625   6.175   0.043   1.886
 3576SOL     OW11626   6.712   0.281   6.888
 3576SOL    HW111627   6.677   0.297   6.980
 3576SOL    HW211628   6.812   0.277   6.890
 3577SOL     OW11629   2.204   4.106   6.958
 3577SOL    HW111630   2.224   4.174   0.005
 3577SOL    HW211631   2.288   4.059   6.932
 3578SOL     OW11632   3.478   4.383   1.687
 3578SOL    HW111633   3.484   4.460   1.749
 3578SOL    HW211634   3.559   4.325   1.697
 3579SOL     OW11635   1.771   3.880   5.374
 3579SOL    HW111636   1.731   3.795   5.410
 3579SOL    HW211637   1.698   3.937   5.335
 3580SOL     OW11638   6.414   2.843   0.755
 3580SOL    HW111639   6.354   2.791   0.817
 3580SOL    HW211640   6.507   2.843   0.790
 3581SOL     OW11641   6.739   0.638   3.399
 3581SOL    HW111642   6.802   0.596   3.465
 3581SOL    HW211643   6.763   0.734   3.387
 3582SOL     OW11644   0.365   6.985   5.507
 3582SOL    HW111645   0.387   6.890   5.530
 3582SOL    HW211646   0.291   6.987   5.440
 3583SOL     OW11647   0.839   5.346   1.785
 3583SOL    HW111648   0.883   5.379   1.701
 3583SOL    HW211649   0.747   5.386   1.791
 3584SOL     OW11650   5.888   0.466   5.439
 3584SOL    HW111651   5.905   0.555   5.397
 3584SOL    HW211652   5.948   0.398   5.397
 3585SOL     OW11653   2.024   4.880   3.368
 3585SOL    HW111654   2.034   4.818   3.291
 3585SOL    HW211655   2.109   4.880   3.422
 3586SOL     OW11656   0.781   0.917   6.083
 3586SOL    HW111657   0.803   0.910   5.986
 3586SOL    HW211658   0.684   0.941   6.093
 3587SOL     OW11659   3.518   6.634   6.349
 3587SOL    HW111660   3.464   6.551   6.363
 3587SOL    HW211661   3.553   6.667   6.437
 3588SOL     OW11662   2.539   2.304   5.471
 3588SOL    HW111663   2.520   2.389   5.422
 3588SOL    HW211664   2.456   2.274   5.519
 3589SOL     OW11665   3.516   6.749   4.668
 3589SOL    HW111666   3.611   6.747   4.635
 3589SOL    HW211667   3.456   6.776   4.593
 3590SOL     OW11668   1.093   5.407   6.782
 3590SOL    HW111669   1.126   5.476   6.847
 3590SOL    HW211670   1.171   5.362   6.739
 3591SOL     OW11671   5.020   2.046   4.968
 3591SOL    HW111672   4.974   2.054   5.056
 3591SOL    HW211673   5.108   2.094   4.972
 3592SOL     OW11674   5.685   1.846   1.642
 3592SOL    HW111675   5.775   1.852   1.598
 3592SOL    HW211676   5.645   1.937   1.648
 3593SOL     OW11677   1.147   5.719   4.402
 3593SOL    HW111678   1.106   5.791   4.345
 3593SOL    HW211679   1.238   5.747   4.430
 3594SOL     OW11680   4.075   1.872   4.535
 3594SOL    HW111681   4.057   1.775   4.521
 3594SOL    HW211682   4.043   1.900   4.625
 3595SOL     OW11683   2.140   6.347   5.487
 3595SOL    HW111684   2.064   6.341   5.552
 3595SOL    HW211685   2.124   6.424   5.425
 3596SOL     OW11686   0.546   3.502   3.447
 3596SOL    HW111687   0.524   3.472   3.354
 3596SOL    HW211688   0.583   3.426   3.499
 3597SOL     OW11689   3.573   0.026   4.082
 3597SOL    HW111690   3.647   0.000   4.019
 3597SOL    HW211691   3.610   0.082   4.156
 3598SOL     OW11692   1.424   0.278   0.069
 3598SOL    HW111693   1.481   0.200   0.046
 3598SOL    HW211694   1.472   0.337   0.135
 3599SOL     OW11695   6.800   1.930   4.264
 3599SOL    HW111696   6.821   1.839   4.298
 3599SOL    HW211697   6.868   1.995   4.297
 3600SOL     OW11698   6.341   0.127   1.018
 3600SOL    HW111699   6.311   0.068   0.943
 3600SOL    HW211700   6.265   0.185   1.047
 3601SOL     OW11701   5.867   3.767   5.899
 3601SOL    HW111702   5.879   3.813   5.811
 3601SOL    HW211703   5.775   3.784   5.933
 3602SOL     OW11704   2.769   1.888   1.223
 3602SOL    HW111705   2.680   1.876   1.179
 3602SOL    HW211706   2.818   1.962   1.179
 3603SOL     OW11707   4.435   5.184   4.618
 3603SOL    HW111708   4.339   5.172   4.591
 3603SOL    HW211709   4.465   5.276   4.593
 3604SOL     OW11710   6.290   4.337   3.332
 3604SOL    HW111711   6.368   4.287   3.294
 3604SOL    HW211712   6.207   4.282   3.319
 3605SOL     OW11713   6.404   2.524   6.455
 3605SOL    HW111714   6.367   2.615   6.434
 3605SOL    HW211715   6.365   2.492   6.542
 3606SOL     OW11716   1.759   4.390   3.321
 3606SOL    HW111717   1.765   4.299   3.361
 3606SOL    HW211718   1.671   4.432   3.347
 3607SOL     OW11719   4.280   0.060   6.966
 3607SOL    HW111720   4.241   6.997   7.000
 3607SOL    HW211721   4.224   0.095   6.891
 3608SOL     OW11722   0.730   3.012   3.255
 3608SOL    HW111723   0.762   2.929   3.299
 3608SOL    HW211724   0.801   3.082   3.260
 3609SOL     OW11725   6.897   0.137   4.301
 3609SOL    HW111726   6.954   0.119   4.381
 3609SOL    HW211727   6.860   0.230   4.307
 3610SOL     OW11728   1.754   5.491   6.029
 3610SOL    HW111729   1.784   5.440   6.110
 3610SOL    HW211730   1.831   5.501   5.966
 3611SOL     OW11731   4.472   5.539   5.526
 3611SOL    HW111732   4.542   5.611   5.526
 3611SOL    HW211733   4.389   5.573   5.569
 3612SOL     OW11734   2.156   6.428   1.226
 3612SOL    HW111735   2.255   6.422   1.221
 3612SOL    HW211736   2.118   6.336   1.234
 3613SOL     OW11737   4.870   4.987   6.006
 3613SOL    HW111738   4.933   5.064   5.995
 3613SOL    HW211739   4.801   5.009   6.075
 3614SOL     OW11740   3.827   2.985   4.705
 3614SOL    HW111741   3.751   3.044   4.732
 3614SOL    HW211742   3.847   2.920   4.777
 3615SOL     OW11743   5.555   6.452   6.158
 3615SOL    HW111744   5.587   6.390   6.085
 3615SOL    HW211745   5.570   6.547   6.130
 3616SOL     OW11746   5.976   0.692   4.443
 3616SOL    HW111747   5.984   0.675   4.542
 3616SOL    HW211748   5.983   0.606   4.393
 3617SOL     OW11749   6.989   0.527   0.073
 3617SOL    HW111750   0.045   0.477   0.108
 3617SOL    HW211751   6.963   0.490   7.007
 3618SOL     OW11752   2.872   6.050   6.182
 3618SOL    HW111753   2.809   6.051   6.259
 3618SOL    HW211754   2.821   6.044   6.096
 3619SOL     OW11755   5.327   3.961   3.424
 3619SOL    HW111756   5.241   3.963   3.374
 3619SOL    HW211757   5.363   4.054   3.431
 3620SOL     OW11758   5.744   1.248   5.120
 3620SOL    HW111759   5.652   1.288   5.126
 3620SOL    HW211760   5.749   1.165   5.175
 3621SOL     OW11761   1.641   2.963   5.674
 3621SOL    HW111762   1.646   2.863   5.668
 3621SOL    HW211763   1.717   3.003   5.624
 3622SOL     OW11764   0.471   3.618   1.221
 3622SOL    HW111765   0.486   3.620   1.122
 3622SOL    HW211766   0.552   3.583   1.267
 3623SOL     OW11767   0.008   4.891   4.106
 3623SOL    HW111768   6.995   4.799   4.118
 3623SOL    HW211769   6.974   4.956   4.157
 3624SOL     OW11770   2.267   0.780   1.799
 3624SOL    HW111771   2.168   0.776   1.785
 3624SOL    HW211772   2.287   0.791   1.896
 3625SOL     OW11773   0.906   3.399   4.291
 3625SOL    HW111774   0.892   3.302   4.270
 3625SOL    HW211775   0.844   3.455   4.236
 3626SOL     OW11776   2.512   4.235   5.579
 3626SOL    HW111777   2.442   4.268   5.643
 3626SOL    HW211778   2.553   4.312   5.532
 3627SOL     OW11779   3.236   3.366   3.899
 3627SOL    HW111780   3.205   3.271   3.905
 3627SOL    HW211781   3.204   3.407   3.813
 3628SOL     OW11782   3.149   5.725   3.873
 3628SOL    HW111783   3.237   5.772   3.879
 3628SOL    HW211784   3.137   5.691   3.780
 3629SOL     OW11785   5.287   3.202   5.444
 3629SOL    HW111786   5.300   3.205   5.345
 3629SOL    HW211787   5.369   3.236   5.489
 3630SOL     OW11788   5.503   1.163   4.889
 3630SOL    HW111789   5.517   1.238   4.954
 3630SOL    HW211790   5.479   1.201   4.800
 3631SOL     OW11791   2.083   1.271   3.595
 3631SOL    HW111792   2.127   1.315   3.673
 3631SOL    HW211793   2.134   1.188   3.571
 3632SOL     OW11794   4.271   6.863   6.261
 3632SOL    HW111795   4.284   6.904   6.351
 3632SOL    HW211796   4.278   6.763   6.269
 3633SOL     OW11797   1.288   3.195   5.497
 3633SOL    HW111798   1.308   3.283   5.541
 3633SOL    HW211799   1.279   3.208   5.398
 3634SOL     OW11800   3.148   4.962   6.087
 3634SOL    HW111801   3.175   5.033   6.152
 3634SOL    HW211802   3.106   5.005   6.007
 3635SOL     OW11803   1.782   0.904   5.162
 3635SOL    HW111804   1.829   0.912   5.250
 3635SOL    HW211805   1.817   0.823   5.114
 3636SOL     OW11806   1.308   6.092   0.051
 3636SOL    HW111807   1.229   6.057   7.023
 3636SOL    HW211808   1.370   6.016   0.071
 3637SOL     OW11809   4.878   1.131   1.331
 3637SOL    HW111810   4.903   1.155   1.425
 3637SOL    HW211811   4.795   1.179   1.305
 3638SOL     OW11812   6.230   4.928   3.534
 3638SOL    HW111813   6.157   4.944   3.601
 3638SOL    HW211814   6.190   4.902   3.447
 3639SOL     OW11815   2.690   5.969   0.286
 3639SOL    HW111816   2.699   5.904   0.210
 3639SOL    HW211817   2.615   6.032   0.267
 3640SOL     OW11818   2.157   6.811   1.483
 3640SOL    HW111819   2.126   6.716   1.481
 3640SOL    HW211820   2.252   6.815   1.454
 3641SOL     OW11821   2.449   0.612   4.503
 3641SOL    HW111822   2.434   0.556   4.422
 3641SOL    HW211823   2.370   0.605   4.564
 3642SOL     OW11824   5.811   6.497   2.004
 3642SOL    HW111825   5.904   6.463   1.996
 3642SOL    HW211826   5.800   6.543   2.092
 3643SOL     OW11827   3.911   5.444   5.563
 3643SOL    HW111828   3.857   5.476   5.641
 3643SOL    HW211829   3.852   5.439   5.482
 3644SOL     OW11830   7.017   0.218   1.038
 3644SOL    HW111831   0.000   0.123   1.008
 3644SOL    HW211832   0.040   0.228   1.126
 3645SOL     OW11833   3.880   6.194   2.747
 3645SOL    HW111834   3.838   6.273   2.791
 3645SOL    HW211835   3.951   6.224   2.683
 3646SOL     OW11836   6.839   5.338   4.402
 3646SOL    HW111837   6.799   5.429   4.411
 3646SOL    HW211838   6.829   5.288   4.488
 3647SOL     OW11839   2.790   2.547   1.326
 3647SOL    HW111840   2.854   2.495   1.382
 3647SOL    HW211841   2.818   2.541   1.230
 3648SOL     OW11842   3.090   6.517   3.323
 3648SOL    HW111843   3.030   6.502   3.402
 3648SOL    HW211844   3.130   6.608   3.328
 3649SOL     OW11845   3.253   3.360   2.163
 3649SOL    HW111846   3.162   3.397   2.182
 3649SOL    HW211847   3.297   3.334   2.249
 3650SOL     OW11848   5.347   6.920   1.579
 3650SOL    HW111849   5.291   7.003   1.578
 3650SOL    HW211850   5.337   6.872   1.492
 3651SOL     OW11851   1.108   6.259   2.535
 3651SOL    HW111852   1.104   6.236   2.438
 3651SOL    HW211853   1.095   6.177   2.590
 3652SOL     OW11854   4.888   5.239   3.068
 3652SOL    HW111855   4.879   5.145   3.099
 3652SOL    HW211856   4.899   5.240   2.968
 3653SOL     OW11857   6.369   3.228   4.820
 3653SOL    HW111858   6.423   3.153   4.781
 3653SOL    HW211859   6.320   3.275   4.747
 3654SOL     OW11860   1.195   6.393   1.627
 3654SOL    HW111861   1.253   6.312   1.617
 3654SOL    HW211862   1.253   6.474   1.636
 3655SOL     OW11863   6.724   1.065   3.647
 3655SOL    HW111864   6.809   1.113   3.666
 3655SOL    HW211865   6.734   1.012   3.563
 3656SOL     OW11866   2.672   1.639   2.911
 3656SOL    HW111867   2.586   1.634   2.961
 3656SOL    HW211868   2.654   1.665   2.816
 3657SOL     OW11869   4.789   4.980   2.411
 3657SOL    HW111870   4.725   4.909   2.383
 3657SOL    HW211871   4.752   5.070   2.390
 3658SOL     OW11872   1.966   5.479   5.857
 3658SOL    HW111873   2.025   5.398   5.859
 3658SOL    HW211874   2.018   5.556   5.820
 3659SOL     OW11875   1.233   3.538   0.383
 3659SOL    HW111876   1.323   3.517   0.347
 3659SOL    HW211877   1.189   3.454   0.415
 3660SOL     OW11878   3.984   4.860   0.830
 3660SOL    HW111879   3.954   4.912   0.909
 3660SOL    HW211880   4.032   4.921   0.766
 3661SOL     OW11881   5.117   1.653   1.134
 3661SOL    HW111882   5.038   1.605   1.096
 3661SOL    HW211883   5.127   1.742   1.089
 3662SOL     OW11884   2.317   5.998   4.789
 3662SOL    HW111885   2.413   5.975   4.801
 3662SOL    HW211886   2.303   6.038   4.698
 3663SOL     OW11887   1.561   3.402   5.436
 3663SOL    HW111888   1.652   3.389   5.476
 3663SOL    HW211889   1.492   3.372   5.501
 3664SOL     OW11890   3.821   0.050   1.908
 3664SOL    HW111891   3.829   0.138   1.955
 3664SOL    HW211892   3.880   7.005   1.953
 3665SOL     OW11893   1.792   0.545   5.329
 3665SOL    HW111894   1.870   0.554   5.390
 3665SOL    HW211895   1.791   0.452   5.291
 3666SOL     OW11896   0.880   4.943   4.412
 3666SOL    HW111897   0.956   4.908   4.467
 3666SOL    HW211898   0.855   5.034   4.444
 3667SOL     OW11899   0.462   1.351   6.557
 3667SOL    HW111900   0.502   1.343   6.466
 3667SOL    HW211901   0.423   1.263   6.585
 3668SOL     OW11902   1.641   5.396   1.925
 3668SOL    HW111903   1.633   5.383   2.024
 3668SOL    HW211904   1.557   5.364   1.881
 3669SOL     OW11905   5.650   1.708   4.065
 3669SOL    HW111906   5.653   1.626   4.008
 3669SOL    HW211907   5.738   1.721   4.110
 3670SOL     OW11908   2.378   5.360   6.391
 3670SOL    HW111909   2.430   5.277   6.370
 3670SOL    HW211910   2.291   5.334   6.434
 3671SOL     OW11911   1.763   0.635   3.482
 3671SOL    HW111912   1.695   0.703   3.507
 3671SOL    HW211913   1.809   0.663   3.398
 3672SOL     OW11914   6.531   0.061   0.606
 3672SOL    HW111915   6.433   0.069   0.623
 3672SOL    HW211916   6.579   0.137   0.649
 3673SOL     OW11917   4.276   0.494   6.778
 3673SOL    HW111918   4.357   0.441   6.803
 3673SOL    HW211919   4.285   0.524   6.683
 3674SOL     OW11920   1.253   6.259   0.813
 3674SOL    HW111921   1.209   6.349   0.812
 3674SOL    HW211922   1.348   6.269   0.782
 3675SOL     OW11923   1.815   2.079   4.581
 3675SOL    HW111924   1.773   2.157   4.535
 3675SOL    HW211925   1.899   2.053   4.533
 3676SOL     OW11926   1.686   5.021   2.836
 3676SOL    HW111927   1.650   4.962   2.763
 3676SOL    HW211928   1.673   5.117   2.811
 3677SOL     OW11929   6.486   6.637   3.981
 3677SOL    HW111930   6.540   6.597   3.908
 3677SOL    HW211931   6.389   6.625   3.962
 3678SOL     OW11932   1.662   1.917   3.480
 3678SOL    HW111933   1.670   2.002   3.531
 3678SOL    HW211934   1.750   1.897   3.436
 3679SOL     OW11935   6.962   0.716   1.469
 3679SOL    HW111936   7.018   0.734   1.389
 3679SOL    HW211937   6.973   0.620   1.497
 3680SOL     OW11938   6.037   4.693   4.879
 3680SOL    HW111939   6.111   4.648   4.828
 3680SOL    HW211940   6.068   4.784   4.908
 3681SOL     OW11941   5.619   6.415   4.846
 3681SOL    HW111942   5.706   6.380   4.813
 3681SOL    HW211943   5.623   6.514   4.853
 3682SOL     OW11944   0.580   2.330   6.438
 3682SOL    HW111945   0.575   2.253   6.375
 3682SOL    HW211946   0.600   2.295   6.530
 3683SOL     OW11947   5.217   5.930   3.755
 3683SOL    HW111948   5.201   5.836   3.725
 3683SOL    HW211949   5.241   5.987   3.676
 3684SOL     OW11950   1.883   3.147   0.870
 3684SOL    HW111951   1.805   3.093   0.902
 3684SOL    HW211952   1.966   3.090   0.873
 3685SOL     OW11953   6.454   6.766   6.552
 3685SOL    HW111954   6.533   6.828   6.554
 3685SOL    HW211955   6.436   6.732   6.644
 3686SOL     OW11956   6.689   4.371   1.580
 3686SOL    HW111957   6.710   4.410   1.491
 3686SOL    HW211958   6.665   4.444   1.644
 3687SOL     OW11959   3.499   1.344   0.170
 3687SOL    HW111960   3.598   1.332   0.180
 3687SOL    HW211961   3.461   1.376   0.256
 3688SOL     OW11962   0.051   3.454   0.256
 3688SOL    HW111963   0.063   3.546   0.293
 3688SOL    HW211964   0.016   3.393   0.327
 3689SOL     OW11965   3.325   0.029   3.622
 3689SOL    HW111966   3.267   0.108   3.640
 3689SOL    HW211967   3.412   0.038   3.670
 3690SOL     OW11968   4.208   5.830   5.364
 3690SOL    HW111969   4.129   5.887   5.387
 3690SOL    HW211970   4.191   5.736   5.394
 3691SOL     OW11971   3.328   2.883   6.314
 3691SOL    HW111972   3.280   2.931   6.240
 3691SOL    HW211973   3.302   2.923   6.402
 3692SOL     OW11974   0.792   0.233   6.394
 3692SOL    HW111975   0.795   0.133   6.394
 3692SOL    HW211976   0.743   0.264   6.475
 3693SOL     OW11977   1.853   1.572   3.381
 3693SOL    HW111978   1.807   1.574   3.470
 3693SOL    HW211979   1.927   1.505   3.383
 3694SOL     OW11980   2.199   5.634   2.585
 3694SOL    HW111981   2.101   5.641   2.566
 3694SOL    HW211982   2.222   5.538   2.604
 3695SOL     OW11983   1.548   2.674   1.184
 3695SOL    HW111984   1.583   2.666   1.277
 3695SOL    HW211985   1.618   2.645   1.119
 3696SOL     OW11986   3.094   5.849   5.833
 3696SOL    HW111987   3.158   5.922   5.857
 3696SOL    HW211988   3.141   5.781   5.776
 3697SOL     OW11989   5.495   0.327   4.395
 3697SOL    HW111990   5.448   0.243   4.367
 3697SOL    HW211991   5.571   0.303   4.456
 3698SOL     OW11992   2.962   0.221   6.054
 3698SOL    HW111993   3.015   0.193   5.973
 3698SOL    HW211994   2.875   0.262   6.024
 3699SOL     OW11995   1.255   4.546   2.462
 3699SOL    HW111996   1.178   4.598   2.498
 3699SOL    HW211997   1.257   4.555   2.362
 3700SOL     OW11998   0.293   0.368   3.303
 3700SOL    HW111999   0.284   0.468   3.304
 3700SOL    HW212000   0.275   0.333   3.395
 3701SOL     OW12001   5.377   0.503   3.434
 3701SOL    HW112002   5.455   0.522   3.494
 3701SOL    HW212003   5.400   0.528   3.340
 3702SOL     OW12004   4.591   1.059   6.211
 3702SOL    HW112005   4.629   1.121   6.280
 3702SOL    HW212006   4.666   1.015   6.162
 3703SOL     OW12007   4.095   4.436   0.220
 3703SOL    HW112008   4.148   4.362   0.263
 3703SOL    HW212009   3.998   4.420   0.234
 3704SOL     OW12010   2.543   0.162   2.148
 3704SOL    HW112011   2.508   0.238   2.094
 3704SOL    HW212012   2.604   0.106   2.092
 3705SOL     OW12013   5.678   1.152   4.457
 3705SOL    HW112014   5.770   1.173   4.490
 3705SOL    HW212015   5.675   1.158   4.357
 3706SOL     OW12016   2.433   2.596   3.607
 3706SOL    HW112017   2.500   2.540   3.657
 3706SOL    HW212018   2.380   2.537   3.546
 3707SOL     OW12019   4.160   2.298   5.446
 3707SOL    HW112020   4.140   2.224   5.511
 3707SOL    HW212021   4.111   2.282   5.361
 3708SOL     OW12022   6.212   0.220   6.069
 3708SOL    HW112023   6.115   0.196   6.071
 3708SOL    HW212024   6.226   0.300   6.011
 3709SOL     OW12025   5.131   0.881   0.373
 3709SOL    HW112026   5.137   0.859   0.276
 3709SOL    HW212027   5.154   0.978   0.387
 3710SOL     OW12028   7.003   4.694   0.149
 3710SOL    HW112029   6.984   4.643   0.233
 3710SOL    HW212030   0.007   4.630   0.077
 3711SOL     OW12031   6.945   5.304   2.472
 3711SOL    HW112032   6.851   5.337   2.468
 3711SOL    HW212033   6.987   5.310   2.381
 3712SOL     OW12034   1.459   0.262   0.450
 3712SOL    HW112035   1.540   0.224   0.496
 3712SOL    HW212036   1.391   0.190   0.438
 3713SOL     OW12037   3.702   5.455   6.057
 3713SOL    HW112038   3.701   5.547   6.097
 3713SOL    HW212039   3.699   5.387   6.130
 3714SOL     OW12040   4.413   1.870   5.596
 3714SOL    HW112041   4.374   1.958   5.569
 3714SOL    HW212042   4.484   1.884   5.664
 3715SOL     OW12043   5.624   3.930   4.037
 3715SOL    HW112044   5.538   3.883   4.059
 3715SOL    HW212045   5.701   3.876   4.071
 3716SOL     OW12046   0.602   1.728   4.330
 3716SOL    HW112047   0.562   1.653   4.277
 3716SOL    HW212048   0.584   1.815   4.283
 3717SOL     OW12049   6.366   0.513   7.013
 3717SOL    HW112050   6.291   0.500   6.948
 3717SOL    HW212051   6.343   0.588   0.052
 3718SOL     OW12052   0.904   5.482   0.375
 3718SOL    HW112053   0.960   5.429   0.438
 3718SOL    HW212054   0.810   5.484   0.408
 3719SOL     OW12055   3.717   5.119   6.863
 3719SOL    HW112056   3.800   5.075   6.829
 3719SOL    HW212057   3.696   5.199   6.807
 3720SOL     OW12058   6.927   1.778   5.819
 3720SOL    HW112059   6.938   1.710   5.892
 3720SOL    HW212060   6.981   1.859   5.841
 3721SOL     OW12061   4.642   3.671   0.313
 3721SOL    HW112062   4.692   3.630   0.390
 3721SOL    HW212063   4.544   3.657   0.326
 3722SOL     OW12064   5.737   6.196   1.096
 3722SOL    HW112065   5.704   6.119   1.151
 3722SOL    HW212066   5.672   6.214   1.022
 3723SOL     OW12067   4.501   1.119   0.504
 3723SOL    HW112068   4.585   1.147   0.458
 3723SOL    HW212069   4.483   1.022   0.484
 3724SOL     OW12070   7.001   4.754   5.509
 3724SOL    HW112071   0.043   4.783   5.579
 3724SOL    HW212072   0.025   4.700   5.440
 3725SOL     OW12073   6.248   6.937   0.842
 3725SOL    HW112074   6.207   6.947   0.751
 3725SOL    HW212075   6.335   6.889   0.834
 3726SOL     OW12076   5.831   3.658   1.730
 3726SOL    HW112077   5.922   3.669   1.691
 3726SOL    HW212078   5.839   3.630   1.826
 3727SOL     OW12079   2.387   2.724   5.127
 3727SOL    HW112080   2.377   2.803   5.067
 3727SOL    HW212081   2.377   2.752   5.222
 3728SOL     OW12082   0.673   3.432   6.712
 3728SOL    HW112083   0.670   3.502   6.783
 3728SOL    HW212084   0.600   3.365   6.728
 3729SOL     OW12085   0.556   2.692   3.195
 3729SOL    HW112086   0.459   2.671   3.179
 3729SOL    HW212087   0.613   2.629   3.141
 3730SOL     OW12088   2.173   0.356   1.005
 3730SOL    HW112089   2.085   0.312   0.990
 3730SOL    HW212090   2.245   0.304   0.958
 3731SOL     OW12091   3.137   6.234   6.291
 3731SOL    HW112092   3.061   6.296   6.272
 3731SOL    HW212093   3.162   6.185   6.208
 3732SOL     OW12094   1.962   3.920   4.607
 3732SOL    HW112095   1.868   3.903   4.637
 3732SOL    HW212096   2.015   3.954   4.685
 3733SOL     OW12097   3.338   2.947   0.929
 3733SOL    HW112098   3.345   2.870   0.992
 3733SOL    HW212099   3.318   2.912   0.837
 3734SOL     OW12100   5.187   6.605   3.891
 3734SOL    HW112101   5.244   6.680   3.925
 3734SOL    HW212102   5.235   6.559   3.816
 3735SOL     OW12103   3.356   1.759   1.759
 3735SOL    HW112104   3.455   1.755   1.772
 3735SOL    HW212105   3.322   1.845   1.795
 3736SOL     OW12106   4.780   1.265   5.862
 3736SOL    HW112107   4.727   1.272   5.777
 3736SOL    HW212108   4.839   1.345   5.871
 3737SOL     OW12109   3.771   6.387   3.660
 3737SOL    HW112110   3.868   6.373   3.639
 3737SOL    HW212111   3.759   6.476   3.702
 3738SOL     OW12112   0.293   6.991   4.299
 3738SOL    HW112113   0.318   0.041   4.362
 3738SOL    HW212114   0.275   6.907   4.351
 3739SOL     OW12115   0.993   3.625   1.961
 3739SOL    HW112116   1.032   3.540   1.994
 3739SOL    HW212117   0.893   3.617   1.957
 3740SOL     OW12118   5.590   0.740   0.102
 3740SOL    HW112119   5.624   0.828   0.137
 3740SOL    HW212120   5.541   0.755   0.016
 3741SOL     OW12121   3.575   2.254   7.019
 3741SOL    HW112122   3.589   2.202   6.935
 3741SOL    HW212123   3.560   2.350   6.996
 3742SOL     OW12124   3.422   3.618   5.535
 3742SOL    HW112125   3.325   3.600   5.516
 3742SOL    HW212126   3.444   3.712   5.509
 3743SOL     OW12127   0.950   5.716   5.748
 3743SOL    HW112128   1.005   5.669   5.818
 3743SOL    HW212129   0.960   5.669   5.661
 3744SOL     OW12130   7.004   5.353   3.497
 3744SOL    HW112131   0.077   5.329   3.512
 3744SOL    HW212132   6.977   5.422   3.564
 3745SOL     OW12133   5.139   5.957   1.656
 3745SOL    HW112134   5.204   6.025   1.689
 3745SOL    HW212135   5.055   6.002   1.629
 3746SOL     OW12136   4.391   1.401   2.298
 3746SOL    HW112137   4.337   1.478   2.262
 3746SOL    HW212138   4.332   1.343   2.354
 3747SOL     OW12139   2.372   0.280   0.771
 3747SOL    HW112140   2.284   0.267   0.723
 3747SOL    HW212141   2.443   0.303   0.705
 3748SOL     OW12142   5.250   0.695   2.271
 3748SOL    HW112143   5.181   0.690   2.200
 3748SOL    HW212144   5.318   0.623   2.257
 3749SOL     OW12145   1.864   0.513   4.027
 3749SOL    HW112146   1.771   0.530   4.058
 3749SOL    HW212147   1.901   0.596   3.985
 3750SOL     OW12148   0.108   4.413   6.531
 3750SOL    HW112149   0.187   4.425   6.591
 3750SOL    HW212150   0.057   4.500   6.527
 3751SOL     OW12151   1.655   4.074   1.380
 3751SOL    HW112152   1.733   4.064   1.318
 3751SOL    HW212153   1.675   4.029   1.467
 3752SOL     OW12154   5.361   6.021   0.326
 3752SOL    HW112155   5.381   5.929   0.292
 3752SOL    HW212156   5.447   6.068   0.349
 3753SOL     OW12157   0.230   6.957   3.083
 3753SOL    HW112158   0.133   6.960   3.060
 3753SOL    HW212159   0.243   6.983   3.178
 3754SOL     OW12160   2.229   1.728   1.579
 3754SOL    HW112161   2.191   1.706   1.668
 3754SOL    HW212162   2.329   1.728   1.584
 3755SOL     OW12163   3.247   5.553   4.370
 3755SOL    HW112164   3.195   5.591   4.446
 3755SOL    HW212165   3.187   5.498   4.312
 3756SOL     OW12166   1.277   6.830   0.814
 3756SOL    HW112167   1.354   6.797   0.869
 3756SOL    HW212168   1.248   6.758   0.751
 3757SOL     OW12169   0.786   4.260   1.100
 3757SOL    HW112170   0.777   4.176   1.048
 3757SOL    HW212171   0.771   4.339   1.040
 3758SOL     OW12172   2.030   6.769   3.903
 3758SOL    HW112173   1.946   6.779   3.956
 3758SOL    HW212174   2.015   6.802   3.809
 3759SOL     OW12175   5.205   0.056   4.308
 3759SOL    HW112176   5.150   6.996   4.302
 3759SOL    HW212177   5.279   0.053   4.240
 3760SOL     OW12178   0.804   0.889   2.778
 3760SOL    HW112179   0.799   0.930   2.870
 3760SOL    HW212180   0.801   0.962   2.709
 3761SOL     OW12181   4.147   2.102   5.665
 3761SOL    HW112182   4.090   2.045   5.724
 3761SOL    HW212183   4.243   2.093   5.692
 3762SOL     OW12184   0.465   3.054   3.949
 3762SOL    HW112185   0.484   3.099   3.862
 3762SOL    HW212186   0.468   2.955   3.936
 3763SOL     OW12187   0.485   5.206   6.831
 3763SOL    HW112188   0.486   5.237   6.736
 3763SOL    HW212189   0.399   5.158   6.850
 3764SOL     OW12190   2.628   1.012   2.620
 3764SOL    HW112191   2.655   1.092   2.675
 3764SOL    HW212192   2.579   1.043   2.539
 3765SOL     OW12193   5.285   2.750   2.840
 3765SOL    HW112194   5.314   2.846   2.838
 3765SOL    HW212195   5.324   2.702   2.762
 3766SOL     OW12196   1.440   2.967   2.048
 3766SOL    HW112197   1.403   2.959   2.140
 3766SOL    HW212198   1.404   3.049   2.004
 3767SOL     OW12199   1.596   5.860   5.878
 3767SOL    HW112200   1.589   5.770   5.834
 3767SOL    HW212201   1.552   5.928   5.820
 3768SOL     OW12202   1.581   6.676   2.621
 3768SOL    HW112203   1.521   6.731   2.677
 3768SOL    HW212204   1.539   6.662   2.531
 3769SOL     OW12205   5.240   5.646   4.285
 3769SOL    HW112206   5.281   5.654   4.194
 3769SOL    HW212207   5.298   5.694   4.351
 3770SOL     OW12208   2.614   0.549   1.880
 3770SOL    HW112209   2.576   0.604   1.805
 3770SOL    HW212210   2.547   0.480   1.907
 3771SOL     OW12211   6.799   6.054   5.628
 3771SOL    HW112212   6.718   6.033   5.682
 3771SOL    HW212213   6.842   5.969   5.597
 3772SOL     OW12214   1.161   6.142   1.937
 3772SOL    HW112215   1.078   6.112   1.890
 3772SOL    HW212216   1.162   6.242   1.942
 3773SOL     OW12217   5.184   5.363   6.866
 3773SOL    HW112218   5.101   5.392   6.818
 3773SOL    HW212219   5.219   5.279   6.825
 3774SOL     OW12220   6.751   4.460   1.916
 3774SOL    HW112221   6.690   4.530   1.879
 3774SOL    HW212222   6.708   4.370   1.908
 3775SOL     OW12223   5.161   5.118   5.064
 3775SOL    HW112224   5.087   5.185   5.067
 3775SOL    HW212225   5.214   5.123   5.149
 3776SOL     OW12226   4.386   2.948   6.501
 3776SOL    HW112227   4.337   2.942   6.415
 3776SOL    HW212228   4.409   3.044   6.520
 3777SOL     OW12229   3.041   4.877   4.010
 3777SOL    HW112230   3.104   4.858   3.935
 3777SOL    HW212231   3.085   4.857   4.097
 3778SOL     OW12232   3.281   5.139   6.564
 3778SOL    HW112233   3.278   5.192   6.648
 3778SOL    HW212234   3.216   5.176   6.498
 3779SOL     OW12235   6.744   4.855   6.908
 3779SOL    HW112236   6.697   4.941   6.888
 3779SOL    HW212237   6.838   4.875   6.937
 3780SOL     OW12238   6.059   3.925   1.826
 3780SOL    HW112239   5.998   4.000   1.799
 3780SOL    HW212240   6.020   3.877   1.905
 3781SOL     OW12241   1.390   6.522   5.463
 3781SOL    HW112242   1.354   6.608   5.428
 3781SOL    HW212243   1.457   6.485   5.399
 3782SOL     OW12244   4.169   5.352   0.751
 3782SOL    HW112245   4.131   5.422   0.812
 3782SOL    HW212246   4.242   5.302   0.799
 3783SOL     OW12247   4.645   5.372   5.062
 3783SOL    HW112248   4.676   5.283   5.028
 3783SOL    HW212249   4.615   5.363   5.157
 3784SOL     OW12250   5.244   2.925   5.385
 3784SOL    HW112251   5.319   2.858   5.388
 3784SOL    HW212252   5.278   3.014   5.417
 3785SOL     OW12253   1.301   2.405   2.965
 3785SOL    HW112254   1.364   2.387   3.040
 3785SOL    HW212255   1.313   2.499   2.932
 3786SOL     OW12256   2.096   3.511   4.575
 3786SOL    HW112257   2.117   3.606   4.551
 3786SOL    HW212258   2.109   3.497   4.673
 3787SOL     OW12259   5.397   6.275   3.995
 3787SOL    HW112260   5.420   6.194   4.050
 3787SOL    HW212261   5.400   6.252   3.898
 3788SOL     OW12262   5.069   3.231   5.788
 3788SOL    HW112263   4.976   3.266   5.795
 3788SOL    HW212264   5.122   3.260   5.867
 3789SOL     OW12265   2.463   2.804   0.902
 3789SOL    HW112266   2.390   2.820   0.968
 3789SOL    HW212267   2.463   2.708   0.874
 3790SOL     OW12268   0.875   6.663   1.454
 3790SOL    HW112269   0.885   6.571   1.415
 3790SOL    HW212270   0.888   6.731   1.382
 3791SOL     OW12271   5.219   0.498   4.948
 3791SOL    HW112272   5.133   0.516   4.996
 3791SOL    HW212273   5.200   0.466   4.855
 3792SOL     OW12274   6.799   0.419   4.293
 3792SOL    HW112275   6.809   0.423   4.194
 3792SOL    HW212276   6.708   0.450   4.319
 3793SOL     OW12277   3.663   4.615   0.695
 3793SOL    HW112278   3.719   4.586   0.773
 3793SOL    HW212279   3.697   4.702   0.659
 3794SOL     OW12280   1.518   5.238   6.281
 3794SOL    HW112281   1.428   5.234   6.325
 3794SOL    HW212282   1.543   5.148   6.247
 3795SOL     OW12283   3.074   6.413   1.066
 3795SOL    HW112284   3.117   6.491   1.112
 3795SOL    HW212285   3.145   6.351   1.033
 3796SOL     OW12286   4.977   1.105   0.240
 3796SOL    HW112287   4.949   1.021   0.193
 3796SOL    HW212288   5.004   1.174   0.172
 3797SOL     OW12289   0.382   3.303   1.506
 3797SOL    HW112290   0.337   3.391   1.517
 3797SOL    HW212291   0.367   3.246   1.587
 3798SOL     OW12292   1.218   5.385   4.021
 3798SOL    HW112293   1.174   5.417   3.938
 3798SOL    HW212294   1.181   5.433   4.100
 3799SOL     OW12295   0.160   0.936   3.647
 3799SOL    HW112296   0.128   0.917   3.740
 3799SOL    HW212297   0.257   0.961   3.650
 3800SOL     OW12298   5.355   2.454   3.322
 3800SOL    HW112299   5.389   2.448   3.415
 3800SOL    HW212300   5.431   2.445   3.258
 3801SOL     OW12301   5.879   0.822   0.774
 3801SOL    HW112302   5.872   0.750   0.705
 3801SOL    HW212303   5.971   0.820   0.814
 3802SOL     OW12304   6.569   3.409   1.664
 3802SOL    HW112305   6.653   3.461   1.680
 3802SOL    HW212306   6.524   3.392   1.751
 3803SOL     OW12307   4.128   3.748   5.053
 3803SOL    HW112308   4.041   3.718   5.015
 3803SOL    HW212309   4.185   3.668   5.074
 3804SOL     OW12310   3.821   6.442   3.373
 3804SOL    HW112311   3.873   6.456   3.458
 3804SOL    HW212312   3.726   6.422   3.396
 3805SOL     OW12313   2.512   2.120   6.576
 3805SOL    HW112314   2.581   2.089   6.641
 3805SOL    HW212315   2.486   2.214   6.598
 3806SOL     OW12316   2.252   5.198   1.518
 3806SOL    HW112317   2.219   5.268   1.581
 3806SOL    HW212318   2.187   5.123   1.514
 3807SOL     OW12319   1.456   4.244   3.557
 3807SOL    HW112320   1.427   4.149   3.561
 3807SOL    HW212321   1.555   4.249   3.545
 3808SOL     OW12322   2.918   6.444   5.670
 3808SOL    HW112323   2.864   6.477   5.593
 3808SOL    HW212324   2.998   6.503   5.683
 3809SOL     OW12325   5.645   1.632   1.921
 3809SOL    HW112326   5.719   1.638   1.987
 3809SOL    HW212327   5.653   1.706   1.855
 3810SOL     OW12328   4.699   2.109   2.779
 3810SOL    HW112329   4.664   2.017   2.800
 3810SOL    HW212330   4.794   2.116   2.811
 3811SOL     OW12331   6.985   5.814   5.222
 3811SOL    HW112332   6.980   5.718   5.196
 3811SOL    HW212333   0.048   5.853   5.189
 3812SOL     OW12334   4.256   5.769   0.336
 3812SOL    HW112335   4.188   5.710   0.378
 3812SOL    HW212336   4.230   5.865   0.349
 3813SOL     OW12337   5.746   4.316   6.947
 3813SOL    HW112338   5.819   4.384   6.951
 3813SOL    HW212339   5.784   4.225   6.967
 3814SOL     OW12340   0.011   0.208   4.821
 3814SOL    HW112341   0.021   0.302   4.856
 3814SOL    HW212342   6.938   0.181   4.827
 3815SOL     OW12343   6.055   3.558   5.873
 3815SOL    HW112344   6.136   3.615   5.886
 3815SOL    HW212345   5.975   3.604   5.914
 3816SOL     OW12346   6.389   6.411   1.234
 3816SOL    HW112347   6.423   6.363   1.315
 3816SOL    HW212348   6.459   6.410   1.162
 3817SOL     OW12349   4.382   3.803   1.716
 3817SOL    HW112350   4.469   3.839   1.684
 3817SOL    HW212351   4.345   3.739   1.648
 3818SOL     OW12352   5.583   6.216   2.220
 3818SOL    HW112353   5.538   6.128   2.228
 3818SOL    HW212354   5.677   6.209   2.252
 3819SOL     OW12355   6.180   3.171   3.416
 3819SOL    HW112356   6.202   3.257   3.371
 3819SOL    HW212357   6.225   3.167   3.505
 3820SOL     OW12358   3.462   6.451   5.271
 3820SOL    HW112359   3.499   6.529   5.220
 3820SOL    HW212360   3.369   6.472   5.301
 3821SOL     OW12361   1.680   0.175   0.649
 3821SOL    HW112362   1.747   0.118   0.602
 3821SOL    HW212363   1.648   0.129   0.732
 3822SOL     OW12364   4.920   6.889   2.243
 3822SOL    HW112365   4.942   6.945   2.163
 3822SOL    HW212366   5.005   6.854   2.282
 3823SOL     OW12367   5.411   6.446   5.622
 3823SOL    HW112368   5.473   6.392   5.565
 3823SOL    HW212369   5.464   6.506   5.681
 3824SOL     OW12370   2.491   2.820   0.503
 3824SOL    HW112371   2.465   2.878   0.426
 3824SOL    HW212372   2.424   2.829   0.576
 3825SOL     OW12373   0.411   5.008   5.831
 3825SOL    HW112374   0.318   5.013   5.867
 3825SOL    HW212375   0.470   5.072   5.881
 3826SOL     OW12376   5.609   3.661   3.382
 3826SOL    HW112377   5.599   3.721   3.302
 3826SOL    HW212378   5.521   3.620   3.404
 3827SOL     OW12379   6.808   1.750   0.073
 3827SOL    HW112380   6.875   1.676   0.070
 3827SOL    HW212381   6.854   1.837   0.053
 3828SOL     OW12382   3.889   3.370   3.715
 3828SOL    HW112383   3.970   3.410   3.758
 3828SOL    HW212384   3.875   3.277   3.750
 3829SOL     OW12385   0.462   3.658   1.946
 3829SOL    HW112386   0.544   3.690   1.993
 3829SOL    HW212387   0.473   3.562   1.921
 3830SOL     OW12388   6.176   0.585   3.475
 3830SOL    HW112389   6.179   0.619   3.569
 3830SOL    HW212390   6.267   0.554   3.448
 3831SOL     OW12391   4.640   2.133   3.110
 3831SOL    HW112392   4.637   2.199   3.035
 3831SOL    HW212393   4.721   2.075   3.100
 3832SOL     OW12394   6.678   0.451   3.681
 3832SOL    HW112395   6.665   0.532   3.738
 3832SOL    HW212396   6.770   0.453   3.641
 3833SOL     OW12397   1.418   2.751   5.416
 3833SOL    HW112398   1.353   2.769   5.490
 3833SOL    HW212399   1.465   2.665   5.433
 3834SOL     OW12400   5.135   4.464   1.037
 3834SOL    HW112401   5.095   4.552   1.011
 3834SOL    HW212402   5.071   4.414   1.096
 3835SOL     OW12403   4.292   5.604   5.056
 3835SOL    HW112404   4.323   5.516   5.019
 3835SOL    HW212405   4.329   5.616   5.148
 3836SOL     OW12406   6.713   5.845   5.276
 3836SOL    HW112407   6.809   5.828   5.255
 3836SOL    HW212408   6.707   5.899   5.360
 3837SOL     OW12409   4.278   4.657   5.971
 3837SOL    HW112410   4.227   4.664   6.056
 3837SOL    HW212411   4.215   4.633   5.896
 3838SOL     OW12412   0.123   0.490   4.080
 3838SOL    HW112413   0.155   0.396   4.068
 3838SOL    HW212414   0.132   0.517   4.175
 3839SOL     OW12415   5.320   0.601   3.974
 3839SOL    HW112416   5.341   0.678   3.915
 3839SOL    HW212417   5.296   0.521   3.919
 3840SOL     OW12418   3.189   1.211   6.557
 3840SOL    HW112419   3.156   1.176   6.645
 3840SOL    HW212420   3.156   1.152   6.483
 3841SOL     OW12421   5.860   4.325   4.139
 3841SOL    HW112422   5.958   4.320   4.123
 3841SOL    HW212423   5.828   4.419   4.128
 3842SOL     OW12424   1.996   4.062   5.680
 3842SOL    HW112425   1.972   3.989   5.744
 3842SOL    HW212426   1.913   4.109   5.650
 3843SOL     OW12427   5.044   2.081   6.271
 3843SOL    HW112428   4.967   2.142   6.285
 3843SOL    HW212429   5.023   1.991   6.311
 3844SOL     OW12430   0.159   0.567   0.726
 3844SOL    HW112431   0.067   0.536   0.701
 3844SOL    HW212432   0.175   0.658   0.688
 3845SOL     OW12433   1.726   5.604   0.265
 3845SOL    HW112434   1.716   5.507   0.287
 3845SOL    HW212435   1.673   5.623   0.182
 3846SOL     OW12436   0.766   2.877   2.763
 3846SOL    HW112437   0.852   2.826   2.768
 3846SOL    HW212438   0.741   2.911   2.853
 3847SOL     OW12439   0.218   1.826   6.881
 3847SOL    HW112440   0.216   1.909   6.825
 3847SOL    HW212441   0.206   1.850   6.977
 3848SOL     OW12442   6.066   4.236   1.952
 3848SOL    HW112443   6.112   4.154   1.986
 3848SOL    HW212444   6.005   4.212   1.876
 3849SOL     OW12445   6.604   4.822   5.819
 3849SOL    HW112446   6.529   4.764   5.786
 3849SOL    HW212447   6.600   4.827   5.919
 3850SOL     OW12448   2.948   2.414   1.515
 3850SOL    HW112449   2.955   2.493   1.576
 3850SOL    HW212450   2.918   2.334   1.568
 3851SOL     OW12451   0.199   6.377   2.842
 3851SOL    HW112452   0.293   6.382   2.808
 3851SOL    HW212453   0.137   6.419   2.776
 3852SOL     OW12454   1.507   0.091   4.620
 3852SOL    HW112455   1.599   0.079   4.582
 3852SOL    HW212456   1.508   0.065   4.717
 3853SOL     OW12457   3.084   0.413   3.139
 3853SOL    HW112458   2.997   0.407   3.090
 3853SOL    HW212459   3.087   0.343   3.211
 3854SOL     OW12460   0.354   2.264   1.669
 3854SOL    HW112461   0.401   2.337   1.620
 3854SOL    HW212462   0.415   2.186   1.681
 3855SOL     OW12463   3.454   6.824   7.000
 3855SOL    HW112464   3.396   6.828   6.919
 3855SOL    HW212465   3.508   6.908   7.006
 3856SOL     OW12466   0.624   2.599   6.413
 3856SOL    HW112467   0.620   2.502   6.439
 3856SOL    HW212468   0.587   2.610   6.321
 3857SOL     OW12469   2.329   0.421   6.308
 3857SOL    HW112470   2.306   0.338   6.358
 3857SOL    HW212471   2.351   0.494   6.373
 3858SOL     OW12472   4.877   0.794   4.272
 3858SOL    HW112473   4.911   0.774   4.364
 3858SOL    HW212474   4.952   0.827   4.215
 3859SOL     OW12475   5.890   6.783   1.373
 3859SOL    HW112476   5.840   6.823   1.450
 3859SOL    HW212477   5.832   6.716   1.328
 3860SOL     OW12478   1.785   6.803   4.057
 3860SOL    HW112479   1.748   6.817   4.149
 3860SOL    HW212480   1.777   6.888   4.005
 3861SOL     OW12481   2.608   5.304   1.712
 3861SOL    HW112482   2.671   5.378   1.734
 3861SOL    HW212483   2.561   5.324   1.626
 3862SOL     OW12484   1.910   0.617   4.448
 3862SOL    HW112485   1.906   0.530   4.399
 3862SOL    HW212486   2.004   0.650   4.451
 3863SOL     OW12487   3.215   0.253   0.414
 3863SOL    HW112488   3.264   0.285   0.333
 3863SOL    HW212489   3.162   0.171   0.391
 3864SOL     OW12490   2.186   0.313   5.098
 3864SOL    HW112491   2.227   0.405   5.102
 3864SOL    HW212492   2.131   0.305   5.015
 3865SOL     OW12493   4.359   1.340   0.645
 3865SOL    HW112494   4.263   1.335   0.673
 3865SOL    HW212495   4.368   1.308   0.551
 3866SOL     OW12496   2.707   1.929   6.269
 3866SOL    HW112497   2.682   1.863   6.340
 3866SOL    HW212498   2.676   1.895   6.180
 3867SOL     OW12499   0.424   2.966   1.925
 3867SOL    HW112500   0.486   3.030   1.969
 3867SOL    HW212501   0.406   2.889   1.987
 3868SOL     OW12502   4.471   0.866   0.265
 3868SOL    HW112503   4.490   0.964   0.258
 3868SOL    HW212504   4.519   0.819   0.191
 3869SOL     OW12505   4.754   1.744   4.135
 3869SOL    HW112506   4.673   1.770   4.187
 3869SOL    HW212507   4.826   1.812   4.150
 3870SOL     OW12508   0.053   0.769   4.952
 3870SOL    HW112509   0.061   0.864   4.980
 3870SOL    HW212510   0.110   0.712   5.011
 3871SOL     OW12511   2.652   5.632   4.360
 3871SOL    HW112512   2.606   5.676   4.437
 3871SOL    HW212513   2.586   5.619   4.286
 3872SOL     OW12514   3.131   3.546   5.462
 3872SOL    HW112515   3.048   3.601   5.451
 3872SOL    HW212516   3.118   3.481   5.537
 3873SOL     OW12517   4.133   1.913   0.566
 3873SOL    HW112518   4.108   1.824   0.528
 3873SOL    HW212519   4.222   1.941   0.530
 3874SOL     OW12520   2.329   1.064   0.126
 3874SOL    HW112521   2.332   0.971   0.089
 3874SOL    HW212522   2.245   1.109   0.096
 3875SOL     OW12523   1.204   1.970   6.191
 3875SOL    HW112524   1.126   2.019   6.152
 3875SOL    HW212525   1.288   2.003   6.149
 3876SOL     OW12526   3.817   5.117   2.114
 3876SOL    HW112527   3.744   5.149   2.174
 3876SOL    HW212528   3.898   5.174   2.127
 3877SOL     OW12529   0.038   2.038   6.599
 3877SOL    HW112530   0.020   1.944   6.627
 3877SOL    HW212531   0.120   2.072   6.646
 3878SOL     OW12532   5.355   0.775   4.632
 3878SOL    HW112533   5.378   0.686   4.593
 3878SOL    HW212534   5.423   0.800   4.701
 3879SOL     OW12535   5.905   5.805   0.541
 3879SOL    HW112536   5.831   5.791   0.474
 3879SOL    HW212537   5.989   5.766   0.505
 3880SOL     OW12538   4.408   4.552   3.905
 3880SOL    HW112539   4.355   4.554   3.991
 3880SOL    HW212540   4.458   4.638   3.895
 3881SOL     OW12541   0.734   3.399   0.033
 3881SOL    HW112542   0.774   3.395   0.125
 3881SOL    HW212543   0.659   3.333   0.027
 3882SOL     OW12544   0.601   2.035   6.378
 3882SOL    HW112545   0.518   1.992   6.413
 3882SOL    HW212546   0.640   1.978   6.305
 3883SOL     OW12547   4.707   5.535   3.383
 3883SOL    HW112548   4.652   5.530   3.466
 3883SOL    HW212549   4.760   5.451   3.374
 3884SOL     OW12550   0.399   4.356   1.956
 3884SOL    HW112551   0.441   4.267   1.944
 3884SOL    HW212552   0.470   4.426   1.968
 3885SOL     OW12553   5.405   5.861   2.726
 3885SOL    HW112554   5.312   5.831   2.704
 3885SOL    HW212555   5.439   5.919   2.652
 3886SOL     OW12556   2.971   6.168   5.816
 3886SOL    HW112557   2.942   6.096   5.752
 3886SOL    HW212558   2.926   6.254   5.792
 3887SOL     OW12559   0.892   6.450   2.323
 3887SOL    HW112560   0.990   6.443   2.305
 3887SOL    HW212561   0.875   6.437   2.421
 3888SOL     OW12562   5.790   5.116   4.191
 3888SOL    HW112563   5.782   5.046   4.119
 3888SOL    HW212564   5.827   5.200   4.152
 3889SOL     OW12565   5.320   4.023   0.808
 3889SOL    HW112566   5.335   3.926   0.825
 3889SOL    HW212567   5.397   4.076   0.844
 3890SOL     OW12568   5.340   3.276   4.523
 3890SOL    HW112569   5.439   3.264   4.532
 3890SOL    HW212570   5.318   3.373   4.519
 3891SOL     OW12571   5.615   5.517   3.637
 3891SOL    HW112572   5.545   5.512   3.566
 3891SOL    HW212573   5.573   5.546   3.723
 3892SOL     OW12574   7.019   2.447   1.210
 3892SOL    HW112575   0.019   2.352   1.189
 3892SOL    HW212576   6.995   2.455   1.307
 3893SOL     OW12577   3.996   3.893   2.790
 3893SOL    HW112578   3.980   3.835   2.870
 3893SOL    HW212579   3.990   3.989   2.816
 3894SOL     OW12580   4.647   0.708   5.512
 3894SOL    HW112581   4.692   0.775   5.572
 3894SOL    HW212582   4.619   0.629   5.566
 3895SOL     OW12583   1.126   0.509   4.159
 3895SOL    HW112584   1.046   0.468   4.203
 3895SOL    HW212585   1.101   0.597   4.118
 3896SOL     OW12586   1.209   1.212   6.775
 3896SOL    HW112587   1.122   1.186   6.817
 3896SOL    HW212588   1.212   1.179   6.681
 3897SOL     OW12589   4.127   6.646   1.290
 3897SOL    HW112590   4.110   6.548   1.301
 3897SOL    HW212591   4.162   6.684   1.376
 3898SOL     OW12592   3.918   3.125   0.796
 3898SOL    HW112593   3.883   3.192   0.861
 3898SOL    HW212594   3.846   3.058   0.776
 3899SOL     OW12595   3.246   0.323   5.497
 3899SOL    HW112596   3.272   0.414   5.527
 3899SOL    HW212597   3.226   0.266   5.576
 3900SOL     OW12598   5.340   3.642   3.206
 3900SOL    HW112599   5.281   3.691   3.142
 3900SOL    HW212600   5.326   3.678   3.299
 3901SOL     OW12601   2.647   0.278   6.925
 3901SOL    HW112602   2.581   0.203   6.927
 3901SOL    HW212603   2.647   0.321   6.834
 3902SOL     OW12604   6.254   3.074   2.552
 3902SOL    HW112605   6.331   3.127   2.588
 3902SOL    HW212606   6.168   3.120   2.575
 3903SOL     OW12607   3.318   4.391   6.516
 3903SOL    HW112608   3.357   4.446   6.590
 3903SOL    HW212609   3.220   4.409   6.509
 3904SOL     OW12610   1.312   0.512   0.445
 3904SOL    HW112611   1.250   0.491   0.521
 3904SOL    HW212612   1.345   0.426   0.405
 3905SOL     OW12613   6.407   5.567   5.253
 3905SOL    HW112614   6.489   5.527   5.296
 3905SOL    HW212615   6.432   5.606   5.165
 3906SOL     OW12616   6.783   6.565   5.275
 3906SOL    HW112617   6.835   6.515   5.345
 3906SOL    HW212618   6.843   6.632   5.231
 3907SOL     OW12619   6.660   1.849   3.845
 3907SOL    HW112620   6.675   1.820   3.751
 3907SOL    HW212621   6.745   1.838   3.897
 3908SOL     OW12622   1.994   3.037   6.104
 3908SOL    HW112623   2.059   3.101   6.145
 3908SOL    HW212624   1.901   3.073   6.116
 3909SOL     OW12625   5.962   5.285   4.003
 3909SOL    HW112626   6.028   5.235   3.947
 3909SOL    HW212627   5.877   5.297   3.952
 3910SOL     OW12628   4.066   3.688   2.596
 3910SOL    HW112629   4.073   3.730   2.506
 3910SOL    HW212630   4.062   3.759   2.666
 3911SOL     OW12631   6.628   2.131   5.643
 3911SOL    HW112632   6.566   2.053   5.633
 3911SOL    HW212633   6.717   2.099   5.675
 3912SOL     OW12634   5.296   2.658   0.059
 3912SOL    HW112635   5.367   2.595   0.028
 3912SOL    HW212636   5.319   2.751   0.029
 3913SOL     OW12637   1.113   6.651   1.008
 3913SOL    HW112638   1.046   6.656   1.081
 3913SOL    HW212639   1.185   6.719   1.024
 3914SOL     OW12640   3.141   5.382   5.697
 3914SOL    HW112641   3.193   5.468   5.693
 3914SOL    HW212642   3.195   5.309   5.655
 3915SOL     OW12643   6.601   5.830   1.203
 3915SOL    HW112644   6.577   5.906   1.263
 3915SOL    HW212645   6.634   5.866   1.116
 3916SOL     OW12646   0.908   0.257   3.093
 3916SOL    HW112647   0.859   0.238   3.178
 3916SOL    HW212648   0.849   0.235   3.015
 3917SOL     OW12649   1.807   0.236   0.166
 3917SOL    HW112650   1.896   0.191   0.174
 3917SOL    HW212651   1.739   0.169   0.136
 3918SOL     OW12652   5.593   3.375   0.845
 3918SOL    HW112653   5.612   3.316   0.766
 3918SOL    HW212654   5.509   3.346   0.889
 3919SOL     OW12655   3.239   6.600   0.747
 3919SOL    HW112656   3.242   6.679   0.685
 3919SOL    HW212657   3.273   6.520   0.699
 3920SOL     OW12658   1.964   1.573   6.705
 3920SOL    HW112659   1.962   1.551   6.608
 3920SOL    HW212660   2.014   1.658   6.719
 3921SOL     OW12661   1.541   3.529   1.907
 3921SOL    HW112662   1.460   3.563   1.859
 3921SOL    HW212663   1.620   3.583   1.880
 3922SOL     OW12664   1.225   4.717   1.176
 3922SOL    HW112665   1.273   4.643   1.129
 3922SOL    HW212666   1.149   4.749   1.119
 3923SOL     OW12667   6.602   0.311   0.388
 3923SOL    HW112668   6.555   0.363   0.460
 3923SOL    HW212669   6.539   0.297   0.311
 3924SOL     OW12670   6.813   4.955   4.668
 3924SOL    HW112671   6.763   4.883   4.619
 3924SOL    HW212672   6.911   4.944   4.654
 3925SOL     OW12673   1.347   5.172   2.251
 3925SOL    HW112674   1.410   5.173   2.328
 3925SOL    HW212675   1.253   5.180   2.285
 3926SOL     OW12676   3.861   4.884   2.499
 3926SOL    HW112677   3.919   4.887   2.580
 3926SOL    HW212678   3.765   4.883   2.526
 3927SOL     OW12679   0.712   3.177   5.732
 3927SOL    HW112680   0.767   3.150   5.811
 3927SOL    HW212681   0.713   3.276   5.723
 3928SOL     OW12682   5.436   5.755   6.115
 3928SOL    HW112683   5.353   5.795   6.076
 3928SOL    HW212684   5.419   5.732   6.211
 3929SOL     OW12685   1.145   2.107   4.829
 3929SOL    HW112686   1.228   2.155   4.858
 3929SOL    HW212687   1.087   2.169   4.777
 3930SOL     OW12688   2.211   1.333   3.833
 3930SOL    HW112689   2.302   1.372   3.824
 3930SOL    HW212690   2.146   1.404   3.860
 3931SOL     OW12691   5.117   0.601   2.040
 3931SOL    HW112692   5.082   0.633   1.952
 3931SOL    HW212693   5.205   0.555   2.026
 3932SOL     OW12694   1.807   1.865   3.791
 3932SOL    HW112695   1.808   1.767   3.813
 3932SOL    HW212696   1.714   1.893   3.770
 3933SOL     OW12697   0.548   7.011   5.149
 3933SOL    HW112698   0.561   6.917   5.178
 3933SOL    HW212699   0.570   0.050   5.225
 3934SOL     OW12700   5.542   0.167   6.842
 3934SOL    HW112701   5.557   0.157   6.940
 3934SOL    HW212702   5.561   0.081   6.796
 3935SOL     OW12703   4.773   0.907   0.571
 3935SOL    HW112704   4.683   0.899   0.613
 3935SOL    HW212705   4.843   0.881   0.637
 3936SOL     OW12706   0.241   4.979   3.185
 3936SOL    HW112707   0.197   4.899   3.227
 3936SOL    HW212708   0.194   5.062   3.215
 3937SOL     OW12709   0.347   1.397   2.446
 3937SOL    HW112710   0.339   1.496   2.457
 3937SOL    HW212711   0.294   1.368   2.367
 3938SOL     OW12712   0.153   2.171   2.263
 3938SOL    HW112713   0.116   2.126   2.345
 3938SOL    HW212714   0.251   2.184   2.274
 3939SOL     OW12715   2.783   1.996   1.494
 3939SOL    HW112716   2.779   1.978   1.396
 3939SOL    HW212717   2.777   1.909   1.544
 3940SOL     OW12718   4.537   3.034   1.390
 3940SOL    HW112719   4.593   3.109   1.354
 3940SOL    HW212720   4.516   3.051   1.486
 3941SOL     OW12721   4.569   4.147   6.446
 3941SOL    HW112722   4.525   4.225   6.402
 3941SOL    HW212723   4.569   4.160   6.545
 3942SOL     OW12724   6.709   6.918   6.780
 3942SOL    HW112725   6.661   6.844   6.828
 3942SOL    HW212726   6.738   6.987   6.847
 3943SOL     OW12727   0.416   3.273   4.346
 3943SOL    HW112728   0.339   3.297   4.288
 3943SOL    HW212729   0.388   3.204   4.413
 3944SOL     OW12730   5.190   2.375   4.696
 3944SOL    HW112731   5.234   2.285   4.700
 3944SOL    HW212732   5.248   2.442   4.743
 3945SOL     OW12733   0.073   0.715   0.404
 3945SOL    HW112734   0.119   0.755   0.325
 3945SOL    HW212735   0.109   0.755   0.488
 3946SOL     OW12736   4.328   4.717   3.075
 3946SOL    HW112737   4.379   4.683   2.996
 3946SOL    HW212738   4.390   4.766   3.136
 3947SOL     OW12739   6.011   5.411   6.721
 3947SOL    HW112740   5.976   5.491   6.769
 3947SOL    HW212741   6.107   5.427   6.695
 3948SOL     OW12742   6.175   4.348   0.895
 3948SOL    HW112743   6.133   4.437   0.913
 3948SOL    HW212744   6.253   4.336   0.955
 3949SOL     OW12745   5.521   6.291   3.369
 3949SOL    HW112746   5.441   6.342   3.401
 3949SOL    HW212747   5.514   6.278   3.270
 3950SOL     OW12748   1.386   6.240   0.348
 3950SOL    HW112749   1.325   6.164   0.372
 3950SOL    HW212750   1.479   6.205   0.336
 3951SOL     OW12751   5.473   6.874   1.852
 3951SOL    HW112752   5.418   6.944   1.896
 3951SOL    HW212753   5.488   6.899   1.756
 3952SOL     OW12754   5.950   2.125   6.980
 3952SOL    HW112755   6.022   2.071   6.935
 3952SOL    HW212756   5.978   2.144   0.051
 3953SOL     OW12757   3.594   4.108   2.862
 3953SOL    HW112758   3.691   4.094   2.884
 3953SOL    HW212759   3.541   4.115   2.947
 3954SOL     OW12760   3.914   4.880   6.019
 3954SOL    HW112761   3.967   4.957   6.053
 3954SOL    HW212762   3.909   4.809   6.090
 3955SOL     OW12763   4.104   0.939   4.553
 3955SOL    HW112764   4.180   0.922   4.615
 3955SOL    HW212765   4.021   0.958   4.605
 3956SOL     OW12766   1.851   1.264   1.266
 3956SOL    HW112767   1.759   1.303   1.266
 3956SOL    HW212768   1.870   1.225   1.356
 3957SOL     OW12769   3.844   0.676   4.658
 3957SOL    HW112770   3.919   0.702   4.718
 3957SOL    HW212771   3.880   0.629   4.577
 3958SOL     OW12772   5.630   0.466   5.666
 3958SOL    HW112773   5.547   0.497   5.712
 3958SOL    HW212774   5.607   0.431   5.575
 3959SOL     OW12775   4.474   5.664   0.555
 3959SOL    HW112776   4.553   5.711   0.516
 3959SOL    HW212777   4.405   5.731   0.582
 3960SOL     OW12778   5.578   2.359   4.589
 3960SOL    HW112779   5.556   2.414   4.508
 3960SOL    HW212780   5.547   2.265   4.576
 3961SOL     OW12781   5.882   6.147   3.581
 3961SOL    HW112782   5.888   6.164   3.482
 3961SOL    HW212783   5.973   6.129   3.617
 3962SOL     OW12784   7.001   5.559   5.146
 3962SOL    HW112785   6.924   5.496   5.136
 3962SOL    HW212786   0.056   5.510   5.184
 3963SOL     OW12787   4.370   6.708   1.928
 3963SOL    HW112788   4.361   6.627   1.987
 3963SOL    HW212789   4.292   6.769   1.944
 3964SOL     OW12790   5.566   3.235   3.171
 3964SOL    HW112791   5.520   3.321   3.149
 3964SOL    HW212792   5.533   3.201   3.259
 3965SOL     OW12793   4.897   3.911   4.541
 3965SOL    HW112794   4.905   3.813   4.560
 3965SOL    HW212795   4.845   3.955   4.614
 3966SOL     OW12796   2.761   6.230   6.459
 3966SOL    HW112797   2.719   6.201   6.373
 3966SOL    HW212798   2.727   6.174   6.534
 3967SOL     OW12799   1.932   4.637   2.787
 3967SOL    HW112800   1.996   4.576   2.833
 3967SOL    HW212801   1.960   4.732   2.802
 3968SOL     OW12802   3.924   6.903   0.641
 3968SOL    HW112803   3.902   6.831   0.575
 3968SOL    HW212804   3.884   6.879   0.730
 3969SOL     OW12805   0.880   5.328   2.691
 3969SOL    HW112806   0.819   5.407   2.677
 3969SOL    HW212807   0.974   5.354   2.666
 3970SOL     OW12808   5.189   6.221   2.636
 3970SOL    HW112809   5.098   6.252   2.610
 3970SOL    HW212810   5.255   6.247   2.565
 3971SOL     OW12811   2.510   5.621   3.867
 3971SOL    HW112812   2.448   5.683   3.819
 3971SOL    HW212813   2.565   5.571   3.800
 3972SOL     OW12814   2.296   3.716   0.191
 3972SOL    HW112815   2.318   3.764   0.107
 3972SOL    HW212816   2.270   3.621   0.171
 3973SOL     OW12817   1.257   5.587   0.539
 3973SOL    HW112818   1.297   5.496   0.533
 3973SOL    HW212819   1.309   5.642   0.604
 3974SOL     OW12820   2.003   0.635   4.846
 3974SOL    HW112821   1.945   0.675   4.775
 3974SOL    HW212822   1.968   0.660   4.936
 3975SOL     OW12823   5.914   2.562   6.226
 3975SOL    HW112824   5.850   2.494   6.263
 3975SOL    HW212825   5.894   2.579   6.130
 3976SOL     OW12826   2.031   5.208   2.186
 3976SOL    HW112827   2.059   5.301   2.164
 3976SOL    HW212828   2.100   5.144   2.151
 3977SOL     OW12829   1.333   3.436   6.572
 3977SOL    HW112830   1.341   3.409   6.476
 3977SOL    HW212831   1.359   3.532   6.583
 3978SOL     OW12832   6.539   4.630   3.743
 3978SOL    HW112833   6.578   4.639   3.652
 3978SOL    HW212834   6.611   4.644   3.812
 3979SOL     OW12835   4.127   0.136   6.746
 3979SOL    HW112836   4.183   0.151   6.663
 3979SOL    HW212837   4.069   0.056   6.732
 3980SOL     OW12838   5.574   6.312   5.457
 3980SOL    HW112839   5.610   6.220   5.473
 3980SOL    HW212840   5.499   6.307   5.391
 3981SOL     OW12841   4.474   6.745   0.514
 3981SOL    HW112842   4.432   6.835   0.495
 3981SOL    HW212843   4.564   6.758   0.554
 3982SOL     OW12844   3.084   6.232   2.826
 3982SOL    HW112845   2.997   6.183   2.816
 3982SOL    HW212846   3.100   6.253   2.922
 3983SOL     OW12847   3.476   6.094   4.089
 3983SOL    HW112848   3.459   6.041   4.172
 3983SOL    HW212849   3.575   6.098   4.072
 3984SOL     OW12850   6.698   2.489   2.879
 3984SOL    HW112851   6.693   2.470   2.977
 3984SOL    HW212852   6.648   2.418   2.828
 3985SOL     OW12853   3.832   5.371   6.730
 3985SOL    HW112854   3.748   5.344   6.681
 3985SOL    HW212855   3.836   5.471   6.735
 3986SOL     OW12856   5.002   0.582   2.453
 3986SOL    HW112857   5.068   0.509   2.465
 3986SOL    HW212858   5.020   0.629   2.367
 3987SOL     OW12859   3.564   5.257   4.617
 3987SOL    HW112860   3.653   5.276   4.574
 3987SOL    HW212861   3.562   5.162   4.648
 3988SOL     OW12862   4.138   5.750   0.752
 3988SOL    HW112863   4.105   5.775   0.843
 3988SOL    HW212864   4.151   5.833   0.697
 3989SOL     OW12865   5.659   2.239   0.341
 3989SOL    HW112866   5.638   2.173   0.268
 3989SOL    HW212867   5.664   2.191   0.429
 3990SOL     OW12868   6.389   2.024   2.388
 3990SOL    HW112869   6.327   2.026   2.466
 3990SOL    HW212870   6.462   2.091   2.402
 3991SOL     OW12871   6.988   0.637   2.987
 3991SOL    HW112872   6.890   0.622   2.999
 3991SOL    HW212873   0.001   0.573   2.919
 3992SOL     OW12874   2.708   1.634   0.855
 3992SOL    HW112875   2.647   1.711   0.835
 3992SOL    HW212876   2.787   1.667   0.906
 3993SOL     OW12877   1.367   3.097   1.300
 3993SOL    HW112878   1.463   3.079   1.321
 3993SOL    HW212879   1.324   3.013   1.264
 3994SOL     OW12880   2.630   5.986   4.667
 3994SOL    HW112881   2.625   6.022   4.574
 3994SOL    HW212882   2.723   5.996   4.702
 3995SOL     OW12883   1.744   2.614   5.057
 3995SOL    HW112884   1.834   2.602   5.015
 3995SOL    HW212885   1.714   2.527   5.096
 3996SOL     OW12886   0.090   6.392   5.010
 3996SOL    HW112887   0.051   6.343   4.932
 3996SOL    HW212888   0.066   6.345   5.095
 3997SOL     OW12889   4.988   0.463   4.515
 3997SOL    HW112890   4.984   0.402   4.436
 3997SOL    HW212891   5.067   0.524   4.505
 3998SOL     OW12892   4.756   2.151   3.461
 3998SOL    HW112893   4.773   2.064   3.413
 3998SOL    HW212894   4.837   2.177   3.513
 3999SOL     OW12895   5.145   2.238   4.376
 3999SOL    HW112896   5.213   2.245   4.303
 3999SOL    HW212897   5.066   2.296   4.354
 4000SOL     OW12898   3.850   7.017   3.895
 4000SOL    HW112899   3.883   0.086   3.871
 4000SOL    HW212900   3.821   6.969   3.812
 4001SOL     OW12901   1.229   2.266   4.067
 4001SOL    HW112902   1.185   2.242   3.980
 4001SOL    HW212903   1.222   2.364   4.082
 4002SOL     OW12904   2.245   3.829   1.739
 4002SOL    HW112905   2.217   3.799   1.648
 4002SOL    HW212906   2.343   3.813   1.750
 4003SOL     OW12907   4.055   1.590   5.134
 4003SOL    HW112908   4.063   1.592   5.035
 4003SOL    HW212909   3.988   1.659   5.164
 4004SOL     OW12910   0.141   1.797   5.650
 4004SOL    HW112911   0.065   1.781   5.713
 4004SOL    HW212912   0.224   1.814   5.703
 4005SOL     OW12913   6.099   5.248   5.513
 4005SOL    HW112914   6.083   5.302   5.595
 4005SOL    HW212915   6.195   5.255   5.486
 4006SOL     OW12916   3.624   6.093   2.647
 4006SOL    HW112917   3.688   6.135   2.711
 4006SOL    HW212918   3.657   6.003   2.621
 4007SOL     OW12919   6.667   1.841   6.652
 4007SOL    HW112920   6.570   1.828   6.673
 4007SOL    HW212921   6.705   1.912   6.712
 4008SOL     OW12922   2.676   2.403   4.865
 4008SOL    HW112923   2.736   2.410   4.945
 4008SOL    HW212924   2.591   2.452   4.883
 4009SOL     OW12925   3.330   3.005   2.716
 4009SOL    HW112926   3.365   2.925   2.667
 4009SOL    HW212927   3.276   3.062   2.654
 4010SOL     OW12928   1.997   2.753   6.431
 4010SOL    HW112929   2.015   2.697   6.513
 4010SOL    HW212930   1.906   2.792   6.437
 4011SOL     OW12931   1.036   2.785   1.009
 4011SOL    HW112932   1.106   2.823   0.950
 4011SOL    HW212933   0.961   2.850   1.019
 4012SOL     OW12934   6.231   3.061   3.781
 4012SOL    HW112935   6.199   2.993   3.847
 4012SOL    HW212936   6.154   3.119   3.754
 4013SOL     OW12937   4.522   2.359   3.252
 4013SOL    HW112938   4.597   2.293   3.244
 4013SOL    HW212939   4.510   2.384   3.348
 4014SOL     OW12940   5.444   6.025   1.987
 4014SOL    HW112941   5.542   6.007   1.994
 4014SOL    HW212942   5.393   5.943   2.014
 4015SOL     OW12943   4.660   3.324   6.592
 4015SOL    HW112944   4.757   3.328   6.569
 4015SOL    HW212945   4.647   3.275   6.677
 4016SOL     OW12946   3.345   6.227   4.733
 4016SOL    HW112947   3.341   6.139   4.781
 4016SOL    HW212948   3.277   6.228   4.660
 4017SOL     OW12949   6.282   6.642   6.973
 4017SOL    HW112950   6.193   6.688   6.965
 4017SOL    HW212951   6.290   6.602   0.042
 4018SOL     OW12952   2.537   6.312   0.260
 4018SOL    HW112953   2.478   6.361   0.196
 4018SOL    HW212954   2.631   6.344   0.249
 4019SOL     OW12955   5.139   5.527   3.232
 4019SOL    HW112956   5.144   5.432   3.264
 4019SOL    HW212957   5.096   5.530   3.141
 4020SOL     OW12958   5.062   2.098   5.291
 4020SOL    HW112959   5.144   2.154   5.305
 4020SOL    HW212960   4.985   2.157   5.265
 4021SOL     OW12961   4.334   4.528   0.099
 4021SOL    HW112962   4.250   4.498   0.145
 4021SOL    HW212963   4.399   4.559   0.168
 4022SOL     OW12964   5.506   0.698   0.746
 4022SOL    HW112965   5.529   0.731   0.654
 4022SOL    HW212966   5.408   0.710   0.762
 4023SOL     OW12967   6.891   0.421   5.901
 4023SOL    HW112968   6.846   0.505   5.872
 4023SOL    HW212969   6.856   0.344   5.848
 4024SOL     OW12970   4.365   4.646   4.338
 4024SOL    HW112971   4.432   4.695   4.393
 4024SOL    HW212972   4.279   4.639   4.389
 4025SOL     OW12973   1.449   4.239   3.263
 4025SOL    HW112974   1.460   4.322   3.317
 4025SOL    HW212975   1.479   4.160   3.316
 4026SOL     OW12976   4.958   0.204   4.739
 4026SOL    HW112977   4.932   0.214   4.835
 4026SOL    HW212978   5.044   0.253   4.723
 4027SOL     OW12979   4.135   4.908   2.168
 4027SOL    HW112980   4.060   4.867   2.116
 4027SOL    HW212981   4.114   5.004   2.187
 4028SOL     OW12982   2.534   6.351   3.580
 4028SOL    HW112983   2.472   6.390   3.649
 4028SOL    HW212984   2.535   6.409   3.499
 4029SOL     OW12985   1.702   3.961   3.984
 4029SOL    HW112986   1.663   3.925   4.069
 4029SOL    HW212987   1.628   3.978   3.919
 4030SOL     OW12988   1.123   1.521   6.090
 4030SOL    HW112989   1.220   1.504   6.074
 4030SOL    HW212990   1.091   1.464   6.166
 4031SOL     OW12991   5.915   5.852   3.969
 4031SOL    HW112992   6.015   5.852   3.969
 4031SOL    HW212993   5.881   5.760   3.952
 4032SOL     OW12994   4.374   0.003   4.806
 4032SOL    HW112995   4.282   0.033   4.829
 4032SOL    HW212996   4.406   6.961   4.876
 4033SOL     OW12997   3.391   3.477   5.778
 4033SOL    HW112998   3.373   3.516   5.688
 4033SOL    HW212999   3.307   3.476   5.832
 4034SOL     OW13000   5.865   2.847   4.946
 4034SOL    HW113001   5.837   2.943   4.950
 4034SOL    HW213002   5.819   2.802   4.869
 4035SOL     OW13003   0.366   5.258   1.118
 4035SOL    HW113004   0.362   5.356   1.133
 4035SOL    HW213005   0.273   5.221   1.111
 4036SOL     OW13006   6.608   6.112   2.524
 4036SOL    HW113007   6.529   6.070   2.567
 4036SOL    HW213008   6.686   6.050   2.529
 4037SOL     OW13009   6.812   4.164   6.337
 4037SOL    HW113010   6.767   4.078   6.360
 4037SOL    HW213011   6.763   4.240   6.380
 4038SOL     OW13012   6.802   5.198   3.621
 4038SOL    HW113013   6.869   5.267   3.592
 4038SOL    HW213014   6.733   5.241   3.679
 4039SOL     OW13015   3.727   6.247   1.154
 4039SOL    HW113016   3.693   6.181   1.220
 4039SOL    HW213017   3.678   6.237   1.068
 4040SOL     OW13018   3.754   6.357   0.489
 4040SOL    HW113019   3.742   6.430   0.422
 4040SOL    HW213020   3.674   6.354   0.550
 4041SOL     OW13021   0.906   6.945   2.994
 4041SOL    HW113022   0.993   6.993   2.997
 4041SOL    HW213023   0.922   6.847   2.986
 4042SOL     OW13024   6.051   5.858   2.028
 4042SOL    HW113025   5.963   5.815   2.008
 4042SOL    HW213026   6.120   5.788   2.046
 4043SOL     OW13027   6.337   3.954   1.755
 4043SOL    HW113028   6.375   4.042   1.729
 4043SOL    HW213029   6.238   3.964   1.771
 4044SOL     OW13030   6.386   5.718   3.312
 4044SOL    HW113031   6.365   5.638   3.256
 4044SOL    HW213032   6.339   5.712   3.400
 4045SOL     OW13033   2.041   4.686   5.943
 4045SOL    HW113034   2.085   4.627   5.876
 4045SOL    HW213035   2.040   4.780   5.909
 4046SOL     OW13036   0.253   3.194   0.511
 4046SOL    HW113037   0.326   3.155   0.568
 4046SOL    HW213038   0.291   3.266   0.452
 4047SOL     OW13039   3.188   3.766   2.444
 4047SOL    HW113040   3.254   3.769   2.519
 4047SOL    HW213041   3.107   3.716   2.474
 4048SOL     OW13042   4.560   2.441   1.024
 4048SOL    HW113043   4.496   2.509   1.060
 4048SOL    HW213044   4.533   2.350   1.054
 4049SOL     OW13045   6.759   0.640   5.838
 4049SOL    HW113046   6.792   0.734   5.832
 4049SOL    HW213047   6.678   0.629   5.781
 4050SOL     OW13048   2.515   0.709   1.674
 4050SOL    HW113049   2.466   0.661   1.601
 4050SOL    HW213050   2.450   0.759   1.731
 4051SOL     OW13051   1.168   4.169   0.916
 4051SOL    HW113052   1.248   4.160   0.857
 4051SOL    HW213053   1.190   4.133   1.007
 4052SOL     OW13054   1.448   6.529   1.269
 4052SOL    HW113055   1.488   6.522   1.360
 4052SOL    HW213056   1.510   6.580   1.209
 4053SOL     OW13057   3.274   5.348   3.244
 4053SOL    HW113058   3.241   5.340   3.150
 4053SOL    HW213059   3.316   5.262   3.272
 4054SOL     OW13060   5.081   1.440   6.839
 4054SOL    HW113061   5.063   1.468   6.745
 4054SOL    HW213062   5.175   1.407   6.847
 4055SOL     OW13063   4.745   2.589   0.850
 4055SOL    HW113064   4.704   2.542   0.772
 4055SOL    HW213065   4.698   2.561   0.934
 4056SOL     OW13066   4.063   2.720   1.207
 4056SOL    HW113067   4.098   2.716   1.114
 4056SOL    HW213068   3.991   2.651   1.218
 4057SOL     OW13069   6.255   2.362   0.163
 4057SOL    HW113070   6.327   2.294   0.149
 4057SOL    HW213071   6.170   2.315   0.188
 4058SOL     OW13072   1.626   1.883   4.559
 4058SOL    HW113073   1.681   1.966   4.567
 4058SOL    HW213074   1.578   1.883   4.471
 4059SOL     OW13075   6.660   2.082   5.324
 4059SOL    HW113076   6.707   2.170   5.315
 4059SOL    HW213077   6.632   2.069   5.419
 4060SOL     OW13078   3.318   5.860   5.582
 4060SOL    HW113079   3.368   5.939   5.617
 4060SOL    HW213080   3.258   5.889   5.507
 4061SOL     OW13081   2.452   2.674   1.508
 4061SOL    HW113082   2.503   2.682   1.422
 4061SOL    HW213083   2.381   2.745   1.511
 4062SOL     OW13084   3.599   6.395   2.171
 4062SOL    HW113085   3.694   6.417   2.190
 4062SOL    HW213086   3.583   6.297   2.182
 4063SOL     OW13087   2.371   5.015   6.548
 4063SOL    HW113088   2.334   4.922   6.555
 4063SOL    HW213089   2.464   5.017   6.585
 4064SOL     OW13090   6.062   6.847   4.066
 4064SOL    HW113091   6.114   6.893   3.994
 4064SOL    HW213092   5.965   6.846   4.040
 4065SOL     OW13093   0.022   4.703   6.466
 4065SOL    HW113094   6.947   4.692   6.448
 4065SOL    HW213095   0.066   4.746   6.387
 4066SOL     OW13096   5.894   5.409   1.565
 4066SOL    HW113097   5.896   5.503   1.599
 4066SOL    HW213098   5.897   5.409   1.465
 4067SOL     OW13099   5.621   1.203   2.029
 4067SOL    HW113100   5.713   1.238   2.016
 4067SOL    HW213101   5.624   1.119   2.084
 4068SOL     OW13102   5.145   1.536   4.707
 4068SOL    HW113103   5.191   1.508   4.623
 4068SOL    HW213104   5.175   1.628   4.733
 4069SOL     OW13105   6.988   6.475   0.757
 4069SOL    HW113106   0.026   6.397   0.754
 4069SOL    HW213107   7.017   6.538   0.829
 4070SOL     OW13108   0.120   3.472   3.316
 4070SOL    HW113109   0.123   3.494   3.218
 4070SOL    HW213110   0.120   3.557   3.369
 4071SOL     OW13111   2.899   0.491   3.944
 4071SOL    HW113112   2.849   0.507   3.859
 4071SOL    HW213113   2.865   0.408   3.988
 4072SOL     OW13114   1.044   7.023   3.726
 4072SOL    HW113115   1.113   6.970   3.677
 4072SOL    HW213116   1.043   6.995   3.823
 4073SOL     OW13117   2.454   5.054   1.959
 4073SOL    HW113118   2.433   5.152   1.970
 4073SOL    HW213119   2.540   5.044   1.910
 4074SOL     OW13120   0.815   2.633   0.039
 4074SOL    HW113121   0.784   2.551   0.086
 4074SOL    HW213122   0.760   2.712   0.068
 4075SOL     OW13123   5.308   0.242   3.519
 4075SOL    HW113124   5.337   0.300   3.444
 4075SOL    HW213125   5.227   0.280   3.563
 4076SOL     OW13126   2.019   2.248   2.959
 4076SOL    HW113127   2.117   2.268   2.963
 4076SOL    HW213128   1.976   2.306   2.890
 4077SOL     OW13129   3.535   0.949   0.935
 4077SOL    HW113130   3.449   0.900   0.954
 4077SOL    HW213131   3.612   0.888   0.952
 4078SOL     OW13132   4.936   3.621   2.809
 4078SOL    HW113133   5.016   3.628   2.750
 4078SOL    HW213134   4.902   3.527   2.808
 4079SOL     OW13135   5.926   0.197   4.409
 4079SOL    HW113136   5.990   0.233   4.341
 4079SOL    HW213137   5.936   0.097   4.414
 4080SOL     OW13138   3.653   2.893   3.492
 4080SOL    HW113139   3.668   2.992   3.485
 4080SOL    HW213140   3.699   2.847   3.416
 4081SOL     OW13141   2.862   2.078   6.473
 4081SOL    HW113142   2.811   2.097   6.557
 4081SOL    HW213143   2.798   2.052   6.401
 4082SOL     OW13144   1.014   2.168   5.654
 4082SOL    HW113145   1.075   2.093   5.682
 4082SOL    HW213146   1.069   2.249   5.635
 4083SOL     OW13147   6.250   5.427   2.810
 4083SOL    HW113148   6.293   5.478   2.735
 4083SOL    HW213149   6.186   5.360   2.772
 4084SOL     OW13150   5.145   0.288   1.901
 4084SOL    HW113151   5.228   0.304   1.847
 4084SOL    HW213152   5.066   0.323   1.852
 4085SOL     OW13153   2.505   4.458   2.764
 4085SOL    HW113154   2.594   4.490   2.794
 4085SOL    HW213155   2.465   4.399   2.834
 4086SOL     OW13156   5.746   4.980   5.407
 4086SOL    HW113157   5.669   4.957   5.466
 4086SOL    HW213158   5.734   5.073   5.371
 4087SOL     OW13159   1.799   0.819   1.734
 4087SOL    HW113160   1.877   0.763   1.758
 4087SOL    HW213161   1.787   0.891   1.803
 4088SOL     OW13162   0.313   1.709   5.857
 4088SOL    HW113163   0.319   1.634   5.923
 4088SOL    HW213164   0.330   1.673   5.765
 4089SOL     OW13165   1.316   0.847   2.520
 4089SOL    HW113166   1.313   0.933   2.469
 4089SOL    HW213167   1.396   0.794   2.492
 4090SOL     OW13168   2.679   2.652   5.625
 4090SOL    HW113169   2.629   2.709   5.560
 4090SOL    HW213170   2.760   2.614   5.581
 4091SOL     OW13171   3.274   5.946   2.526
 4091SOL    HW113172   3.179   5.950   2.495
 4091SOL    HW213173   3.285   6.004   2.607
 4092SOL     OW13174   5.675   2.119   5.980
 4092SOL    HW113175   5.758   2.090   6.029
 4092SOL    HW213176   5.615   2.040   5.968
 4093SOL     OW13177   5.675   4.053   3.406
 4093SOL    HW113178   5.609   3.979   3.397
 4093SOL    HW213179   5.707   4.081   3.316
 4094SOL     OW13180   6.659   6.826   0.611
 4094SOL    HW113181   6.652   6.926   0.618
 4094SOL    HW213182   6.575   6.785   0.648
 4095SOL     OW13183   1.826   5.305   0.679
 4095SOL    HW113184   1.766   5.255   0.616
 4095SOL    HW213185   1.919   5.305   0.642
 4096SOL     OW13186   0.280   0.360   6.944
 4096SOL    HW113187   0.256   0.348   0.018
 4096SOL    HW213188   0.364   0.413   6.937
 4097SOL     OW13189   0.420   4.097   5.214
 4097SOL    HW113190   0.452   4.091   5.309
 4097SOL    HW213191   0.448   4.184   5.175
 4098SOL     OW13192   1.038   6.129   2.258
 4098SOL    HW113193   1.062   6.037   2.228
 4098SOL    HW213194   0.949   6.127   2.303
 4099SOL     OW13195   6.703   3.322   5.444
 4099SOL    HW113196   6.781   3.344   5.501
 4099SOL    HW213197   6.715   3.230   5.405
 4100SOL     OW13198   2.411   0.779   2.978
 4100SOL    HW113199   2.450   0.799   2.888
 4100SOL    HW213200   2.371   0.688   2.977
 4101SOL     OW13201   6.404   5.822   6.435
 4101SOL    HW113202   6.332   5.847   6.369
 4101SOL    HW213203   6.493   5.823   6.390
 4102SOL     OW13204   1.248   6.008   0.371
 4102SOL    HW113205   1.163   6.039   0.329
 4102SOL    HW213206   1.258   5.910   0.355
 4103SOL     OW13207   2.203   5.783   2.888
 4103SOL    HW113208   2.237   5.706   2.834
 4103SOL    HW213209   2.279   5.823   2.940
 4104SOL     OW13210   1.412   6.029   5.367
 4104SOL    HW113211   1.405   5.929   5.360
 4104SOL    HW213212   1.479   6.062   5.300
 4105SOL     OW13213   3.907   6.837   2.085
 4105SOL    HW113214   3.901   6.870   2.179
 4105SOL    HW213215   3.820   6.797   2.057
 4106SOL     OW13216   1.267   0.172   2.135
 4106SOL    HW113217   1.259   0.091   2.192
 4106SOL    HW213218   1.331   0.236   2.177
 4107SOL     OW13219   1.836   0.934   0.691
 4107SOL    HW113220   1.927   0.939   0.731
 4107SOL    HW213221   1.826   1.005   0.621
 4108SOL     OW13222   6.175   6.421   5.790
 4108SOL    HW113223   6.250   6.475   5.752
 4108SOL    HW213224   6.213   6.340   5.836
 4109SOL     OW13225   5.180   6.423   4.574
 4109SOL    HW113226   5.095   6.391   4.615
 4109SOL    HW213227   5.253   6.420   4.641
 4110SOL     OW13228   4.508   3.009   0.414
 4110SOL    HW113229   4.499   3.106   0.438
 4110SOL    HW213230   4.601   2.991   0.382
 4111SOL     OW13231   5.423   4.841   4.101
 4111SOL    HW113232   5.337   4.792   4.090
 4111SOL    HW213233   5.436   4.865   4.197
 4112SOL     OW13234   4.581   5.831   4.391
 4112SOL    HW113235   4.666   5.884   4.403
 4112SOL    HW213236   4.582   5.788   4.301
 4113SOL     OW13237   4.575   5.001   4.780
 4113SOL    HW113238   4.529   5.074   4.729
 4113SOL    HW213239   4.655   4.970   4.729
 4114SOL     OW13240   0.134   1.178   1.899
 4114SOL    HW113241   0.049   1.126   1.893
 4114SOL    HW213242   0.115   1.271   1.930
 4115SOL     OW13243   4.082   5.910   3.861
 4115SOL    HW113244   4.002   5.915   3.800
 4115SOL    HW213245   4.166   5.915   3.807
 4116SOL     OW13246   5.838   3.185   3.314
 4116SOL    HW113247   5.877   3.101   3.351
 4116SOL    HW213248   5.742   3.193   3.343
 4117SOL     OW13249   0.125   1.210   3.097
 4117SOL    HW113250   0.028   1.186   3.104
 4117SOL    HW213251   0.176   1.132   3.060
 4118SOL     OW13252   1.215   0.320   1.330
 4118SOL    HW113253   1.275   0.244   1.356
 4118SOL    HW213254   1.231   0.343   1.234
 4119SOL     OW13255   6.898   0.765   4.695
 4119SOL    HW113256   6.952   0.784   4.777
 4119SOL    HW213257   6.836   0.688   4.713
 4120SOL     OW13258   2.019   0.578   6.087
 4120SOL    HW113259   2.118   0.564   6.089
 4120SOL    HW213260   1.989   0.614   6.176
 4121SOL     OW13261   6.614   0.843   2.089
 4121SOL    HW113262   6.525   0.879   2.063
 4121SOL    HW213263   6.617   0.828   2.188
 4122SOL     OW13264   0.787   5.201   3.105
 4122SOL    HW113265   0.837   5.129   3.057
 4122SOL    HW213266   0.761   5.169   3.196
 4123SOL     OW13267   5.491   4.529   1.472
 4123SOL    HW113268   5.482   4.482   1.559
 4123SOL    HW213269   5.427   4.489   1.406
 4124SOL     OW13270   6.362   6.524   6.739
 4124SOL    HW113271   6.325   6.567   6.821
 4124SOL    HW213272   6.296   6.458   6.703
 4125SOL     OW13273   0.059   2.692   6.954
 4125SOL    HW113274   0.064   2.705   6.855
 4125SOL    HW213275   0.050   2.781   6.999
 4126SOL     OW13276   1.104   3.715   4.281
 4126SOL    HW113277   1.004   3.716   4.287
 4126SOL    HW213278   1.133   3.651   4.211
 4127SOL     OW13279   5.372   2.281   4.189
 4127SOL    HW113280   5.305   2.345   4.152
 4127SOL    HW213281   5.442   2.332   4.239
 4128SOL     OW13282   6.757   2.693   6.447
 4128SOL    HW113283   6.685   2.755   6.479
 4128SOL    HW213284   6.732   2.599   6.470
 4129SOL     OW13285   2.909   1.149   1.033
 4129SOL    HW113286   2.855   1.232   1.018
 4129SOL    HW213287   2.866   1.093   1.103
 4130SOL     OW13288   6.040   2.684   0.541
 4130SOL    HW113289   6.057   2.741   0.620
 4130SOL    HW213290   6.117   2.622   0.527
 4131SOL     OW13291   4.670   6.515   3.661
 4131SOL    HW113292   4.763   6.481   3.675
 4131SOL    HW213293   4.665   6.564   3.574
 4132SOL     OW13294   6.653   4.421   3.059
 4132SOL    HW113295   6.715   4.343   3.059
 4132SOL    HW213296   6.569   4.397   3.009
 4133SOL     OW13297   5.523   6.277   3.082
 4133SOL    HW113298   5.527   6.179   3.064
 4133SOL    HW213299   5.602   6.322   3.041
 4134SOL     OW13300   1.584   3.489   1.449
 4134SOL    HW113301   1.630   3.529   1.528
 4134SOL    HW213302   1.648   3.431   1.399
 4135SOL     OW13303   6.204   1.119   0.956
 4135SOL    HW113304   6.248   1.066   0.884
 4135SOL    HW213305   6.262   1.119   1.038
 4136SOL     OW13306   0.621   4.560   0.441
 4136SOL    HW113307   0.690   4.516   0.498
 4136SOL    HW213308   0.602   4.503   0.361
 4137SOL     OW13309   0.476   3.193   5.949
 4137SOL    HW113310   0.506   3.163   5.858
 4137SOL    HW213311   0.478   3.115   6.011
 4138SOL     OW13312   4.778   0.049   6.493
 4138SOL    HW113313   4.860   0.105   6.507
 4138SOL    HW213314   4.804   6.986   6.449
 4139SOL     OW13315   1.603   4.310   2.393
 4139SOL    HW113316   1.520   4.324   2.448
 4139SOL    HW213317   1.684   4.326   2.449
 4140SOL     OW13318   2.244   6.978   6.869
 4140SOL    HW113319   2.278   6.961   6.777
 4140SOL    HW213320   2.167   0.019   6.866
 4141SOL     OW13321   4.993   0.850   6.028
 4141SOL    HW113322   4.917   0.912   6.011
 4141SOL    HW213323   5.064   0.865   5.959
 4142SOL     OW13324   6.345   5.562   1.129
 4142SOL    HW113325   6.342   5.629   1.055
 4142SOL    HW213326   6.373   5.606   1.214
 4143SOL     OW13327   5.617   3.724   6.406
 4143SOL    HW113328   5.685   3.785   6.365
 4143SOL    HW213329   5.546   3.703   6.339
 4144SOL     OW13330   4.548   0.641   1.510
 4144SOL    HW113331   4.564   0.740   1.517
 4144SOL    HW213332   4.555   0.600   1.601
 4145SOL     OW13333   5.470   0.262   1.174
 4145SOL    HW113334   5.414   0.186   1.208
 4145SOL    HW213335   5.411   0.328   1.127
 4146SOL     OW13336   4.229   0.086   1.855
 4146SOL    HW113337   4.221   7.020   1.900
 4146SOL    HW213338   4.272   0.075   1.766
 4147SOL     OW13339   4.449   4.942   6.994
 4147SOL    HW113340   4.391   5.018   6.963
 4147SOL    HW213341   4.417   4.910   0.060
 4148SOL     OW13342   2.727   1.464   5.932
 4148SOL    HW113343   2.824   1.485   5.926
 4148SOL    HW213344   2.685   1.477   5.842
 4149SOL     OW13345   1.513   3.674   5.865
 4149SOL    HW113346   1.430   3.683   5.811
 4149SOL    HW213347   1.551   3.582   5.854
 4150SOL     OW13348   5.535   1.412   0.281
 4150SOL    HW113349   5.488   1.361   0.354
 4150SOL    HW213350   5.512   1.509   0.288
 4151SOL     OW13351   2.727   5.714   4.858
 4151SOL    HW113352   2.666   5.783   4.898
 4151SOL    HW213353   2.821   5.730   4.888
 4152SOL     OW13354   2.993   3.899   1.104
 4152SOL    HW113355   2.967   3.805   1.127
 4152SOL    HW213356   3.048   3.938   1.178
 4153SOL     OW13357   6.830   5.557   2.086
 4153SOL    HW113358   6.848   5.611   2.004
 4153SOL    HW213359   6.907   5.565   2.150
 4154SOL     OW13360   0.191   6.837   3.813
 4154SOL    HW113361   0.251   6.855   3.890
 4154SOL    HW213362   0.235   6.868   3.729
 4155SOL     OW13363   6.398   0.596   2.172
 4155SOL    HW113364   6.370   0.599   2.268
 4155SOL    HW213365   6.370   0.680   2.127
 4156SOL     OW13366   0.367   4.780   5.288
 4156SOL    HW113367   0.463   4.754   5.291
 4156SOL    HW213368   0.339   4.792   5.192
 4157SOL     OW13369   5.173   6.014   0.774
 4157SOL    HW113370   5.150   6.033   0.870
 4157SOL    HW213371   5.263   6.051   0.753
 4158SOL     OW13372   0.794   2.787   0.669
 4158SOL    HW113373   0.726   2.812   0.600
 4158SOL    HW213374   0.747   2.746   0.748
 4159SOL     OW13375   3.052   0.842   4.020
 4159SOL    HW113376   3.115   0.854   4.097
 4159SOL    HW213377   3.098   0.870   3.935
 4160SOL     OW13378   1.457   6.654   6.026
 4160SOL    HW113379   1.374   6.599   6.031
 4160SOL    HW213380   1.537   6.595   6.038
 4161SOL     OW13381   3.393   2.956   3.104
 4161SOL    HW113382   3.404   2.914   3.014
 4161SOL    HW213383   3.458   3.031   3.115
 4162SOL     OW13384   5.356   5.986   1.079
 4162SOL    HW113385   5.382   5.889   1.080
 4162SOL    HW213386   5.329   6.014   1.171
 4163SOL     OW13387   3.570   5.713   1.838
 4163SOL    HW113388   3.658   5.692   1.795
 4163SOL    HW213389   3.505   5.640   1.818
 4164SOL     OW13390   5.245   2.102   6.466
 4164SOL    HW113391   5.182   2.087   6.390
 4164SOL    HW213392   5.211   2.176   6.523
 4165SOL     OW13393   3.737   1.617   4.363
 4165SOL    HW113394   3.798   1.568   4.300
 4165SOL    HW213395   3.682   1.683   4.311
 4166SOL     OW13396   6.092   2.220   1.550
 4166SOL    HW113397   6.178   2.253   1.589
 4166SOL    HW213398   6.061   2.139   1.600
 4167SOL     OW13399   3.851   5.301   4.591
 4167SOL    HW113400   3.882   5.207   4.600
 4167SOL    HW213401   3.922   5.357   4.550
 4168SOL     OW13402   5.672   4.469   0.246
 4168SOL    HW113403   5.649   4.496   0.153
 4168SOL    HW213404   5.606   4.402   0.279
 4169SOL     OW13405   5.211   3.432   6.696
 4169SOL    HW113406   5.256   3.519   6.713
 4169SOL    HW213407   5.260   3.382   6.624
 4170SOL     OW13408   0.911   2.422   5.309
 4170SOL    HW113409   0.889   2.436   5.405
 4170SOL    HW213410   0.837   2.459   5.252
 4171SOL     OW13411   0.412   1.570   6.086
 4171SOL    HW113412   0.436   1.482   6.127
 4171SOL    HW213413   0.496   1.615   6.055
 4172SOL     OW13414   2.823   2.370   6.452
 4172SOL    HW113415   2.921   2.360   6.469
 4172SOL    HW213416   2.799   2.321   6.368
 4173SOL     OW13417   4.643   1.672   5.774
 4173SOL    HW113418   4.557   1.663   5.724
 4173SOL    HW213419   4.710   1.609   5.736
 4174SOL     OW13420   4.170   6.098   4.068
 4174SOL    HW113421   4.126   6.180   4.032
 4174SOL    HW213422   4.174   6.028   3.996
 4175SOL     OW13423   1.559   4.728   6.390
 4175SOL    HW113424   1.468   4.755   6.422
 4175SOL    HW213425   1.617   4.707   6.469
 4176SOL     OW13426   4.810   6.813   5.573
 4176SOL    HW113427   4.812   6.872   5.654
 4176SOL    HW213428   4.903   6.781   5.553
 4177SOL     OW13429   4.608   5.090   2.894
 4177SOL    HW113430   4.591   5.002   2.848
 4177SOL    HW213431   4.696   5.126   2.863
 4178SOL     OW13432   3.742   6.460   1.495
 4178SOL    HW113433   3.787   6.404   1.426
 4178SOL    HW213434   3.681   6.526   1.451
 4179SOL     OW13435   4.364   2.477   0.389
 4179SOL    HW113436   4.335   2.542   0.319
 4179SOL    HW213437   4.346   2.384   0.358
 4180SOL     OW13438   4.085   3.630   0.243
 4180SOL    HW113439   4.144   3.669   0.313
 4180SOL    HW213440   4.133   3.556   0.196
 4181SOL     OW13441   5.871   6.572   5.756
 4181SOL    HW113442   5.777   6.556   5.787
 4181SOL    HW213443   5.916   6.638   5.817
 4182SOL     OW13444   0.983   6.171   5.673
 4182SOL    HW113445   0.966   6.245   5.738
 4182SOL    HW213446   0.914   6.173   5.600
 4183SOL     OW13447   4.378   1.986   0.471
 4183SOL    HW113448   4.399   2.080   0.497
 4183SOL    HW213449   4.462   1.940   0.440
 4184SOL     OW13450   3.599   5.512   3.030
 4184SOL    HW113451   3.502   5.489   3.022
 4184SOL    HW213452   3.623   5.582   2.963
 4185SOL     OW13453   4.914   3.617   3.377
 4185SOL    HW113454   4.846   3.691   3.377
 4185SOL    HW213455   4.953   3.607   3.286
 4186SOL     OW13456   1.711   5.483   6.879
 4186SOL    HW113457   1.720   5.573   6.836
 4186SOL    HW213458   1.801   5.451   6.908
 4187SOL     OW13459   2.352   3.804   5.924
 4187SOL    HW113460   2.346   3.731   5.856
 4187SOL    HW213461   2.295   3.881   5.895
 4188SOL     OW13462   4.691   0.161   0.128
 4188SOL    HW113463   4.771   0.108   0.101
 4188SOL    HW213464   4.714   0.217   0.208
 4189SOL     OW13465   4.566   4.757   3.232
 4189SOL    HW113466   4.591   4.846   3.194
 4189SOL    HW213467   4.622   4.739   3.313
 4190SOL     OW13468   6.084   6.664   1.500
 4190SOL    HW113469   6.117   6.590   1.441
 4190SOL    HW213470   6.024   6.724   1.448
 4191SOL     OW13471   4.321   3.272   6.689
 4191SOL    HW113472   4.367   3.332   6.755
 4191SOL    HW213473   4.241   3.231   6.732
 4192SOL     OW13474   1.438   3.700   6.598
 4192SOL    HW113475   1.474   3.793   6.603
 4192SOL    HW213476   1.501   3.637   6.644
 4193SOL     OW13477   0.165   0.353   0.200
 4193SOL    HW113478   0.171   0.409   0.283
 4193SOL    HW213479   0.087   0.291   0.207
 4194SOL     OW13480   5.368   1.213   6.236
 4194SOL    HW113481   5.370   1.305   6.197
 4194SOL    HW213482   5.318   1.214   6.322
 4195SOL     OW13483   2.916   6.973   1.225
 4195SOL    HW113484   2.948   0.044   1.213
 4195SOL    HW213485   2.867   6.944   1.143
 4196SOL     OW13486   6.722   2.328   3.100
 4196SOL    HW113487   6.669   2.294   3.178
 4196SOL    HW213488   6.735   2.254   3.033
 4197SOL     OW13489   3.417   1.102   0.101
 4197SOL    HW113490   3.430   1.198   0.127
 4197SOL    HW213491   3.322   1.075   0.120
 4198SOL     OW13492   6.021   2.163   2.207
 4198SOL    HW113493   5.991   2.207   2.122
 4198SOL    HW213494   6.094   2.097   2.186
 4199SOL     OW13495   0.156   3.665   6.475
 4199SOL    HW113496   0.217   3.588   6.460
 4199SOL    HW213497   0.098   3.647   6.555
 4200SOL     OW13498   4.726   1.554   3.722
 4200SOL    HW113499   4.669   1.505   3.656
 4200SOL    HW213500   4.798   1.603   3.674
 4201SOL     OW13501   6.221   6.479   4.707
 4201SOL    HW113502   6.204   6.426   4.790
 4201SOL    HW213503   6.149   6.459   4.640
 4202SOL     OW13504   4.589   4.101   1.663
 4202SOL    HW113505   4.676   4.147   1.679
 4202SOL    HW213506   4.519   4.139   1.723
 4203SOL     OW13507   5.712   4.352   5.616
 4203SOL    HW113508   5.696   4.362   5.714
 4203SOL    HW213509   5.763   4.268   5.599
 4204SOL     OW13510   1.836   4.150   6.354
 4204SOL    HW113511   1.801   4.056   6.349
 4204SOL    HW213512   1.788   4.207   6.288
 4205SOL     OW13513   4.505   6.795   6.453
 4205SOL    HW113514   4.522   6.828   6.360
 4205SOL    HW213515   4.463   6.704   6.449
 4206SOL     OW13516   2.289   1.612   4.034
 4206SOL    HW113517   2.337   1.607   4.122
 4206SOL    HW213518   2.348   1.575   3.962
 4207SOL     OW13519   1.028   2.409   2.967
 4207SOL    HW113520   1.127   2.399   2.974
 4207SOL    HW213521   0.993   2.346   2.898
 4208SOL     OW13522   2.136   1.995   3.731
 4208SOL    HW113523   2.169   1.942   3.808
 4208SOL    HW213524   2.039   2.017   3.745
 4209SOL     OW13525   6.860   5.742   1.889
 4209SOL    HW113526   6.953   5.779   1.899
 4209SOL    HW213527   6.843   5.719   1.794
 4210SOL     OW13528   2.933   4.397   5.323
 4210SOL    HW113529   2.925   4.458   5.244
 4210SOL    HW213530   2.999   4.436   5.388
 4211SOL     OW13531   3.727   2.770   5.277
 4211SOL    HW113532   3.709   2.829   5.355
 4211SOL    HW213533   3.683   2.681   5.291
 4212SOL     OW13534   6.967   1.942   2.946
 4212SOL    HW113535   6.926   1.859   2.906
 4212SOL    HW213536   0.039   1.923   2.971
 4213SOL     OW13537   3.628   0.335   3.825
 4213SOL    HW113538   3.581   0.251   3.797
 4213SOL    HW213539   3.726   0.319   3.825
 4214SOL     OW13540   6.690   5.753   3.254
 4214SOL    HW113541   6.747   5.687   3.303
 4214SOL    HW213542   6.602   5.761   3.301
 4215SOL     OW13543   5.957   0.166   5.964
 4215SOL    HW113544   5.900   0.242   5.936
 4215SOL    HW213545   5.987   0.115   5.883
 4216SOL     OW13546   2.505   5.431   2.117
 4216SOL    HW113547   2.468   5.412   2.027
 4216SOL    HW213548   2.444   5.493   2.166
 4217SOL     OW13549   1.158   0.001   3.112
 4217SOL    HW113550   1.096   0.008   3.190
 4217SOL    HW213551   1.191   0.092   3.087
 4218SOL     OW13552   2.396   1.012   1.705
 4218SOL    HW113553   2.346   0.930   1.734
 4218SOL    HW213554   2.413   1.008   1.607
 4219SOL     OW13555   3.519   4.947   3.039
 4219SOL    HW113556   3.590   4.904   3.095
 4219SOL    HW213557   3.560   4.991   2.960
 4220SOL     OW13558   6.297   1.968   1.198
 4220SOL    HW113559   6.241   1.915   1.134
 4220SOL    HW213560   6.257   2.058   1.211
 4221SOL     OW13561   0.480   6.255   0.673
 4221SOL    HW113562   0.470   6.303   0.586
 4221SOL    HW213563   0.491   6.322   0.747
 4222SOL     OW13564   4.919   3.291   4.245
 4222SOL    HW113565   4.885   3.375   4.203
 4222SOL    HW213566   4.957   3.310   4.335
 4223SOL     OW13567   3.314   3.830   3.042
 4223SOL    HW113568   3.413   3.843   3.050
 4223SOL    HW213569   3.274   3.907   2.993
 4224SOL     OW13570   4.572   4.795   4.478
 4224SOL    HW113571   4.642   4.736   4.437
 4224SOL    HW213572   4.578   4.886   4.438
 4225SOL     OW13573   1.061   1.855   5.708
 4225SOL    HW113574   1.040   1.821   5.800
 4225SOL    HW213575   1.156   1.889   5.707
 4226SOL     OW13576   0.684   5.360   5.135
 4226SOL    HW113577   0.596   5.349   5.182
 4226SOL    HW213578   0.701   5.279   5.078
 4227SOL     OW13579   4.754   5.395   1.884
 4227SOL    HW113580   4.712   5.305   1.898
 4227SOL    HW213581   4.830   5.386   1.819
 4228SOL     OW13582   1.255   4.673   4.204
 4228SOL    HW113583   1.332   4.735   4.190
 4228SOL    HW213584   1.236   4.624   4.119
 4229SOL     OW13585   5.250   5.713   5.379
 4229SOL    HW113586   5.171   5.667   5.421
 4229SOL    HW213587   5.332   5.659   5.397
 4230SOL     OW13588   6.678   1.286   1.523
 4230SOL    HW113589   6.764   1.244   1.552
 4230SOL    HW213590   6.601   1.236   1.562
 4231SOL     OW13591   0.123   1.020   5.845
 4231SOL    HW113592   0.126   1.120   5.846
 4231SOL    HW213593   0.180   0.986   5.771
 4232SOL     OW13594   1.525   4.804   4.349
 4232SOL    HW113595   1.597   4.735   4.360
 4232SOL    HW213596   1.564   4.895   4.362
 4233SOL     OW13597   5.183   5.290   2.508
 4233SOL    HW113598   5.219   5.342   2.430
 4233SOL    HW213599   5.135   5.209   2.474
 4234SOL     OW13600   3.533   5.042   5.878
 4234SOL    HW113601   3.585   5.009   5.799
 4234SOL    HW213602   3.459   5.101   5.847
 4235SOL     OW13603   0.025   5.886   6.307
 4235SOL    HW113604   0.123   5.905   6.319
 4235SOL    HW213605   6.997   5.972   6.305
 4236SOL     OW13606   0.528   5.752   3.061
 4236SOL    HW113607   0.429   5.753   3.076
 4236SOL    HW213608   0.559   5.842   3.031
 4237SOL     OW13609   0.263   4.737   4.228
 4237SOL    HW113610   0.181   4.716   4.174
 4237SOL    HW213611   0.330   4.783   4.169
 4238SOL     OW13612   2.678   5.964   2.096
 4238SOL    HW113613   2.630   5.982   2.182
 4238SOL    HW213614   2.772   5.998   2.102
 4239SOL     OW13615   4.292   1.201   3.984
 4239SOL    HW113616   4.329   1.115   4.020
 4239SOL    HW213617   4.330   1.278   4.035
 4240SOL     OW13618   5.646   6.741   1.581
 4240SOL    HW113619   5.573   6.689   1.536
 4240SOL    HW213620   5.675   6.694   1.665
 4241SOL     OW13621   6.574   3.917   0.236
 4241SOL    HW113622   6.537   3.856   0.307
 4241SOL    HW213623   6.560   4.012   0.263
 4242SOL     OW13624   2.910   2.224   3.067
 4242SOL    HW113625   2.842   2.294   3.089
 4242SOL    HW213626   2.954   2.193   3.152
 4243SOL     OW13627   4.660   1.509   2.825
 4243SOL    HW113628   4.595   1.560   2.769
 4243SOL    HW213629   4.681   1.421   2.781
 4244SOL     OW13630   3.127   2.993   4.886
 4244SOL    HW113631   3.227   2.995   4.882
 4244SOL    HW213632   3.095   2.899   4.874
 4245SOL     OW13633   6.126   0.197   0.026
 4245SOL    HW113634   6.039   0.149   0.035
 4245SOL    HW213635   6.110   0.296   0.033
 4246SOL     OW13636   6.813   4.028   6.849
 4246SOL    HW113637   6.799   4.018   6.947
 4246SOL    HW213638   6.910   4.033   6.829
 4247SOL     OW13639   0.624   5.781   5.239
 4247SOL    HW113640   0.589   5.872   5.218
 4247SOL    HW213641   0.724   5.781   5.235
 4248SOL     OW13642   2.186   3.839   6.233
 4248SOL    HW113643   2.121   3.825   6.308
 4248SOL    HW213644   2.278   3.814   6.263
 4249SOL     OW13645   5.316   4.253   5.366
 4249SOL    HW113646   5.330   4.251   5.267
 4249SOL    HW213647   5.400   4.223   5.412
 4250SOL     OW13648   1.514   4.493   3.291
 4250SOL    HW113649   1.428   4.531   3.326
 4250SOL    HW213650   1.566   4.565   3.245
 4251SOL     OW13651   5.252   4.368   0.254
 4251SOL    HW113652   5.349   4.342   0.261
 4251SOL    HW213653   5.212   4.328   0.172
 4252SOL     OW13654   0.227   5.636   5.496
 4252SOL    HW113655   0.323   5.661   5.486
 4252SOL    HW213656   0.199   5.643   5.591
 4253SOL     OW13657   4.085   6.285   2.601
 4253SOL    HW113658   4.118   6.378   2.582
 4253SOL    HW213659   4.085   6.233   2.516
 4254SOL     OW13660   3.046   4.102   1.581
 4254SOL    HW113661   2.952   4.133   1.589
 4254SOL    HW213662   3.047   4.002   1.571
 4255SOL     OW13663   1.077   2.262   4.373
 4255SOL    HW113664   1.045   2.321   4.447
 4255SOL    HW213665   1.123   2.318   4.303
 4256SOL     OW13666   1.870   1.012   2.084
 4256SOL    HW113667   1.938   1.083   2.070
 4256SOL    HW213668   1.804   1.013   2.009
 4257SOL     OW13669   4.104   2.244   5.084
 4257SOL    HW113670   4.147   2.334   5.076
 4257SOL    HW213671   4.174   2.176   5.105
 4258SOL     OW13672   5.331   6.711   2.817
 4258SOL    HW113673   5.283   6.735   2.901
 4258SOL    HW213674   5.322   6.612   2.801
 4259SOL     OW13675   1.715   2.850   0.588
 4259SOL    HW113676   1.781   2.826   0.660
 4259SOL    HW213677   1.743   2.936   0.545
 4260SOL     OW13678   3.840   5.918   3.711
 4260SOL    HW113679   3.779   5.992   3.740
 4260SOL    HW213680   3.785   5.836   3.691
 4261SOL     OW13681   1.200   1.492   2.861
 4261SOL    HW113682   1.243   1.549   2.932
 4261SOL    HW213683   1.155   1.551   2.794
 4262SOL     OW13684   6.750   6.663   6.126
 4262SOL    HW113685   6.667   6.625   6.086
 4262SOL    HW213686   6.818   6.591   6.137
 4263SOL     OW13687   4.098   5.262   6.591
 4263SOL    HW113688   4.031   5.299   6.655
 4263SOL    HW213689   4.187   5.306   6.607
 4264SOL     OW13690   0.032   0.470   1.163
 4264SOL    HW113691   0.062   0.421   1.244
 4264SOL    HW213692   6.965   0.437   1.136
 4265SOL     OW13693   1.090   2.738   0.182
 4265SOL    HW113694   1.049   2.651   0.153
 4265SOL    HW213695   1.173   2.755   0.128
 4266SOL     OW13696   3.021   4.471   1.412
 4266SOL    HW113697   3.016   4.409   1.490
 4266SOL    HW213698   3.036   4.564   1.445
 4267SOL     OW13699   1.835   4.035   5.971
 4267SOL    HW113700   1.752   3.983   5.949
 4267SOL    HW213701   1.820   4.132   5.949
 4268SOL     OW13702   1.711   0.644   0.391
 4268SOL    HW113703   1.643   0.616   0.322
 4268SOL    HW213704   1.792   0.586   0.383
 4269SOL     OW13705   3.087   3.694   0.917
 4269SOL    HW113706   3.020   3.640   0.968
 4269SOL    HW213707   3.045   3.779   0.887
 4270SOL     OW13708   3.891   2.814   6.250
 4270SOL    HW113709   3.906   2.733   6.306
 4270SOL    HW213710   3.793   2.830   6.240
 4271SOL     OW13711   1.277   0.065   0.422
 4271SOL    HW113712   1.213   0.008   0.370
 4271SOL    HW213713   1.256   0.058   0.520
 4272SOL     OW13714   0.092   4.213   3.651
 4272SOL    HW113715   0.180   4.254   3.630
 4272SOL    HW213716   0.039   4.274   3.711
 4273SOL     OW13717   5.563   6.180   4.466
 4273SOL    HW113718   5.551   6.146   4.559
 4273SOL    HW213719   5.490   6.145   4.407
 4274SOL     OW13720   1.996   0.252   3.918
 4274SOL    HW113721   1.914   0.308   3.910
 4274SOL    HW213722   2.071   0.307   3.955
 4275SOL     OW13723   1.283   0.136   6.453
 4275SOL    HW113724   1.326   0.113   6.365
 4275SOL    HW213725   1.354   0.164   6.518
 4276SOL     OW13726   1.872   4.570   2.353
 4276SOL    HW113727   1.838   4.553   2.446
 4276SOL    HW213728   1.954   4.516   2.337
 4277SOL     OW13729   1.015   5.530   4.666
 4277SOL    HW113730   1.073   5.451   4.685
 4277SOL    HW213731   0.944   5.504   4.601
 4278SOL     OW13732   0.944   6.709   5.792
 4278SOL    HW113733   0.882   6.686   5.718
 4278SOL    HW213734   0.943   6.808   5.808
 4279SOL     OW13735   3.119   6.026   4.175
 4279SOL    HW113736   3.148   6.078   4.094
 4279SOL    HW213737   3.077   5.939   4.146
 4280SOL     OW13738   4.844   3.109   3.763
 4280SOL    HW113739   4.935   3.113   3.721
 4280SOL    HW213740   4.817   3.200   3.793
 4281SOL     OW13741   2.606   3.999   5.343
 4281SOL    HW113742   2.576   4.013   5.438
 4281SOL    HW213743   2.526   3.978   5.286
 4282SOL     OW13744   0.882   3.117   0.932
 4282SOL    HW113745   0.946   3.165   0.992
 4282SOL    HW213746   0.928   3.041   0.887
 4283SOL     OW13747   2.247   0.501   4.288
 4283SOL    HW113748   2.340   0.526   4.260
 4283SOL    HW213749   2.193   0.584   4.301
 4284SOL     OW13750   6.280   1.550   3.233
 4284SOL    HW113751   6.198   1.534   3.177
 4284SOL    HW213752   6.304   1.647   3.229
 4285SOL     OW13753   1.140   6.452   4.662
 4285SOL    HW113754   1.157   6.551   4.665
 4285SOL    HW213755   1.085   6.430   4.582
 4286SOL     OW13756   5.817   5.745   0.025
 4286SOL    HW113757   5.816   5.723   6.951
 4286SOL    HW213758   5.734   5.710   0.069
 4287SOL     OW13759   3.914   6.382   5.392
 4287SOL    HW113760   3.943   6.445   5.320
 4287SOL    HW213761   3.991   6.325   5.420
 4288SOL     OW13762   1.294   6.457   2.881
 4288SOL    HW113763   1.303   6.363   2.851
 4288SOL    HW213764   1.324   6.519   2.808
 4289SOL     OW13765   6.150   3.813   0.174
 4289SOL    HW113766   6.237   3.818   0.124
 4289SOL    HW213767   6.075   3.838   0.112
 4290SOL     OW13768   2.267   1.213   2.940
 4290SOL    HW113769   2.208   1.134   2.952
 4290SOL    HW213770   2.233   1.288   2.997
 4291SOL     OW13771   6.716   4.712   1.285
 4291SOL    HW113772   6.742   4.616   1.281
 4291SOL    HW213773   6.660   4.735   1.205
 4292SOL     OW13774   5.704   5.693   6.059
 4292SOL    HW113775   5.752   5.642   6.131
 4292SOL    HW213776   5.607   5.696   6.080
 4293SOL     OW13777   0.262   2.566   6.224
 4293SOL    HW113778   0.359   2.574   6.200
 4293SOL    HW213779   0.253   2.515   6.310
 4294SOL     OW13780   5.016   2.300   5.850
 4294SOL    HW113781   5.023   2.276   5.753
 4294SOL    HW213782   4.986   2.395   5.858
 4295SOL     OW13783   3.727   6.293   5.006
 4295SOL    HW113784   3.749   6.309   5.103
 4295SOL    HW213785   3.762   6.204   4.979
 4296SOL     OW13786   2.596   0.973   1.911
 4296SOL    HW113787   2.524   0.990   1.844
 4296SOL    HW213788   2.651   1.056   1.922
 4297SOL     OW13789   5.775   0.997   6.968
 4297SOL    HW113790   5.687   1.045   6.968
 4297SOL    HW213791   5.794   0.963   6.876
 4298SOL     OW13792   2.727   5.056   1.348
 4298SOL    HW113793   2.662   5.131   1.338
 4298SOL    HW213794   2.790   5.076   1.423
 4299SOL     OW13795   1.083   4.503   5.951
 4299SOL    HW113796   1.006   4.559   5.921
 4299SOL    HW213797   1.146   4.558   6.005
 4300SOL     OW13798   5.601   0.051   5.954
 4300SOL    HW113799   5.621   0.008   6.042
 4300SOL    HW213800   5.673   0.027   5.888
 4301SOL     OW13801   2.654   1.324   0.758
 4301SOL    HW113802   2.611   1.304   0.670
 4301SOL    HW213803   2.753   1.336   0.745
 4302SOL     OW13804   1.096   6.537   6.853
 4302SOL    HW113805   1.144   6.625   6.858
 4302SOL    HW213806   1.059   6.514   6.943
 4303SOL     OW13807   0.136   3.928   1.642
 4303SOL    HW113808   0.071   3.926   1.717
 4303SOL    HW213809   0.190   4.013   1.647
 4304SOL     OW13810   3.168   2.997   5.170
 4304SOL    HW113811   3.245   2.934   5.167
 4304SOL    HW213812   3.146   3.029   5.078
 4305SOL     OW13813   5.778   1.023   5.271
 4305SOL    HW113814   5.860   1.041   5.326
 4305SOL    HW213815   5.709   0.979   5.329
 4306SOL     OW13816   6.242   5.955   6.621
 4306SOL    HW113817   6.322   5.930   6.568
 4306SOL    HW213818   6.265   6.028   6.684
 4307SOL     OW13819   5.118   3.503   0.265
 4307SOL    HW113820   5.159   3.415   0.243
 4307SOL    HW213821   5.035   3.517   0.210
 4308SOL     OW13822   4.188   6.767   5.161
 4308SOL    HW113823   4.168   6.863   5.178
 4308SOL    HW213824   4.242   6.730   5.236
 4309SOL     OW13825   1.265   1.199   1.055
 4309SOL    HW113826   1.244   1.281   1.108
 4309SOL    HW213827   1.352   1.160   1.085
 4310SOL     OW13828   1.609   0.674   2.643
 4310SOL    HW113829   1.685   0.617   2.612
 4310SOL    HW213830   1.590   0.745   2.575
 4311SOL     OW13831   1.616   5.790   4.171
 4311SOL    HW113832   1.527   5.755   4.198
 4311SOL    HW213833   1.678   5.714   4.152
 4312SOL     OW13834   1.356   5.538   1.482
 4312SOL    HW113835   1.291   5.492   1.421
 4312SOL    HW213836   1.449   5.505   1.463
 4313SOL     OW13837   4.944   0.302   1.710
 4313SOL    HW113838   4.862   0.306   1.766
 4313SOL    HW213839   4.939   0.373   1.639
 4314SOL     OW13840   5.616   3.669   2.964
 4314SOL    HW113841   5.603   3.573   2.988
 4314SOL    HW213842   5.629   3.678   2.866
 4315SOL     OW13843   2.286   1.429   1.889
 4315SOL    HW113844   2.227   1.503   1.853
 4315SOL    HW213845   2.257   1.406   1.982
 4316SOL     OW13846   0.352   0.755   2.146
 4316SOL    HW113847   0.451   0.746   2.141
 4316SOL    HW213848   0.328   0.850   2.165
 4317SOL     OW13849   4.017   0.511   3.670
 4317SOL    HW113850   3.989   0.499   3.765
 4317SOL    HW213851   4.065   0.429   3.638
 4318SOL     OW13852   0.015   3.062   4.312
 4318SOL    HW113853   0.053   3.003   4.241
 4318SOL    HW213854   0.010   3.012   4.398
 4319SOL     OW13855   2.519   3.331   5.684
 4319SOL    HW113856   2.577   3.273   5.741
 4319SOL    HW213857   2.568   3.415   5.661
 4320SOL     OW13858   0.728   5.908   3.204
 4320SOL    HW113859   0.819   5.872   3.226
 4320SOL    HW213860   0.737   5.996   3.157
 4321SOL     OW13861   0.129   0.935   4.553
 4321SOL    HW113862   0.065   0.865   4.519
 4321SOL    HW213863   0.126   0.935   4.653
 4322SOL     OW13864   5.751   1.040   0.649
 4322SOL    HW113865   5.726   0.962   0.706
 4322SOL    HW213866   5.850   1.047   0.644
 4323SOL     OW13867   6.926   2.178   3.542
 4323SOL    HW113868   6.827   2.188   3.552
 4323SOL    HW213869   6.951   2.198   3.447
 4324SOL     OW13870   6.148   3.148   6.091
 4324SOL    HW113871   6.225   3.117   6.035
 4324SOL    HW213872   6.148   3.248   6.095
 4325SOL     OW13873   1.886   1.530   5.601
 4325SOL    HW113874   1.945   1.456   5.632
 4325SOL    HW213875   1.899   1.544   5.502
 4326SOL     OW13876   6.419   2.273   5.527
 4326SOL    HW113877   6.418   2.245   5.431
 4326SOL    HW213878   6.470   2.207   5.581
 4327SOL     OW13879   5.160   0.528   3.164
 4327SOL    HW113880   5.156   0.587   3.245
 4327SOL    HW213881   5.255   0.503   3.146
 4328SOL     OW13882   5.268   5.191   0.660
 4328SOL    HW113883   5.310   5.175   0.749
 4328SOL    HW213884   5.203   5.117   0.640
 4329SOL     OW13885   4.721   1.680   6.425
 4329SOL    HW113886   4.662   1.649   6.499
 4329SOL    HW213887   4.676   1.754   6.374
 4330SOL     OW13888   0.631   0.323   6.600
 4330SOL    HW113889   0.674   0.376   6.672
 4330SOL    HW213890   0.585   0.384   6.536
 4331SOL     OW13891   5.278   2.574   0.421
 4331SOL    HW113892   5.361   2.607   0.375
 4331SOL    HW213893   5.219   2.530   0.354
 4332SOL     OW13894   5.316   3.736   1.651
 4332SOL    HW113895   5.217   3.735   1.668
 4332SOL    HW213896   5.359   3.662   1.703
 4333SOL     OW13897   5.603   1.622   5.393
 4333SOL    HW113898   5.578   1.526   5.387
 4333SOL    HW213899   5.664   1.636   5.471
 4334SOL     OW13900   4.695   0.285   1.848
 4334SOL    HW113901   4.629   0.295   1.923
 4334SOL    HW213902   4.743   0.198   1.858
 4335SOL     OW13903   3.630   4.496   5.672
 4335SOL    HW113904   3.629   4.595   5.686
 4335SOL    HW213905   3.642   4.450   5.760
 4336SOL     OW13906   1.595   6.324   4.766
 4336SOL    HW113907   1.546   6.280   4.841
 4336SOL    HW213908   1.667   6.262   4.733
 4337SOL     OW13909   0.943   4.851   0.289
 4337SOL    HW113910   0.995   4.885   0.210
 4337SOL    HW213911   0.984   4.765   0.321
 4338SOL     OW13912   6.454   6.016   3.666
 4338SOL    HW113913   6.540   6.011   3.616
 4338SOL    HW213914   6.395   6.084   3.622
 4339SOL     OW13915   6.285   0.995   6.320
 4339SOL    HW113916   6.321   0.911   6.279
 4339SOL    HW213917   6.289   1.069   6.253
 4340SOL     OW13918   4.889   3.267   2.017
 4340SOL    HW113919   4.988   3.251   2.010
 4340SOL    HW213920   4.841   3.180   2.019
 4341SOL     OW13921   0.884   3.592   6.976
 4341SOL    HW113922   0.949   3.601   6.901
 4341SOL    HW213923   0.855   3.497   6.984
 4342SOL     OW13924   6.741   2.088   2.979
 4342SOL    HW113925   6.697   2.052   2.897
 4342SOL    HW213926   6.829   2.042   2.993
 4343SOL     OW13927   2.190   1.863   1.286
 4343SOL    HW113928   2.255   1.808   1.338
 4343SOL    HW213929   2.213   1.960   1.294
 4344SOL     OW13930   2.090   3.979   2.783
 4344SOL    HW113931   2.139   4.064   2.765
 4344SOL    HW213932   2.088   3.923   2.700
 4345SOL     OW13933   2.469   1.354   6.059
 4345SOL    HW113934   2.540   1.425   6.063
 4345SOL    HW213935   2.489   1.283   6.126
 4346SOL     OW13936   0.283   3.051   1.157
 4346SOL    HW113937   0.280   3.011   1.249
 4346SOL    HW213938   0.190   3.071   1.126
 4347SOL     OW13939   5.940   6.041   2.696
 4347SOL    HW113940   6.039   6.045   2.702
 4347SOL    HW213941   5.913   5.981   2.620
 4348SOL     OW13942   1.265   4.111   6.897
 4348SOL    HW113943   1.197   4.163   6.844
 4348SOL    HW213944   1.221   4.074   6.979
 4349SOL     OW13945   0.060   0.438   2.545
 4349SOL    HW113946   0.073   0.339   2.543
 4349SOL    HW213947   0.130   0.481   2.488
 4350SOL     OW13948   4.780   1.056   3.525
 4350SOL    HW113949   4.700   1.115   3.509
 4350SOL    HW213950   4.762   0.997   3.604
 4351SOL     OW13951   2.741   6.194   0.653
 4351SOL    HW113952   2.709   6.101   0.668
 4351SOL    HW213953   2.668   6.259   0.675
 4352SOL     OW13954   6.338   1.479   2.624
 4352SOL    HW113955   6.384   1.460   2.711
 4352SOL    HW213956   6.249   1.435   2.623
 4353SOL     OW13957   2.897   5.684   1.514
 4353SOL    HW113958   2.898   5.773   1.558
 4353SOL    HW213959   2.938   5.616   1.575
 4354SOL     OW13960   1.860   0.588   1.209
 4354SOL    HW113961   1.788   0.617   1.146
 4354SOL    HW213962   1.827   0.594   1.303
 4355SOL     OW13963   4.790   1.126   0.922
 4355SOL    HW113964   4.694   1.136   0.896
 4355SOL    HW213965   4.795   1.084   1.013
 4356SOL     OW13966   3.683   4.571   0.101
 4356SOL    HW113967   3.658   4.663   0.072
 4356SOL    HW213968   3.644   4.504   0.038
 4357SOL     OW13969   6.739   0.683   6.522
 4357SOL    HW113970   6.750   0.611   6.454
 4357SOL    HW213971   6.815   0.748   6.515
 4358SOL     OW13972   6.340   1.374   1.459
 4358SOL    HW113973   6.285   1.297   1.490
 4358SOL    HW213974   6.294   1.460   1.481
 4359SOL     OW13975   6.605   2.738   4.100
 4359SOL    HW113976   6.690   2.788   4.079
 4359SOL    HW213977   6.605   2.713   4.197
 4360SOL     OW13978   2.267   3.156   1.458
 4360SOL    HW113979   2.331   3.141   1.533
 4360SOL    HW213980   2.235   3.250   1.459
 4361SOL     OW13981   5.442   1.528   2.340
 4361SOL    HW113982   5.406   1.444   2.380
 4361SOL    HW213983   5.479   1.586   2.413
 4362SOL     OW13984   5.789   4.252   3.541
 4362SOL    HW113985   5.816   4.325   3.478
 4362SOL    HW213986   5.744   4.179   3.490
 4363SOL     OW13987   5.266   1.007   6.110
 4363SOL    HW113988   5.320   1.082   6.149
 4363SOL    HW213989   5.183   0.994   6.165
 4364SOL     OW13990   3.336   3.598   5.168
 4364SOL    HW113991   3.343   3.580   5.070
 4364SOL    HW213992   3.249   3.563   5.202
 4365SOL     OW13993   3.387   1.451   0.943
 4365SOL    HW113994   3.426   1.361   0.965
 4365SOL    HW213995   3.304   1.438   0.889
 4366SOL     OW13996   5.236   5.167   1.292
 4366SOL    HW113997   5.334   5.177   1.310
 4366SOL    HW213998   5.221   5.147   1.196
 4367SOL     OW13999   0.240   6.609   0.726
 4367SOL    HW114000   0.191   6.639   0.807
 4367SOL    HW214001   0.245   6.509   0.724
 4368SOL     OW14002   4.870   3.912   1.803
 4368SOL    HW114003   4.807   3.988   1.818
 4368SOL    HW214004   4.868   3.852   1.884
 4369SOL     OW14005   3.211   5.891   1.711
 4369SOL    HW114006   3.307   5.914   1.721
 4369SOL    HW214007   3.202   5.796   1.681
 4370SOL     OW14008   5.611   4.531   2.692
 4370SOL    HW114009   5.585   4.453   2.749
 4370SOL    HW214010   5.692   4.575   2.731
 4371SOL     OW14011   0.389   2.325   1.954
 4371SOL    HW114012   0.409   2.268   1.874
 4371SOL    HW214013   0.310   2.383   1.935
 4372SOL     OW14014   4.502   0.430   3.573
 4372SOL    HW114015   4.481   0.379   3.489
 4372SOL    HW214016   4.442   0.399   3.647
 4373SOL     OW14017   6.776   1.707   6.152
 4373SOL    HW114018   6.747   1.792   6.109
 4373SOL    HW214019   6.729   1.697   6.240
 4374SOL     OW14020   3.441   1.738   1.491
 4374SOL    HW114021   3.392   1.697   1.567
 4374SOL    HW214022   3.438   1.838   1.500
 4375SOL     OW14023   3.614   6.672   3.818
 4375SOL    HW114024   3.713   6.664   3.825
 4375SOL    HW214025   3.575   6.685   3.910
 4376SOL     OW14026   6.549   2.090   4.242
 4376SOL    HW114027   6.577   2.185   4.225
 4376SOL    HW214028   6.627   2.030   4.227
 4377SOL     OW14029   6.604   5.207   6.082
 4377SOL    HW114030   6.525   5.147   6.084
 4377SOL    HW214031   6.579   5.297   6.118
 4378SOL     OW14032   2.448   1.495   3.856
 4378SOL    HW114033   2.494   1.546   3.783
 4378SOL    HW214034   2.512   1.429   3.896
 4379SOL     OW14035   3.032   1.903   5.470
 4379SOL    HW114036   2.972   1.971   5.427
 4379SOL    HW214037   2.980   1.852   5.540
 4380SOL     OW14038   0.544   1.940   2.200
 4380SOL    HW114039   0.581   1.999   2.128
 4380SOL    HW214040   0.499   1.861   2.158
 4381SOL     OW14041   1.921   6.135   6.548
 4381SOL    HW114042   1.839   6.148   6.492
 4381SOL    HW214043   1.986   6.209   6.530
 4382SOL     OW14044   0.417   4.528   4.562
 4382SOL    HW114045   0.511   4.521   4.528
 4382SOL    HW214046   0.400   4.453   4.626
 4383SOL     OW14047   6.299   3.594   6.874
 4383SOL    HW114048   6.341   3.577   6.785
 4383SOL    HW214049   6.364   3.570   6.946
 4384SOL     OW14050   5.533   6.992   3.912
 4384SOL    HW114051   5.525   6.919   3.845
 4384SOL    HW214052   5.560   0.054   3.866
 4385SOL     OW14053   4.612   1.957   5.750
 4385SOL    HW114054   4.688   2.007   5.710
 4385SOL    HW214055   4.642   1.864   5.775
 4386SOL     OW14056   2.102   3.639   5.098
 4386SOL    HW114057   2.097   3.730   5.139
 4386SOL    HW214058   2.016   3.591   5.112
 4387SOL     OW14059   5.840   2.165   0.745
 4387SOL    HW114060   5.777   2.119   0.683
 4387SOL    HW214061   5.896   2.097   0.793
 4388SOL     OW14062   4.892   3.867   6.852
 4388SOL    HW114063   4.958   3.871   6.927
 4388SOL    HW214064   4.804   3.901   6.883
 4389SOL     OW14065   1.010   2.883   0.568
 4389SOL    HW114066   1.063   2.802   0.543
 4389SOL    HW214067   0.918   2.856   0.596
 4390SOL     OW14068   6.986   1.447   0.513
 4390SOL    HW114069   7.002   1.493   0.600
 4390SOL    HW214070   0.020   1.364   0.508
 4391SOL     OW14071   1.142   5.871   0.971
 4391SOL    HW114072   1.094   5.858   1.058
 4391SOL    HW214073   1.218   5.806   0.965
 4392SOL     OW14074   1.005   3.173   5.509
 4392SOL    HW114075   1.103   3.172   5.525
 4392SOL    HW214076   0.968   3.262   5.532
 4393SOL     OW14077   4.982   0.918   1.725
 4393SOL    HW114078   5.021   0.983   1.791
 4393SOL    HW214079   4.959   0.833   1.773
 4394SOL     OW14080   0.990   0.332   2.825
 4394SOL    HW114081   0.992   0.350   2.726
 4394SOL    HW214082   0.897   0.308   2.852
 4395SOL     OW14083   2.017   4.498   1.705
 4395SOL    HW114084   1.977   4.462   1.789
 4395SOL    HW214085   1.945   4.539   1.649
 4396SOL     OW14086   3.068   1.219   2.827
 4396SOL    HW114087   3.115   1.149   2.774
 4396SOL    HW214088   3.135   1.286   2.861
 4397SOL     OW14089   3.332   1.586   4.769
 4397SOL    HW114090   3.391   1.630   4.837
 4397SOL    HW214091   3.245   1.561   4.811
 4398SOL     OW14092   2.020   3.109   5.386
 4398SOL    HW114093   1.953   3.113   5.312
 4398SOL    HW214094   2.104   3.066   5.353
 4399SOL     OW14095   2.522   6.490   1.968
 4399SOL    HW114096   2.518   6.458   1.873
 4399SOL    HW214097   2.536   6.413   2.029
 4400SOL     OW14098   1.762   5.634   4.829
 4400SOL    HW114099   1.838   5.698   4.837
 4400SOL    HW214100   1.687   5.664   4.890
 4401SOL     OW14101   3.467   6.721   6.672
 4401SOL    HW114102   3.377   6.745   6.708
 4401SOL    HW214103   3.536   6.784   6.709
 4402SOL     OW14104   2.026   0.356   3.114
 4402SOL    HW114105   2.016   0.286   3.043
 4402SOL    HW214106   1.965   0.433   3.094
 4403SOL     OW14107   0.340   5.051   1.904
 4403SOL    HW114108   0.368   4.976   1.964
 4403SOL    HW214109   0.388   5.134   1.930
 4404SOL     OW14110   6.956   6.815   5.956
 4404SOL    HW114111   6.897   6.796   6.034
 4404SOL    HW214112   7.013   6.735   5.936
 4405SOL     OW14113   1.825   5.534   2.142
 4405SOL    HW114114   1.914   5.505   2.177
 4405SOL    HW214115   1.756   5.466   2.167
 4406SOL     OW14116   5.619   4.150   2.279
 4406SOL    HW114117   5.639   4.078   2.345
 4406SOL    HW214118   5.693   4.218   2.280
 4407SOL     OW14119   6.126   6.440   1.327
 4407SOL    HW114120   6.210   6.409   1.282
 4407SOL    HW214121   6.074   6.360   1.357
 4408SOL     OW14122   4.011   0.954   0.213
 4408SOL    HW114123   3.942   0.926   0.147
 4408SOL    HW214124   4.052   0.873   0.256
 4409SOL     OW14125   3.102   0.681   3.253
 4409SOL    HW114126   3.112   0.588   3.218
 4409SOL    HW214127   3.133   0.686   3.348
 4410SOL     OW14128   0.280   7.019   0.793
 4410SOL    HW114129   0.275   0.094   0.773
 4410SOL    HW214130   0.189   6.986   0.819
 4411SOL     OW14131   4.129   4.736   5.206
 4411SOL    HW114132   4.186   4.665   5.166
 4411SOL    HW214133   4.064   4.695   5.270
 4412SOL     OW14134   4.214   6.314   1.801
 4412SOL    HW114135   4.265   6.331   1.885
 4412SOL    HW214136   4.269   6.257   1.739
 4413SOL     OW14137   4.789   5.630   4.072
 4413SOL    HW114138   4.756   5.624   3.978
 4413SOL    HW214139   4.720   5.594   4.134
 4414SOL     OW14140   5.412   4.119   1.921
 4414SOL    HW114141   5.325   4.086   1.884
 4414SOL    HW214142   5.458   4.174   1.851
 4415SOL     OW14143   1.659   3.170   1.883
 4415SOL    HW114144   1.671   3.083   1.835
 4415SOL    HW214145   1.578   3.216   1.847
 4416SOL     OW14146   5.123   2.680   3.343
 4416SOL    HW114147   5.195   2.657   3.279
 4416SOL    HW214148   5.071   2.597   3.367
 4417SOL     OW14149   6.960   3.996   1.831
 4417SOL    HW114150   6.949   4.066   1.760
 4417SOL    HW214151   6.942   4.037   1.921
 4418SOL     OW14152   6.590   6.983   5.546
 4418SOL    HW114153   6.607   7.014   5.452
 4418SOL    HW214154   6.630   6.892   5.557
 4419SOL     OW14155   6.758   5.495   6.773
 4419SOL    HW114156   6.697   5.505   6.852
 4419SOL    HW214157   6.705   5.505   6.688
 4420SOL     OW14158   3.829   1.795   1.129
 4420SOL    HW114159   3.917   1.792   1.176
 4420SOL    HW214160   3.765   1.852   1.181
 4421SOL     OW14161   1.853   3.067   0.187
 4421SOL    HW114162   1.950   3.045   0.201
 4421SOL    HW214163   1.803   2.983   0.166
 4422SOL     OW14164   6.560   3.558   6.002
 4422SOL    HW114165   6.569   3.502   6.085
 4422SOL    HW214166   6.599   3.508   5.924
 4423SOL     OW14167   6.506   4.418   5.171
 4423SOL    HW114168   6.471   4.351   5.105
 4423SOL    HW214169   6.567   4.372   5.236
 4424SOL     OW14170   4.782   5.946   2.907
 4424SOL    HW114171   4.812   5.869   2.963
 4424SOL    HW214172   4.784   6.030   2.962
 4425SOL     OW14173   0.938   5.386   1.128
 4425SOL    HW114174   0.899   5.365   1.218
 4425SOL    HW214175   0.906   5.476   1.098
 4426SOL     OW14176   0.293   0.900   4.315
 4426SOL    HW114177   0.275   0.898   4.413
 4426SOL    HW214178   0.229   0.840   4.268
 4427SOL     OW14179   2.082   5.469   2.171
 4427SOL    HW114180   2.080   5.543   2.103
 4427SOL    HW214181   2.153   5.487   2.238
 4428SOL     OW14182   6.310   5.258   3.236
 4428SOL    HW114183   6.323   5.348   3.196
 4428SOL    HW214184   6.242   5.263   3.310
 4429SOL     OW14185   3.304   6.505   3.611
 4429SOL    HW114186   3.364   6.518   3.532
 4429SOL    HW214187   3.238   6.580   3.614
 4430SOL     OW14188   5.802   3.698   5.257
 4430SOL    HW114189   5.795   3.798   5.260
 4430SOL    HW214190   5.820   3.670   5.163
 4431SOL     OW14191   4.139   6.298   4.654
 4431SOL    HW114192   4.160   6.396   4.653
 4431SOL    HW214193   4.066   6.279   4.589
 4432SOL     OW14194   0.832   3.804   5.969
 4432SOL    HW114195   0.876   3.883   5.925
 4432SOL    HW214196   0.837   3.814   6.068
 4433SOL     OW14197   0.658   1.285   4.414
 4433SOL    HW114198   0.633   1.356   4.348
 4433SOL    HW214199   0.580   1.266   4.474
 4434SOL     OW14200   6.872   0.409   2.225
 4434SOL    HW114201   6.907   0.357   2.303
 4434SOL    HW214202   6.931   0.394   2.146
 4435SOL     OW14203   2.388   3.916   0.748
 4435SOL    HW114204   2.426   4.006   0.769
 4435SOL    HW214205   2.460   3.857   0.710
 4436SOL     OW14206   4.444   2.445   2.214
 4436SOL    HW114207   4.348   2.418   2.200
 4436SOL    HW214208   4.458   2.469   2.310
 4437SOL     OW14209   6.570   4.210   0.198
 4437SOL    HW114210   6.479   4.246   0.218
 4437SOL    HW214211   6.578   4.190   0.100
 4438SOL     OW14212   4.295   0.909   4.744
 4438SOL    HW114213   4.373   0.857   4.780
 4438SOL    HW214214   4.250   0.958   4.820
 4439SOL     OW14215   2.678   6.053   3.057
 4439SOL    HW114216   2.703   5.957   3.064
 4439SOL    HW214217   2.578   6.062   3.055
 4440SOL     OW14218   1.449   4.263   6.106
 4440SOL    HW114219   1.395   4.325   6.164
 4440SOL    HW214220   1.493   4.315   6.033
 4441SOL     OW14221   6.910   2.556   0.990
 4441SOL    HW114222   6.962   2.506   1.058
 4441SOL    HW214223   6.812   2.550   1.012
 4442SOL     OW14224   1.862   5.071   0.095
 4442SOL    HW114225   1.837   5.049   0.001
 4442SOL    HW214226   1.809   5.015   0.158
 4443SOL     OW14227   0.641   5.415   5.846
 4443SOL    HW114228   0.611   5.507   5.868
 4443SOL    HW214229   0.729   5.396   5.890
 4444SOL     OW14230   5.925   5.319   0.725
 4444SOL    HW114231   5.851   5.358   0.670
 4444SOL    HW214232   5.930   5.220   0.709
 4445SOL     OW14233   1.330   4.500   0.457
 4445SOL    HW114234   1.266   4.467   0.526
 4445SOL    HW214235   1.327   4.439   0.377
 4446SOL     OW14236   4.593   1.915   1.657
 4446SOL    HW114237   4.630   1.974   1.586
 4446SOL    HW214238   4.494   1.905   1.644
 4447SOL     OW14239   3.820   5.879   6.004
 4447SOL    HW114240   3.785   5.825   6.080
 4447SOL    HW214241   3.802   5.976   6.021
 4448SOL     OW14242   3.516   6.546   1.861
 4448SOL    HW114243   3.459   6.465   1.845
 4448SOL    HW214244   3.612   6.522   1.851
 4449SOL     OW14245   3.576   1.742   5.807
 4449SOL    HW114246   3.634   1.765   5.729
 4449SOL    HW214247   3.515   1.668   5.782
 4450SOL     OW14248   2.408   6.451   0.079
 4450SOL    HW114249   2.426   6.453   7.003
 4450SOL    HW214250   2.415   6.544   0.116
 4451SOL     OW14251   4.663   5.055   3.426
 4451SOL    HW114252   4.626   5.127   3.368
 4451SOL    HW214253   4.589   5.015   3.481
 4452SOL     OW14254   4.969   5.763   4.292
 4452SOL    HW114255   5.049   5.704   4.298
 4452SOL    HW214256   4.919   5.743   4.208
 4453SOL     OW14257   6.946   4.737   0.675
 4453SOL    HW114258   6.927   4.762   0.580
 4453SOL    HW214259   7.008   4.804   0.715
 4454SOL     OW14260   1.398   2.790   0.274
 4454SOL    HW114261   1.377   2.700   0.311
 4454SOL    HW214262   1.375   2.791   0.176
 4455SOL     OW14263   1.894   0.402   4.287
 4455SOL    HW114264   1.913   0.434   4.194
 4455SOL    HW214265   1.969   0.343   4.318
 4456SOL     OW14266   2.294   6.426   3.782
 4456SOL    HW114267   2.235   6.355   3.743
 4456SOL    HW214268   2.244   6.474   3.854
 4457SOL     OW14269   1.897   1.895   4.799
 4457SOL    HW114270   1.943   1.941   4.875
 4457SOL    HW214271   1.857   1.963   4.738
 4458SOL     OW14272   1.098   3.268   6.220
 4458SOL    HW114273   1.112   3.197   6.288
 4458SOL    HW214274   1.063   3.351   6.264
 4459SOL     OW14275   1.060   3.181   2.845
 4459SOL    HW114276   0.960   3.170   2.853
 4459SOL    HW214277   1.082   3.277   2.832
 4460SOL     OW14278   0.137   2.467   4.428
 4460SOL    HW114279   0.183   2.523   4.496
 4460SOL    HW214280   0.148   2.508   4.338
 4461SOL     OW14281   2.017   0.615   0.610
 4461SOL    HW114282   2.024   0.544   0.680
 4461SOL    HW214283   1.958   0.582   0.536
 4462SOL     OW14284   6.466   4.073   2.808
 4462SOL    HW114285   6.554   4.058   2.852
 4462SOL    HW214286   6.480   4.120   2.720
 4463SOL     OW14287   5.427   1.634   0.396
 4463SOL    HW114288   5.385   1.714   0.353
 4463SOL    HW214289   5.429   1.646   0.495
 4464SOL     OW14290   0.298   4.180   1.658
 4464SOL    HW114291   0.235   4.247   1.698
 4464SOL    HW214292   0.391   4.199   1.688
 4465SOL     OW14293   3.640   5.170   1.842
 4465SOL    HW114294   3.574   5.095   1.828
 4465SOL    HW214295   3.694   5.152   1.924
 4466SOL     OW14296   0.566   2.815   2.328
 4466SOL    HW114297   0.560   2.913   2.309
 4466SOL    HW214298   0.475   2.775   2.326
 4467SOL     OW14299   5.294   4.787   2.644
 4467SOL    HW114300   5.236   4.784   2.562
 4467SOL    HW214301   5.390   4.778   2.617
 4468SOL     OW14302   1.630   3.084   1.377
 4468SOL    HW114303   1.639   3.065   1.474
 4468SOL    HW214304   1.667   3.175   1.357
 4469SOL     OW14305   2.016   5.677   1.344
 4469SOL    HW114306   2.028   5.606   1.275
 4469SOL    HW214307   1.988   5.636   1.431
 4470SOL     OW14308   0.766   0.209   2.601
 4470SOL    HW114309   0.795   0.286   2.545
 4470SOL    HW214310   0.759   0.237   2.696
 4471SOL     OW14311   1.046   0.102   6.240
 4471SOL    HW114312   1.050   0.195   6.204
 4471SOL    HW214313   1.080   0.101   6.334
 4472SOL     OW14314   1.886   2.752   0.797
 4472SOL    HW114315   1.860   2.809   0.874
 4472SOL    HW214316   1.983   2.729   0.803
 4473SOL     OW14317   0.483   3.697   4.996
 4473SOL    HW114318   0.538   3.645   5.061
 4473SOL    HW214319   0.466   3.640   4.915
 4474SOL     OW14320   2.827   6.040   1.297
 4474SOL    HW114321   2.821   6.134   1.265
 4474SOL    HW214322   2.737   6.011   1.330
 4475SOL     OW14323   1.150   3.877   0.581
 4475SOL    HW114324   1.238   3.880   0.628
 4475SOL    HW214325   1.141   3.790   0.533
 4476SOL     OW14326   5.601   1.140   3.581
 4476SOL    HW114327   5.608   1.139   3.481
 4476SOL    HW214328   5.518   1.188   3.608
 4477SOL     OW14329   0.074   1.030   5.022
 4477SOL    HW114330   0.140   1.095   4.984
 4477SOL    HW214331   7.018   1.081   5.058
 4478SOL     OW14332   1.508   0.392   1.683
 4478SOL    HW114333   1.543   0.482   1.705
 4478SOL    HW214334   1.408   0.396   1.675
 4479SOL     OW14335   1.980   2.198   6.853
 4479SOL    HW114336   2.033   2.255   6.915
 4479SOL    HW214337   1.984   2.103   6.884
 4480SOL     OW14338   0.722   7.006   3.180
 4480SOL    HW114339   0.677   6.958   3.105
 4480SOL    HW214340   0.819   6.982   3.181
 4481SOL     OW14341   1.982   3.729   5.494
 4481SOL    HW114342   1.964   3.753   5.590
 4481SOL    HW214343   2.002   3.813   5.443
 4482SOL     OW14344   1.763   7.007   1.631
 4482SOL    HW114345   1.773   6.971   1.538
 4482SOL    HW214346   1.700   0.061   1.631
 4483SOL     OW14347   1.536   3.530   0.487
 4483SOL    HW114348   1.611   3.587   0.521
 4483SOL    HW214349   1.569   3.473   0.412
 4484SOL     OW14350   2.896   0.944   6.675
 4484SOL    HW114351   2.949   0.950   6.760
 4484SOL    HW214352   2.885   1.035   6.636
 4485SOL     OW14353   0.091   3.062   4.951
 4485SOL    HW114354   0.121   2.988   5.011
 4485SOL    HW214355   0.170   3.108   4.912
 4486SOL     OW14356   5.014   4.406   4.100
 4486SOL    HW114357   5.035   4.315   4.064
 4486SOL    HW214358   5.010   4.401   4.200
 4487SOL     OW14359   0.592   2.985   6.662
 4487SOL    HW114360   0.506   2.953   6.701
 4487SOL    HW214361   0.645   2.906   6.630
 4488SOL     OW14362   0.129   3.722   3.474
 4488SOL    HW114363   0.077   3.676   3.546
 4488SOL    HW214364   0.126   3.820   3.489
 4489SOL     OW14365   3.529   6.165   6.321
 4489SOL    HW114366   3.479   6.080   6.333
 4489SOL    HW214367   3.605   6.151   6.259
 4490SOL     OW14368   5.307   1.514   2.078
 4490SOL    HW114369   5.353   1.487   2.162
 4490SOL    HW214370   5.354   1.473   1.999
 4491SOL     OW14371   1.269   3.169   3.026
 4491SOL    HW114372   1.301   3.263   3.035
 4491SOL    HW214373   1.198   3.164   2.957
 4492SOL     OW14374   6.845   1.285   2.440
 4492SOL    HW114375   6.750   1.311   2.428
 4492SOL    HW214376   6.894   1.356   2.490
 4493SOL     OW14377   4.963   1.481   5.828
 4493SOL    HW114378   5.054   1.515   5.850
 4493SOL    HW214379   4.958   1.460   5.731
 4494SOL     OW14380   1.688   0.617   2.237
 4494SOL    HW114381   1.665   0.556   2.162
 4494SOL    HW214382   1.725   0.563   2.313
 4495SOL     OW14383   3.753   6.609   1.042
 4495SOL    HW114384   3.793   6.520   1.066
 4495SOL    HW214385   3.800   6.681   1.094
 4496SOL     OW14386   2.704   6.531   5.427
 4496SOL    HW114387   2.627   6.496   5.480
 4496SOL    HW214388   2.696   6.630   5.416
 4497SOL     OW14389   4.154   0.850   6.070
 4497SOL    HW114390   4.233   0.877   6.126
 4497SOL    HW214391   4.075   0.834   6.130
 4498SOL     OW14392   0.594   4.795   4.560
 4498SOL    HW114393   0.535   4.768   4.636
 4498SOL    HW214394   0.689   4.781   4.585
 4499SOL     OW14395   5.963   0.814   2.689
 4499SOL    HW114396   5.991   0.748   2.760
 4499SOL    HW214397   5.869   0.795   2.661
 4500SOL     OW14398   3.987   6.208   0.615
 4500SOL    HW114399   4.065   6.271   0.616
 4500SOL    HW214400   3.905   6.257   0.584
 4501SOL     OW14401   5.828   0.488   2.451
 4501SOL    HW114402   5.799   0.534   2.534
 4501SOL    HW214403   5.914   0.527   2.419
 4502SOL     OW14404   0.770   3.971   6.550
 4502SOL    HW114405   0.743   4.038   6.619
 4502SOL    HW214406   0.689   3.935   6.505
 4503SOL     OW14407   3.529   1.646   2.400
 4503SOL    HW114408   3.624   1.620   2.383
 4503SOL    HW214409   3.526   1.717   2.471
 4504SOL     OW14410   0.809   2.502   3.326
 4504SOL    HW114411   0.786   2.431   3.260
 4504SOL    HW214412   0.767   2.588   3.300
 4505SOL     OW14413   6.012   3.179   3.682
 4505SOL    HW114414   6.032   3.171   3.584
 4505SOL    HW214415   5.941   3.248   3.696
 4506SOL     OW14416   4.434   3.907   6.748
 4506SOL    HW114417   4.373   3.966   6.696
 4506SOL    HW214418   4.430   3.931   6.845
 4507SOL     OW14419   6.034   2.266   3.514
 4507SOL    HW114420   6.088   2.231   3.438
 4507SOL    HW214421   6.069   2.356   3.541
 4508SOL     OW14422   6.682   4.969   0.496
 4508SOL    HW114423   6.654   5.016   0.580
 4508SOL    HW214424   6.625   5.000   0.420
 4509SOL     OW14425   5.625   2.209   2.166
 4509SOL    HW114426   5.544   2.265   2.182
 4509SOL    HW214427   5.707   2.261   2.190
 4510SOL     OW14428   4.475   1.574   4.417
 4510SOL    HW114429   4.423   1.570   4.502
 4510SOL    HW214430   4.475   1.484   4.373
 4511SOL     OW14431   6.933   5.012   6.759
 4511SOL    HW114432   6.972   5.031   6.849
 4511SOL    HW214433   6.884   5.093   6.726
 4512SOL     OW14434   3.235   2.903   5.460
 4512SOL    HW114435   3.166   2.846   5.505
 4512SOL    HW214436   3.191   2.984   5.421
 4513SOL     OW14437   6.908   0.527   0.343
 4513SOL    HW114438   6.960   0.605   0.380
 4513SOL    HW214439   6.929   0.517   0.246
 4514SOL     OW14440   4.727   4.932   6.585
 4514SOL    HW114441   4.679   5.019   6.580
 4514SOL    HW214442   4.811   4.936   6.532
 4515SOL     OW14443   3.923   1.019   6.328
 4515SOL    HW114444   3.992   1.089   6.312
 4515SOL    HW214445   3.883   0.990   6.241
 4516SOL     OW14446   3.208   2.590   5.862
 4516SOL    HW114447   3.201   2.551   5.771
 4516SOL    HW214448   3.215   2.689   5.856
 4517SOL     OW14449   4.496   0.465   4.419
 4517SOL    HW114450   4.434   0.518   4.360
 4517SOL    HW214451   4.534   0.388   4.368
 4518SOL     OW14452   0.085   6.656   0.937
 4518SOL    HW114453   0.070   6.641   1.035
 4518SOL    HW214454   0.058   6.749   0.913
 4519SOL     OW14455   4.757   6.605   6.825
 4519SOL    HW114456   4.847   6.578   6.859
 4519SOL    HW214457   4.703   6.642   6.900
 4520SOL     OW14458   4.733   5.175   5.313
 4520SOL    HW114459   4.651   5.231   5.299
 4520SOL    HW214460   4.717   5.084   5.274
 4521SOL     OW14461   4.354   2.405   3.813
 4521SOL    HW114462   4.279   2.344   3.788
 4521SOL    HW214463   4.407   2.426   3.731
 4522SOL     OW14464   5.720   3.740   3.630
 4522SOL    HW114465   5.634   3.714   3.674
 4522SOL    HW214466   5.719   3.712   3.534
 4523SOL     OW14467   6.912   3.218   5.992
 4523SOL    HW114468   7.006   3.251   6.007
 4523SOL    HW214469   6.848   3.283   6.033
 4524SOL     OW14470   1.872   3.735   2.214
 4524SOL    HW114471   1.946   3.668   2.207
 4524SOL    HW214472   1.885   3.806   2.145
 4525SOL     OW14473   3.921   2.610   5.624
 4525SOL    HW114474   4.001   2.575   5.673
 4525SOL    HW214475   3.896   2.699   5.661
 4526SOL     OW14476   1.331   0.300   5.511
 4526SOL    HW114477   1.404   0.365   5.531
 4526SOL    HW214478   1.263   0.343   5.452
 4527SOL     OW14479   0.255   1.520   3.167
 4527SOL    HW114480   0.169   1.566   3.148
 4527SOL    HW214481   0.239   1.422   3.178
 4528SOL     OW14482   5.072   0.815   4.521
 4528SOL    HW114483   5.168   0.818   4.548
 4528SOL    HW214484   5.014   0.807   4.602
 4529SOL     OW14485   2.082   1.593   3.797
 4529SOL    HW114486   2.123   1.612   3.707
 4529SOL    HW214487   2.135   1.640   3.868
 4530SOL     OW14488   3.536   5.873   6.546
 4530SOL    HW114489   3.567   5.925   6.625
 4530SOL    HW214490   3.586   5.787   6.541
 4531SOL     OW14491   1.559   6.692   5.245
 4531SOL    HW114492   1.471   6.732   5.270
 4531SOL    HW214493   1.629   6.724   5.309
 4532SOL     OW14494   6.602   1.410   2.437
 4532SOL    HW114495   6.590   1.466   2.355
 4532SOL    HW214496   6.532   1.433   2.504
 4533SOL     OW14497   2.902   6.734   1.554
 4533SOL    HW114498   2.885   6.817   1.606
 4533SOL    HW214499   2.844   6.660   1.588
 4534SOL     OW14500   5.522   1.429   4.287
 4534SOL    HW114501   5.593   1.472   4.342
 4534SOL    HW214502   5.557   1.346   4.244
 4535SOL     OW14503   1.758   0.434   6.982
 4535SOL    HW114504   1.723   0.522   7.014
 4535SOL    HW214505   1.783   0.377   0.037
 4536SOL     OW14506   3.845   1.120   5.818
 4536SOL    HW114507   3.937   1.104   5.853
 4536SOL    HW214508   3.835   1.079   5.727
 4537SOL     OW14509   3.162   3.282   3.370
 4537SOL    HW114510   3.238   3.346   3.359
 4537SOL    HW214511   3.075   3.332   3.368
 4538SOL     OW14512   0.902   2.425   0.534
 4538SOL    HW114513   0.831   2.360   0.509
 4538SOL    HW214514   0.886   2.459   0.627
 4539SOL     OW14515   1.594   5.782   4.999
 4539SOL    HW114516   1.584   5.849   4.926
 4539SOL    HW214517   1.505   5.741   5.019
 4540SOL     OW14518   1.498   1.693   0.184
 4540SOL    HW114519   1.534   1.613   0.231
 4540SOL    HW214520   1.559   1.718   0.109
 4541SOL     OW14521   4.087   3.365   0.091
 4541SOL    HW114522   4.014   3.428   0.064
 4541SOL    HW214523   4.047   3.280   0.124
 4542SOL     OW14524   0.455   1.610   6.658
 4542SOL    HW114525   0.518   1.666   6.604
 4542SOL    HW214526   0.491   1.517   6.666
 4543SOL     OW14527   3.950   1.921   0.796
 4543SOL    HW114528   3.929   1.824   0.797
 4543SOL    HW214529   4.016   1.941   0.723
 4544SOL     OW14530   4.709   6.771   0.640
 4544SOL    HW114531   4.682   6.858   0.681
 4544SOL    HW214532   4.779   6.728   0.696
 4545SOL     OW14533   2.541   2.818   5.476
 4545SOL    HW114534   2.536   2.900   5.532
 4545SOL    HW214535   2.563   2.843   5.381
 4546SOL     OW14536   3.807   0.484   6.380
 4546SOL    HW114537   3.818   0.583   6.374
 4546SOL    HW214538   3.888   0.445   6.425
 4547SOL     OW14539   0.433   0.172   0.222
 4547SOL    HW114540   0.362   0.111   0.187
 4547SOL    HW214541   0.516   0.120   0.238
 4548SOL     OW14542   3.264   1.182   1.943
 4548SOL    HW114543   3.205   1.237   2.002
 4548SOL    HW214544   3.224   1.092   1.930
 4549SOL     OW14545   0.213   3.416   4.205
 4549SOL    HW114546   0.235   3.400   4.109
 4549SOL    HW214547   0.117   3.442   4.212
 4550SOL     OW14548   1.993   5.797   5.397
 4550SOL    HW114549   1.932   5.864   5.354
 4550SOL    HW214550   2.084   5.836   5.405
 4551SOL     OW14551   3.303   2.324   5.977
 4551SOL    HW114552   3.374   2.372   6.028
 4551SOL    HW214553   3.229   2.388   5.955
 4552SOL     OW14554   4.757   0.914   0.073
 4552SOL    HW114555   4.807   0.868   0.147
 4552SOL    HW214556   4.718   0.999   0.107
 4553SOL     OW14557   0.347   6.210   0.279
 4553SOL    HW114558   0.402   6.284   0.319
 4553SOL    HW214559   0.386   6.122   0.304
 4554SOL     OW14560   5.910   0.135   3.241
 4554SOL    HW114561   5.900   0.193   3.322
 4554SOL    HW214562   5.840   0.063   3.243
 4555SOL     OW14563   0.604   0.874   1.576
 4555SOL    HW114564   0.634   0.921   1.493
 4555SOL    HW214565   0.601   0.775   1.558
 4556SOL     OW14566   5.346   4.362   4.004
 4556SOL    HW114567   5.415   4.300   3.967
 4556SOL    HW214568   5.270   4.308   4.041
 4557SOL     OW14569   6.851   4.694   4.210
 4557SOL    HW114570   6.877   4.636   4.287
 4557SOL    HW214571   6.763   4.737   4.228
 4558SOL     OW14572   1.520   3.911   4.989
 4558SOL    HW114573   1.533   4.010   4.987
 4558SOL    HW214574   1.476   3.881   4.905
 4559SOL     OW14575   0.170   2.970   3.875
 4559SOL    HW114576   0.250   2.924   3.836
 4559SOL    HW214577   0.167   3.064   3.843
 4560SOL     OW14578   6.227   4.691   3.084
 4560SOL    HW114579   6.309   4.673   3.137
 4560SOL    HW214580   6.191   4.782   3.107
 4561SOL     OW14581   4.246   2.319   4.069
 4561SOL    HW114582   4.271   2.335   3.974
 4561SOL    HW214583   4.325   2.337   4.128
 4562SOL     OW14584   3.639   1.227   0.578
 4562SOL    HW114585   3.647   1.185   0.669
 4562SOL    HW214586   3.592   1.164   0.516
 4563SOL     OW14587   0.920   4.137   1.715
 4563SOL    HW114588   0.896   4.047   1.678
 4563SOL    HW214589   0.855   4.206   1.681
 4564SOL     OW14590   1.978   4.300   2.525
 4564SOL    HW114591   1.902   4.355   2.560
 4564SOL    HW214592   2.007   4.336   2.436
 4565SOL     OW14593   1.753   6.961   5.875
 4565SOL    HW114594   1.841   6.968   5.921
 4565SOL    HW214595   1.746   6.872   5.829
 4566SOL     OW14596   0.008   4.258   3.138
 4566SOL    HW114597   0.029   4.161   3.125
 4566SOL    HW214598   0.009   4.280   3.236
 4567SOL     OW14599   0.131   6.902   6.661
 4567SOL    HW114600   0.065   6.976   6.665
 4567SOL    HW214601   0.108   6.834   6.731
 4568SOL     OW14602   1.082   5.461   3.809
 4568SOL    HW114603   0.992   5.416   3.803
 4568SOL    HW214604   1.142   5.425   3.738
 4569SOL     OW14605   1.489   1.796   2.989
 4569SOL    HW114606   1.391   1.778   2.975
 4569SOL    HW214607   1.501   1.891   3.017
 4570SOL     OW14608   5.243   5.426   1.405
 4570SOL    HW114609   5.154   5.471   1.408
 4570SOL    HW214610   5.234   5.337   1.359
 4571SOL     OW14611   2.651   3.763   5.890
 4571SOL    HW114612   2.562   3.727   5.916
 4571SOL    HW214613   2.639   3.844   5.833
 4572SOL     OW14614   4.072   2.942   1.829
 4572SOL    HW114615   4.090   2.887   1.747
 4572SOL    HW214616   3.977   2.930   1.857
 4573SOL     OW14617   2.594   4.742   0.294
 4573SOL    HW114618   2.666   4.712   0.357
 4573SOL    HW214619   2.509   4.755   0.344
 4574SOL     OW14620   4.667   0.878   2.039
 4574SOL    HW114621   4.651   0.966   1.994
 4574SOL    HW214622   4.662   0.889   2.138
 4575SOL     OW14623   6.787   0.812   5.544
 4575SOL    HW114624   6.778   0.847   5.450
 4575SOL    HW214625   6.808   0.715   5.542
 4576SOL     OW14626   3.499   3.872   6.781
 4576SOL    HW114627   3.403   3.853   6.802
 4576SOL    HW214628   3.550   3.786   6.777
 4577SOL     OW14629   0.626   1.548   1.809
 4577SOL    HW114630   0.638   1.553   1.710
 4577SOL    HW214631   0.537   1.507   1.830
 4578SOL     OW14632   1.659   0.644   2.919
 4578SOL    HW114633   1.673   0.641   2.820
 4578SOL    HW214634   1.564   0.671   2.938
 4579SOL     OW14635   4.612   0.642   3.446
 4579SOL    HW114636   4.663   0.664   3.530
 4579SOL    HW214637   4.546   0.569   3.465
 4580SOL     OW14638   0.506   1.096   0.542
 4580SOL    HW114639   0.453   1.162   0.594
 4580SOL    HW214640   0.604   1.109   0.559
 4581SOL     OW14641   2.642   0.567   0.928
 4581SOL    HW114642   2.543   0.568   0.917
 4581SOL    HW214643   2.670   0.481   0.970
 4582SOL     OW14644   6.925   0.447   3.572
 4582SOL    HW114645   7.004   0.447   3.633
 4582SOL    HW214646   6.937   0.377   3.501
 4583SOL     OW14647   1.934   6.655   0.100
 4583SOL    HW114648   2.016   6.599   0.111
 4583SOL    HW214649   1.856   6.609   0.142
 4584SOL     OW14650   0.109   1.677   4.212
 4584SOL    HW114651   0.166   1.595   4.197
 4584SOL    HW214652   0.144   1.727   4.292
 4585SOL     OW14653   1.845   2.777   2.950
 4585SOL    HW114654   1.926   2.738   2.907
 4585SOL    HW214655   1.857   2.779   3.049
 4586SOL     OW14656   6.441   4.806   6.320
 4586SOL    HW114657   6.535   4.822   6.350
 4586SOL    HW214658   6.398   4.893   6.298
 4587SOL     OW14659   3.978   4.334   5.668
 4587SOL    HW114660   3.888   4.290   5.669
 4587SOL    HW214661   3.988   4.388   5.585
 4588SOL     OW14662   3.288   4.058   6.538
 4588SOL    HW114663   3.280   4.086   6.633
 4588SOL    HW214664   3.358   4.113   6.492
 4589SOL     OW14665   5.825   6.269   2.395
 4589SOL    HW114666   5.849   6.310   2.483
 4589SOL    HW214667   5.905   6.223   2.357
 4590SOL     OW14668   2.825   5.711   1.256
 4590SOL    HW114669   2.862   5.675   1.342
 4590SOL    HW214670   2.805   5.808   1.266
 4591SOL     OW14671   2.384   0.796   5.022
 4591SOL    HW114672   2.345   0.861   4.956
 4591SOL    HW214673   2.357   0.703   4.997
 4592SOL     OW14674   2.661   1.579   3.696
 4592SOL    HW114675   2.749   1.564   3.652
 4592SOL    HW214676   2.613   1.653   3.649
 4593SOL     OW14677   1.274   6.597   4.389
 4593SOL    HW114678   1.300   6.694   4.389
 4593SOL    HW214679   1.303   6.555   4.475
 4594SOL     OW14680   1.990   6.348   4.042
 4594SOL    HW114681   2.001   6.270   3.980
 4594SOL    HW214682   1.904   6.394   4.023
 4595SOL     OW14683   5.646   1.908   6.242
 4595SOL    HW114684   5.723   1.937   6.298
 4595SOL    HW214685   5.670   1.823   6.194
 4596SOL     OW14686   1.059   1.026   2.274
 4596SOL    HW114687   0.992   0.958   2.304
 4596SOL    HW214688   1.022   1.117   2.289
 4597SOL     OW14689   2.380   5.742   0.613
 4597SOL    HW114690   2.365   5.807   0.687
 4597SOL    HW214691   2.468   5.695   0.627
 4598SOL     OW14692   0.852   4.007   0.030
 4598SOL    HW114693   0.767   4.053   0.058
 4598SOL    HW214694   0.830   3.933   6.989
 4599SOL     OW14695   3.360   6.552   2.315
 4599SOL    HW114696   3.406   6.608   2.383
 4599SOL    HW214697   3.425   6.522   2.246
 4600SOL     OW14698   0.172   6.885   6.376
 4600SOL    HW114699   0.093   6.937   6.342
 4600SOL    HW214700   0.173   6.887   6.476
 4601SOL     OW14701   1.895   0.459   5.655
 4601SOL    HW114702   1.830   0.383   5.666
 4601SOL    HW214703   1.969   0.430   5.594
 4602SOL     OW14704   3.343   1.737   6.454
 4602SOL    HW114705   3.375   1.795   6.529
 4602SOL    HW214706   3.299   1.656   6.492
 4603SOL     OW14707   3.859   6.965   1.050
 4603SOL    HW114708   3.859   6.921   1.139
 4603SOL    HW214709   3.937   0.004   1.043
 4604SOL     OW14710   6.973   6.892   3.653
 4604SOL    HW114711   0.039   6.895   3.699
 4604SOL    HW214712   6.979   6.828   3.576
 4605SOL     OW14713   4.192   1.027   1.540
 4605SOL    HW114714   4.095   1.005   1.556
 4605SOL    HW214715   4.210   1.120   1.572
 4606SOL     OW14716   6.951   6.820   5.185
 4606SOL    HW114717   6.978   6.851   5.276
 4606SOL    HW214718   7.001   6.872   5.116
 4607SOL     OW14719   1.927   1.543   0.754
 4607SOL    HW114720   1.883   1.535   0.843
 4607SOL    HW214721   1.885   1.618   0.703
 4608SOL     OW14722   6.967   2.970   4.559
 4608SOL    HW114723   6.892   2.974   4.493
 4608SOL    HW214724   6.933   2.995   4.649
 4609SOL     OW14725   5.255   5.667   6.774
 4609SOL    HW114726   5.288   5.747   6.724
 4609SOL    HW214727   5.213   5.603   6.710
 4610SOL     OW14728   5.145   4.922   0.674
 4610SOL    HW114729   5.065   4.912   0.733
 4610SOL    HW214730   5.117   4.919   0.578
 4611SOL     OW14731   0.046   1.404   6.416
 4611SOL    HW114732   0.140   1.407   6.383
 4611SOL    HW214733   0.042   1.353   6.502
 4612SOL     OW14734   2.289   1.251   2.612
 4612SOL    HW114735   2.372   1.304   2.594
 4612SOL    HW214736   2.314   1.165   2.657
 4613SOL     OW14737   1.401   5.297   1.822
 4613SOL    HW114738   1.367   5.275   1.731
 4613SOL    HW214739   1.366   5.230   1.888
 4614SOL     OW14740   7.002   4.482   3.580
 4614SOL    HW114741   0.079   4.485   3.571
 4614SOL    HW214742   6.970   4.565   3.625
 4615SOL     OW14743   1.762   4.319   6.154
 4615SOL    HW114744   1.673   4.358   6.177
 4615SOL    HW214745   1.809   4.378   6.089
 4616SOL     OW14746   1.359   3.528   6.282
 4616SOL    HW114747   1.294   3.530   6.206
 4616SOL    HW214748   1.321   3.578   6.360
 4617SOL     OW14749   6.790   3.094   3.500
 4617SOL    HW114750   6.851   3.161   3.458
 4617SOL    HW214751   6.726   3.060   3.432
 4618SOL     OW14752   2.312   3.615   5.728
 4618SOL    HW114753   2.261   3.579   5.650
 4618SOL    HW214754   2.409   3.622   5.705
 4619SOL     OW14755   4.299   5.854   6.334
 4619SOL    HW114756   4.303   5.928   6.267
 4619SOL    HW214757   4.388   5.808   6.338
 4620SOL     OW14758   0.824   4.262   1.372
 4620SOL    HW114759   0.775   4.188   1.417
 4620SOL    HW214760   0.820   4.250   1.273
 4621SOL     OW14761   3.243   0.452   2.560
 4621SOL    HW114762   3.317   0.403   2.607
 4621SOL    HW214763   3.282   0.527   2.507
 4622SOL     OW14764   5.286   6.943   0.479
 4622SOL    HW114765   5.227   7.005   0.427
 4622SOL    HW214766   5.301   6.980   0.570
 4623SOL     OW14767   3.289   4.876   2.469
 4623SOL    HW114768   3.258   4.907   2.379
 4623SOL    HW214769   3.209   4.861   2.528
 4624SOL     OW14770   5.174   1.502   1.501
 4624SOL    HW114771   5.176   1.599   1.476
 4624SOL    HW214772   5.267   1.465   1.498
 4625SOL     OW14773   1.414   5.878   1.682
 4625SOL    HW114774   1.456   5.812   1.744
 4625SOL    HW214775   1.344   5.833   1.627
 4626SOL     OW14776   4.168   3.409   1.918
 4626SOL    HW114777   4.175   3.500   1.878
 4626SOL    HW214778   4.221   3.406   2.003
 4627SOL     OW14779   5.491   0.084   4.698
 4627SOL    HW114780   5.469   0.033   4.615
 4627SOL    HW214781   5.558   0.155   4.676
 4628SOL     OW14782   6.044   4.483   3.085
 4628SOL    HW114783   5.997   4.486   3.173
 4628SOL    HW214784   6.097   4.567   3.072
 4629SOL     OW14785   1.539   5.602   0.027
 4629SOL    HW114786   1.620   5.569   7.002
 4629SOL    HW214787   1.486   5.524   0.061
 4630SOL     OW14788   1.995   3.585   1.475
 4630SOL    HW114789   1.908   3.594   1.524
 4630SOL    HW214790   1.986   3.517   1.403
 4631SOL     OW14791   6.620   0.825   3.042
 4631SOL    HW114792   6.650   0.904   2.989
 4631SOL    HW214793   6.680   0.747   3.024
 4632SOL     OW14794   2.913   5.092   3.252
 4632SOL    HW114795   2.931   5.037   3.170
 4632SOL    HW214796   2.911   5.033   3.332
 4633SOL     OW14797   4.618   2.442   4.485
 4633SOL    HW114798   4.642   2.533   4.452
 4633SOL    HW214799   4.591   2.446   4.581
 4634SOL     OW14800   3.932   3.034   4.451
 4634SOL    HW114801   3.974   2.945   4.433
 4634SOL    HW214802   3.896   3.035   4.544
 4635SOL     OW14803   4.679   5.811   2.442
 4635SOL    HW114804   4.628   5.743   2.494
 4635SOL    HW214805   4.685   5.896   2.493
 4636SOL     OW14806   1.627   5.772   6.433
 4636SOL    HW114807   1.534   5.803   6.454
 4636SOL    HW214808   1.627   5.674   6.417
 4637SOL     OW14809   2.459   1.876   3.335
 4637SOL    HW114810   2.522   1.943   3.297
 4637SOL    HW214811   2.367   1.892   3.299
 4638SOL     OW14812   3.992   4.626   0.474
 4638SOL    HW114813   3.930   4.671   0.409
 4638SOL    HW214814   4.065   4.580   0.423
 4639SOL     OW14815   3.716   2.012   1.846
 4639SOL    HW114816   3.671   2.034   1.760
 4639SOL    HW214817   3.688   2.077   1.916
 4640SOL     OW14818   6.244   3.118   0.347
 4640SOL    HW114819   6.144   3.110   0.357
 4640SOL    HW214820   6.267   3.211   0.317
 4641SOL     OW14821   1.795   5.481   4.611
 4641SOL    HW114822   1.795   5.527   4.700
 4641SOL    HW214823   1.889   5.461   4.584
 4642SOL     OW14824   6.328   1.549   5.649
 4642SOL    HW114825   6.303   1.552   5.746
 4642SOL    HW214826   6.249   1.576   5.593
 4643SOL     OW14827   0.211   1.670   0.236
 4643SOL    HW114828   0.140   1.736   0.257
 4643SOL    HW214829   0.291   1.717   0.200
 4644SOL     OW14830   1.013   0.397   0.314
 4644SOL    HW114831   0.947   0.334   0.354
 4644SOL    HW214832   1.097   0.348   0.292
 4645SOL     OW14833   6.159   1.853   4.959
 4645SOL    HW114834   6.086   1.857   5.028
 4645SOL    HW214835   6.139   1.917   4.885
 4646SOL     OW14836   2.171   3.797   2.975
 4646SOL    HW114837   2.168   3.870   2.907
 4646SOL    HW214838   2.172   3.708   2.928
 4647SOL     OW14839   1.746   6.264   1.975
 4647SOL    HW114840   1.739   6.164   1.982
 4647SOL    HW214841   1.725   6.305   2.064
 4648SOL     OW14842   2.998   0.959   4.617
 4648SOL    HW114843   3.059   1.016   4.561
 4648SOL    HW214844   2.921   0.928   4.560
 4649SOL     OW14845   5.899   1.863   0.547
 4649SOL    HW114846   5.826   1.855   0.615
 4649SOL    HW214847   5.888   1.793   0.476
 4650SOL     OW14848   4.526   5.928   1.445
 4650SOL    HW114849   4.584   5.919   1.363
 4650SOL    HW214850   4.583   5.955   1.522
 4651SOL     OW14851   0.251   3.936   6.370
 4651SOL    HW114852   0.195   4.006   6.326
 4651SOL    HW214853   0.191   3.864   6.407
 4652SOL     OW14854   7.010   0.135   5.829
 4652SOL    HW114855   0.050   0.060   5.810
 4652SOL    HW214856   6.995   0.187   5.745
 4653SOL     OW14857   6.852   5.730   0.951
 4653SOL    HW114858   6.773   5.674   0.976
 4653SOL    HW214859   6.923   5.672   0.913
 4654SOL     OW14860   0.833   0.882   5.815
 4654SOL    HW114861   0.914   0.871   5.758
 4654SOL    HW214862   0.751   0.872   5.759
 4655SOL     OW14863   5.339   3.435   2.773
 4655SOL    HW114864   5.279   3.357   2.793
 4655SOL    HW214865   5.392   3.416   2.691
 4656SOL     OW14866   6.272   1.549   2.347
 4656SOL    HW114867   6.352   1.547   2.287
 4656SOL    HW214868   6.301   1.555   2.442
 4657SOL     OW14869   3.771   1.747   2.862
 4657SOL    HW114870   3.853   1.735   2.918
 4657SOL    HW214871   3.793   1.804   2.783
 4658SOL     OW14872   1.288   1.790   6.642
 4658SOL    HW114873   1.347   1.713   6.619
 4658SOL    HW214874   1.308   1.820   6.736
 4659SOL     OW14875   1.845   4.716   0.509
 4659SOL    HW114876   1.829   4.739   0.605
 4659SOL    HW214877   1.891   4.628   0.503
 4660SOL     OW14878   0.814   5.435   3.748
 4660SOL    HW114879   0.766   5.413   3.832
 4660SOL    HW214880   0.825   5.534   3.739
 4661SOL     OW14881   0.655   1.668   5.414
 4661SOL    HW114882   0.662   1.673   5.314
 4661SOL    HW214883   0.741   1.700   5.454
 4662SOL     OW14884   2.471   0.229   6.061
 4662SOL    HW114885   2.489   0.148   6.005
 4662SOL    HW214886   2.373   0.248   6.063
 4663SOL     OW14887   0.889   6.721   0.662
 4663SOL    HW114888   0.827   6.655   0.706
 4663SOL    HW214889   0.863   6.814   0.690
 4664SOL     OW14890   5.845   6.803   6.039
 4664SOL    HW114891   5.850   6.902   6.023
 4664SOL    HW214892   5.938   6.766   6.044
 4665SOL     OW14893   0.160   0.281   3.088
 4665SOL    HW114894   0.186   0.239   3.002
 4665SOL    HW214895   0.240   0.321   3.133
 4666SOL     OW14896   1.661   2.206   6.070
 4666SOL    HW114897   1.605   2.260   6.132
 4666SOL    HW214898   1.661   2.249   5.979
 4667SOL     OW14899   6.858   3.294   0.819
 4667SOL    HW114900   6.792   3.259   0.885
 4667SOL    HW214901   6.951   3.273   0.850
 4668SOL     OW14902   4.787   2.233   4.503
 4668SOL    HW114903   4.770   2.325   4.467
 4668SOL    HW214904   4.719   2.213   4.574
 4669SOL     OW14905   4.917   6.932   6.819
 4669SOL    HW114906   4.854   6.899   6.749
 4669SOL    HW214907   5.004   6.882   6.812
 4670SOL     OW14908   0.282   3.440   6.432
 4670SOL    HW114909   0.263   3.371   6.501
 4670SOL    HW214910   0.306   3.395   6.346
 4671SOL     OW14911   0.086   2.893   2.200
 4671SOL    HW114912   0.086   2.829   2.123
 4671SOL    HW214913   0.102   2.986   2.166
 4672SOL     OW14914   3.062   3.847   0.046
 4672SOL    HW114915   2.976   3.819   0.089
 4672SOL    HW214916   3.119   3.766   0.031
 4673SOL     OW14917   5.926   0.659   0.541
 4673SOL    HW114918   6.013   0.700   0.567
 4673SOL    HW214919   5.943   0.567   0.505
 4674SOL     OW14920   1.156   3.061   0.717
 4674SOL    HW114921   1.220   3.125   0.674
 4674SOL    HW214922   1.112   3.006   0.646
 4675SOL     OW14923   1.815   5.488   6.608
 4675SOL    HW114924   1.772   5.505   6.696
 4675SOL    HW214925   1.908   5.524   6.609
 4676SOL     OW14926   0.562   6.093   4.526
 4676SOL    HW114927   0.512   6.177   4.503
 4676SOL    HW214928   0.520   6.049   4.605
 4677SOL     OW14929   4.190   6.848   0.103
 4677SOL    HW114930   4.163   6.901   0.184
 4677SOL    HW214931   4.238   6.766   0.133
 4678SOL     OW14932   2.294   4.208   0.183
 4678SOL    HW114933   2.212   4.201   0.239
 4678SOL    HW214934   2.327   4.116   0.162
 4679SOL     OW14935   2.257   6.584   5.703
 4679SOL    HW114936   2.299   6.586   5.794
 4679SOL    HW214937   2.291   6.506   5.652
 4680SOL     OW14938   1.231   4.845   6.849
 4680SOL    HW114939   1.177   4.915   6.802
 4680SOL    HW214940   1.328   4.867   6.841
 4681SOL     OW14941   6.745   5.599   4.417
 4681SOL    HW114942   6.746   5.645   4.506
 4681SOL    HW214943   6.809   5.644   4.355
 4682SOL     OW14944   2.957   6.420   0.796
 4682SOL    HW114945   3.047   6.448   0.829
 4682SOL    HW214946   2.941   6.324   0.821
 4683SOL     OW14947   0.252   4.631   2.968
 4683SOL    HW114948   0.172   4.596   3.018
 4683SOL    HW214949   0.314   4.555   2.948
 4684SOL     OW14950   1.713   1.151   5.061
 4684SOL    HW114951   1.721   1.054   5.085
 4684SOL    HW214952   1.715   1.206   5.145
 4685SOL     OW14953   4.958   4.931   5.225
 4685SOL    HW114954   5.030   4.974   5.170
 4685SOL    HW214955   4.971   4.955   5.321
 4686SOL     OW14956   5.114   6.005   0.430
 4686SOL    HW114957   5.208   6.016   0.400
 4686SOL    HW214958   5.075   5.923   0.388
 4687SOL     OW14959   5.159   6.663   4.328
 4687SOL    HW114960   5.236   6.624   4.279
 4687SOL    HW214961   5.091   6.592   4.346
 4688SOL     OW14962   0.598   1.791   0.509
 4688SOL    HW114963   0.652   1.788   0.593
 4688SOL    HW214964   0.501   1.791   0.531
 4689SOL     OW14965   1.760   4.927   5.091
 4689SOL    HW114966   1.769   4.832   5.122
 4689SOL    HW214967   1.829   4.946   5.021
 4690SOL     OW14968   1.237   1.549   0.765
 4690SOL    HW114969   1.275   1.467   0.723
 4690SOL    HW214970   1.267   1.630   0.714
 4691SOL     OW14971   4.094   4.776   0.161
 4691SOL    HW114972   4.192   4.793   0.165
 4691SOL    HW214973   4.054   4.830   0.087
 4692SOL     OW14974   0.465   5.985   3.308
 4692SOL    HW114975   0.551   5.937   3.296
 4692SOL    HW214976   0.469   6.043   3.389
 4693SOL     OW14977   0.849   0.720   3.399
 4693SOL    HW114978   0.750   0.707   3.396
 4693SOL    HW214979   0.872   0.815   3.376
 4694SOL     OW14980   1.314   0.940   5.748
 4694SOL    HW114981   1.301   0.931   5.847
 4694SOL    HW214982   1.226   0.935   5.702
 4695SOL     OW14983   3.190   2.858   2.016
 4695SOL    HW114984   3.120   2.788   2.033
 4695SOL    HW214985   3.216   2.900   2.103
 4696SOL     OW14986   5.994   3.410   0.118
 4696SOL    HW114987   5.930   3.488   0.124
 4696SOL    HW214988   5.942   3.325   0.110
 4697SOL     OW14989   1.309   5.733   6.566
 4697SOL    HW114990   1.351   5.732   6.657
 4697SOL    HW214991   1.243   5.808   6.560
 4698SOL     OW14992   6.349   3.369   2.395
 4698SOL    HW114993   6.311   3.384   2.486
 4698SOL    HW214994   6.446   3.391   2.395
 4699SOL     OW14995   6.637   6.843   3.355
 4699SOL    HW114996   6.674   6.753   3.331
 4699SOL    HW214997   6.633   6.900   3.273
 4700SOL     OW14998   5.750   6.647   0.267
 4700SOL    HW114999   5.826   6.687   0.317
 4700SOL    HW215000   5.750   6.681   0.173
 4701SOL     OW15001   0.787   0.910   0.139
 4701SOL    HW115002   0.790   1.010   0.137
 4701SOL    HW215003   0.692   0.879   0.140
 4702SOL     OW15004   2.996   3.427   0.113
 4702SOL    HW115005   3.081   3.447   0.162
 4702SOL    HW215006   2.952   3.512   0.086
 4703SOL     OW15007   0.847   1.124   1.805
 4703SOL    HW115008   0.766   1.173   1.775
 4703SOL    HW215009   0.835   1.026   1.790
 4704SOL     OW15010   4.509   6.980   0.237
 4704SOL    HW115011   4.454   6.973   0.320
 4704SOL    HW215012   4.606   6.980   0.261
 4705SOL     OW15013   3.183   3.888   4.439
 4705SOL    HW115014   3.150   3.904   4.532
 4705SOL    HW215015   3.235   3.802   4.436
 4706SOL     OW15016   4.912   4.959   0.851
 4706SOL    HW115017   4.947   5.049   0.877
 4706SOL    HW215018   4.871   4.915   0.930
 4707SOL     OW15019   3.523   5.808   1.292
 4707SOL    HW115020   3.529   5.728   1.352
 4707SOL    HW215021   3.438   5.857   1.310
 4708SOL     OW15022   1.874   3.019   2.615
 4708SOL    HW115023   1.844   2.953   2.547
 4708SOL    HW215024   1.816   3.012   2.696
 4709SOL     OW15025   2.999   4.072   0.557
 4709SOL    HW115026   3.082   4.047   0.607
 4709SOL    HW215027   3.021   4.079   0.459
 4710SOL     OW15028   4.981   2.989   1.471
 4710SOL    HW115029   5.057   2.944   1.518
 4710SOL    HW215030   4.909   3.011   1.537
 4711SOL     OW15031   2.667   6.739   3.118
 4711SOL    HW115032   2.596   6.668   3.114
 4711SOL    HW215033   2.757   6.697   3.125
 4712SOL     OW15034   1.629   4.351   6.640
 4712SOL    HW115035   1.573   4.327   6.560
 4712SOL    HW215036   1.601   4.296   6.718
 4713SOL     OW15037   1.482   5.620   0.734
 4713SOL    HW115038   1.501   5.703   0.682
 4713SOL    HW215039   1.568   5.574   0.756
 4714SOL     OW15040   3.476   1.952   0.865
 4714SOL    HW115041   3.480   1.852   0.869
 4714SOL    HW215042   3.539   1.985   0.796
 4715SOL     OW15043   5.138   4.070   4.916
 4715SOL    HW115044   5.076   3.993   4.933
 4715SOL    HW215045   5.228   4.035   4.893
 4716SOL     OW15046   2.332   5.058   0.297
 4716SOL    HW115047   2.256   5.092   0.241
 4716SOL    HW215048   2.392   5.134   0.322
 4717SOL     OW15049   1.980   5.396   3.924
 4717SOL    HW115050   2.033   5.342   3.989
 4717SOL    HW215051   1.963   5.343   3.841
 4718SOL     OW15052   5.556   1.133   6.919
 4718SOL    HW115053   5.535   1.179   6.833
 4718SOL    HW215054   5.556   1.199   6.994
 4719SOL     OW15055   4.811   3.082   1.671
 4719SOL    HW115056   4.726   3.077   1.723
 4719SOL    HW215057   4.826   3.177   1.642
 4720SOL     OW15058   2.883   1.263   3.853
 4720SOL    HW115059   2.922   1.195   3.915
 4720SOL    HW215060   2.947   1.339   3.841
 4721SOL     OW15061   1.269   1.853   0.967
 4721SOL    HW115062   1.359   1.811   0.980
 4721SOL    HW215063   1.214   1.839   1.049
 4722SOL     OW15064   3.067   0.668   2.456
 4722SOL    HW115065   3.050   0.626   2.546
 4722SOL    HW215066   3.140   0.619   2.410
 4723SOL     OW15067   2.965   0.132   5.731
 4723SOL    HW115068   2.939   0.198   5.660
 4723SOL    HW215069   2.911   0.048   5.720
 4724SOL     OW15070   4.273   4.816   1.575
 4724SOL    HW115071   4.242   4.763   1.496
 4724SOL    HW215072   4.217   4.794   1.655
 4725SOL     OW15073   5.845   5.131   3.197
 4725SOL    HW115074   5.895   5.192   3.135
 4725SOL    HW215075   5.747   5.139   3.180
 4726SOL     OW15076   0.317   6.106   5.149
 4726SOL    HW115077   0.354   6.121   5.057
 4726SOL    HW215078   0.392   6.099   5.214
 4727SOL     OW15079   5.939   6.324   0.776
 4727SOL    HW115080   6.017   6.271   0.811
 4727SOL    HW215081   5.959   6.422   0.785
 4728SOL     OW15082   6.944   0.682   6.764
 4728SOL    HW115083   6.914   0.657   6.672
 4728SOL    HW215084   6.864   0.704   6.820
 4729SOL     OW15085   2.879   0.646   0.308
 4729SOL    HW115086   2.826   0.610   0.385
 4729SOL    HW215087   2.849   0.740   0.289
 4730SOL     OW15088   2.071   0.366   5.458
 4730SOL    HW115089   2.064   0.287   5.518
 4730SOL    HW215090   2.110   0.338   5.370
 4731SOL     OW15091   5.246   2.116   6.821
 4731SOL    HW115092   5.267   2.127   6.918
 4731SOL    HW215093   5.163   2.062   6.810
 4732SOL     OW15094   6.860   1.343   0.113
 4732SOL    HW115095   6.924   1.404   0.159
 4732SOL    HW215096   6.908   1.293   0.041
 4733SOL     OW15097   6.821   3.382   3.870
 4733SOL    HW115098   6.843   3.329   3.952
 4733SOL    HW215099   6.835   3.324   3.789
 4734SOL     OW15100   4.958   4.430   5.947
 4734SOL    HW115101   5.011   4.371   5.885
 4734SOL    HW215102   5.018   4.498   5.988
 4735SOL     OW15103   0.254   4.495   3.608
 4735SOL    HW115104   0.333   4.453   3.563
 4735SOL    HW215105   0.270   4.497   3.707
 4736SOL     OW15106   2.252   0.037   1.178
 4736SOL    HW115107   2.225   0.115   1.234
 4736SOL    HW215108   2.197   0.034   1.095
 4737SOL     OW15109   3.459   5.108   1.515
 4737SOL    HW115110   3.424   5.167   1.587
 4737SOL    HW215111   3.383   5.058   1.473
 4738SOL     OW15112   6.909   6.317   2.682
 4738SOL    HW115113   6.844   6.308   2.607
 4738SOL    HW215114   6.860   6.315   2.769
 4739SOL     OW15115   4.103   6.805   1.543
 4739SOL    HW115116   4.010   6.828   1.572
 4739SOL    HW215117   4.147   6.887   1.504
 4740SOL     OW15118   0.516   2.042   3.862
 4740SOL    HW115119   0.601   2.094   3.854
 4740SOL    HW215120   0.451   2.092   3.918
 4741SOL     OW15121   3.935   3.316   1.492
 4741SOL    HW115122   3.873   3.255   1.442
 4741SOL    HW215123   4.010   3.263   1.531
 4742SOL     OW15124   4.235   0.963   0.596
 4742SOL    HW115125   4.318   0.977   0.651
 4742SOL    HW215126   4.154   0.972   0.654
 4743SOL     OW15127   1.491   6.330   0.595
 4743SOL    HW115128   1.458   6.297   0.507
 4743SOL    HW215129   1.584   6.296   0.610
 4744SOL     OW15130   1.735   5.527   1.679
 4744SOL    HW115131   1.729   5.496   1.774
 4744SOL    HW215132   1.677   5.469   1.622
 4745SOL     OW15133   1.897   3.520   0.089
 4745SOL    HW115134   1.936   3.537   0.179
 4745SOL    HW215135   1.942   3.578   0.021
 4746SOL     OW15136   5.020   5.725   3.990
 4746SOL    HW115137   4.952   5.668   4.036
 4746SOL    HW215138   5.009   5.820   4.017
 4747SOL     OW15139   2.925   0.624   6.428
 4747SOL    HW115140   3.020   0.652   6.437
 4747SOL    HW215141   2.911   0.535   6.471
 4748SOL     OW15142   1.754   6.768   1.767
 4748SOL    HW115143   1.785   6.842   1.708
 4748SOL    HW215144   1.813   6.688   1.754
 4749SOL     OW15145   2.265   1.923   0.685
 4749SOL    HW115146   2.337   1.929   0.755
 4749SOL    HW215147   2.200   1.998   0.698
 4750SOL     OW15148   4.514   3.432   5.828
 4750SOL    HW115149   4.462   3.518   5.831
 4750SOL    HW215150   4.533   3.402   5.921
 4751SOL     OW15151   4.944   1.670   3.155
 4751SOL    HW115152   4.950   1.670   3.055
 4751SOL    HW215153   4.950   1.765   3.188
 4752SOL     OW15154   5.768   1.608   6.728
 4752SOL    HW115155   5.771   1.538   6.656
 4752SOL    HW215156   5.786   1.698   6.688
 4753SOL     OW15157   3.233   6.491   4.966
 4753SOL    HW115158   3.254   6.578   4.922
 4753SOL    HW215159   3.305   6.425   4.945
 4754SOL     OW15160   4.689   4.277   6.985
 4754SOL    HW115161   4.749   4.348   6.946
 4754SOL    HW215162   4.739   4.227   0.033
 4755SOL     OW15163   0.600   1.383   0.918
 4755SOL    HW115164   0.522   1.424   0.965
 4755SOL    HW215165   0.625   1.298   0.963
 4756SOL     OW15166   0.226   3.971   5.786
 4756SOL    HW115167   0.176   4.058   5.789
 4756SOL    HW215168   0.323   3.989   5.773
 4757SOL     OW15169   2.307   3.477   0.022
 4757SOL    HW115170   2.230   3.432   6.999
 4757SOL    HW215171   2.369   3.408   0.058
 4758SOL     OW15172   2.603   5.482   3.342
 4758SOL    HW115173   2.654   5.416   3.285
 4758SOL    HW215174   2.505   5.464   3.333
 4759SOL     OW15175   0.435   6.266   1.958
 4759SOL    HW115176   0.517   6.220   1.990
 4759SOL    HW215177   0.370   6.275   2.033
 4760SOL     OW15178   1.679   5.993   0.743
 4760SOL    HW115179   1.612   6.043   0.798
 4760SOL    HW215180   1.635   5.914   0.702
 4761SOL     OW15181   5.061   6.783   1.880
 4761SOL    HW115182   4.971   6.744   1.901
 4761SOL    HW215183   5.127   6.754   1.950
 4762SOL     OW15184   1.613   0.258   3.095
 4762SOL    HW115185   1.557   0.319   3.039
 4762SOL    HW215186   1.698   0.305   3.119
 4763SOL     OW15187   5.560   5.685   1.986
 4763SOL    HW115188   5.570   5.593   2.024
 4763SOL    HW215189   5.536   5.679   1.889
 4764SOL     OW15190   4.799   3.005   0.328
 4764SOL    HW115191   4.764   3.067   0.259
 4764SOL    HW215192   4.883   3.043   0.367
 4765SOL     OW15193   4.248   2.153   6.057
 4765SOL    HW115194   4.250   2.156   6.157
 4765SOL    HW215195   4.156   2.129   6.026
 4766SOL     OW15196   1.175   1.049   4.552
 4766SOL    HW115197   1.098   1.028   4.491
 4766SOL    HW215198   1.140   1.068   4.644
 4767SOL     OW15199   1.850   4.846   3.570
 4767SOL    HW115200   1.896   4.849   3.481
 4767SOL    HW215201   1.910   4.886   3.639
 4768SOL     OW15202   4.839   2.275   6.226
 4768SOL    HW115203   4.797   2.283   6.135
 4768SOL    HW215204   4.853   2.367   6.264
 4769SOL     OW15205   1.552   3.337   0.718
 4769SOL    HW115206   1.578   3.404   0.649
 4769SOL    HW215207   1.487   3.272   0.679
 4770SOL     OW15208   6.834   1.480   3.488
 4770SOL    HW115209   6.916   1.530   3.458
 4770SOL    HW215210   6.818   1.496   3.585
 4771SOL     OW15211   1.959   0.507   3.658
 4771SOL    HW115212   1.942   0.568   3.735
 4771SOL    HW215213   1.894   0.525   3.585
 4772SOL     OW15214   2.727   5.425   3.044
 4772SOL    HW115215   2.703   5.350   3.106
 4772SOL    HW215216   2.819   5.457   3.065
 4773SOL     OW15217   3.102   5.219   4.741
 4773SOL    HW115218   3.133   5.311   4.765
 4773SOL    HW215219   3.105   5.209   4.641
 4774SOL     OW15220   0.922   4.037   0.868
 4774SOL    HW115221   1.007   4.090   0.871
 4774SOL    HW215222   0.938   3.949   0.825
 4775SOL     OW15223   5.723   5.540   5.071
 4775SOL    HW115224   5.761   5.449   5.052
 4775SOL    HW215225   5.779   5.586   5.140
 4776SOL     OW15226   0.321   1.698   4.911
 4776SOL    HW115227   0.304   1.773   4.847
 4776SOL    HW215228   0.233   1.664   4.945
 4777SOL     OW15229   1.661   6.793   3.518
 4777SOL    HW115230   1.646   6.850   3.437
 4777SOL    HW215231   1.600   6.824   3.592
 4778SOL     OW15232   1.708   0.742   6.693
 4778SOL    HW115233   1.627   0.801   6.692
 4778SOL    HW215234   1.710   0.688   6.609
 4779SOL     OW15235   4.901   0.826   4.732
 4779SOL    HW115236   4.854   0.913   4.717
 4779SOL    HW215237   4.839   0.751   4.710
 4780SOL     OW15238   4.906   2.941   4.607
 4780SOL    HW115239   4.864   2.855   4.633
 4780SOL    HW215240   4.902   3.005   4.685
 4781SOL     OW15241   1.045   4.970   1.755
 4781SOL    HW115242   0.959   5.020   1.746
 4781SOL    HW215243   1.049   4.925   1.844
 4782SOL     OW15244   0.210   6.367   4.164
 4782SOL    HW115245   0.308   6.349   4.177
 4782SOL    HW215246   0.174   6.305   4.094
 4783SOL     OW15247   6.892   3.501   6.175
 4783SOL    HW115248   6.830   3.555   6.118
 4783SOL    HW215249   6.974   3.554   6.194
 4784SOL     OW15250   5.361   3.431   0.071
 4784SOL    HW115251   5.421   3.391   0.001
 4784SOL    HW215252   5.297   3.361   0.104
 4785SOL     OW15253   0.669   7.022   3.775
 4785SOL    HW115254   0.716   6.960   3.712
 4785SOL    HW215255   0.737   0.047   3.831
 4786SOL     OW15256   0.831   5.903   0.169
 4786SOL    HW115257   0.788   5.933   0.254
 4786SOL    HW215258   0.775   5.832   0.126
 4787SOL     OW15259   4.989   1.143   4.912
 4787SOL    HW115260   5.015   1.238   4.930
 4787SOL    HW215261   4.943   1.106   4.993
 4788SOL     OW15262   7.002   6.143   0.714
 4788SOL    HW115263   6.936   6.072   0.736
 4788SOL    HW215264   0.005   6.136   0.617
 4789SOL     OW15265   6.220   0.909   2.871
 4789SOL    HW115266   6.278   0.862   2.937
 4789SOL    HW215267   6.137   0.857   2.855
 4790SOL     OW15268   0.019   1.979   4.446
 4790SOL    HW115269   0.027   2.057   4.383
 4790SOL    HW215270   0.108   1.960   4.487
 4791SOL     OW15271   0.634   0.273   0.003
 4791SOL    HW115272   0.704   0.206   6.998
 4791SOL    HW215273   0.571   0.230   0.068
 4792SOL     OW15274   1.378   3.951   2.135
 4792SOL    HW115275   1.318   3.871   2.136
 4792SOL    HW215276   1.442   3.946   2.211
 4793SOL     OW15277   1.508   4.291   5.332
 4793SOL    HW115278   1.438   4.307   5.402
 4793SOL    HW215279   1.545   4.378   5.301
 4794SOL     OW15280   4.824   2.065   5.579
 4794SOL    HW115281   4.812   2.031   5.485
 4794SOL    HW215282   4.810   2.164   5.580
 4795SOL     OW15283   6.571   1.315   6.250
 4795SOL    HW115284   6.658   1.345   6.291
 4795SOL    HW215285   6.496   1.340   6.312
 4796SOL     OW15286   4.681   1.435   5.350
 4796SOL    HW115287   4.676   1.531   5.323
 4796SOL    HW215288   4.588   1.399   5.362
 4797SOL     OW15289   2.175   5.031   6.363
 4797SOL    HW115290   2.119   5.026   6.446
 4797SOL    HW215291   2.270   5.046   6.389
 4798SOL     OW15292   3.350   6.162   0.444
 4798SOL    HW115293   3.346   6.182   0.346
 4798SOL    HW215294   3.419   6.093   0.461
 4799SOL     OW15295   4.158   2.861   0.404
 4799SOL    HW115296   4.079   2.845   0.463
 4799SOL    HW215297   4.198   2.950   0.425
 4800SOL     OW15298   0.891   4.457   0.283
 4800SOL    HW115299   0.959   4.516   0.327
 4800SOL    HW215300   0.829   4.513   0.228
 4801SOL     OW15301   5.208   2.161   3.286
 4801SOL    HW115302   5.247   2.220   3.357
 4801SOL    HW215303   5.186   2.071   3.325
 4802SOL     OW15304   0.188   0.602   4.680
 4802SOL    HW115305   0.221   0.514   4.715
 4802SOL    HW215306   0.232   0.676   4.730
 4803SOL     OW15307   4.816   4.258   5.443
 4803SOL    HW115308   4.747   4.261   5.515
 4803SOL    HW215309   4.869   4.343   5.444
 4804SOL     OW15310   5.552   2.194   0.867
 4804SOL    HW115311   5.497   2.122   0.823
 4804SOL    HW215312   5.584   2.258   0.798
 4805SOL     OW15313   5.726   1.572   0.121
 4805SOL    HW115314   5.721   1.500   0.190
 4805SOL    HW215315   5.702   1.535   0.032
 4806SOL     OW15316   0.979   1.666   2.813
 4806SOL    HW115317   1.018   1.697   2.726
 4806SOL    HW215318   0.879   1.676   2.811
 4807SOL     OW15319   6.501   4.109   6.194
 4807SOL    HW115320   6.472   4.124   6.288
 4807SOL    HW215321   6.426   4.065   6.143
 4808SOL     OW15322   3.789   5.858   2.466
 4808SOL    HW115323   3.800   5.943   2.414
 4808SOL    HW215324   3.695   5.826   2.455
 4809SOL     OW15325   3.012   3.831   1.516
 4809SOL    HW115326   3.071   3.797   1.444
 4809SOL    HW215327   3.013   3.768   1.594
 4810SOL     OW15328   1.866   5.080   4.269
 4810SOL    HW115329   1.864   5.169   4.223
 4810SOL    HW215330   1.779   5.065   4.315
 4811SOL     OW15331   3.571   3.239   4.455
 4811SOL    HW115332   3.562   3.140   4.464
 4811SOL    HW215333   3.597   3.262   4.361
 4812SOL     OW15334   1.577   6.306   2.769
 4812SOL    HW115335   1.675   6.327   2.767
 4812SOL    HW215336   1.529   6.365   2.705
 4813SOL     OW15337   0.869   2.737   5.056
 4813SOL    HW115338   0.895   2.669   4.988
 4813SOL    HW215339   0.820   2.812   5.012
 4814SOL     OW15340   6.416   3.178   0.862
 4814SOL    HW115341   6.413   3.148   0.766
 4814SOL    HW215342   6.372   3.267   0.870
 4815SOL     OW15343   6.230   4.555   2.287
 4815SOL    HW115344   6.239   4.466   2.333
 4815SOL    HW215345   6.162   4.610   2.335
 4816SOL     OW15346   2.969   0.399   2.513
 4816SOL    HW115347   2.950   0.327   2.445
 4816SOL    HW215348   3.063   0.431   2.501
 4817SOL     OW15349   4.340   2.200   1.349
 4817SOL    HW115350   4.379   2.154   1.270
 4817SOL    HW215351   4.269   2.263   1.319
 4818SOL     OW15352   4.219   6.688   4.323
 4818SOL    HW115353   4.283   6.612   4.335
 4818SOL    HW215354   4.128   6.659   4.351
 4819SOL     OW15355   2.842   1.028   0.503
 4819SOL    HW115356   2.933   0.993   0.525
 4819SOL    HW215357   2.804   0.976   0.426
 4820SOL     OW15358   6.486   4.003   1.430
 4820SOL    HW115359   6.393   4.038   1.429
 4820SOL    HW215360   6.542   4.055   1.366
 4821SOL     OW15361   6.821   5.638   1.640
 4821SOL    HW115362   6.884   5.651   1.564
 4821SOL    HW215363   6.829   5.544   1.675
 4822SOL     OW15364   0.888   3.857   1.656
 4822SOL    HW115365   0.930   3.821   1.573
 4822SOL    HW215366   0.817   3.794   1.687
 4823SOL     OW15367   0.707   1.402   3.583
 4823SOL    HW115368   0.710   1.496   3.616
 4823SOL    HW215369   0.653   1.398   3.499
 4824SOL     OW15370   6.054   2.227   2.456
 4824SOL    HW115371   5.973   2.207   2.512
 4824SOL    HW215372   6.032   2.211   2.360
 4825SOL     OW15373   1.211   3.327   3.996
 4825SOL    HW115374   1.286   3.277   3.953
 4825SOL    HW215375   1.190   3.286   4.085
 4826SOL     OW15376   6.923   6.774   0.088
 4826SOL    HW115377   6.956   6.729   0.172
 4826SOL    HW215378   6.980   6.744   0.011
 4827SOL     OW15379   5.100   1.715   6.901
 4827SOL    HW115380   5.098   1.615   6.892
 4827SOL    HW215381   5.016   1.753   6.862
 4828SOL     OW15382   5.067   3.839   6.462
 4828SOL    HW115383   5.059   3.907   6.536
 4828SOL    HW215384   4.986   3.780   6.463
 4829SOL     OW15385   3.718   0.263   5.124
 4829SOL    HW115386   3.766   0.346   5.150
 4829SOL    HW215387   3.784   0.191   5.101
 4830SOL     OW15388   4.740   5.617   4.999
 4830SOL    HW115389   4.714   5.524   5.024
 4830SOL    HW215390   4.657   5.672   4.985
 4831SOL     OW15391   6.237   2.776   6.735
 4831SOL    HW115392   6.208   2.781   6.640
 4831SOL    HW215393   6.195   2.849   6.788
 4832SOL     OW15394   1.944   2.164   6.065
 4832SOL    HW115395   1.973   2.259   6.071
 4832SOL    HW215396   1.847   2.157   6.087
 4833SOL     OW15397   6.019   1.229   3.510
 4833SOL    HW115398   6.095   1.250   3.449
 4833SOL    HW215399   6.022   1.132   3.535
 4834SOL     OW15400   6.164   0.636   3.093
 4834SOL    HW115401   6.232   0.708   3.100
 4834SOL    HW215402   6.191   0.558   3.150
 4835SOL     OW15403   1.755   1.066   5.970
 4835SOL    HW115404   1.809   1.149   5.984
 4835SOL    HW215405   1.661   1.092   5.947
 4836SOL     OW15406   5.772   2.889   2.357
 4836SOL    HW115407   5.725   2.946   2.290
 4836SOL    HW215408   5.789   2.799   2.317
 4837SOL     OW15409   0.652   4.051   0.906
 4837SOL    HW115410   0.596   4.118   0.857
 4837SOL    HW215411   0.742   4.044   0.863
 4838SOL     OW15412   2.875   5.294   2.308
 4838SOL    HW115413   2.954   5.357   2.306
 4838SOL    HW215414   2.813   5.322   2.381
 4839SOL     OW15415   0.529   0.068   6.599
 4839SOL    HW115416   0.572   0.026   6.520
 4839SOL    HW215417   0.570   0.158   6.616
 4840SOL     OW15418   6.373   6.578   6.123
 4840SOL    HW115419   6.426   6.565   6.207
 4840SOL    HW215420   6.413   6.652   6.069
 4841SOL     OW15421   2.006   5.518   1.579
 4841SOL    HW115422   2.064   5.473   1.647
 4841SOL    HW215423   1.911   5.519   1.612
 4842SOL     OW15424   3.269   6.454   1.403
 4842SOL    HW115425   3.318   6.533   1.438
 4842SOL    HW215426   3.334   6.383   1.375
 4843SOL     OW15427   1.419   2.979   6.648
 4843SOL    HW115428   1.429   3.048   6.576
 4843SOL    HW215429   1.324   2.977   6.678
 4844SOL     OW15430   0.365   1.770   5.289
 4844SOL    HW115431   0.394   1.700   5.224
 4844SOL    HW215432   0.446   1.819   5.323
 4845SOL     OW15433   5.919   5.602   3.906
 4845SOL    HW115434   6.013   5.572   3.923
 4845SOL    HW215435   5.909   5.627   3.810
 4846SOL     OW15436   0.277   4.848   6.805
 4846SOL    HW115437   0.187   4.805   6.803
 4846SOL    HW215438   0.270   4.939   6.845
 4847SOL     OW15439   4.848   2.998   4.969
 4847SOL    HW115440   4.859   3.058   5.049
 4847SOL    HW215441   4.869   2.904   4.996
 4848SOL     OW15442   2.467   2.350   1.607
 4848SOL    HW115443   2.564   2.330   1.618
 4848SOL    HW215444   2.423   2.355   1.697
 4849SOL     OW15445   1.671   6.372   5.769
 4849SOL    HW115446   1.609   6.450   5.763
 4849SOL    HW215447   1.642   6.313   5.845
 4850SOL     OW15448   3.934   6.942   3.366
 4850SOL    HW115449   4.015   6.997   3.381
 4850SOL    HW215450   3.852   6.996   3.385
 4851SOL     OW15451   4.695   1.219   5.109
 4851SOL    HW115452   4.760   1.144   5.123
 4851SOL    HW215453   4.703   1.285   5.184
 4852SOL     OW15454   1.700   1.941   1.774
 4852SOL    HW115455   1.742   2.015   1.827
 4852SOL    HW215456   1.670   1.868   1.836
 4853SOL     OW15457   3.479   1.994   1.530
 4853SOL    HW115458   3.393   2.016   1.577
 4853SOL    HW215459   3.550   2.057   1.559
 4854SOL     OW15460   3.489   0.274   6.905
 4854SOL    HW115461   3.540   0.255   6.821
 4854SOL    HW215462   3.399   0.231   6.901
 4855SOL     OW15463   6.605   3.004   2.472
 4855SOL    HW115464   6.535   2.972   2.408
 4855SOL    HW215465   6.566   3.013   2.564
 4856SOL     OW15466   1.284   4.229   2.774
 4856SOL    HW115467   1.331   4.141   2.767
 4856SOL    HW215468   1.302   4.269   2.864
 4857SOL     OW15469   0.143   1.299   5.844
 4857SOL    HW115470   0.155   1.326   5.748
 4857SOL    HW215471   0.047   1.282   5.862
 4858SOL     OW15472   1.541   0.692   3.842
 4858SOL    HW115473   1.523   0.784   3.878
 4858SOL    HW215474   1.537   0.626   3.917
 4859SOL     OW15475   3.655   5.633   6.421
 4859SOL    HW115476   3.733   5.686   6.387
 4859SOL    HW215477   3.639   5.555   6.362
 4860SOL     OW15478   3.691   4.324   0.540
 4860SOL    HW115479   3.658   4.402   0.594
 4860SOL    HW215480   3.784   4.300   0.569
 4861SOL     OW15481   4.540   3.899   6.265
 4861SOL    HW115482   4.512   3.973   6.326
 4861SOL    HW215483   4.489   3.816   6.289
 4862SOL     OW15484   0.437   6.832   0.990
 4862SOL    HW115485   0.362   6.886   1.028
 4862SOL    HW215486   0.412   6.735   0.989
 4863SOL     OW15487   4.983   4.564   6.587
 4863SOL    HW115488   5.057   4.497   6.581
 4863SOL    HW215489   5.014   4.643   6.639
 4864SOL     OW15490   3.456   1.439   4.139
 4864SOL    HW115491   3.534   1.439   4.076
 4864SOL    HW215492   3.371   1.435   4.087
 4865SOL     OW15493   1.344   0.210   5.237
 4865SOL    HW115494   1.264   0.184   5.292
 4865SOL    HW215495   1.324   0.294   5.188
 4866SOL     OW15496   6.428   4.132   6.497
 4866SOL    HW115497   6.505   4.099   6.552
 4866SOL    HW215498   6.346   4.079   6.520
 4867SOL     OW15499   4.770   1.024   3.084
 4867SOL    HW115500   4.782   0.931   3.119
 4867SOL    HW215501   4.781   1.024   2.985
 4868SOL     OW15502   6.663   4.626   0.353
 4868SOL    HW115503   6.743   4.682   0.377
 4868SOL    HW215504   6.689   4.530   0.352
 4869SOL     OW15505   0.783   1.478   0.763
 4869SOL    HW115506   0.709   1.451   0.825
 4869SOL    HW215507   0.870   1.475   0.811
 4870SOL     OW15508   0.327   6.954   1.411
 4870SOL    HW115509   0.381   6.887   1.463
 4870SOL    HW215510   0.322   0.017   1.462
 4871SOL     OW15511   0.988   1.340   3.421
 4871SOL    HW115512   1.057   1.331   3.349
 4871SOL    HW215513   1.025   1.396   3.495
 4872SOL     OW15514   6.059   6.533   2.590
 4872SOL    HW115515   6.013   6.594   2.525
 4872SOL    HW215516   5.993   6.472   2.632
 4873SOL     OW15517   6.562   5.456   4.793
 4873SOL    HW115518   6.531   5.540   4.836
 4873SOL    HW215519   6.554   5.380   4.858
 4874SOL     OW15520   4.947   2.927   3.189
 4874SOL    HW115521   4.919   3.019   3.215
 4874SOL    HW215522   4.914   2.862   3.257
 4875SOL     OW15523   5.806   6.327   5.164
 4875SOL    HW115524   5.865   6.288   5.234
 4875SOL    HW215525   5.810   6.426   5.168
 4876SOL     OW15526   0.464   1.405   2.070
 4876SOL    HW115527   0.412   1.339   2.124
 4876SOL    HW215528   0.463   1.378   1.974
 4877SOL     OW15529   6.413   1.412   6.466
 4877SOL    HW115530   6.425   1.386   6.562
 4877SOL    HW215531   6.421   1.512   6.458
 4878SOL     OW15532   6.612   3.354   2.446
 4878SOL    HW115533   6.633   3.411   2.526
 4878SOL    HW215534   6.662   3.389   2.367
 4879SOL     OW15535   5.415   0.930   3.029
 4879SOL    HW115536   5.414   0.942   2.930
 4879SOL    HW215537   5.498   0.882   3.056
 4880SOL     OW15538   0.156   3.013   6.586
 4880SOL    HW115539   0.069   2.964   6.595
 4880SOL    HW215540   0.190   3.003   6.492
 4881SOL     OW15541   1.691   2.971   1.688
 4881SOL    HW115542   1.790   2.955   1.687
 4881SOL    HW215543   1.645   2.894   1.732
 4882SOL     OW15544   4.818   2.395   4.089
 4882SOL    HW115545   4.866   2.404   4.176
 4882SOL    HW215546   4.744   2.328   4.098
 4883SOL     OW15547   6.293   4.218   0.683
 4883SOL    HW115548   6.238   4.246   0.604
 4883SOL    HW215549   6.255   4.259   0.766
 4884SOL     OW15550   1.513   1.227   1.518
 4884SOL    HW115551   1.478   1.135   1.500
 4884SOL    HW215552   1.539   1.271   1.432
 4885SOL     OW15553   1.322   4.484   6.806
 4885SOL    HW115554   1.418   4.499   6.827
 4885SOL    HW215555   1.265   4.551   6.854
 4886SOL     OW15556   2.795   0.745   1.988
 4886SOL    HW115557   2.753   0.657   1.968
 4886SOL    HW215558   2.733   0.818   1.960
 4887SOL     OW15559   5.002   6.227   0.322
 4887SOL    HW115560   4.902   6.218   0.319
 4887SOL    HW215561   5.042   6.139   0.344
 4888SOL     OW15562   4.391   0.482   2.887
 4888SOL    HW115563   4.409   0.454   2.981
 4888SOL    HW215564   4.413   0.579   2.876
 4889SOL     OW15565   6.540   3.311   3.946
 4889SOL    HW115566   6.547   3.222   3.991
 4889SOL    HW215567   6.632   3.345   3.926
 4890SOL     OW15568   6.568   1.666   4.848
 4890SOL    HW115569   6.518   1.718   4.917
 4890SOL    HW215570   6.540   1.698   4.757
 4891SOL     OW15571   2.812   5.466   0.223
 4891SOL    HW115572   2.744   5.465   0.150
 4891SOL    HW215573   2.805   5.382   0.277
 4892SOL     OW15574   5.132   5.203   2.867
 4892SOL    HW115575   5.144   5.139   2.943
 4892SOL    HW215576   5.204   5.187   2.799
 4893SOL     OW15577   1.079   3.201   1.083
 4893SOL    HW115578   1.062   3.279   1.143
 4893SOL    HW215579   1.174   3.172   1.092
 4894SOL     OW15580   4.797   6.486   1.724
 4894SOL    HW115581   4.837   6.551   1.660
 4894SOL    HW215582   4.709   6.521   1.756
 4895SOL     OW15583   0.219   4.530   5.744
 4895SOL    HW115584   0.207   4.620   5.702
 4895SOL    HW215585   0.174   4.528   5.833
 4896SOL     OW15586   2.947   5.061   4.887
 4896SOL    HW115587   2.861   5.107   4.905
 4896SOL    HW215588   3.004   5.119   4.829
 4897SOL     OW15589   1.786   0.732   4.715
 4897SOL    HW115590   1.693   0.765   4.731
 4897SOL    HW215591   1.798   0.709   4.619
 4898SOL     OW15592   4.991   1.921   3.929
 4898SOL    HW115593   5.006   1.826   3.954
 4898SOL    HW215594   5.063   1.978   3.969
 4899SOL     OW15595   6.227   6.663   1.902
 4899SOL    HW115596   6.179   6.735   1.851
 4899SOL    HW215597   6.259   6.700   1.989
 4900SOL     OW15598   3.796   6.102   6.192
 4900SOL    HW115599   3.838   6.177   6.141
 4900SOL    HW215600   3.864   6.060   6.252
 4901SOL     OW15601   1.252   0.680   6.615
 4901SOL    HW115602   1.300   0.592   6.621
 4901SOL    HW215603   1.167   0.668   6.563
 4902SOL     OW15604   2.804   6.960   5.494
 4902SOL    HW115605   2.887   6.986   5.445
 4902SOL    HW215606   2.735   6.926   5.430
 4903SOL     OW15607   5.460   3.451   3.077
 4903SOL    HW115608   5.424   3.456   2.983
 4903SOL    HW215609   5.416   3.523   3.132
 4904SOL     OW15610   1.664   0.560   1.417
 4904SOL    HW115611   1.575   0.573   1.460
 4904SOL    HW215612   1.661   0.480   1.357
 4905SOL     OW15613   2.337   0.193   3.131
 4905SOL    HW115614   2.390   0.124   3.179
 4905SOL    HW215615   2.318   0.270   3.193
 4906SOL     OW15616   5.110   3.727   5.071
 4906SOL    HW115617   5.120   3.627   5.068
 4906SOL    HW215618   5.062   3.758   4.989
 4907SOL     OW15619   4.111   2.550   0.043
 4907SOL    HW115620   4.093   2.613   6.991
 4907SOL    HW215621   4.182   2.589   0.102
 4908SOL     OW15622   3.655   6.893   6.748
 4908SOL    HW115623   3.636   6.987   6.777
 4908SOL    HW215624   3.740   6.861   6.789
 4909SOL     OW15625   5.217   5.118   4.144
 4909SOL    HW115626   5.132   5.067   4.129
 4909SOL    HW215627   5.270   5.120   4.059
 4910SOL     OW15628   4.171   2.393   6.513
 4910SOL    HW115629   4.266   2.419   6.495
 4910SOL    HW215630   4.111   2.441   6.449
 4911SOL     OW15631   6.708   3.989   2.579
 4911SOL    HW115632   6.653   3.909   2.602
 4911SOL    HW215633   6.747   4.027   2.663
 4912SOL     OW15634   5.846   2.545   4.464
 4912SOL    HW115635   5.801   2.625   4.503
 4912SOL    HW215636   5.895   2.571   4.381
 4913SOL     OW15637   0.466   4.141   4.716
 4913SOL    HW115638   0.467   4.090   4.802
 4913SOL    HW215639   0.384   4.117   4.664
 4914SOL     OW15640   3.956   0.237   4.241
 4914SOL    HW115641   3.969   0.141   4.216
 4914SOL    HW215642   4.045   0.278   4.262
 4915SOL     OW15643   3.803   5.530   5.804
 4915SOL    HW115644   3.745   5.589   5.748
 4915SOL    HW215645   3.753   5.500   5.885
 4916SOL     OW15646   5.214   2.223   3.733
 4916SOL    HW115647   5.298   2.170   3.728
 4916SOL    HW215648   5.185   2.230   3.828
 4917SOL     OW15649   3.957   6.803   7.005
 4917SOL    HW115650   3.886   6.874   7.000
 4917SOL    HW215651   4.029   6.833   0.044
 4918SOL     OW15652   5.819   5.135   3.795
 4918SOL    HW115653   5.726   5.115   3.825
 4918SOL    HW215654   5.817   5.200   3.718
 4919SOL     OW15655   3.249   3.621   1.709
 4919SOL    HW115656   3.306   3.542   1.733
 4919SOL    HW215657   3.298   3.679   1.645
 4920SOL     OW15658   5.816   1.578   6.294
 4920SOL    HW115659   5.782   1.621   6.210
 4920SOL    HW215660   5.868   1.646   6.346
 4921SOL     OW15661   0.063   6.798   1.636
 4921SOL    HW115662   0.137   6.732   1.623
 4921SOL    HW215663   0.018   6.815   1.549
 4922SOL     OW15664   3.472   1.580   6.033
 4922SOL    HW115665   3.566   1.608   6.053
 4922SOL    HW215666   3.423   1.564   6.118
 4923SOL     OW15667   3.625   1.766   1.809
 4923SOL    HW115668   3.611   1.721   1.897
 4923SOL    HW215669   3.684   1.845   1.820
 4924SOL     OW15670   2.334   0.533   5.176
 4924SOL    HW115671   2.419   0.540   5.124
 4924SOL    HW215672   2.353   0.500   5.268
 4925SOL     OW15673   5.011   5.491   3.559
 4925SOL    HW115674   4.981   5.485   3.464
 4925SOL    HW215675   5.087   5.556   3.566
 4926SOL     OW15676   5.674   2.849   1.787
 4926SOL    HW115677   5.646   2.916   1.718
 4926SOL    HW215678   5.594   2.814   1.835
 4927SOL     OW15679   2.904   1.522   0.107
 4927SOL    HW115680   2.825   1.464   0.127
 4927SOL    HW215681   2.873   1.612   0.079
 4928SOL     OW15682   0.195   2.315   0.262
 4928SOL    HW115683   0.262   2.332   0.190
 4928SOL    HW215684   0.193   2.217   0.283
 4929SOL     OW15685   0.048   6.990   5.010
 4929SOL    HW115686   0.117   6.934   4.965
 4929SOL    HW215687   0.025   0.046   4.953
 4930SOL     OW15688   5.000   5.495   2.677
 4930SOL    HW115689   5.044   5.430   2.615
 4930SOL    HW215690   4.903   5.471   2.687
 4931SOL     OW15691   6.757   0.135   1.049
 4931SOL    HW115692   6.833   0.196   1.026
 4931SOL    HW215693   6.756   0.117   1.147
 4932SOL     OW15694   3.381   3.276   2.391
 4932SOL    HW115695   3.343   3.242   2.476
 4932SOL    HW215696   3.471   3.235   2.376
 4933SOL     OW15697   0.849   0.389   5.567
 4933SOL    HW115698   0.778   0.322   5.591
 4933SOL    HW215699   0.806   0.474   5.537
 4934SOL     OW15700   3.536   6.756   2.420
 4934SOL    HW115701   3.623   6.709   2.400
 4934SOL    HW215702   3.515   6.820   2.346
 4935SOL     OW15703   0.181   1.042   5.296
 4935SOL    HW115704   0.113   0.969   5.303
 4935SOL    HW215705   0.177   1.082   5.204
 4936SOL     OW15706   4.870   2.002   0.891
 4936SOL    HW115707   4.924   1.990   0.807
 4936SOL    HW215708   4.906   2.080   0.942
 4937SOL     OW15709   4.522   2.849   5.213
 4937SOL    HW115710   4.504   2.860   5.115
 4937SOL    HW215711   4.443   2.881   5.265
 4938SOL     OW15712   3.795   4.387   6.356
 4938SOL    HW115713   3.758   4.342   6.275
 4938SOL    HW215714   3.748   4.474   6.370
 4939SOL     OW15715   4.495   4.297   6.069
 4939SOL    HW115716   4.476   4.209   6.025
 4939SOL    HW215717   4.593   4.307   6.083
 4940SOL     OW15718   2.318   5.967   3.800
 4940SOL    HW115719   2.249   5.895   3.802
 4940SOL    HW215720   2.272   6.056   3.793
 4941SOL     OW15721   5.726   0.309   0.658
 4941SOL    HW115722   5.645   0.344   0.707
 4941SOL    HW215723   5.720   0.333   0.562
 4942SOL     OW15724   4.751   2.965   6.172
 4942SOL    HW115725   4.742   3.000   6.266
 4942SOL    HW215726   4.676   2.902   6.152
 4943SOL     OW15727   5.849   2.907   1.470
 4943SOL    HW115728   5.779   2.841   1.445
 4943SOL    HW215729   5.826   2.948   1.559
 4944SOL     OW15730   2.159   3.938   1.979
 4944SOL    HW115731   2.174   3.907   1.885
 4944SOL    HW215732   2.231   3.900   2.038
 4945SOL     OW15733   6.967   6.041   4.532
 4945SOL    HW115734   0.022   5.987   4.501
 4945SOL    HW215735   6.943   6.108   4.462
 4946SOL     OW15736   0.190   4.048   1.997
 4946SOL    HW115737   0.107   4.035   1.943
 4946SOL    HW215738   0.270   4.036   1.938
 4947SOL     OW15739   6.596   0.481   0.815
 4947SOL    HW115740   6.550   0.426   0.885
 4947SOL    HW215741   6.558   0.574   0.816
 4948SOL     OW15742   2.508   1.100   2.398
 4948SOL    HW115743   2.506   1.196   2.371
 4948SOL    HW215744   2.450   1.047   2.336
 4949SOL     OW15745   5.373   2.556   4.807
 4949SOL    HW115746   5.371   2.655   4.823
 4949SOL    HW215747   5.464   2.521   4.828
 4950SOL     OW15748   3.638   4.962   4.978
 4950SOL    HW115749   3.546   4.997   4.997
 4950SOL    HW215750   3.697   4.976   5.057
 4951SOL     OW15751   4.388   1.786   4.045
 4951SOL    HW115752   4.465   1.768   3.983
 4951SOL    HW215753   4.303   1.787   3.993
 4952SOL     OW15754   6.916   4.564   4.430
 4952SOL    HW115755   6.851   4.493   4.404
 4952SOL    HW215756   6.913   4.576   4.530
 4953SOL     OW15757   1.642   4.913   2.317
 4953SOL    HW115758   1.656   4.928   2.219
 4953SOL    HW215759   1.600   4.994   2.357
 4954SOL     OW15760   5.822   6.466   0.484
 4954SOL    HW115761   5.826   6.369   0.505
 4954SOL    HW215762   5.818   6.479   0.384
 4955SOL     OW15763   1.547   1.103   1.064
 4955SOL    HW115764   1.602   1.073   1.142
 4955SOL    HW215765   1.527   1.024   1.005
 4956SOL     OW15766   6.208   6.617   3.938
 4956SOL    HW115767   6.120   6.659   3.914
 4956SOL    HW215768   6.204   6.584   4.032
 4957SOL     OW15769   2.004   5.935   3.505
 4957SOL    HW115770   2.088   5.981   3.536
 4957SOL    HW215771   1.950   5.999   3.451
 4958SOL     OW15772   0.034   6.688   6.905
 4958SOL    HW115773   6.992   6.619   6.873
 4958SOL    HW215774   0.127   6.657   6.887
 4959SOL     OW15775   0.616   1.777   6.856
 4959SOL    HW115776   0.530   1.771   6.805
 4959SOL    HW215777   0.678   1.705   6.826
 4960SOL     OW15778   4.088   6.783   5.572
 4960SOL    HW115779   4.111   6.842   5.650
 4960SOL    HW215780   3.997   6.745   5.584
 4961SOL     OW15781   4.522   1.079   5.592
 4961SOL    HW115782   4.477   1.017   5.528
 4961SOL    HW215783   4.479   1.072   5.682
 4962SOL     OW15784   6.672   2.474   2.087
 4962SOL    HW115785   6.682   2.569   2.057
 4962SOL    HW215786   6.685   2.413   2.009
 4963SOL     OW15787   7.012   4.857   1.052
 4963SOL    HW115788   6.935   4.913   1.082
 4963SOL    HW215789   0.056   4.850   1.126
 4964SOL     OW15790   3.576   6.599   3.154
 4964SOL    HW115791   3.672   6.587   3.179
 4964SOL    HW215792   3.553   6.697   3.159
 4965SOL     OW15793   0.002   6.231   4.810
 4965SOL    HW115794   6.930   6.219   4.781
 4965SOL    HW215795   0.034   6.148   4.855
 4966SOL     OW15796   4.190   5.093   4.505
 4966SOL    HW115797   4.122   5.022   4.487
 4966SOL    HW215798   4.253   5.101   4.428
 4967SOL     OW15799   6.150   2.242   6.390
 4967SOL    HW115800   6.191   2.151   6.390
 4967SOL    HW215801   6.184   2.294   6.312
 4968SOL     OW15802   5.512   4.249   0.178
 4968SOL    HW115803   5.531   4.160   0.136
 4968SOL    HW215804   5.485   4.314   0.107
 4969SOL     OW15805   1.158   1.820   1.220
 4969SOL    HW115806   1.250   1.812   1.259
 4969SOL    HW215807   1.107   1.891   1.269
 4970SOL     OW15808   1.803   2.527   5.819
 4970SOL    HW115809   1.835   2.618   5.844
 4970SOL    HW215810   1.877   2.461   5.831
 4971SOL     OW15811   6.947   5.127   4.241
 4971SOL    HW115812   6.874   5.194   4.255
 4971SOL    HW215813   7.018   5.140   4.311
 4972SOL     OW15814   2.216   2.352   5.203
 4972SOL    HW115815   2.153   2.282   5.239
 4972SOL    HW215816   2.188   2.442   5.237
 4973SOL     OW15817   5.499   5.441   2.902
 4973SOL    HW115818   5.589   5.471   2.932
 4973SOL    HW215819   5.429   5.503   2.936
 4974SOL     OW15820   4.283   6.533   6.861
 4974SOL    HW115821   4.209   6.595   6.885
 4974SOL    HW215822   4.264   6.491   6.772
 4975SOL     OW15823   4.230   6.056   0.246
 4975SOL    HW115824   4.141   6.038   0.205
 4975SOL    HW215825   4.302   6.040   0.178
 4976SOL     OW15826   2.809   0.725   4.097
 4976SOL    HW115827   2.874   0.796   4.125
 4976SOL    HW215828   2.847   0.673   4.021
 4977SOL     OW15829   3.100   2.805   0.362
 4977SOL    HW115830   3.122   2.817   0.265
 4977SOL    HW215831   3.125   2.712   0.390
 4978SOL     OW15832   5.926   4.088   6.463
 4978SOL    HW115833   6.009   4.034   6.448
 4978SOL    HW215834   5.915   4.106   6.561
 4979SOL     OW15835   2.078   1.653   4.302
 4979SOL    HW115836   2.155   1.594   4.278
 4979SOL    HW215837   2.030   1.681   4.219
 4980SOL     OW15838   2.364   4.661   2.994
 4980SOL    HW115839   2.318   4.596   2.933
 4980SOL    HW215840   2.462   4.656   2.979
 4981SOL     OW15841   4.958   6.256   5.536
 4981SOL    HW115842   5.016   6.195   5.482
 4981SOL    HW215843   4.997   6.269   5.627
 4982SOL     OW15844   2.913   2.147   6.923
 4982SOL    HW115845   2.928   2.166   7.020
 4982SOL    HW215846   2.981   2.079   6.892
 4983SOL     OW15847   6.552   3.022   4.760
 4983SOL    HW115848   6.617   3.029   4.684
 4983SOL    HW215849   6.483   2.953   4.738
 4984SOL     OW15850   5.202   3.831   3.055
 4984SOL    HW115851   5.144   3.913   3.060
 4984SOL    HW215852   5.242   3.825   2.963
 4985SOL     OW15853   5.344   4.520   2.033
 4985SOL    HW115854   5.360   4.434   2.081
 4985SOL    HW215855   5.277   4.505   1.960
 4986SOL     OW15856   4.644   4.477   3.206
 4986SOL    HW115857   4.697   4.556   3.237
 4986SOL    HW215858   4.564   4.507   3.155
 4987SOL     OW15859   0.666   3.410   0.650
 4987SOL    HW115860   0.762   3.436   0.661
 4987SOL    HW215861   0.650   3.382   0.555
 4988SOL     OW15862   2.074   2.153   5.307
 4988SOL    HW115863   2.137   2.126   5.380
 4988SOL    HW215864   2.009   2.079   5.291
 4989SOL     OW15865   0.084   1.169   0.486
 4989SOL    HW115866   0.020   1.109   0.439
 4989SOL    HW215867   0.131   1.118   0.558
 4990SOL     OW15868   1.455   2.002   6.086
 4990SOL    HW115869   1.482   1.906   6.093
 4990SOL    HW215870   1.529   2.060   6.120
 4991SOL     OW15871   2.601   1.841   4.997
 4991SOL    HW115872   2.663   1.889   4.936
 4991SOL    HW215873   2.529   1.903   5.028
 4992SOL     OW15874   4.496   0.019   4.474
 4992SOL    HW115875   4.557   0.049   4.547
 4992SOL    HW215876   4.500   6.943   4.465
 4993SOL     OW15877   1.718   6.355   4.012
 4993SOL    HW115878   1.628   6.334   4.049
 4993SOL    HW215879   1.742   6.289   3.941
 4994SOL     OW15880   0.284   6.459   2.395
 4994SOL    HW115881   0.370   6.503   2.419
 4994SOL    HW215882   0.212   6.527   2.389
 4995SOL     OW15883   5.779   2.574   5.640
 4995SOL    HW115884   5.691   2.578   5.688
 4995SOL    HW215885   5.770   2.617   5.550
 4996SOL     OW15886   0.497   1.719   3.911
 4996SOL    HW115887   0.554   1.800   3.896
 4996SOL    HW215888   0.406   1.735   3.872
 4997SOL     OW15889   0.385   2.432   3.815
 4997SOL    HW115890   0.427   2.400   3.899
 4997SOL    HW215891   0.293   2.467   3.835
 4998SOL     OW15892   0.829   5.654   5.434
 4998SOL    HW115893   0.885   5.572   5.441
 4998SOL    HW215894   0.733   5.629   5.425
 4999SOL     OW15895   6.176   4.638   1.006
 4999SOL    HW115896   6.120   4.686   1.074
 4999SOL    HW215897   6.212   4.704   0.940
 5000SOL     OW15898   0.204   5.298   4.321
 5000SOL    HW115899   0.144   5.242   4.379
 5000SOL    HW215900   0.271   5.239   4.276
 5001SOL     OW15901   4.890   4.781   5.589
 5001SOL    HW115902   4.899   4.705   5.525
 5001SOL    HW215903   4.929   4.864   5.548
 5002SOL     OW15904   2.075   2.558   1.449
 5002SOL    HW115905   2.004   2.551   1.519
 5002SOL    HW215906   2.045   2.621   1.377
 5003SOL     OW15907   6.642   4.884   4.217
 5003SOL    HW115908   6.641   4.973   4.263
 5003SOL    HW215909   6.652   4.898   4.118
 5004SOL     OW15910   2.300   4.456   6.029
 5004SOL    HW115911   2.354   4.381   6.068
 5004SOL    HW215912   2.309   4.537   6.086
 5005SOL     OW15913   4.551   1.826   0.348
 5005SOL    HW115914   4.461   1.795   0.320
 5005SOL    HW215915   4.597   1.753   0.399
 5006SOL     OW15916   5.457   4.639   2.260
 5006SOL    HW115917   5.414   4.596   2.181
 5006SOL    HW215918   5.533   4.582   2.291
 5007SOL     OW15919   4.092   1.329   5.661
 5007SOL    HW115920   4.131   1.244   5.625
 5007SOL    HW215921   4.003   1.310   5.703
 5008SOL     OW15922   6.501   0.483   3.447
 5008SOL    HW115923   6.513   0.463   3.544
 5008SOL    HW215924   6.571   0.548   3.418
 5009SOL     OW15925   1.978   5.600   1.934
 5009SOL    HW115926   1.914   5.568   2.005
 5009SOL    HW215927   1.959   5.696   1.913
 5010SOL     OW15928   3.583   3.227   5.675
 5010SOL    HW115929   3.548   3.134   5.689
 5010SOL    HW215930   3.630   3.258   5.758
 5011SOL     OW15931   1.316   2.654   3.880
 5011SOL    HW115932   1.219   2.665   3.903
 5011SOL    HW215933   1.325   2.613   3.790
 5012SOL     OW15934   5.825   2.995   6.797
 5012SOL    HW115935   5.765   2.949   6.731
 5012SOL    HW215936   5.827   3.093   6.777
 5013SOL     OW15937   4.771   2.338   5.618
 5013SOL    HW115938   4.738   2.344   5.712
 5013SOL    HW215939   4.717   2.398   5.560
 5014SOL     OW15940   7.011   5.410   6.881
 5014SOL    HW115941   6.931   5.464   6.854
 5014SOL    HW215942   0.069   5.448   6.837
 5015SOL     OW15943   5.469   2.132   3.706
 5015SOL    HW115944   5.551   2.107   3.654
 5015SOL    HW215945   5.473   2.092   3.797
 5016SOL     OW15946   2.390   6.290   2.404
 5016SOL    HW115947   2.340   6.364   2.359
 5016SOL    HW215948   2.325   6.232   2.454
 5017SOL     OW15949   1.307   2.155   2.091
 5017SOL    HW115950   1.217   2.110   2.085
 5017SOL    HW215951   1.315   2.198   2.181
 5018SOL     OW15952   6.898   4.674   3.839
 5018SOL    HW115953   6.880   4.769   3.811
 5018SOL    HW215954   6.816   4.636   3.881
 5019SOL     OW15955   2.212   5.198   5.448
 5019SOL    HW115956   2.119   5.193   5.410
 5019SOL    HW215957   2.272   5.242   5.382
 5020SOL     OW15958   4.227   5.444   0.032
 5020SOL    HW115959   4.271   5.372   7.001
 5020SOL    HW215960   4.133   5.458   7.023
 5021SOL     OW15961   2.068   4.416   5.740
 5021SOL    HW115962   2.080   4.350   5.814
 5021SOL    HW215963   2.157   4.453   5.714
 5022SOL     OW15964   2.449   3.482   0.826
 5022SOL    HW115965   2.353   3.477   0.853
 5022SOL    HW215966   2.456   3.469   0.727
 5023SOL     OW15967   0.321   3.062   4.487
 5023SOL    HW115968   0.250   3.010   4.535
 5023SOL    HW215969   0.380   2.999   4.436
 5024SOL     OW15970   4.616   3.462   5.532
 5024SOL    HW115971   4.664   3.375   5.517
 5024SOL    HW215972   4.569   3.459   5.620
 5025SOL     OW15973   6.233   0.845   4.218
 5025SOL    HW115974   6.248   0.930   4.268
 5025SOL    HW215975   6.158   0.794   4.261
 5026SOL     OW15976   0.665   6.329   3.296
 5026SOL    HW115977   0.690   6.248   3.244
 5026SOL    HW215978   0.741   6.355   3.356
 5027SOL     OW15979   0.690   6.192   3.727
 5027SOL    HW115980   0.687   6.291   3.709
 5027SOL    HW215981   0.645   6.173   3.815
 5028SOL     OW15982   0.664   6.992   2.675
 5028SOL    HW115983   0.747   6.940   2.695
 5028SOL    HW215984   0.690   0.057   2.635
 5029SOL     OW15985   6.682   0.695   3.793
 5029SOL    HW115986   6.625   0.761   3.744
 5029SOL    HW215987   6.775   0.730   3.800
 5030SOL     OW15988   1.726   5.745   6.813
 5030SOL    HW115989   1.722   5.796   6.900
 5030SOL    HW215990   1.766   5.804   6.743
 5031SOL     OW15991   5.500   0.752   6.707
 5031SOL    HW115992   5.585   0.757   6.654
 5031SOL    HW215993   5.426   0.795   6.656
 5032SOL     OW15994   1.719   5.785   2.237
 5032SOL    HW115995   1.717   5.698   2.187
 5032SOL    HW215996   1.636   5.837   2.217
 5033SOL     OW15997   0.732   4.174   5.116
 5033SOL    HW115998   0.798   4.104   5.143
 5033SOL    HW215999   0.726   4.178   5.016
 5034SOL     OW16000   6.387   3.873   6.051
 5034SOL    HW116001   6.291   3.851   6.034
 5034SOL    HW216002   6.427   3.918   5.971
 5035SOL     OW16003   6.807   4.440   1.333
 5035SOL    HW116004   6.810   4.435   1.233
 5035SOL    HW216005   6.898   4.461   1.369
 5036SOL     OW16006   1.576   0.800   2.411
 5036SOL    HW116007   1.634   0.744   2.353
 5036SOL    HW216008   1.599   0.897   2.400
 5037SOL     OW16009   4.757   2.745   2.783
 5037SOL    HW116010   4.750   2.760   2.684
 5037SOL    HW216011   4.822   2.809   2.823
 5038SOL     OW16012   2.895   5.576   5.535
 5038SOL    HW116013   2.862   5.524   5.614
 5038SOL    HW216014   2.990   5.552   5.517
 5039SOL     OW16015   1.673   2.122   2.658
 5039SOL    HW116016   1.671   2.184   2.737
 5039SOL    HW216017   1.750   2.147   2.599
 5040SOL     OW16018   3.161   3.381   5.888
 5040SOL    HW116019   3.073   3.371   5.934
 5040SOL    HW216020   3.163   3.323   5.807
 5041SOL     OW16021   0.239   5.406   0.834
 5041SOL    HW116022   0.211   5.340   0.903
 5041SOL    HW216023   0.331   5.440   0.855
 5042SOL     OW16024   5.653   1.477   5.869
 5042SOL    HW116025   5.567   1.437   5.839
 5042SOL    HW216026   5.708   1.407   5.916
 5043SOL     OW16027   4.972   6.463   3.981
 5043SOL    HW116028   4.892   6.496   4.032
 5043SOL    HW216029   5.032   6.540   3.960
 5044SOL     OW16030   5.952   4.863   2.007
 5044SOL    HW116031   5.913   4.781   1.964
 5044SOL    HW216032   5.983   4.840   2.100
 5045SOL     OW16033   5.848   3.534   5.053
 5045SOL    HW116034   5.933   3.483   5.040
 5045SOL    HW216035   5.804   3.549   4.964
 5046SOL     OW16036   3.696   3.226   5.933
 5046SOL    HW116037   3.651   3.152   5.982
 5046SOL    HW216038   3.795   3.220   5.946
 5047SOL     OW16039   0.474   1.679   2.154
 5047SOL    HW116040   0.476   1.666   2.253
 5047SOL    HW216041   0.481   1.590   2.108
 5048SOL     OW16042   5.835   3.523   1.450
 5048SOL    HW116043   5.831   3.561   1.542
 5048SOL    HW216044   5.873   3.592   1.388
 5049SOL     OW16045   0.914   1.847   1.509
 5049SOL    HW116046   0.986   1.907   1.473
 5049SOL    HW216047   0.953   1.786   1.578
 5050SOL     OW16048   2.067   4.092   0.347
 5050SOL    HW116049   2.085   3.993   0.348
 5050SOL    HW216050   2.008   4.114   0.269
 5051SOL     OW16051   2.494   3.396   6.506
 5051SOL    HW116052   2.459   3.303   6.524
 5051SOL    HW216053   2.424   3.449   6.458
 5052SOL     OW16054   5.955   3.129   0.440
 5052SOL    HW116055   5.877   3.176   0.398
 5052SOL    HW216056   5.944   3.030   0.430
 5053SOL     OW16057   1.555   4.103   1.078
 5053SOL    HW116058   1.622   4.171   1.107
 5053SOL    HW216059   1.471   4.114   1.132
 5054SOL     OW16060   4.133   6.221   5.415
 5054SOL    HW116061   4.228   6.247   5.401
 5054SOL    HW216062   4.128   6.126   5.447
 5055SOL     OW16063   1.541   1.501   4.065
 5055SOL    HW116064   1.479   1.446   4.009
 5055SOL    HW216065   1.489   1.565   4.120
 5056SOL     OW16066   3.013   2.459   5.583
 5056SOL    HW116067   3.062   2.542   5.610
 5056SOL    HW216068   3.076   2.381   5.584
 5057SOL     OW16069   0.228   3.798   3.223
 5057SOL    HW116070   0.327   3.810   3.233
 5057SOL    HW216071   0.193   3.745   3.300
 5058SOL     OW16072   3.557   1.876   0.464
 5058SOL    HW116073   3.471   1.827   0.477
 5058SOL    HW216074   3.608   1.834   0.388
 5059SOL     OW16075   4.969   2.074   2.874
 5059SOL    HW116076   5.006   2.121   2.794
 5059SOL    HW216077   5.000   2.120   2.957
 5060SOL     OW16078   7.008   3.557   5.523
 5060SOL    HW116079   6.962   3.477   5.562
 5060SOL    HW216080   0.081   3.557   5.549
 5061SOL     OW16081   4.252   2.709   6.066
 5061SOL    HW116082   4.177   2.736   6.005
 5061SOL    HW216083   4.269   2.611   6.057
 5062SOL     OW16084   5.359   1.303   3.282
 5062SOL    HW116085   5.414   1.224   3.309
 5062SOL    HW216086   5.392   1.384   3.329
 5063SOL     OW16087   0.635   1.507   1.525
 5063SOL    HW116088   0.705   1.437   1.508
 5063SOL    HW216089   0.570   1.508   1.449
 5064SOL     OW16090   5.447   4.787   1.412
 5064SOL    HW116091   5.483   4.696   1.430
 5064SOL    HW216092   5.480   4.819   1.323
 5065SOL     OW16093   2.516   1.583   1.947
 5065SOL    HW116094   2.447   1.510   1.950
 5065SOL    HW216095   2.506   1.642   2.027
 5066SOL     OW16096   1.694   5.464   2.464
 5066SOL    HW116097   1.770   5.509   2.512
 5066SOL    HW216098   1.719   5.370   2.444
 5067SOL     OW16099   5.546   2.961   1.583
 5067SOL    HW116100   5.509   2.893   1.520
 5067SOL    HW216101   5.478   2.981   1.654
 5068SOL     OW16102   1.619   6.331   0.906
 5068SOL    HW116103   1.622   6.238   0.942
 5068SOL    HW216104   1.634   6.329   0.807
 5069SOL     OW16105   4.485   5.392   5.775
 5069SOL    HW116106   4.484   5.423   5.679
 5069SOL    HW216107   4.392   5.367   5.803
 5070SOL     OW16108   5.980   3.338   5.735
 5070SOL    HW116109   5.995   3.255   5.788
 5070SOL    HW216110   5.995   3.418   5.793
 5071SOL     OW16111   2.375   6.113   2.837
 5071SOL    HW116112   2.350   6.151   2.926
 5071SOL    HW216113   2.294   6.076   2.792
 5072SOL     OW16114   0.934   1.292   2.010
 5072SOL    HW116115   0.915   1.226   1.937
 5072SOL    HW216116   1.026   1.277   2.045
 5073SOL     OW16117   1.902   1.087   3.378
 5073SOL    HW116118   1.876   1.130   3.465
 5073SOL    HW216119   1.822   1.044   3.337
 5074SOL     OW16120   3.304   2.216   1.627
 5074SOL    HW116121   3.294   2.201   1.528
 5074SOL    HW216122   3.221   2.186   1.674
 5075SOL     OW16123   6.379   2.555   0.335
 5075SOL    HW116124   6.333   2.488   0.277
 5075SOL    HW216125   6.439   2.612   0.279
 5076SOL     OW16126   6.879   0.886   5.812
 5076SOL    HW116127   6.970   0.926   5.806
 5076SOL    HW216128   6.844   0.868   5.720
 5077SOL     OW16129   0.569   4.256   3.502
 5077SOL    HW116130   0.557   4.281   3.406
 5077SOL    HW216131   0.644   4.190   3.510
 5078SOL     OW16132   6.288   2.351   3.932
 5078SOL    HW116133   6.257   2.318   3.843
 5078SOL    HW216134   6.279   2.278   4.000
 5079SOL     OW16135   1.687   3.906   4.701
 5079SOL    HW116136   1.589   3.929   4.700
 5079SOL    HW216137   1.706   3.843   4.777
 5080SOL     OW16138   6.322   5.747   7.006
 5080SOL    HW116139   6.308   5.802   0.066
 5080SOL    HW216140   6.369   5.803   6.938
 5081SOL     OW16141   2.483   4.897   5.005
 5081SOL    HW116142   2.508   4.946   4.921
 5081SOL    HW216143   2.563   4.892   5.065
 5082SOL     OW16144   5.492   6.126   1.474
 5082SOL    HW116145   5.440   6.212   1.479
 5082SOL    HW216146   5.462   6.065   1.547
 5083SOL     OW16147   2.137   0.101   3.703
 5083SOL    HW116148   2.126   0.154   3.787
 5083SOL    HW216149   2.052   0.052   3.683
 5084SOL     OW16150   3.689   4.770   5.740
 5084SOL    HW116151   3.691   4.849   5.679
 5084SOL    HW216152   3.779   4.758   5.782
 5085SOL     OW16153   0.250   4.804   5.599
 5085SOL    HW116154   0.308   4.771   5.524
 5085SOL    HW216155   0.270   4.901   5.616
 5086SOL     OW16156   1.005   4.624   2.884
 5086SOL    HW116157   1.058   4.624   2.969
 5086SOL    HW216158   1.042   4.556   2.821
 5087SOL     OW16159   0.403   4.793   2.008
 5087SOL    HW116160   0.417   4.726   1.934
 5087SOL    HW216161   0.492   4.823   2.042
 5088SOL     OW16162   5.072   5.081   2.352
 5088SOL    HW116163   5.042   5.144   2.280
 5088SOL    HW216164   4.993   5.033   2.390
 5089SOL     OW16165   5.310   6.355   6.101
 5089SOL    HW116166   5.395   6.381   6.147
 5089SOL    HW216167   5.330   6.320   6.010
 5090SOL     OW16168   2.599   6.567   4.675
 5090SOL    HW116169   2.645   6.484   4.706
 5090SOL    HW216170   2.617   6.581   4.578
 5091SOL     OW16171   6.658   6.391   6.169
 5091SOL    HW116172   6.694   6.434   6.252
 5091SOL    HW216173   6.585   6.327   6.193
 5092SOL     OW16174   3.978   3.746   3.698
 5092SOL    HW116175   3.967   3.827   3.640
 5092SOL    HW216176   3.947   3.767   3.791
 5093SOL     OW16177   2.917   2.262   2.801
 5093SOL    HW116178   2.944   2.181   2.751
 5093SOL    HW216179   2.934   2.249   2.899
 5094SOL     OW16180   2.026   6.101   4.735
 5094SOL    HW116181   2.060   6.146   4.817
 5094SOL    HW216182   2.091   6.115   4.660
 5095SOL     OW16183   6.994   0.846   3.430
 5095SOL    HW116184   0.002   0.845   3.335
 5095SOL    HW216185   0.050   0.857   3.490
 5096SOL     OW16186   6.610   3.145   5.724
 5096SOL    HW116187   6.569   3.126   5.635
 5096SOL    HW216188   6.647   3.061   5.763
 5097SOL     OW16189   0.606   0.829   5.625
 5097SOL    HW116190   0.582   0.890   5.550
 5097SOL    HW216191   0.577   0.869   5.712
 5098SOL     OW16192   2.976   2.689   0.089
 5098SOL    HW116193   2.970   2.652   0.182
 5098SOL    HW216194   2.894   2.662   0.038
 5099SOL     OW16195   1.900   5.951   2.408
 5099SOL    HW116196   1.847   5.958   2.324
 5099SOL    HW216197   1.937   5.858   2.416
 5100SOL     OW16198   5.361   3.715   2.377
 5100SOL    HW116199   5.308   3.635   2.348
 5100SOL    HW216200   5.458   3.699   2.359
 5101SOL     OW16201   3.401   0.581   4.618
 5101SOL    HW116202   3.377   0.501   4.673
 5101SOL    HW216203   3.317   0.625   4.586
 5102SOL     OW16204   5.698   5.246   5.351
 5102SOL    HW116205   5.685   5.270   5.447
 5102SOL    HW216206   5.623   5.286   5.297
 5103SOL     OW16207   0.524   0.584   6.128
 5103SOL    HW116208   0.590   0.623   6.065
 5103SOL    HW216209   0.434   0.623   6.110
 5104SOL     OW16210   4.125   3.505   3.240
 5104SOL    HW116211   4.149   3.482   3.334
 5104SOL    HW216212   4.059   3.579   3.238
 5105SOL     OW16213   4.496   3.149   6.997
 5105SOL    HW116214   4.474   3.246   7.006
 5105SOL    HW216215   4.422   3.101   6.950
 5106SOL     OW16216   3.690   1.647   1.555
 5106SOL    HW116217   3.692   1.670   1.652
 5106SOL    HW216218   3.604   1.680   1.514
 5107SOL     OW16219   6.143   5.252   0.922
 5107SOL    HW116220   6.120   5.288   1.013
 5107SOL    HW216221   6.082   5.293   0.854
 5108SOL     OW16222   3.538   4.453   1.107
 5108SOL    HW116223   3.440   4.466   1.118
 5108SOL    HW216224   3.560   4.450   1.009
 5109SOL     OW16225   1.633   2.575   2.963
 5109SOL    HW116226   1.719   2.623   2.946
 5109SOL    HW216227   1.558   2.625   2.921
 5110SOL     OW16228   4.458   6.792   5.244
 5110SOL    HW116229   4.484   6.699   5.271
 5110SOL    HW216230   4.432   6.843   5.326
 5111SOL     OW16231   1.242   5.567   5.706
 5111SOL    HW116232   1.210   5.473   5.719
 5111SOL    HW216233   1.274   5.604   5.793
 5112SOL     OW16234   1.320   6.083   3.421
 5112SOL    HW116235   1.349   5.992   3.392
 5112SOL    HW216236   1.363   6.152   3.363
 5113SOL     OW16237   1.909   3.876   0.665
 5113SOL    HW116238   2.007   3.873   0.644
 5113SOL    HW216239   1.863   3.939   0.601
 5114SOL     OW16240   4.285   4.648   1.176
 5114SOL    HW116241   4.315   4.554   1.194
 5114SOL    HW216242   4.335   4.685   1.097
 5115SOL     OW16243   1.744   3.688   0.540
 5115SOL    HW116244   1.782   3.736   0.619
 5115SOL    HW216245   1.748   3.748   0.460
 5116SOL     OW16246   0.296   6.781   5.216
 5116SOL    HW116247   0.394   6.781   5.235
 5116SOL    HW216248   0.261   6.688   5.220
 5117SOL     OW16249   0.055   2.793   3.065
 5117SOL    HW116250   7.019   2.819   3.141
 5117SOL    HW216251   0.027   2.841   2.982
 5118SOL     OW16252   4.247   5.739   0.037
 5118SOL    HW116253   4.231   5.745   0.136
 5118SOL    HW216254   4.272   5.646   0.012
 5119SOL     OW16255   5.898   1.685   0.344
 5119SOL    HW116256   5.889   1.604   0.402
 5119SOL    HW216257   5.847   1.671   0.259
 5120SOL     OW16258   5.279   6.244   6.953
 5120SOL    HW116259   5.240   6.261   0.020
 5120SOL    HW216260   5.280   6.329   6.900
 5121SOL     OW16261   1.451   3.161   6.387
 5121SOL    HW116262   1.356   3.143   6.364
 5121SOL    HW216263   1.509   3.093   6.342
 5122SOL     OW16264   4.826   4.629   3.379
 5122SOL    HW116265   4.906   4.587   3.422
 5122SOL    HW216266   4.754   4.640   3.447
 5123SOL     OW16267   5.128   2.715   2.218
 5123SOL    HW116268   5.034   2.749   2.224
 5123SOL    HW216269   5.128   2.616   2.235
 5124SOL     OW16270   1.327   6.021   4.667
 5124SOL    HW116271   1.312   5.922   4.678
 5124SOL    HW216272   1.308   6.048   4.573
 5125SOL     OW16273   6.324   2.096   4.052
 5125SOL    HW116274   6.288   2.098   4.145
 5125SOL    HW216275   6.422   2.116   4.053
 5126SOL     OW16276   1.909   0.739   2.083
 5126SOL    HW116277   1.922   0.838   2.076
 5126SOL    HW216278   1.822   0.720   2.128
 5127SOL     OW16279   2.225   6.205   6.969
 5127SOL    HW116280   2.157   6.154   6.917
 5127SOL    HW216281   2.293   6.244   6.907
 5128SOL     OW16282   5.025   6.899   1.628
 5128SOL    HW116283   5.061   6.838   1.558
 5128SOL    HW216284   5.046   6.861   1.719
 5129SOL     OW16285   6.300   6.569   0.549
 5129SOL    HW116286   6.280   6.663   0.576
 5129SOL    HW216287   6.279   6.507   0.625
 5130SOL     OW16288   6.069   5.212   2.719
 5130SOL    HW116289   6.131   5.143   2.756
 5130SOL    HW216290   6.095   5.233   2.624
 5131SOL     OW16291   2.430   2.594   2.373
 5131SOL    HW116292   2.509   2.568   2.429
 5131SOL    HW216293   2.461   2.614   2.280
 5132SOL     OW16294   2.540   5.908   5.002
 5132SOL    HW116295   2.501   5.848   5.072
 5132SOL    HW216296   2.488   5.993   4.998
 5133SOL     OW16297   3.676   6.262   5.302
 5133SOL    HW116298   3.604   6.317   5.260
 5133SOL    HW216299   3.744   6.323   5.345
 5134SOL     OW16300   6.427   3.823   6.335
 5134SOL    HW116301   6.366   3.745   6.349
 5134SOL    HW216302   6.416   3.858   6.242
 5135SOL     OW16303   6.502   1.824   4.624
 5135SOL    HW116304   6.518   1.764   4.545
 5135SOL    HW216305   6.565   1.901   4.621
 5136SOL     OW16306   3.904   2.266   6.223
 5136SOL    HW116307   3.961   2.211   6.162
 5136SOL    HW216308   3.883   2.215   6.306
 5137SOL     OW16309   3.686   3.324   0.052
 5137SOL    HW116310   3.709   3.264   0.128
 5137SOL    HW216311   3.760   3.389   0.036
 5138SOL     OW16312   2.470   2.953   5.854
 5138SOL    HW116313   2.426   2.864   5.868
 5138SOL    HW216314   2.508   2.985   5.941
 5139SOL     OW16315   0.756   0.228   3.306
 5139SOL    HW116316   0.739   0.131   3.292
 5139SOL    HW216317   0.799   0.243   3.394
 5140SOL     OW16318   3.028   3.005   1.618
 5140SOL    HW116319   3.011   3.102   1.606
 5140SOL    HW216320   2.942   2.954   1.604
 5141SOL     OW16321   0.671   4.375   5.811
 5141SOL    HW116322   0.677   4.278   5.835
 5141SOL    HW216323   0.576   4.399   5.792
 5142SOL     OW16324   5.803   2.788   2.799
 5142SOL    HW116325   5.741   2.841   2.741
 5142SOL    HW216326   5.776   2.799   2.895
 5143SOL     OW16327   6.811   5.404   5.053
 5143SOL    HW116328   6.792   5.447   4.965
 5143SOL    HW216329   6.818   5.305   5.041
 5144SOL     OW16330   1.930   1.452   4.951
 5144SOL    HW116331   1.952   1.510   4.873
 5144SOL    HW216332   1.840   1.477   4.987
 5145SOL     OW16333   3.290   5.208   5.919
 5145SOL    HW116334   3.303   5.271   5.843
 5145SOL    HW216335   3.196   5.175   5.919
 5146SOL     OW16336   2.659   4.987   0.216
 5146SOL    HW116337   2.629   4.893   0.232
 5146SOL    HW216338   2.589   5.035   0.164
 5147SOL     OW16339   6.812   5.244   6.657
 5147SOL    HW116340   6.810   5.331   6.706
 5147SOL    HW216341   6.838   5.260   6.562
 5148SOL     OW16342   0.458   0.550   0.424
 5148SOL    HW116343   0.438   0.646   0.446
 5148SOL    HW216344   0.379   0.494   0.450
 5149SOL     OW16345   0.465   1.022   5.847
 5149SOL    HW116346   0.473   1.117   5.878
 5149SOL    HW216347   0.436   0.964   5.923
 5150SOL     OW16348   2.326   5.864   4.380
 5150SOL    HW116349   2.383   5.791   4.343
 5150SOL    HW216350   2.279   5.831   4.462
 5151SOL     OW16351   4.085   1.076   5.946
 5151SOL    HW116352   4.139   1.155   5.972
 5151SOL    HW216353   4.098   1.003   6.013
 5152SOL     OW16354   0.279   4.660   0.104
 5152SOL    HW116355   0.198   4.612   0.069
 5152SOL    HW216356   0.250   4.738   0.159
 5153SOL     OW16357   2.007   2.087   1.117
 5153SOL    HW116358   1.953   2.031   1.055
 5153SOL    HW216359   2.074   2.140   1.064
 5154SOL     OW16360   1.968   4.415   5.471
 5154SOL    HW116361   1.954   4.502   5.426
 5154SOL    HW216362   1.986   4.430   5.569
 5155SOL     OW16363   3.454   0.376   2.729
 5155SOL    HW116364   3.505   0.347   2.810
 5155SOL    HW216365   3.468   0.474   2.714
 5156SOL     OW16366   5.486   2.749   6.386
 5156SOL    HW116367   5.396   2.707   6.399
 5156SOL    HW216368   5.497   2.774   6.290
 5157SOL     OW16369   6.524   2.464   4.465
 5157SOL    HW116370   6.440   2.514   4.487
 5157SOL    HW216371   6.504   2.366   4.457
 5158SOL     OW16372   3.408   0.379   1.320
 5158SOL    HW116373   3.437   0.368   1.415
 5158SOL    HW216374   3.323   0.432   1.317
 5159SOL     OW16375   2.131   3.521   4.858
 5159SOL    HW116376   2.231   3.516   4.854
 5159SOL    HW216377   2.103   3.553   4.949
 5160SOL     OW16378   2.407   2.360   3.968
 5160SOL    HW116379   2.415   2.275   4.019
 5160SOL    HW216380   2.311   2.389   3.968
 5161SOL     OW16381   2.173   3.199   6.300
 5161SOL    HW116382   2.195   3.101   6.293
 5161SOL    HW216383   2.237   3.252   6.245
 5162SOL     OW16384   6.489   4.989   4.553
 5162SOL    HW116385   6.434   5.043   4.618
 5162SOL    HW216386   6.518   4.905   4.597
 5163SOL     OW16387   5.503   4.380   0.891
 5163SOL    HW116388   5.526   4.283   0.884
 5163SOL    HW216389   5.404   4.391   0.895
 5164SOL     OW16390   6.061   5.832   5.905
 5164SOL    HW116391   5.984   5.878   5.948
 5164SOL    HW216392   6.080   5.875   5.816
 5165SOL     OW16393   6.099   4.126   4.368
 5165SOL    HW116394   6.143   4.089   4.450
 5165SOL    HW216395   6.017   4.177   4.393
 5166SOL     OW16396   1.463   0.154   1.929
 5166SOL    HW116397   1.474   0.253   1.923
 5166SOL    HW216398   1.403   0.133   2.007
 5167SOL     OW16399   1.671   0.003   6.115
 5167SOL    HW116400   1.699   7.021   6.019
 5167SOL    HW216401   1.704   6.944   6.163
 5168SOL     OW16402   3.983   2.153   2.815
 5168SOL    HW116403   3.893   2.193   2.831
 5168SOL    HW216404   4.002   2.152   2.717
 5169SOL     OW16405   4.093   4.483   6.355
 5169SOL    HW116406   4.031   4.409   6.326
 5169SOL    HW216407   4.096   4.486   6.455
 5170SOL     OW16408   4.339   5.151   4.265
 5170SOL    HW116409   4.341   5.251   4.268
 5170SOL    HW216410   4.327   5.120   4.170
 5171SOL     OW16411   2.709   4.754   4.579
 5171SOL    HW116412   2.790   4.769   4.636
 5171SOL    HW216413   2.640   4.704   4.632
 5172SOL     OW16414   1.919   4.477   0.251
 5172SOL    HW116415   1.878   4.389   0.228
 5172SOL    HW216416   1.940   4.478   0.349
 5173SOL     OW16417   7.013   2.730   5.681
 5173SOL    HW116418   6.992   2.702   5.775
 5173SOL    HW216419   0.075   2.782   5.681
 5174SOL     OW16420   1.864   4.977   6.089
 5174SOL    HW116421   1.959   4.992   6.062
 5174SOL    HW216422   1.861   4.930   6.177
 5175SOL     OW16423   0.006   5.411   6.208
 5175SOL    HW116424   0.001   5.511   6.201
 5175SOL    HW216425   0.083   5.377   6.155
 5176SOL     OW16426   5.157   3.984   5.812
 5176SOL    HW116427   5.140   4.083   5.809
 5176SOL    HW216428   5.070   3.935   5.813
 5177SOL     OW16429   5.181   5.780   6.004
 5177SOL    HW116430   5.112   5.773   5.932
 5177SOL    HW216431   5.159   5.858   6.063
 5178SOL     OW16432   2.711   2.862   1.030
 5178SOL    HW116433   2.623   2.866   0.984
 5178SOL    HW216434   2.771   2.798   0.982
 5179SOL     OW16435   3.100   6.486   5.430
 5179SOL    HW116436   3.086   6.518   5.336
 5179SOL    HW216437   3.101   6.564   5.492
 5180SOL     OW16438   3.560   1.873   0.070
 5180SOL    HW116439   3.608   1.838   0.150
 5180SOL    HW216440   3.490   1.939   0.099
 5181SOL     OW16441   2.841   5.897   2.591
 5181SOL    HW116442   2.903   5.908   2.668
 5181SOL    HW216443   2.853   5.972   2.526
 5182SOL     OW16444   4.446   3.999   1.392
 5182SOL    HW116445   4.501   3.958   1.465
 5182SOL    HW216446   4.506   4.050   1.331
 5183SOL     OW16447   3.890   1.071   3.586
 5183SOL    HW116448   3.934   1.137   3.646
 5183SOL    HW216449   3.905   0.978   3.621
 5184SOL     OW16450   1.202   1.814   2.963
 5184SOL    HW116451   1.116   1.774   2.931
 5184SOL    HW216452   1.184   1.906   2.999
 5185SOL     OW16453   3.605   0.004   1.061
 5185SOL    HW116454   3.591   0.101   1.082
 5185SOL    HW216455   3.703   7.009   1.050
 5186SOL     OW16456   5.148   4.608   0.347
 5186SOL    HW116457   5.193   4.522   0.325
 5186SOL    HW216458   5.071   4.623   0.284
 5187SOL     OW16459   4.927   2.008   4.627
 5187SOL    HW116460   4.891   1.918   4.603
 5187SOL    HW216461   4.901   2.075   4.557
 5188SOL     OW16462   1.208   2.278   3.807
 5188SOL    HW116463   1.301   2.291   3.773
 5188SOL    HW216464   1.149   2.350   3.770
 5189SOL     OW16465   4.458   6.105   6.832
 5189SOL    HW116466   4.473   6.189   6.779
 5189SOL    HW216467   4.493   6.027   6.780
 5190SOL     OW16468   2.080   2.609   2.069
 5190SOL    HW116469   2.152   2.636   2.005
 5190SOL    HW216470   2.071   2.679   2.140
 5191SOL     OW16471   5.208   0.013   2.221
 5191SOL    HW116472   5.202   6.952   2.276
 5191SOL    HW216473   5.269   0.078   2.266
 5192SOL     OW16474   6.302   4.281   1.449
 5192SOL    HW116475   6.248   4.337   1.510
 5192SOL    HW216476   6.372   4.338   1.404
 5193SOL     OW16477   4.626   4.327   2.230
 5193SOL    HW116478   4.669   4.238   2.220
 5193SOL    HW216479   4.554   4.338   2.161
 5194SOL     OW16480   5.166   1.431   0.537
 5194SOL    HW116481   5.256   1.436   0.494
 5194SOL    HW216482   5.173   1.462   0.632
 5195SOL     OW16483   6.116   6.442   5.514
 5195SOL    HW116484   6.142   6.419   5.608
 5195SOL    HW216485   6.111   6.541   5.505
 5196SOL     OW16486   6.609   3.507   2.668
 5196SOL    HW116487   6.618   3.478   2.763
 5196SOL    HW216488   6.624   3.605   2.661
 5197SOL     OW16489   3.553   5.406   5.509
 5197SOL    HW116490   3.618   5.435   5.439
 5197SOL    HW216491   3.484   5.477   5.523
 5198SOL     OW16492   3.941   1.292   4.708
 5198SOL    HW116493   3.932   1.193   4.718
 5198SOL    HW216494   3.954   1.315   4.612
 5199SOL     OW16495   7.004   5.663   1.447
 5199SOL    HW116496   0.055   5.684   1.510
 5199SOL    HW216497   0.018   5.648   1.355
 5200SOL     OW16498   6.525   0.316   4.806
 5200SOL    HW116499   6.591   0.320   4.880
 5200SOL    HW216500   6.438   0.281   4.840
 5201SOL     OW16501   5.717   4.743   5.750
 5201SOL    HW116502   5.778   4.671   5.718
 5201SOL    HW216503   5.652   4.766   5.678
 5202SOL     OW16504   3.828   2.900   5.847
 5202SOL    HW116505   3.732   2.874   5.831
 5202SOL    HW216506   3.871   2.832   5.907
 5203SOL     OW16507   1.466   0.434   5.857
 5203SOL    HW116508   1.531   0.394   5.922
 5203SOL    HW216509   1.397   0.367   5.834
 5204SOL     OW16510   2.052   0.703   1.522
 5204SOL    HW116511   2.021   0.623   1.574
 5204SOL    HW216512   1.973   0.761   1.500
 5205SOL     OW16513   6.447   0.215   1.691
 5205SOL    HW116514   6.399   0.138   1.650
 5205SOL    HW216515   6.522   0.182   1.748
 5206SOL     OW16516   1.044   4.828   4.082
 5206SOL    HW116517   1.083   4.913   4.046
 5206SOL    HW216518   1.091   4.803   4.167
 5207SOL     OW16519   5.679   6.667   4.881
 5207SOL    HW116520   5.723   6.659   4.971
 5207SOL    HW216521   5.635   6.757   4.873
 5208SOL     OW16522   6.928   2.139   0.279
 5208SOL    HW116523   6.990   2.121   0.204
 5208SOL    HW216524   6.842   2.089   0.265
 5209SOL     OW16525   5.587   6.568   3.613
 5209SOL    HW116526   5.614   6.553   3.518
 5209SOL    HW216527   5.667   6.558   3.672
 5210SOL     OW16528   5.518   4.908   1.162
 5210SOL    HW116529   5.612   4.941   1.173
 5210SOL    HW216530   5.511   4.855   1.077
 5211SOL     OW16531   5.119   2.946   5.123
 5211SOL    HW116532   5.149   2.867   5.069
 5211SOL    HW216533   5.146   2.934   5.218
 5212SOL     OW16534   6.982   4.097   0.045
 5212SOL    HW116535   6.925   4.020   0.075
 5212SOL    HW216536   0.052   4.064   0.028
 5213SOL     OW16537   3.912   3.028   2.739
 5213SOL    HW116538   3.825   3.078   2.742
 5213SOL    HW216539   3.924   2.988   2.648
 5214SOL     OW16540   5.511   3.456   5.914
 5214SOL    HW116541   5.430   3.507   5.881
 5214SOL    HW216542   5.583   3.461   5.846
 5215SOL     OW16543   0.409   5.323   5.249
 5215SOL    HW116544   0.327   5.376   5.269
 5215SOL    HW216545   0.384   5.238   5.204
 5216SOL     OW16546   6.069   4.480   1.554
 5216SOL    HW116547   6.132   4.472   1.632
 5216SOL    HW216548   6.019   4.394   1.544
 5217SOL     OW16549   4.678   6.841   3.034
 5217SOL    HW116550   4.648   6.894   2.954
 5217SOL    HW216551   4.617   6.763   3.047
 5218SOL     OW16552   6.230   6.817   0.595
 5218SOL    HW116553   6.133   6.840   0.603
 5218SOL    HW216554   6.274   6.882   0.533
 5219SOL     OW16555   3.536   1.710   5.201
 5219SOL    HW116556   3.463   1.649   5.172
 5219SOL    HW216557   3.497   1.794   5.240
 5220SOL     OW16558   2.365   4.808   4.648
 5220SOL    HW116559   2.416   4.734   4.603
 5220SOL    HW216560   2.274   4.775   4.673
 5221SOL     OW16561   4.963   6.102   1.400
 5221SOL    HW116562   4.922   6.122   1.488
 5221SOL    HW216563   5.033   6.170   1.378
 5222SOL     OW16564   6.769   3.361   2.168
 5222SOL    HW116565   6.745   3.458   2.174
 5222SOL    HW216566   6.706   3.316   2.104
 5223SOL     OW16567   6.734   2.704   0.540
 5223SOL    HW116568   6.810   2.758   0.577
 5223SOL    HW216569   6.715   2.733   0.446
 5224SOL     OW16570   1.075   1.648   4.826
 5224SOL    HW116571   1.123   1.720   4.775
 5224SOL    HW216572   1.024   1.591   4.763
 5225SOL     OW16573   6.719   2.363   5.559
 5225SOL    HW116574   6.649   2.431   5.578
 5225SOL    HW216575   6.697   2.278   5.606
 5226SOL     OW16576   0.273   6.099   4.713
 5226SOL    HW116577   0.272   6.170   4.642
 5226SOL    HW216578   0.181   6.085   4.748
 5227SOL     OW16579   1.086   3.330   5.851
 5227SOL    HW116580   1.030   3.407   5.820
 5227SOL    HW216581   1.077   3.320   5.950
 5228SOL     OW16582   1.663   2.097   5.136
 5228SOL    HW116583   1.686   2.076   5.231
 5228SOL    HW216584   1.564   2.085   5.123
 5229SOL     OW16585   3.722   1.947   6.194
 5229SOL    HW116586   3.669   1.880   6.246
 5229SOL    HW216587   3.659   2.012   6.151
 5230SOL     OW16588   6.588   0.482   2.482
 5230SOL    HW116589   6.598   0.435   2.395
 5230SOL    HW216590   6.493   0.477   2.512
 5231SOL     OW16591   6.604   3.951   2.062
 5231SOL    HW116592   6.683   3.958   2.123
 5231SOL    HW216593   6.635   3.959   1.967
 5232SOL     OW16594   1.506   2.153   5.578
 5232SOL    HW116595   1.538   2.208   5.655
 5232SOL    HW216596   1.584   2.125   5.522
 5233SOL     OW16597   3.715   7.005   3.559
 5233SOL    HW116598   3.802   0.028   3.581
 5233SOL    HW216599   3.644   0.051   3.547
 5234SOL     OW16600   2.849   2.668   6.136
 5234SOL    HW116601   2.803   2.632   6.217
 5234SOL    HW216602   2.930   2.613   6.116
 5235SOL     OW16603   2.400   1.986   1.681
 5235SOL    HW116604   2.452   1.913   1.637
 5235SOL    HW216605   2.352   2.039   1.611
 5236SOL     OW16606   2.996   4.810   2.053
 5236SOL    HW116607   2.924   4.877   2.070
 5236SOL    HW216608   2.956   4.718   2.049
 5237SOL     OW16609   1.830   1.570   2.148
 5237SOL    HW116610   1.780   1.657   2.147
 5237SOL    HW216611   1.876   1.557   2.060
 5238SOL     OW16612   6.971   0.478   2.786
 5238SOL    HW116613   7.018   0.467   2.698
 5238SOL    HW216614   6.883   0.523   2.771
 5239SOL     OW16615   2.703   4.168   1.153
 5239SOL    HW116616   2.713   4.075   1.116
 5239SOL    HW216617   2.700   4.233   1.077
 5240SOL     OW16618   2.040   4.057   6.141
 5240SOL    HW116619   1.960   4.045   6.081
 5240SOL    HW216620   2.085   3.969   6.153
 5241SOL     OW16621   2.269   6.444   2.841
 5241SOL    HW116622   2.273   6.429   2.940
 5241SOL    HW216623   2.361   6.442   2.803
 5242SOL     OW16624   4.080   6.842   6.043
 5242SOL    HW116625   4.078   6.742   6.041
 5242SOL    HW216626   4.141   6.873   6.116
 5243SOL     OW16627   2.767   5.698   3.366
 5243SOL    HW116628   2.698   5.627   3.381
 5243SOL    HW216629   2.810   5.722   3.453
 5244SOL     OW16630   4.023   1.006   6.737
 5244SOL    HW116631   4.063   1.003   6.828
 5244SOL    HW216632   3.976   1.093   6.723
 5245SOL     OW16633   3.023   4.085   1.937
 5245SOL    HW116634   3.044   4.174   1.979
 5245SOL    HW216635   3.106   4.029   1.934
 5246SOL     OW16636   5.820   3.869   6.292
 5246SOL    HW116637   5.779   3.925   6.220
 5246SOL    HW216638   5.869   3.929   6.356
 5247SOL     OW16639   5.088   1.577   6.599
 5247SOL    HW116640   5.136   1.665   6.603
 5247SOL    HW216641   5.122   1.525   6.521
 5248SOL     OW16642   5.105   1.075   3.857
 5248SOL    HW116643   5.197   1.113   3.850
 5248SOL    HW216644   5.040   1.135   3.810
 5249SOL     OW16645   0.176   4.888   1.234
 5249SOL    HW116646   0.176   4.792   1.263
 5249SOL    HW216647   0.270   4.917   1.215
 5250SOL     OW16648   2.589   5.357   1.029
 5250SOL    HW116649   2.581   5.422   0.954
 5250SOL    HW216650   2.514   5.371   1.094
 5251SOL     OW16651   0.489   4.575   6.509
 5251SOL    HW116652   0.483   4.583   6.410
 5251SOL    HW216653   0.481   4.666   6.551
 5252SOL     OW16654   3.953   5.545   2.669
 5252SOL    HW116655   3.986   5.623   2.616
 5252SOL    HW216656   4.000   5.543   2.757
 5253SOL     OW16657   0.526   6.469   5.207
 5253SOL    HW116658   0.443   6.457   5.261
 5253SOL    HW216659   0.518   6.417   5.121
 5254SOL     OW16660   4.568   5.727   2.854
 5254SOL    HW116661   4.484   5.781   2.863
 5254SOL    HW216662   4.647   5.783   2.879
 5255SOL     OW16663   6.855   1.884   5.499
 5255SOL    HW116664   6.892   1.869   5.407
 5255SOL    HW216665   6.802   1.804   5.527
 5256SOL     OW16666   4.767   1.348   2.640
 5256SOL    HW116667   4.698   1.392   2.583
 5256SOL    HW216668   4.858   1.372   2.606
 5257SOL     OW16669   4.832   2.207   6.930
 5257SOL    HW116670   4.919   2.257   6.924
 5257SOL    HW216671   4.792   2.220   7.020
 5258SOL     OW16672   4.798   1.691   5.312
 5258SOL    HW116673   4.798   1.664   5.216
 5258SOL    HW216674   4.888   1.727   5.337
 5259SOL     OW16675   5.708   5.592   4.100
 5259SOL    HW116676   5.772   5.564   4.028
 5259SOL    HW216677   5.712   5.526   4.176
 5260SOL     OW16678   1.750   5.808   1.578
 5260SOL    HW116679   1.832   5.799   1.521
 5260SOL    HW216680   1.752   5.739   1.650
 5261SOL     OW16681   6.213   4.841   0.051
 5261SOL    HW116682   6.258   4.880   0.132
 5261SOL    HW216683   6.239   4.894   6.994
 5262SOL     OW16684   1.438   1.404   1.700
 5262SOL    HW116685   1.475   1.319   1.662
 5262SOL    HW216686   1.477   1.420   1.791
 5263SOL     OW16687   2.039   6.051   3.032
 5263SOL    HW116688   1.975   6.092   2.967
 5263SOL    HW216689   2.118   6.112   3.045
 5264SOL     OW16690   6.770   2.674   1.752
 5264SOL    HW116691   6.772   2.647   1.656
 5264SOL    HW216692   6.843   2.740   1.770
 5265SOL     OW16693   6.323   5.906   5.511
 5265SOL    HW116694   6.268   5.828   5.541
 5265SOL    HW216695   6.266   5.965   5.454
 5266SOL     OW16696   1.301   6.888   6.003
 5266SOL    HW116697   1.268   6.898   6.097
 5266SOL    HW216698   1.391   6.844   6.003
 5267SOL     OW16699   5.415   1.685   4.239
 5267SOL    HW116700   5.440   1.624   4.313
 5267SOL    HW216701   5.480   1.676   4.164
 5268SOL     OW16702   5.255   6.930   6.146
 5268SOL    HW116703   5.284   6.991   6.072
 5268SOL    HW216704   5.193   6.860   6.110
 5269SOL     OW16705   1.343   0.208   4.319
 5269SOL    HW116706   1.367   0.122   4.365
 5269SOL    HW216707   1.426   0.251   4.284
 5270SOL     OW16708   0.720   1.946   6.143
 5270SOL    HW116709   0.800   2.006   6.145
 5270SOL    HW216710   0.700   1.920   6.049
 5271SOL     OW16711   1.339   5.437   4.515
 5271SOL    HW116712   1.319   5.534   4.497
 5271SOL    HW216713   1.397   5.430   4.597
 5272SOL     OW16714   4.448   0.540   6.278
 5272SOL    HW116715   4.483   0.633   6.279
 5272SOL    HW216716   4.524   0.476   6.292
 5273SOL     OW16717   2.989   1.613   2.696
 5273SOL    HW116718   2.988   1.527   2.746
 5273SOL    HW216719   2.981   1.595   2.598
 5274SOL     OW16720   5.642   4.917   1.530
 5274SOL    HW116721   5.548   4.889   1.509
 5274SOL    HW216722   5.704   4.873   1.464
 5275SOL     OW16723   5.460   1.864   6.022
 5275SOL    HW116724   5.512   1.891   6.103
 5275SOL    HW216725   5.378   1.920   6.015
 5276SOL     OW16726   3.888   6.217   1.793
 5276SOL    HW116727   3.980   6.249   1.771
 5276SOL    HW216728   3.889   6.171   1.882
 5277SOL     OW16729   2.215   3.111   1.822
 5277SOL    HW116730   2.143   3.180   1.832
 5277SOL    HW216731   2.174   3.020   1.815
 5278SOL     OW16732   3.651   3.216   2.341
 5278SOL    HW116733   3.621   3.281   2.272
 5278SOL    HW216734   3.745   3.238   2.368
 5279SOL     OW16735   1.425   6.155   2.922
 5279SOL    HW116736   1.331   6.161   2.891
 5279SOL    HW216737   1.478   6.232   2.885
 5280SOL     OW16738   3.878   1.096   4.316
 5280SOL    HW116739   3.822   1.104   4.233
 5280SOL    HW216740   3.973   1.115   4.294
 5281SOL     OW16741   6.912   2.439   3.726
 5281SOL    HW116742   6.833   2.473   3.675
 5281SOL    HW216743   6.932   2.345   3.699
 5282SOL     OW16744   5.009   2.268   0.942
 5282SOL    HW116745   5.046   2.335   0.877
 5282SOL    HW216746   4.972   2.316   1.022
 5283SOL     OW16747   4.472   4.645   6.258
 5283SOL    HW116748   4.527   4.606   6.332
 5283SOL    HW216749   4.532   4.668   6.181
 5284SOL     OW16750   4.729   2.867   3.712
 5284SOL    HW116751   4.745   2.961   3.741
 5284SOL    HW216752   4.709   2.811   3.792
 5285SOL     OW16753   4.356   6.276   2.686
 5285SOL    HW116754   4.339   6.353   2.748
 5285SOL    HW216755   4.268   6.235   2.661
 5286SOL     OW16756   1.931   4.912   1.522
 5286SOL    HW116757   1.906   4.914   1.619
 5286SOL    HW216758   1.967   4.822   1.499
 5287SOL     OW16759   0.868   0.895   2.428
 5287SOL    HW116760   0.834   0.976   2.475
 5287SOL    HW216761   0.815   0.815   2.455
 5288SOL     OW16762   4.264   0.091   1.246
 5288SOL    HW116763   4.342   0.150   1.225
 5288SOL    HW216764   4.247   0.092   1.344
 5289SOL     OW16765   1.384   6.212   1.126
 5289SOL    HW116766   1.437   6.292   1.153
 5289SOL    HW216767   1.355   6.221   1.031
 5290SOL     OW16768   6.020   5.951   0.091
 5290SOL    HW116769   6.006   6.013   0.168
 5290SOL    HW216770   5.951   5.880   0.092
 5291SOL     OW16771   0.829   5.760   6.676
 5291SOL    HW116772   0.871   5.829   6.617
 5291SOL    HW216773   0.841   5.786   6.772
 5292SOL     OW16774   5.663   1.302   0.661
 5292SOL    HW116775   5.659   1.329   0.757
 5292SOL    HW216776   5.693   1.206   0.655
 5293SOL     OW16777   1.765   1.340   4.091
 5293SOL    HW116778   1.859   1.373   4.082
 5293SOL    HW216779   1.701   1.414   4.066
 5294SOL     OW16780   3.770   2.612   6.445
 5294SOL    HW116781   3.809   2.629   6.535
 5294SOL    HW216782   3.681   2.657   6.438
 5295SOL     OW16783   6.738   1.714   2.751
 5295SOL    HW116784   6.746   1.780   2.677
 5295SOL    HW216785   6.645   1.677   2.753
 5296SOL     OW16786   0.565   3.129   6.418
 5296SOL    HW116787   0.549   3.086   6.508
 5296SOL    HW216788   0.520   3.218   6.415
 5297SOL     OW16789   1.185   2.724   1.879
 5297SOL    HW116790   1.228   2.670   1.951
 5297SOL    HW216791   1.250   2.790   1.843
 5298SOL     OW16792   1.037   4.491   1.688
 5298SOL    HW116793   1.060   4.420   1.622
 5298SOL    HW216794   1.117   4.549   1.703
 5299SOL     OW16795   2.951   0.375   0.251
 5299SOL    HW116796   3.025   0.339   0.308
 5299SOL    HW216797   2.942   0.473   0.267
 5300SOL     OW16798   0.301   5.223   3.945
 5300SOL    HW116799   0.216   5.173   3.935
 5300SOL    HW216800   0.344   5.200   4.032
 5301SOL     OW16801   4.907   0.182   6.763
 5301SOL    HW116802   4.991   0.204   6.714
 5301SOL    HW216803   4.902   0.083   6.777
 5302SOL     OW16804   6.580   3.766   3.621
 5302SOL    HW116805   6.499   3.824   3.618
 5302SOL    HW216806   6.611   3.756   3.715
 5303SOL     OW16807   1.605   4.878   3.464
 5303SOL    HW116808   1.541   4.819   3.513
 5303SOL    HW216809   1.698   4.860   3.496
 5304SOL     OW16810   4.348   2.924   5.397
 5304SOL    HW116811   4.281   2.914   5.471
 5304SOL    HW216812   4.393   3.013   5.406
 5305SOL     OW16813   3.454   1.417   4.421
 5305SOL    HW116814   3.453   1.413   4.322
 5305SOL    HW216815   3.379   1.477   4.453
 5306SOL     OW16816   2.206   6.398   4.429
 5306SOL    HW116817   2.260   6.454   4.367
 5306SOL    HW216818   2.122   6.369   4.382
 5307SOL     OW16819   5.036   7.023   0.364
 5307SOL    HW116820   5.094   7.008   0.284
 5307SOL    HW216821   4.983   0.084   0.352
 5308SOL     OW16822   6.209   1.734   1.924
 5308SOL    HW116823   6.300   1.771   1.908
 5308SOL    HW216824   6.198   1.649   1.873
 5309SOL     OW16825   3.776   3.574   5.123
 5309SOL    HW116826   3.713   3.504   5.155
 5309SOL    HW216827   3.777   3.576   5.023
 5310SOL     OW16828   5.371   2.457   0.662
 5310SOL    HW116829   5.465   2.425   0.672
 5310SOL    HW216830   5.364   2.515   0.581
 5311SOL     OW16831   0.263   6.505   6.929
 5311SOL    HW116832   0.292   6.561   6.852
 5311SOL    HW216833   0.253   6.410   6.900
 5312SOL     OW16834   0.702   2.973   1.540
 5312SOL    HW116835   0.655   2.901   1.490
 5312SOL    HW216836   0.785   2.999   1.491
 5313SOL     OW16837   0.196   6.318   0.764
 5313SOL    HW116838   0.147   6.232   0.781
 5313SOL    HW216839   0.282   6.298   0.717
 5314SOL     OW16840   3.817   5.153   1.423
 5314SOL    HW116841   3.893   5.110   1.471
 5314SOL    HW216842   3.853   5.222   1.359
 5315SOL     OW16843   5.703   1.858   2.306
 5315SOL    HW116844   5.788   1.871   2.358
 5315SOL    HW216845   5.633   1.820   2.367
 5316SOL     OW16846   5.669   5.406   4.293
 5316SOL    HW116847   5.591   5.444   4.343
 5316SOL    HW216848   5.739   5.378   4.359
 5317SOL     OW16849   6.677   5.432   2.283
 5317SOL    HW116850   6.604   5.403   2.221
 5317SOL    HW216851   6.740   5.493   2.235
 5318SOL     OW16852   0.525   2.799   3.842
 5318SOL    HW116853   0.458   2.814   3.769
 5318SOL    HW216854   0.537   2.701   3.857
 5319SOL     OW16855   3.098   6.609   2.940
 5319SOL    HW116856   3.081   6.522   2.893
 5319SOL    HW216857   3.014   6.640   2.983
 5320SOL     OW16858   0.143   3.053   6.322
 5320SOL    HW116859   0.125   3.055   6.223
 5320SOL    HW216860   0.120   3.141   6.362
 5321SOL     OW16861   2.795   4.573   6.081
 5321SOL    HW116862   2.827   4.479   6.084
 5321SOL    HW216863   2.769   4.602   6.173
 5322SOL     OW16864   2.218   5.739   1.037
 5322SOL    HW116865   2.157   5.676   0.989
 5322SOL    HW216866   2.165   5.818   1.069
 5323SOL     OW16867   5.468   3.028   0.230
 5323SOL    HW116868   5.556   2.982   0.226
 5323SOL    HW216869   5.482   3.125   0.250
 5324SOL     OW16870   4.321   3.006   1.232
 5324SOL    HW116871   4.400   3.007   1.293
 5324SOL    HW216872   4.240   2.976   1.283
 5325SOL     OW16873   3.611   6.060   4.882
 5325SOL    HW116874   3.603   6.019   4.791
 5325SOL    HW216875   3.526   6.044   4.933
 5326SOL     OW16876   0.079   0.376   2.041
 5326SOL    HW116877   0.156   0.318   2.067
 5326SOL    HW216878   0.102   0.472   2.059
 5327SOL     OW16879   6.592   0.489   4.068
 5327SOL    HW116880   6.657   0.505   3.994
 5327SOL    HW216881   6.570   0.577   4.112
 5328SOL     OW16882   3.560   5.095   0.034
 5328SOL    HW116883   3.628   5.103   0.108
 5328SOL    HW216884   3.606   5.107   6.969
 5329SOL     OW16885   0.447   5.766   6.482
 5329SOL    HW116886   0.424   5.711   6.562
 5329SOL    HW216887   0.531   5.730   6.441
 5330SOL     OW16888   4.072   5.038   0.457
 5330SOL    HW116889   4.128   5.069   0.380
 5330SOL    HW216890   4.030   4.950   0.435
 5331SOL     OW16891   5.317   1.322   6.865
 5331SOL    HW116892   5.354   1.280   6.782
 5331SOL    HW216893   5.392   1.362   6.918
 5332SOL     OW16894   6.487   3.010   6.755
 5332SOL    HW116895   6.499   2.948   6.833
 5332SOL    HW216896   6.568   3.068   6.745
 5333SOL     OW16897   1.168   0.364   3.930
 5333SOL    HW116898   1.197   0.269   3.944
 5333SOL    HW216899   1.187   0.417   4.012
 5334SOL     OW16900   3.052   6.413   1.559
 5334SOL    HW116901   3.132   6.419   1.499
 5334SOL    HW216902   2.972   6.449   1.511
 5335SOL     OW16903   0.085   4.782   2.029
 5335SOL    HW116904   0.048   4.705   1.977
 5335SOL    HW216905   0.184   4.787   2.015
 5336SOL     OW16906   1.882   3.462   5.122
 5336SOL    HW116907   1.857   3.476   5.218
 5336SOL    HW216908   1.935   3.378   5.113
 5337SOL     OW16909   6.956   3.583   1.075
 5337SOL    HW116910   0.011   3.567   1.015
 5337SOL    HW216911   6.910   3.667   1.048
 5338SOL     OW16912   0.033   3.620   0.733
 5338SOL    HW116913   6.992   3.569   0.677
 5338SOL    HW216914   0.064   3.563   0.809
 5339SOL     OW16915   5.647   2.780   3.054
 5339SOL    HW116916   5.655   2.683   3.036
 5339SOL    HW216917   5.556   2.812   3.028
 5340SOL     OW16918   4.981   3.310   1.227
 5340SOL    HW116919   5.070   3.354   1.230
 5340SOL    HW216920   4.992   3.212   1.209
 5341SOL     OW16921   5.105   4.832   3.467
 5341SOL    HW116922   5.100   4.864   3.562
 5341SOL    HW216923   5.013   4.836   3.426
 5342SOL     OW16924   6.332   5.957   4.586
 5342SOL    HW116925   6.364   5.929   4.677
 5342SOL    HW216926   6.275   5.885   4.547
 5343SOL     OW16927   3.920   3.369   6.722
 5343SOL    HW116928   3.823   3.379   6.741
 5343SOL    HW216929   3.965   3.458   6.733
 5344SOL     OW16930   6.725   2.236   0.052
 5344SOL    HW116931   6.738   2.157   0.112
 5344SOL    HW216932   6.751   2.319   0.101
 5345SOL     OW16933   3.353   1.482   0.398
 5345SOL    HW116934   3.450   1.485   0.422
 5345SOL    HW216935   3.299   1.477   0.482
 5346SOL     OW16936   2.668   6.511   3.381
 5346SOL    HW116937   2.695   6.604   3.356
 5346SOL    HW216938   2.697   6.447   3.310
 5347SOL     OW16939   5.408   1.656   5.215
 5347SOL    HW116940   5.358   1.740   5.238
 5347SOL    HW216941   5.484   1.645   5.279
 5348SOL     OW16942   4.973   2.688   5.583
 5348SOL    HW116943   4.994   2.745   5.504
 5348SOL    HW216944   5.051   2.629   5.603
 5349SOL     OW16945   1.108   4.189   1.330
 5349SOL    HW116946   1.132   4.269   1.276
 5349SOL    HW216947   1.009   4.174   1.325
 5350SOL     OW16948   0.767   6.692   6.133
 5350SOL    HW116949   0.795   6.777   6.177
 5350SOL    HW216950   0.736   6.711   6.040
 5351SOL     OW16951   0.315   5.749   3.368
 5351SOL    HW116952   0.324   5.692   3.285
 5351SOL    HW216953   0.364   5.835   3.355
 5352SOL     OW16954   1.195   2.443   6.052
 5352SOL    HW116955   1.273   2.498   6.023
 5352SOL    HW216956   1.173   2.463   6.147
 5353SOL     OW16957   2.940   6.981   3.717
 5353SOL    HW116958   2.859   6.948   3.767
 5353SOL    HW216959   3.018   6.923   3.739
 5354SOL     OW16960   3.832   5.841   2.151
 5354SOL    HW116961   3.856   5.757   2.103
 5354SOL    HW216962   3.840   5.826   2.250
 5355SOL     OW16963   5.218   5.349   5.276
 5355SOL    HW116964   5.246   5.422   5.337
 5355SOL    HW216965   5.184   5.388   5.190
 5356SOL     OW16966   1.124   6.928   1.380
 5356SOL    HW116967   1.167   6.941   1.291
 5356SOL    HW216968   1.085   7.014   1.411
 5357SOL     OW16969   6.477   3.201   2.661
 5357SOL    HW116970   6.502   3.270   2.592
 5357SOL    HW216971   6.529   3.217   2.745
 5358SOL     OW16972   6.041   1.006   6.404
 5358SOL    HW116973   6.137   0.985   6.388
 5358SOL    HW216974   6.001   0.936   6.463
 5359SOL     OW16975   2.714   2.510   6.627
 5359SOL    HW116976   2.747   2.469   6.542
 5359SOL    HW216977   2.785   2.502   6.697
 5360SOL     OW16978   5.766   5.736   3.686
 5360SOL    HW116979   5.694   5.802   3.708
 5360SOL    HW216980   5.725   5.649   3.660
 5361SOL     OW16981   1.867   3.709   3.400
 5361SOL    HW116982   1.835   3.615   3.397
 5361SOL    HW216983   1.835   3.758   3.318
 5362SOL     OW16984   6.315   1.115   4.064
 5362SOL    HW116985   6.235   1.117   4.004
 5362SOL    HW216986   6.325   1.204   4.108
 5363SOL     OW16987   5.878   5.612   4.460
 5363SOL    HW116988   5.977   5.598   4.469
 5363SOL    HW216989   5.856   5.632   4.364
 5364SOL     OW16990   4.804   2.379   1.937
 5364SOL    HW116991   4.789   2.292   1.985
 5364SOL    HW216992   4.718   2.430   1.935
 5365SOL     OW16993   3.246   3.892   5.152
 5365SOL    HW116994   3.294   3.805   5.163
 5365SOL    HW216995   3.303   3.967   5.185
 5366SOL     OW16996   0.647   4.809   3.354
 5366SOL    HW116997   0.650   4.799   3.453
 5366SOL    HW216998   0.563   4.856   3.327
 5367SOL     OW16999   6.100   6.038   1.370
 5367SOL    HW117000   6.052   5.951   1.376
 5367SOL    HW217001   6.086   6.090   1.454
 5368SOL     OW17002   0.645   5.608   5.029
 5368SOL    HW117003   0.645   5.511   5.055
 5368SOL    HW217004   0.597   5.661   5.100
 5369SOL     OW17005   4.223   6.893   3.241
 5369SOL    HW117006   4.239   6.796   3.225
 5369SOL    HW217007   4.214   6.941   3.154
 5370SOL     OW17008   2.547   2.071   0.504
 5370SOL    HW117009   2.458   2.029   0.487
 5370SOL    HW217010   2.620   2.004   0.485
 5371SOL     OW17011   6.076   5.301   3.446
 5371SOL    HW117012   6.151   5.323   3.509
 5371SOL    HW217013   5.989   5.308   3.494
 5372SOL     OW17014   1.560   0.107   3.847
 5372SOL    HW117015   1.553   0.177   3.775
 5372SOL    HW217016   1.542   0.149   3.936
 5373SOL     OW17017   3.423   0.794   6.855
 5373SOL    HW117018   3.452   0.877   6.902
 5373SOL    HW217019   3.503   0.738   6.834
 5374SOL     OW17020   1.409   3.912   1.332
 5374SOL    HW117021   1.505   3.930   1.312
 5374SOL    HW217022   1.391   3.933   1.428
 5375SOL     OW17023   2.573   4.599   4.791
 5375SOL    HW117024   2.507   4.543   4.843
 5375SOL    HW217025   2.648   4.625   4.851
 5376SOL     OW17026   1.085   0.899   1.388
 5376SOL    HW117027   1.083   0.996   1.364
 5376SOL    HW217028   1.087   0.844   1.304
 5377SOL     OW17029   0.856   2.155   2.289
 5377SOL    HW117030   0.796   2.175   2.211
 5377SOL    HW217031   0.887   2.061   2.284
 5378SOL     OW17032   5.541   6.995   2.929
 5378SOL    HW117033   5.456   6.961   2.888
 5378SOL    HW217034   5.583   0.040   2.868
 5379SOL     OW17035   2.579   1.903   4.136
 5379SOL    HW117036   2.493   1.907   4.187
 5379SOL    HW217037   2.589   1.813   4.095
 5380SOL     OW17038   5.137   6.338   1.370
 5380SOL    HW117039   5.100   6.385   1.290
 5380SOL    HW217040   5.153   6.404   1.443
 5381SOL     OW17041   3.291   2.136   2.575
 5381SOL    HW117042   3.296   2.037   2.558
 5381SOL    HW217043   3.357   2.161   2.646
 5382SOL     OW17044   4.407   0.432   2.606
 5382SOL    HW117045   4.384   0.516   2.557
 5382SOL    HW217046   4.382   0.442   2.703
 5383SOL     OW17047   2.644   3.731   5.364
 5383SOL    HW117048   2.553   3.692   5.357
 5383SOL    HW217049   2.640   3.830   5.349
 5384SOL     OW17050   4.910   6.843   6.086
 5384SOL    HW117051   4.871   6.934   6.105
 5384SOL    HW217052   4.933   6.798   6.173
 5385SOL     OW17053   3.443   3.231   0.334
 5385SOL    HW117054   3.441   3.202   0.238
 5385SOL    HW217055   3.493   3.318   0.341
 5386SOL     OW17056   4.147   4.753   3.261
 5386SOL    HW117057   4.199   4.714   3.185
 5386SOL    HW217058   4.077   4.687   3.290
 5387SOL     OW17059   1.188   2.491   4.232
 5387SOL    HW117060   1.280   2.511   4.200
 5387SOL    HW217061   1.122   2.547   4.181
 5388SOL     OW17062   6.705   6.033   3.586
 5388SOL    HW117063   6.727   5.947   3.633
 5388SOL    HW217064   6.750   6.034   3.497
 5389SOL     OW17065   5.130   1.703   4.305
 5389SOL    HW117066   5.081   1.641   4.244
 5389SOL    HW217067   5.225   1.709   4.276
 5390SOL     OW17068   5.520   3.186   3.458
 5390SOL    HW117069   5.493   3.251   3.529
 5390SOL    HW217070   5.570   3.110   3.501
 5391SOL     OW17071   4.906   2.751   1.635
 5391SOL    HW117072   4.874   2.824   1.695
 5391SOL    HW217073   4.837   2.733   1.564
 5392SOL     OW17074   5.286   0.527   4.459
 5392SOL    HW117075   5.343   0.448   4.436
 5392SOL    HW217076   5.253   0.570   4.374
 5393SOL     OW17077   3.975   1.816   3.454
 5393SOL    HW117078   3.923   1.896   3.482
 5393SOL    HW217079   4.033   1.786   3.530
 5394SOL     OW17080   0.120   2.651   2.579
 5394SOL    HW117081   0.150   2.587   2.651
 5394SOL    HW217082   0.023   2.639   2.562
 5395SOL     OW17083   0.294   1.539   0.771
 5395SOL    HW117084   0.197   1.555   0.789
 5395SOL    HW217085   0.346   1.549   0.855
 5396SOL     OW17086   4.320   2.536   1.161
 5396SOL    HW117087   4.276   2.588   1.088
 5396SOL    HW217088   4.257   2.466   1.194
 5397SOL     OW17089   6.939   0.149   2.000
 5397SOL    HW117090   6.987   0.236   2.011
 5397SOL    HW217091   7.002   0.078   1.969
 5398SOL     OW17092   5.874   1.990   3.700
 5398SOL    HW117093   5.781   1.999   3.664
 5398SOL    HW217094   5.923   1.920   3.650
 5399SOL     OW17095   2.871   3.342   0.512
 5399SOL    HW117096   2.963   3.377   0.494
 5399SOL    HW217097   2.870   3.243   0.504
 5400SOL     OW17098   5.438   2.902   1.310
 5400SOL    HW117099   5.476   2.986   1.273
 5400SOL    HW217100   5.357   2.875   1.257
 5401SOL     OW17101   5.090   3.213   1.771
 5401SOL    HW117102   5.029   3.292   1.766
 5401SOL    HW217103   5.161   3.222   1.701
 5402SOL     OW17104   1.540   5.700   1.902
 5402SOL    HW117105   1.461   5.644   1.924
 5402SOL    HW217106   1.623   5.653   1.932
 5403SOL     OW17107   6.159   2.098   6.059
 5403SOL    HW117108   6.250   2.079   6.023
 5403SOL    HW217109   6.153   2.195   6.084
 5404SOL     OW17110   4.446   6.854   0.895
 5404SOL    HW117111   4.546   6.849   0.886
 5404SOL    HW217112   4.403   6.802   0.821
 5405SOL     OW17113   6.898   5.265   6.377
 5405SOL    HW117114   6.867   5.185   6.326
 5405SOL    HW217115   6.959   5.319   6.320
 5406SOL     OW17116   2.279   0.585   5.553
 5406SOL    HW117117   2.260   0.682   5.536
 5406SOL    HW217118   2.235   0.530   5.482
 5407SOL     OW17119   2.120   0.431   2.802
 5407SOL    HW117120   2.099   0.346   2.849
 5407SOL    HW217121   2.104   0.419   2.703
 5408SOL     OW17122   1.698   2.300   4.461
 5408SOL    HW117123   1.708   2.400   4.467
 5408SOL    HW217124   1.608   2.274   4.496
 5409SOL     OW17125   0.648   3.518   2.719
 5409SOL    HW117126   0.654   3.420   2.701
 5409SOL    HW217127   0.716   3.566   2.664
 5410SOL     OW17128   6.005   2.189   0.217
 5410SOL    HW117129   6.047   2.107   0.257
 5410SOL    HW217130   5.942   2.230   0.282
 5411SOL     OW17131   3.330   5.250   1.726
 5411SOL    HW117132   3.270   5.301   1.664
 5411SOL    HW217133   3.298   5.156   1.734
 5412SOL     OW17134   1.346   2.313   5.406
 5412SOL    HW117135   1.404   2.238   5.436
 5412SOL    HW217136   1.291   2.346   5.483
 5413SOL     OW17137   6.968   5.795   5.908
 5413SOL    HW117138   6.985   5.722   5.842
 5413SOL    HW217139   0.003   5.874   5.887
 5414SOL     OW17140   5.728   5.519   6.286
 5414SOL    HW117141   5.776   5.461   6.221
 5414SOL    HW217142   5.764   5.503   6.378
 5415SOL     OW17143   1.667   1.317   6.540
 5415SOL    HW117144   1.756   1.331   6.583
 5415SOL    HW217145   1.679   1.264   6.456
 5416SOL     OW17146   3.656   6.053   6.780
 5416SOL    HW117147   3.712   5.991   6.724
 5416SOL    HW217148   3.625   6.130   6.725
 5417SOL     OW17149   5.696   0.072   2.274
 5417SOL    HW117150   5.772   0.019   2.238
 5417SOL    HW217151   5.720   0.169   2.273
 5418SOL     OW17152   0.449   4.106   5.491
 5418SOL    HW117153   0.480   4.020   5.531
 5418SOL    HW217154   0.463   4.180   5.557
 5419SOL     OW17155   3.675   1.356   6.066
 5419SOL    HW117156   3.606   1.311   6.010
 5419SOL    HW217157   3.698   1.444   6.025
 5420SOL     OW17158   2.117   2.159   0.732
 5420SOL    HW117159   2.083   2.251   0.712
 5420SOL    HW217160   2.147   2.154   0.828
 5421SOL     OW17161   4.324   5.096   1.616
 5421SOL    HW117162   4.238   5.099   1.667
 5421SOL    HW217163   4.357   5.001   1.613
 5422SOL     OW17164   2.753   6.310   3.185
 5422SOL    HW117165   2.730   6.219   3.150
 5422SOL    HW217166   2.824   6.301   3.255
 5423SOL     OW17167   3.829   6.843   1.579
 5423SOL    HW117168   3.752   6.784   1.553
 5423SOL    HW217169   3.797   6.914   1.642
 5424SOL     OW17170   3.791   3.821   5.255
 5424SOL    HW117171   3.830   3.799   5.345
 5424SOL    HW217172   3.785   3.738   5.200
 5425SOL     OW17173   1.403   5.369   5.295
 5425SOL    HW117174   1.454   5.429   5.358
 5425SOL    HW217175   1.455   5.359   5.210
 5426SOL     OW17176   1.009   4.254   6.799
 5426SOL    HW117177   1.044   4.348   6.797
 5426SOL    HW217178   1.049   4.202   6.723
 5427SOL     OW17179   4.548   1.970   0.115
 5427SOL    HW117180   4.613   2.046   0.117
 5427SOL    HW217181   4.548   1.923   0.203
 5428SOL     OW17182   4.419   5.924   3.168
 5428SOL    HW117183   4.404   5.922   3.069
 5428SOL    HW217184   4.358   5.857   3.212
 5429SOL     OW17185   2.478   6.099   3.987
 5429SOL    HW117186   2.416   6.031   3.947
 5429SOL    HW217187   2.507   6.068   4.078
 5430SOL     OW17188   1.548   4.177   5.002
 5430SOL    HW117189   1.616   4.247   5.025
 5430SOL    HW217190   1.493   4.209   4.925
 5431SOL     OW17191   5.011   4.828   1.661
 5431SOL    HW117192   5.095   4.839   1.607
 5431SOL    HW217193   4.932   4.849   1.604
 5432SOL     OW17194   0.302   5.037   6.309
 5432SOL    HW117195   0.384   4.994   6.271
 5432SOL    HW217196   0.260   5.095   6.240
 5433SOL     OW17197   2.862   0.488   1.486
 5433SOL    HW117198   2.852   0.516   1.390
 5433SOL    HW217199   2.954   0.453   1.501
 5434SOL     OW17200   5.348   5.980   4.030
 5434SOL    HW117201   5.288   5.988   3.950
 5434SOL    HW217202   5.441   5.957   4.000
 5435SOL     OW17203   6.687   3.914   6.405
 5435SOL    HW117204   6.597   3.893   6.367
 5435SOL    HW217205   6.758   3.897   6.336
 5436SOL     OW17206   1.818   4.165   1.921
 5436SOL    HW117207   1.765   4.184   2.004
 5436SOL    HW217208   1.774   4.208   1.842
 5437SOL     OW17209   3.312   6.216   0.178
 5437SOL    HW117210   3.265   6.292   0.135
 5437SOL    HW217211   3.385   6.183   0.119
 5438SOL     OW17212   5.956   6.913   2.586
 5438SOL    HW117213   5.875   6.963   2.615
 5438SOL    HW217214   6.032   6.932   2.648
 5439SOL     OW17215   1.660   3.927   1.613
 5439SOL    HW117216   1.593   3.946   1.685
 5439SOL    HW217217   1.752   3.941   1.649
 5440SOL     OW17218   6.419   0.077   4.008
 5440SOL    HW117219   6.377   0.134   3.937
 5440SOL    HW217220   6.463   7.021   3.965
 5441SOL     OW17221   5.490   1.839   4.739
 5441SOL    HW117222   5.410   1.840   4.680
 5441SOL    HW217223   5.487   1.759   4.798
 5442SOL     OW17224   2.391   0.330   6.669
 5442SOL    HW117225   2.487   0.359   6.666
 5442SOL    HW217226   2.364   0.315   6.764
 5443SOL     OW17227   5.903   0.530   3.466
 5443SOL    HW117228   5.873   0.562   3.557
 5443SOL    HW217229   6.001   0.543   3.457
 5444SOL     OW17230   1.121   1.190   5.682
 5444SOL    HW117231   1.046   1.214   5.744
 5444SOL    HW217232   1.202   1.243   5.707
 5445SOL     OW17233   6.093   6.623   5.068
 5445SOL    HW117234   6.000   6.650   5.092
 5445SOL    HW217235   6.122   6.673   4.987
 5446SOL     OW17236   1.608   5.570   5.794
 5446SOL    HW117237   1.646   5.565   5.886
 5446SOL    HW217238   1.601   5.477   5.757
 5447SOL     OW17239   6.214   2.219   1.293
 5447SOL    HW117240   6.300   2.265   1.317
 5447SOL    HW217241   6.156   2.212   1.374
 5448SOL     OW17242   6.575   4.614   1.778
 5448SOL    HW117243   6.598   4.651   1.688
 5448SOL    HW217244   6.529   4.685   1.832
 5449SOL     OW17245   1.802   6.949   2.261
 5449SOL    HW117246   1.809   6.856   2.295
 5449SOL    HW217247   1.706   6.973   2.246
 5450SOL     OW17248   4.628   5.618   1.819
 5450SOL    HW117249   4.557   5.621   1.888
 5450SOL    HW217250   4.685   5.536   1.833
 5451SOL     OW17251   0.029   6.673   3.933
 5451SOL    HW117252   0.103   6.731   3.899
 5451SOL    HW217253   7.021   6.612   3.860
 5452SOL     OW17254   2.129   4.417   3.110
 5452SOL    HW117255   2.154   4.440   3.204
 5452SOL    HW217256   2.033   4.388   3.108
 5453SOL     OW17257   5.691   4.599   4.139
 5453SOL    HW117258   5.602   4.553   4.145
 5453SOL    HW217259   5.702   4.640   4.048
 5454SOL     OW17260   5.855   4.161   2.639
 5454SOL    HW117261   5.879   4.087   2.701
 5454SOL    HW217262   5.933   4.185   2.582
 5455SOL     OW17263   2.613   2.088   3.122
 5455SOL    HW117264   2.675   2.020   3.083
 5455SOL    HW217265   2.577   2.147   3.049
 5456SOL     OW17266   5.802   2.544   0.710
 5456SOL    HW117267   5.816   2.583   0.801
 5456SOL    HW217268   5.889   2.541   0.661
 5457SOL     OW17269   6.680   1.504   0.510
 5457SOL    HW117270   6.780   1.493   0.507
 5457SOL    HW217271   6.650   1.558   0.432
 5458SOL     OW17272   5.522   4.679   5.908
 5458SOL    HW117273   5.611   4.691   5.866
 5458SOL    HW217274   5.455   4.652   5.839
 5459SOL     OW17275   2.040   3.230   5.079
 5459SOL    HW117276   2.132   3.269   5.076
 5459SOL    HW217277   2.046   3.131   5.061
 5460SOL     OW17278   0.483   0.837   1.206
 5460SOL    HW117279   0.414   0.858   1.276
 5460SOL    HW217280   0.471   0.743   1.175
 5461SOL     OW17281   6.151   1.566   6.755
 5461SOL    HW117282   6.092   1.514   6.817
 5461SOL    HW217283   6.229   1.602   6.806
 5462SOL     OW17284   5.319   5.240   6.215
 5462SOL    HW117285   5.342   5.192   6.299
 5462SOL    HW217286   5.374   5.323   6.208
 5463SOL     OW17287   1.813   5.316   6.251
 5463SOL    HW117288   1.901   5.271   6.236
 5463SOL    HW217289   1.752   5.254   6.300
 5464SOL     OW17290   2.079   5.358   4.358
 5464SOL    HW117291   2.010   5.415   4.315
 5464SOL    HW217292   2.038   5.311   4.437
 5465SOL     OW17293   0.481   0.464   5.097
 5465SOL    HW117294   0.572   0.423   5.088
 5465SOL    HW217295   0.477   0.549   5.044
 5466SOL     OW17296   5.047   2.495   4.999
 5466SOL    HW117297   5.001   2.425   4.945
 5466SOL    HW217298   4.990   2.521   5.076
 5467SOL     OW17299   6.232   3.399   4.257
 5467SOL    HW117300   6.165   3.463   4.220
 5467SOL    HW217301   6.306   3.449   4.301
 5468SOL     OW17302   6.962   2.792   1.568
 5468SOL    HW117303   0.027   2.767   1.528
 5468SOL    HW217304   6.889   2.770   1.504
 5469SOL     OW17305   3.896   2.180   3.884
 5469SOL    HW117306   3.797   2.190   3.891
 5469SOL    HW217307   3.939   2.215   3.967
 5470SOL     OW17308   2.997   5.308   3.363
 5470SOL    HW117309   3.093   5.308   3.338
 5470SOL    HW217310   2.950   5.231   3.318
 5471SOL     OW17311   5.657   0.883   3.163
 5471SOL    HW117312   5.711   0.841   3.236
 5471SOL    HW217313   5.674   0.982   3.162
 5472SOL     OW17314   2.270   3.887   6.644
 5472SOL    HW117315   2.336   3.926   6.581
 5472SOL    HW217316   2.180   3.929   6.629
 5473SOL     OW17317   2.760   4.756   2.219
 5473SOL    HW117318   2.775   4.685   2.151
 5473SOL    HW217319   2.715   4.835   2.177
 5474SOL     OW17320   1.015   4.904   2.015
 5474SOL    HW117321   1.073   4.892   2.096
 5474SOL    HW217322   0.954   4.825   2.006
 5475SOL     OW17323   1.258   0.889   5.355
 5475SOL    HW117324   1.340   0.896   5.298
 5475SOL    HW217325   1.238   0.978   5.396
 5476SOL     OW17326   2.228   0.723   4.712
 5476SOL    HW117327   2.150   0.687   4.764
 5476SOL    HW217328   2.252   0.814   4.745
 5477SOL     OW17329   2.202   3.130   2.881
 5477SOL    HW117330   2.245   3.051   2.838
 5477SOL    HW217331   2.155   3.185   2.812
 5478SOL     OW17332   6.143   3.853   5.933
 5478SOL    HW117333   6.048   3.824   5.939
 5478SOL    HW217334   6.153   3.921   5.860
 5479SOL     OW17335   5.617   3.281   4.573
 5479SOL    HW117336   5.678   3.336   4.516
 5479SOL    HW217337   5.657   3.191   4.588
 5480SOL     OW17338   1.394   3.525   4.305
 5480SOL    HW117339   1.482   3.567   4.325
 5480SOL    HW217340   1.355   3.566   4.223
 5481SOL     OW17341   4.189   1.303   6.722
 5481SOL    HW117342   4.219   1.349   6.638
 5481SOL    HW217343   4.089   1.298   6.724
 5482SOL     OW17344   5.421   3.950   2.509
 5482SOL    HW117345   5.394   3.865   2.464
 5482SOL    HW217346   5.518   3.967   2.492
 5483SOL     OW17347   6.592   2.714   0.237
 5483SOL    HW117348   6.516   2.773   0.265
 5483SOL    HW217349   6.657   2.767   0.182
 5484SOL     OW17350   6.255   0.506   5.456
 5484SOL    HW117351   6.268   0.491   5.358
 5484SOL    HW217352   6.337   0.546   5.495
 5485SOL     OW17353   3.212   0.815   4.241
 5485SOL    HW117354   3.185   0.772   4.326
 5485SOL    HW217355   3.300   0.779   4.210
 5486SOL     OW17356   0.906   0.157   3.558
 5486SOL    HW117357   0.970   0.127   3.629
 5486SOL    HW217358   0.886   0.254   3.571
 5487SOL     OW17359   4.314   5.381   1.894
 5487SOL    HW117360   4.254   5.358   1.817
 5487SOL    HW217361   4.307   5.479   1.914
 5488SOL     OW17362   4.985   1.396   5.565
 5488SOL    HW117363   4.917   1.367   5.497
 5488SOL    HW217364   5.058   1.446   5.519
 5489SOL     OW17365   6.880   4.140   2.059
 5489SOL    HW117366   6.965   4.159   2.108
 5489SOL    HW217367   6.806   4.124   2.124
 5490SOL     OW17368   2.908   2.313   6.047
 5490SOL    HW117369   2.977   2.243   6.028
 5490SOL    HW217370   2.825   2.294   5.994
 5491SOL     OW17371   0.233   5.688   2.487
 5491SOL    HW117372   0.163   5.753   2.459
 5491SOL    HW217373   0.312   5.697   2.427
 5492SOL     OW17374   1.178   1.346   4.510
 5492SOL    HW117375   1.079   1.357   4.510
 5492SOL    HW217376   1.202   1.252   4.531
 5493SOL     OW17377   2.911   1.939   0.840
 5493SOL    HW117378   2.999   1.980   0.864
 5493SOL    HW217379   2.896   1.856   0.893
 5494SOL     OW17380   6.028   3.233   2.616
 5494SOL    HW117381   5.949   3.233   2.678
 5494SOL    HW217382   5.996   3.226   2.522
 5495SOL     OW17383   3.877   3.280   4.040
 5495SOL    HW117384   3.838   3.356   3.988
 5495SOL    HW217385   3.888   3.201   3.980
 5496SOL     OW17386   5.155   5.282   2.080
 5496SOL    HW117387   5.070   5.288   2.132
 5496SOL    HW217388   5.221   5.225   2.129
 5497SOL     OW17389   5.524   0.423   0.832
 5497SOL    HW117390   5.576   0.437   0.916
 5497SOL    HW217391   5.521   0.508   0.779
 5498SOL     OW17392   4.292   1.283   4.928
 5498SOL    HW117393   4.360   1.301   4.857
 5498SOL    HW217394   4.221   1.223   4.891
 5499SOL     OW17395   0.671   1.355   5.139
 5499SOL    HW117396   0.638   1.308   5.221
 5499SOL    HW217397   0.714   1.289   5.078
 5500SOL     OW17398   1.676   6.541   1.076
 5500SOL    HW117399   1.749   6.529   1.145
 5500SOL    HW217400   1.675   6.462   1.015
 5501SOL     OW17401   2.818   0.795   2.568
 5501SOL    HW117402   2.906   0.831   2.538
 5501SOL    HW217403   2.756   0.870   2.589
 5502SOL     OW17404   4.728   3.178   0.108
 5502SOL    HW117405   4.640   3.151   0.069
 5502SOL    HW217406   4.713   3.247   0.178
 5503SOL     OW17407   0.285   6.525   4.574
 5503SOL    HW117408   0.199   6.481   4.551
 5503SOL    HW217409   0.299   6.523   4.673
 5504SOL     OW17410   3.078   1.813   4.335
 5504SOL    HW117411   3.047   1.870   4.259
 5504SOL    HW217412   3.177   1.808   4.336
 5505SOL     OW17413   3.605   4.846   0.109
 5505SOL    HW117414   3.536   4.811   0.173
 5505SOL    HW217415   3.578   4.937   0.078
 5506SOL     OW17416   6.605   6.683   5.740
 5506SOL    HW117417   6.617   6.776   5.774
 5506SOL    HW217418   6.584   6.622   5.816
 5507SOL     OW17419   3.173   5.589   5.081
 5507SOL    HW117420   3.165   5.618   5.177
 5507SOL    HW217421   3.244   5.519   5.073
 5508SOL     OW17422   1.234   0.654   5.521
 5508SOL    HW117423   1.307   0.662   5.589
 5508SOL    HW217424   1.258   0.708   5.440
 5509SOL     OW17425   6.231   0.195   6.435
 5509SOL    HW117426   6.138   0.231   6.436
 5509SOL    HW217427   6.261   0.182   6.340
 5510SOL     OW17428   6.125   0.741   6.185
 5510SOL    HW117429   6.073   0.785   6.112
 5510SOL    HW217430   6.104   0.644   6.187
 5511SOL     OW17431   6.753   2.865   1.430
 5511SOL    HW117432   6.774   2.913   1.516
 5511SOL    HW217433   6.674   2.908   1.387
 5512SOL     OW17434   0.272   0.300   0.448
 5512SOL    HW117435   0.178   0.269   0.461
 5512SOL    HW217436   0.307   0.265   0.360
 5513SOL     OW17437   2.781   6.090   5.073
 5513SOL    HW117438   2.836   6.088   4.989
 5513SOL    HW217439   2.773   5.997   5.110
 5514SOL     OW17440   6.178   5.533   3.947
 5514SOL    HW117441   6.259   5.574   3.905
 5514SOL    HW217442   6.205   5.453   4.001
 5515SOL     OW17443   6.883   3.637   3.184
 5515SOL    HW117444   6.847   3.675   3.098
 5515SOL    HW217445   6.940   3.705   3.229
 5516SOL     OW17446   1.270   2.353   6.399
 5516SOL    HW117447   1.337   2.371   6.470
 5516SOL    HW217448   1.224   2.438   6.373
 5517SOL     OW17449   2.375   0.817   2.040
 5517SOL    HW117450   2.346   0.844   2.132
 5517SOL    HW217451   2.434   0.889   2.002
 5518SOL     OW17452   5.615   4.581   5.110
 5518SOL    HW117453   5.661   4.553   5.195
 5518SOL    HW217454   5.530   4.530   5.100
 5519SOL     OW17455   5.575   3.836   3.168
 5519SOL    HW117456   5.500   3.900   3.153
 5519SOL    HW217457   5.592   3.785   3.084
 5520SOL     OW17458   2.187   2.719   0.823
 5520SOL    HW117459   2.228   2.650   0.763
 5520SOL    HW217460   2.198   2.810   0.782
 5521SOL     OW17461   5.067   5.293   0.398
 5521SOL    HW117462   4.976   5.298   0.356
 5521SOL    HW217463   5.067   5.346   0.483
 5522SOL     OW17464   1.932   2.946   1.910
 5522SOL    HW117465   1.990   2.957   1.990
 5522SOL    HW217466   1.837   2.934   1.939
 5523SOL     OW17467   3.584   0.630   1.564
 5523SOL    HW117468   3.677   0.631   1.528
 5523SOL    HW217469   3.567   0.714   1.615
 5524SOL     OW17470   5.830   6.160   5.625
 5524SOL    HW117471   5.731   6.143   5.625
 5524SOL    HW217472   5.851   6.227   5.696
 5525SOL     OW17473   6.557   5.867   4.044
 5525SOL    HW117474   6.629   5.879   4.112
 5525SOL    HW217475   6.558   5.943   3.980
 5526SOL     OW17476   5.220   3.122   4.723
 5526SOL    HW117477   5.227   3.160   4.816
 5526SOL    HW217478   5.248   3.191   4.657
 5527SOL     OW17479   2.091   3.275   6.941
 5527SOL    HW117480   2.069   3.330   6.860
 5527SOL    HW217481   2.033   3.193   6.942
 5528SOL     OW17482   6.727   3.399   2.894
 5528SOL    HW117483   6.779   3.354   2.967
 5528SOL    HW217484   6.789   3.456   2.840
 5529SOL     OW17485   1.031   0.996   4.001
 5529SOL    HW117486   0.939   1.032   3.988
 5529SOL    HW217487   1.032   0.898   3.978
 5530SOL     OW17488   0.041   3.402   6.794
 5530SOL    HW117489   0.094   3.437   6.871
 5530SOL    HW217490   7.015   3.478   6.751
 5531SOL     OW17491   2.122   2.924   6.788
 5531SOL    HW117492   2.051   2.885   6.847
 5531SOL    HW217493   2.189   2.853   6.766
 5532SOL     OW17494   1.986   2.141   1.382
 5532SOL    HW117495   1.978   2.109   1.288
 5532SOL    HW217496   2.074   2.185   1.396
 5533SOL     OW17497   3.611   0.618   0.378
 5533SOL    HW117498   3.598   0.704   0.429
 5533SOL    HW217499   3.574   0.628   0.286
 5534SOL     OW17500   0.107   4.364   5.128
 5534SOL    HW117501   0.046   4.287   5.148
 5534SOL    HW217502   0.178   4.369   5.198
 5535SOL     OW17503   6.281   3.340   3.943
 5535SOL    HW117504   6.260   3.405   4.016
 5535SOL    HW217505   6.381   3.334   3.932
 5536SOL     OW17506   3.158   0.572   4.039
 5536SOL    HW117507   3.184   0.667   4.055
 5536SOL    HW217508   3.066   0.569   4.000
 5537SOL     OW17509   3.939   1.532   4.831
 5537SOL    HW117510   3.945   1.437   4.800
 5537SOL    HW217511   3.892   1.586   4.761
 5538SOL     OW17512   5.482   2.735   2.451
 5538SOL    HW117513   5.491   2.724   2.352
 5538SOL    HW217514   5.561   2.786   2.486
 5539SOL     OW17515   2.538   6.907   0.110
 5539SOL    HW117516   2.536   6.971   0.034
 5539SOL    HW217517   2.629   6.905   0.150
 5540SOL     OW17518   5.219   0.443   5.592
 5540SOL    HW117519   5.254   0.460   5.500
 5540SOL    HW217520   5.226   0.527   5.647
 5541SOL     OW17521   4.975   3.213   0.034
 5541SOL    HW117522   4.879   3.208   0.059
 5541SOL    HW217523   4.989   3.287   6.991
 5542SOL     OW17524   4.491   4.591   0.325
 5542SOL    HW117525   4.560   4.523   0.349
 5542SOL    HW217526   4.490   4.664   0.393
 5543SOL     OW17527   1.429   0.462   6.638
 5543SOL    HW117528   1.524   0.491   6.651
 5543SOL    HW217529   1.425   0.391   6.568
 5544SOL     OW17530   3.779   5.253   0.895
 5544SOL    HW117531   3.783   5.331   0.832
 5544SOL    HW217532   3.770   5.168   0.842
 5545SOL     OW17533   5.265   0.827   3.832
 5545SOL    HW117534   5.182   0.868   3.795
 5545SOL    HW217535   5.301   0.884   3.906
 5546SOL     OW17536   0.435   5.036   4.509
 5546SOL    HW117537   0.403   5.068   4.598
 5546SOL    HW217538   0.481   4.948   4.520
 5547SOL     OW17539   4.939   2.289   4.802
 5547SOL    HW117540   4.990   2.319   4.722
 5547SOL    HW217541   4.946   2.190   4.811
 5548SOL     OW17542   0.622   4.680   5.265
 5548SOL    HW117543   0.654   4.770   5.235
 5548SOL    HW217544   0.598   4.625   5.185
 5549SOL     OW17545   4.158   3.181   0.655
 5549SOL    HW117546   4.243   3.135   0.681
 5549SOL    HW217547   4.085   3.155   0.718
 5550SOL     OW17548   2.603   4.156   1.708
 5550SOL    HW117549   2.513   4.171   1.748
 5550SOL    HW217550   2.617   4.058   1.694
 5551SOL     OW17551   2.103   4.869   2.530
 5551SOL    HW117552   2.024   4.852   2.470
 5551SOL    HW217553   2.162   4.789   2.531
 5552SOL     OW17554   1.025   6.992   0.058
 5552SOL    HW117555   0.996   0.065   0.063
 5552SOL    HW217556   1.060   6.972   6.990
 5553SOL     OW17557   5.286   0.431   0.193
 5553SOL    HW117558   5.224   0.506   0.171
 5553SOL    HW217559   5.311   0.382   0.109
 5554SOL     OW17560   6.984   2.003   1.294
 5554SOL    HW117561   6.948   2.058   1.218
 5554SOL    HW217562   6.973   1.906   1.273
 5555SOL     OW17563   1.354   4.916   2.737
 5555SOL    HW117564   1.371   4.834   2.683
 5555SOL    HW217565   1.388   4.903   2.831
 5556SOL     OW17566   6.837   0.863   4.448
 5556SOL    HW117567   6.756   0.821   4.407
 5556SOL    HW217568   6.840   0.841   4.546
 5557SOL     OW17569   3.780   6.051   3.349
 5557SOL    HW117570   3.810   6.056   3.253
 5557SOL    HW217571   3.789   5.957   3.382
 5558SOL     OW17572   4.424   4.316   6.980
 5558SOL    HW117573   4.394   4.393   0.012
 5558SOL    HW217574   4.522   4.301   6.995
 5559SOL     OW17575   3.450   1.120   2.595
 5559SOL    HW117576   3.497   1.206   2.614
 5559SOL    HW217577   3.511   1.060   2.543
 5560SOL     OW17578   0.621   5.385   3.950
 5560SOL    HW117579   0.586   5.292   3.953
 5560SOL    HW217580   0.555   5.444   3.904
 5561SOL     OW17581   3.504   6.624   2.851
 5561SOL    HW117582   3.510   6.663   2.943
 5561SOL    HW217583   3.515   6.696   2.783
 5562SOL     OW17584   3.560   3.548   0.996
 5562SOL    HW117585   3.564   3.473   1.062
 5562SOL    HW217586   3.502   3.621   1.032
 5563SOL     OW17587   2.473   4.451   2.280
 5563SOL    HW117588   2.564   4.492   2.285
 5563SOL    HW217589   2.436   4.463   2.188
 5564SOL     OW17590   5.229   0.296   6.185
 5564SOL    HW117591   5.293   0.226   6.152
 5564SOL    HW217592   5.188   0.343   6.107
 5565SOL     OW17593   3.347   1.482   6.269
 5565SOL    HW117594   3.285   1.527   6.204
 5565SOL    HW217595   3.304   1.479   6.359
 5566SOL     OW17596   1.554   4.086   6.289
 5566SOL    HW117597   1.594   4.010   6.236
 5566SOL    HW217598   1.515   4.153   6.227
 5567SOL     OW17599   0.504   4.495   0.182
 5567SOL    HW117600   0.424   4.552   0.160
 5567SOL    HW217601   0.582   4.526   0.128
 5568SOL     OW17602   4.661   4.753   1.233
 5568SOL    HW117603   4.749   4.704   1.238
 5568SOL    HW217604   4.616   4.749   1.322
 5569SOL     OW17605   2.390   2.595   2.838
 5569SOL    HW117606   2.325   2.530   2.880
 5569SOL    HW217607   2.426   2.656   2.908
 5570SOL     OW17608   6.902   3.721   1.860
 5570SOL    HW117609   6.922   3.733   1.957
 5570SOL    HW217610   6.891   3.811   1.818
 5571SOL     OW17611   6.670   4.829   0.980
 5571SOL    HW117612   6.591   4.768   0.987
 5571SOL    HW217613   6.749   4.777   0.946
 5572SOL     OW17614   1.865   3.974   5.104
 5572SOL    HW117615   1.862   4.041   5.178
 5572SOL    HW217616   1.951   3.923   5.109
 5573SOL     OW17617   2.963   4.968   3.477
 5573SOL    HW117618   2.973   5.054   3.527
 5573SOL    HW217619   2.935   4.896   3.541
 5574SOL     OW17620   0.300   2.334   5.265
 5574SOL    HW117621   0.337   2.242   5.279
 5574SOL    HW217622   0.319   2.390   5.345
 5575SOL     OW17623   6.908   7.018   1.484
 5575SOL    HW117624   6.938   6.949   1.418
 5575SOL    HW217625   6.852   6.975   1.555
 5576SOL     OW17626   1.365   5.286   2.698
 5576SOL    HW117627   1.303   5.210   2.676
 5576SOL    HW217628   1.353   5.312   2.794
 5577SOL     OW17629   2.018   2.379   5.854
 5577SOL    HW117630   2.016   2.289   5.809
 5577SOL    HW217631   2.101   2.427   5.827
 5578SOL     OW17632   3.286   4.111   3.483
 5578SOL    HW117633   3.374   4.126   3.526
 5578SOL    HW217634   3.223   4.069   3.548
 5579SOL     OW17635   6.769   2.741   2.063
 5579SOL    HW117636   6.855   2.730   2.014
 5579SOL    HW217637   6.788   2.757   2.160
 5580SOL     OW17638   5.941   2.062   5.734
 5580SOL    HW117639   5.935   2.145   5.789
 5580SOL    HW217640   6.006   2.075   5.660
 5581SOL     OW17641   1.776   2.765   6.745
 5581SOL    HW117642   1.789   2.666   6.743
 5581SOL    HW217643   1.771   2.801   6.652
 5582SOL     OW17644   2.589   3.076   6.065
 5582SOL    HW117645   2.528   3.151   6.090
 5582SOL    HW217646   2.613   3.022   6.146
 5583SOL     OW17647   5.148   0.391   1.278
 5583SOL    HW117648   5.187   0.426   1.193
 5583SOL    HW217649   5.186   0.300   1.297
 5584SOL     OW17650   1.757   3.227   4.165
 5584SOL    HW117651   1.664   3.221   4.202
 5584SOL    HW217652   1.764   3.307   4.105
 5585SOL     OW17653   5.208   5.193   1.810
 5585SOL    HW117654   5.307   5.198   1.797
 5585SOL    HW217655   5.185   5.231   1.900
 5586SOL     OW17656   7.016   4.273   0.312
 5586SOL    HW117657   7.001   4.210   0.388
 5586SOL    HW217658   7.006   4.224   0.225
 5587SOL     OW17659   6.070   0.931   5.900
 5587SOL    HW117660   6.071   0.992   5.979
 5587SOL    HW217661   6.164   0.907   5.876
 5588SOL     OW17662   3.802   6.794   0.843
 5588SOL    HW117663   3.832   6.861   0.911
 5588SOL    HW217664   3.791   6.705   0.886
 5589SOL     OW17665   6.109   4.831   6.271
 5589SOL    HW117666   6.128   4.915   6.222
 5589SOL    HW217667   6.034   4.846   6.336
 5590SOL     OW17668   6.532   5.304   3.435
 5590SOL    HW117669   6.482   5.288   3.350
 5590SOL    HW217670   6.597   5.229   3.449
 5591SOL     OW17671   5.467   0.927   2.041
 5591SOL    HW117672   5.547   0.904   2.096
 5591SOL    HW217673   5.418   0.843   2.017
 5592SOL     OW17674   0.678   4.018   3.152
 5592SOL    HW117675   0.763   4.062   3.182
 5592SOL    HW217676   0.675   3.924   3.184
 5593SOL     OW17677   0.244   3.905   0.445
 5593SOL    HW117678   0.340   3.909   0.417
 5593SOL    HW217679   0.235   3.846   0.525
 5594SOL     OW17680   6.473   2.146   6.461
 5594SOL    HW117681   6.487   2.215   6.532
 5594SOL    HW217682   6.522   2.172   6.378
 5595SOL     OW17683   1.240   2.621   6.310
 5595SOL    HW117684   1.251   2.684   6.386
 5595SOL    HW217685   1.303   2.646   6.236
 5596SOL     OW17686   2.986   6.160   3.222
 5596SOL    HW117687   2.993   6.159   3.322
 5596SOL    HW217688   3.029   6.244   3.187
 5597SOL     OW17689   4.929   3.336   2.840
 5597SOL    HW117690   4.928   3.334   2.940
 5597SOL    HW217691   5.013   3.293   2.807
 5598SOL     OW17692   5.060   1.785   5.236
 5598SOL    HW117693   5.125   1.856   5.264
 5598SOL    HW217694   5.031   1.803   5.142
 5599SOL     OW17695   1.115   0.582   3.360
 5599SOL    HW117696   1.135   0.515   3.432
 5599SOL    HW217697   1.024   0.622   3.376
 5600SOL     OW17698   1.890   2.613   4.831
 5600SOL    HW117699   1.797   2.579   4.835
 5600SOL    HW217700   1.920   2.622   4.736
 5601SOL     OW17701   2.340   0.836   6.106
 5601SOL    HW117702   2.371   0.815   6.198
 5601SOL    HW217703   2.378   0.768   6.042
 5602SOL     OW17704   1.729   0.705   0.001
 5602SOL    HW117705   1.725   0.705   6.924
 5602SOL    HW217706   1.696   0.793   0.035
 5603SOL     OW17707   5.809   4.979   6.204
 5603SOL    HW117708   5.737   5.043   6.178
 5603SOL    HW217709   5.773   4.886   6.203
 5604SOL     OW17710   6.139   1.379   6.064
 5604SOL    HW117711   6.099   1.361   5.974
 5604SOL    HW217712   6.066   1.405   6.127
 5605SOL     OW17713   1.519   2.354   6.254
 5605SOL    HW117714   1.426   2.384   6.274
 5605SOL    HW217715   1.583   2.425   6.280
 5606SOL     OW17716   5.665   0.459   3.089
 5606SOL    HW117717   5.647   0.364   3.115
 5606SOL    HW217718   5.718   0.462   3.004
 5607SOL     OW17719   6.072   0.782   1.340
 5607SOL    HW117720   6.117   0.692   1.340
 5607SOL    HW217721   5.990   0.779   1.397
 5608SOL     OW17722   3.995   6.561   5.134
 5608SOL    HW117723   4.058   6.638   5.144
 5608SOL    HW217724   3.978   6.543   5.037
 5609SOL     OW17725   1.744   5.582   5.137
 5609SOL    HW117726   1.841   5.604   5.141
 5609SOL    HW217727   1.691   5.667   5.135
 5610SOL     OW17728   4.664   0.402   6.384
 5610SOL    HW117729   4.703   0.310   6.374
 5610SOL    HW217730   4.736   0.470   6.368
 5611SOL     OW17731   2.231   4.787   3.883
 5611SOL    HW117732   2.280   4.776   3.969
 5611SOL    HW217733   2.289   4.755   3.808
 5612SOL     OW17734   2.535   0.047   5.325
 5612SOL    HW117735   2.631   0.072   5.314
 5612SOL    HW217736   2.479   0.105   5.266
 5613SOL     OW17737   3.845   5.263   1.709
 5613SOL    HW117738   3.772   5.219   1.761
 5613SOL    HW217739   3.825   5.257   1.611
 5614SOL     OW17740   4.945   2.266   3.648
 5614SOL    HW117741   5.022   2.202   3.637
 5614SOL    HW217742   4.955   2.316   3.734
 5615SOL     OW17743   1.595   1.405   1.321
 5615SOL    HW117744   1.519   1.448   1.370
 5615SOL    HW217745   1.575   1.404   1.223
 5616SOL     OW17746   2.249   0.126   4.652
 5616SOL    HW117747   2.245   0.093   4.747
 5616SOL    HW217748   2.157   0.148   4.621
 5617SOL     OW17749   0.436   0.726   5.008
 5617SOL    HW117750   0.355   0.690   5.053
 5617SOL    HW217751   0.471   0.805   5.059
 5618SOL     OW17752   6.755   4.114   2.819
 5618SOL    HW117753   6.779   4.132   2.915
 5618SOL    HW217754   6.720   4.198   2.777
 5619SOL     OW17755   2.066   3.903   4.854
 5619SOL    HW117756   2.004   3.839   4.898
 5619SOL    HW217757   2.145   3.920   4.913
 5620SOL     OW17758   3.899   2.014   6.689
 5620SOL    HW117759   3.998   2.009   6.704
 5620SOL    HW217760   3.874   2.108   6.665
 5621SOL     OW17761   2.402   1.758   6.362
 5621SOL    HW117762   2.390   1.857   6.365
 5621SOL    HW217763   2.497   1.736   6.386
 5622SOL     OW17764   5.284   1.001   5.302
 5622SOL    HW117765   5.253   0.909   5.279
 5622SOL    HW217766   5.290   1.056   5.218
 5623SOL     OW17767   0.617   5.666   6.944
 5623SOL    HW117768   0.700   5.633   6.989
 5623SOL    HW217769   0.539   5.611   6.973
 5624SOL     OW17770   0.945   4.302   2.508
 5624SOL    HW117771   0.929   4.319   2.410
 5624SOL    HW217772   0.926   4.206   2.528
 5625SOL     OW17773   6.367   2.395   5.883
 5625SOL    HW117774   6.308   2.376   5.804
 5625SOL    HW217775   6.452   2.343   5.874
 5626SOL     OW17776   4.548   6.777   4.377
 5626SOL    HW117777   4.491   6.768   4.295
 5626SOL    HW217778   4.597   6.691   4.393
 5627SOL     OW17779   1.081   6.455   0.833
 5627SOL    HW117780   1.082   6.528   0.901
 5627SOL    HW217781   0.987   6.430   0.812
 5628SOL     OW17782   1.185   1.841   4.691
 5628SOL    HW117783   1.127   1.841   4.610
 5628SOL    HW217784   1.168   1.924   4.745
 5629SOL     OW17785   3.671   3.140   2.967
 5629SOL    HW117786   3.626   3.056   2.937
 5629SOL    HW217787   3.765   3.120   2.993
 5630SOL     OW17788   0.192   4.261   1.402
 5630SOL    HW117789   0.168   4.197   1.328
 5630SOL    HW217790   0.222   4.209   1.482
 5631SOL     OW17791   4.787   0.621   6.599
 5631SOL    HW117792   4.735   0.606   6.515
 5631SOL    HW217793   4.725   0.639   6.675
 5632SOL     OW17794   3.211   3.285   6.955
 5632SOL    HW117795   3.116   3.307   6.977
 5632SOL    HW217796   3.214   3.222   6.877
 5633SOL     OW17797   6.563   2.668   4.707
 5633SOL    HW117798   6.503   2.588   4.712
 5633SOL    HW217799   6.616   2.664   4.622
 5634SOL     OW17800   4.922   5.716   4.638
 5634SOL    HW117801   4.851   5.769   4.683
 5634SOL    HW217802   5.010   5.734   4.683
 5635SOL     OW17803   3.223   2.073   5.244
 5635SOL    HW117804   3.205   2.148   5.181
 5635SOL    HW217805   3.137   2.026   5.265
 5636SOL     OW17806   4.174   5.700   4.384
 5636SOL    HW117807   4.162   5.799   4.395
 5636SOL    HW217808   4.210   5.680   4.293
 5637SOL     OW17809   6.262   0.145   2.873
 5637SOL    HW117810   6.178   0.102   2.904
 5637SOL    HW217811   6.312   0.181   2.951
 5638SOL     OW17812   5.319   4.052   6.967
 5638SOL    HW117813   5.379   4.130   6.949
 5638SOL    HW217814   5.352   4.003   0.025
 5639SOL     OW17815   3.343   0.512   6.974
 5639SOL    HW117816   3.379   0.462   6.895
 5639SOL    HW217817   3.279   0.582   6.943
 5640SOL     OW17818   1.787   6.985   2.958
 5640SOL    HW117819   1.725   7.016   3.030
 5640SOL    HW217820   1.843   6.909   2.993
 5641SOL     OW17821   6.226   5.922   4.856
 5641SOL    HW117822   6.166   5.972   4.919
 5641SOL    HW217823   6.172   5.883   4.782
 5642SOL     OW17824   2.095   1.660   0.415
 5642SOL    HW117825   2.013   1.608   0.439
 5642SOL    HW217826   2.157   1.664   0.493
 5643SOL     OW17827   5.333   1.897   5.306
 5643SOL    HW117828   5.357   1.908   5.402
 5643SOL    HW217829   5.383   1.964   5.250
 5644SOL     OW17830   2.874   0.051   6.260
 5644SOL    HW117831   2.790   0.094   6.292
 5644SOL    HW217832   2.912   0.105   6.184
 5645SOL     OW17833   5.846   3.924   4.688
 5645SOL    HW117834   5.834   3.976   4.773
 5645SOL    HW217835   5.915   3.853   4.702
 5646SOL     OW17836   1.362   4.329   3.018
 5646SOL    HW117837   1.409   4.292   3.098
 5646SOL    HW217838   1.392   4.423   3.003
 5647SOL     OW17839   6.363   6.450   2.550
 5647SOL    HW117840   6.268   6.480   2.555
 5647SOL    HW217841   6.390   6.411   2.638
 5648SOL     OW17842   4.640   6.168   3.563
 5648SOL    HW117843   4.732   6.186   3.527
 5648SOL    HW217844   4.647   6.127   3.654
 5649SOL     OW17845   0.807   6.770   4.239
 5649SOL    HW117846   0.809   6.673   4.215
 5649SOL    HW217847   0.900   6.802   4.254
 5650SOL     OW17848   6.348   4.386   6.410
 5650SOL    HW117849   6.385   4.298   6.442
 5650SOL    HW217850   6.323   4.442   6.489
 5651SOL     OW17851   2.706   1.034   0.752
 5651SOL    HW117852   2.700   1.130   0.778
 5651SOL    HW217853   2.740   1.026   0.659
 5652SOL     OW17854   0.244   6.277   2.174
 5652SOL    HW117855   0.273   6.325   2.256
 5652SOL    HW217856   0.145   6.259   2.179
 5653SOL     OW17857   6.723   0.449   1.675
 5653SOL    HW117858   6.797   0.470   1.739
 5653SOL    HW217859   6.656   0.390   1.721
 5654SOL     OW17860   3.638   5.756   4.404
 5654SOL    HW117861   3.627   5.665   4.444
 5654SOL    HW217862   3.736   5.775   4.393
 5655SOL     OW17863   5.658   2.914   5.327
 5655SOL    HW117864   5.583   2.851   5.348
 5655SOL    HW217865   5.622   2.993   5.277
 5656SOL     OW17866   6.449   3.634   0.249
 5656SOL    HW117867   6.382   3.701   0.214
 5656SOL    HW217868   6.475   3.660   0.342
 5657SOL     OW17869   5.088   5.333   4.759
 5657SOL    HW117870   5.077   5.362   4.664
 5657SOL    HW217871   5.003   5.350   4.809
 5658SOL     OW17872   2.241   2.899   5.618
 5658SOL    HW117873   2.184   2.880   5.538
 5658SOL    HW217874   2.299   2.978   5.600
 5659SOL     OW17875   2.476   3.955   6.485
 5659SOL    HW117876   2.551   3.897   6.517
 5659SOL    HW217877   2.493   3.980   6.389
 5660SOL     OW17878   4.796   0.462   5.652
 5660SOL    HW117879   4.762   0.376   5.613
 5660SOL    HW217880   4.850   0.442   5.734
 5661SOL     OW17881   1.071   5.631   5.987
 5661SOL    HW117882   1.143   5.569   6.021
 5661SOL    HW217883   1.077   5.718   6.035
 5662SOL     OW17884   3.206   6.616   1.207
 5662SOL    HW117885   3.149   6.687   1.249
 5662SOL    HW217886   3.237   6.552   1.278
 5663SOL     OW17887   1.649   3.114   5.918
 5663SOL    HW117888   1.645   3.037   5.855
 5663SOL    HW217889   1.638   3.200   5.868
 5664SOL     OW17890   4.866   4.388   4.629
 5664SOL    HW117891   4.940   4.334   4.670
 5664SOL    HW217892   4.838   4.460   4.692
 5665SOL     OW17893   1.554   1.475   0.664
 5665SOL    HW117894   1.633   1.448   0.719
 5665SOL    HW217895   1.526   1.399   0.605
 5666SOL     OW17896   6.354   2.508   4.685
 5666SOL    HW117897   6.258   2.533   4.674
 5666SOL    HW217898   6.364   2.409   4.677
 5667SOL     OW17899   2.783   4.907   4.106
 5667SOL    HW117900   2.873   4.947   4.088
 5667SOL    HW217901   2.785   4.856   4.192
 5668SOL     OW17902   4.814   3.989   3.736
 5668SOL    HW117903   4.858   3.956   3.652
 5668SOL    HW217904   4.715   3.992   3.723
 5669SOL     OW17905   5.146   4.383   6.280
 5669SOL    HW117906   5.174   4.404   6.373
 5669SOL    HW217907   5.110   4.290   6.276
 5670SOL     OW17908   1.669   2.692   3.581
 5670SOL    HW117909   1.685   2.637   3.499
 5670SOL    HW217910   1.757   2.721   3.619
 5671SOL     OW17911   0.129   5.485   4.136
 5671SOL    HW117912   0.144   5.411   4.203
 5671SOL    HW217913   0.043   5.468   4.088
 5672SOL     OW17914   5.264   3.531   4.507
 5672SOL    HW117915   5.207   3.557   4.429
 5672SOL    HW217916   5.252   3.597   4.581
 5673SOL     OW17917   0.739   1.778   0.723
 5673SOL    HW117918   0.825   1.793   0.772
 5673SOL    HW217919   0.719   1.680   0.720
 5674SOL     OW17920   2.553   4.993   4.747
 5674SOL    HW117921   2.637   4.942   4.726
 5674SOL    HW217922   2.473   4.937   4.725
 5675SOL     OW17923   2.589   1.875   0.775
 5675SOL    HW117924   2.573   1.851   0.680
 5675SOL    HW217925   2.598   1.974   0.784
 5676SOL     OW17926   3.180   1.247   1.680
 5676SOL    HW117927   3.194   1.152   1.653
 5676SOL    HW217928   3.186   1.256   1.779
 5677SOL     OW17929   0.225   1.695   6.464
 5677SOL    HW117930   0.286   1.642   6.523
 5677SOL    HW217931   0.135   1.702   6.507
 5678SOL     OW17932   3.423   2.067   2.073
 5678SOL    HW117933   3.370   2.117   2.140
 5678SOL    HW217934   3.514   2.109   2.064
 5679SOL     OW17935   6.863   3.938   5.544
 5679SOL    HW117936   6.855   3.909   5.448
 5679SOL    HW217937   6.926   4.015   5.550
 5680SOL     OW17938   0.921   6.068   5.211
 5680SOL    HW117939   1.003   6.122   5.191
 5680SOL    HW217940   0.890   6.023   5.127
 5681SOL     OW17941   0.883   3.436   3.619
 5681SOL    HW117942   0.919   3.400   3.705
 5681SOL    HW217943   0.954   3.429   3.548
 5682SOL     OW17944   2.010   4.380   1.009
 5682SOL    HW117945   2.024   4.282   1.024
 5682SOL    HW217946   1.964   4.394   0.921
 5683SOL     OW17947   6.331   0.868   5.920
 5683SOL    HW117948   6.364   0.786   5.874
 5683SOL    HW217949   6.369   0.872   6.012
 5684SOL     OW17950   2.257   2.902   4.766
 5684SOL    HW117951   2.240   2.993   4.728
 5684SOL    HW217952   2.305   2.910   4.853
 5685SOL     OW17953   2.122   1.899   1.815
 5685SOL    HW117954   2.074   1.934   1.735
 5685SOL    HW217955   2.199   1.959   1.837
 5686SOL     OW17956   4.726   5.550   5.714
 5686SOL    HW117957   4.664   5.487   5.761
 5686SOL    HW217958   4.764   5.506   5.633
 5687SOL     OW17959   2.040   6.388   6.455
 5687SOL    HW117960   2.099   6.405   6.376
 5687SOL    HW217961   1.958   6.444   6.448
 5688SOL     OW17962   2.038   1.968   2.967
 5688SOL    HW117963   2.133   1.947   2.987
 5688SOL    HW217964   2.021   2.065   2.982
 5689SOL     OW17965   0.261   2.493   1.392
 5689SOL    HW117966   0.320   2.557   1.441
 5689SOL    HW217967   0.169   2.494   1.433
 5690SOL     OW17968   2.533   4.933   6.804
 5690SOL    HW117969   2.495   4.841   6.798
 5690SOL    HW217970   2.632   4.927   6.821
 5691SOL     OW17971   4.201   1.970   2.921
 5691SOL    HW117972   4.135   2.033   2.880
 5691SOL    HW217973   4.257   2.019   2.988
 5692SOL     OW17974   6.225   4.454   1.785
 5692SOL    HW117975   6.279   4.509   1.848
 5692SOL    HW217976   6.193   4.371   1.830
 5693SOL     OW17977   3.978   0.208   1.705
 5693SOL    HW117978   4.008   0.300   1.727
 5693SOL    HW217979   3.960   0.157   1.789
 5694SOL     OW17980   0.983   0.187   1.479
 5694SOL    HW117981   1.007   0.276   1.439
 5694SOL    HW217982   1.036   0.174   1.562
 5695SOL     OW17983   2.714   1.217   1.863
 5695SOL    HW117984   2.812   1.212   1.844
 5695SOL    HW217985   2.666   1.252   1.782
 5696SOL     OW17986   0.831   0.323   3.974
 5696SOL    HW117987   0.909   0.373   3.937
 5696SOL    HW217988   0.847   0.225   3.967
 5697SOL     OW17989   6.479   2.183   6.956
 5697SOL    HW117990   6.435   2.252   6.899
 5697SOL    HW217991   6.574   2.209   6.973
 5698SOL     OW17992   2.997   1.728   4.575
 5698SOL    HW117993   2.909   1.682   4.590
 5698SOL    HW217994   3.017   1.731   4.477
 5699SOL     OW17995   2.159   2.776   2.321
 5699SOL    HW117996   2.235   2.712   2.330
 5699SOL    HW217997   2.162   2.843   2.395
 5700SOL     OW17998   6.327   0.440   2.601
 5700SOL    HW117999   6.248   0.386   2.572
 5700SOL    HW218000   6.358   0.410   2.691
 5701SOL     OW18001   1.180   0.487   0.693
 5701SOL    HW118002   1.201   0.569   0.747
 5701SOL    HW218003   1.082   0.483   0.675
 5702SOL     OW18004   2.399   6.892   4.870
 5702SOL    HW118005   2.322   6.912   4.931
 5702SOL    HW218006   2.387   6.802   4.830
 5703SOL     OW18007   0.190   3.130   6.055
 5703SOL    HW118008   0.158   3.223   6.072
 5703SOL    HW218009   0.258   3.130   5.982
 5704SOL     OW18010   3.876   5.358   3.982
 5704SOL    HW118011   3.827   5.389   4.064
 5704SOL    HW218012   3.883   5.433   3.917
 5705SOL     OW18013   5.822   0.713   5.598
 5705SOL    HW118014   5.737   0.749   5.637
 5705SOL    HW218015   5.803   0.624   5.556
 5706SOL     OW18016   5.183   2.103   0.811
 5706SOL    HW118017   5.178   2.189   0.863
 5706SOL    HW218018   5.119   2.037   0.851
 5707SOL     OW18019   5.988   5.255   1.280
 5707SOL    HW118020   5.944   5.165   1.285
 5707SOL    HW218021   5.950   5.306   1.203
 5708SOL     OW18022   5.417   6.277   2.448
 5708SOL    HW118023   5.472   6.336   2.507
 5708SOL    HW218024   5.469   6.256   2.365
 5709SOL     OW18025   6.806   2.317   2.614
 5709SOL    HW118026   6.829   2.412   2.592
 5709SOL    HW218027   6.885   2.272   2.657
 5710SOL     OW18028   4.073   1.551   0.447
 5710SOL    HW118029   4.154   1.555   0.389
 5710SOL    HW218030   4.094   1.498   0.529
 5711SOL     OW18031   4.855   1.664   2.900
 5711SOL    HW118032   4.785   1.606   2.857
 5711SOL    HW218033   4.912   1.706   2.829
 5712SOL     OW18034   5.961   6.775   0.364
 5712SOL    HW118035   5.969   6.807   0.458
 5712SOL    HW218036   6.015   6.834   0.304
 5713SOL     OW18037   1.778   1.131   0.520
 5713SOL    HW118038   1.842   1.197   0.559
 5713SOL    HW218039   1.688   1.175   0.508
 5714SOL     OW18040   6.423   0.269   0.185
 5714SOL    HW118041   6.479   0.204   0.133
 5714SOL    HW218042   6.386   0.338   0.123
 5715SOL     OW18043   0.225   7.016   1.730
 5715SOL    HW118044   0.214   6.979   1.822
 5715SOL    HW218045   0.174   6.961   1.665
 5716SOL     OW18046   6.672   4.155   5.203
 5716SOL    HW118047   6.678   4.154   5.303
 5716SOL    HW218048   6.624   4.073   5.172
 5717SOL     OW18049   0.910   5.369   3.459
 5717SOL    HW118050   0.924   5.438   3.388
 5717SOL    HW218051   0.871   5.412   3.541
 5718SOL     OW18052   1.115   3.319   6.721
 5718SOL    HW118053   1.113   3.343   6.818
 5718SOL    HW218054   1.204   3.344   6.683
 5719SOL     OW18055   2.821   3.624   0.630
 5719SOL    HW118056   2.805   3.633   0.729
 5719SOL    HW218057   2.835   3.527   0.608
 5720SOL     OW18058   2.639   4.868   5.719
 5720SOL    HW118059   2.584   4.810   5.659
 5720SOL    HW218060   2.717   4.904   5.668
 5721SOL     OW18061   1.944   2.826   6.965
 5721SOL    HW118062   1.921   2.786   6.876
 5721SOL    HW218063   1.864   2.819   0.003
 5722SOL     OW18064   1.181   0.069   6.837
 5722SOL    HW118065   1.157   0.074   6.740
 5722SOL    HW218066   1.140   0.147   6.885
 5723SOL     OW18067   4.024   3.527   0.676
 5723SOL    HW118068   4.034   3.508   0.774
 5723SOL    HW218069   4.113   3.543   0.636
 5724SOL     OW18070   5.476   2.322   5.980
 5724SOL    HW118071   5.565   2.283   6.005
 5724SOL    HW218072   5.446   2.284   5.893
 5725SOL     OW18073   0.343   4.659   4.848
 5725SOL    HW118074   0.316   4.563   4.847
 5725SOL    HW218075   0.323   4.701   4.759
 5726SOL     OW18076   5.175   4.070   2.394
 5726SOL    HW118077   5.249   4.054   2.459
 5726SOL    HW218078   5.173   3.996   2.326
 5727SOL     OW18079   1.166   2.928   5.121
 5727SOL    HW118080   1.122   2.867   5.187
 5727SOL    HW218081   1.107   3.006   5.102
 5728SOL     OW18082   4.125   0.089   4.934
 5728SOL    HW118083   4.060   0.023   4.897
 5728SOL    HW218084   4.084   0.181   4.932
 5729SOL     OW18085   2.781   1.972   4.872
 5729SOL    HW118086   2.857   1.912   4.844
 5729SOL    HW218087   2.817   2.050   4.923
 5730SOL     OW18088   6.962   4.123   4.427
 5730SOL    HW118089   7.011   4.208   4.446
 5730SOL    HW218090   7.009   4.047   4.472
 5731SOL     OW18091   0.452   6.783   2.649
 5731SOL    HW118092   0.536   6.836   2.644
 5731SOL    HW218093   0.408   6.798   2.737
 5732SOL     OW18094   0.285   0.652   3.300
 5732SOL    HW118095   0.334   0.733   3.270
 5732SOL    HW218096   0.249   0.665   3.392
 5733SOL     OW18097   3.084   0.483   4.707
 5733SOL    HW118098   3.127   0.564   4.748
 5733SOL    HW218099   2.986   0.485   4.725
 5734SOL     OW18100   1.984   6.834   3.630
 5734SOL    HW118101   1.926   6.771   3.580
 5734SOL    HW218102   1.972   6.927   3.593
 5735SOL     OW18103   3.253   0.715   1.262
 5735SOL    HW118104   3.225   0.622   1.237
 5735SOL    HW218105   3.199   0.746   1.340
 5736SOL     OW18106   1.459   5.843   0.109
 5736SOL    HW118107   1.403   5.818   0.188
 5736SOL    HW218108   1.503   5.760   0.073
 5737SOL     OW18109   5.587   3.997   0.099
 5737SOL    HW118110   5.506   3.948   0.130
 5737SOL    HW218111   5.618   3.960   0.012
 5738SOL     OW18112   1.170   4.193   4.945
 5738SOL    HW118113   1.135   4.180   5.038
 5738SOL    HW218114   1.097   4.174   4.880
 5739SOL     OW18115   0.486   2.547   1.588
 5739SOL    HW118116   0.489   2.640   1.625
 5739SOL    HW218117   0.569   2.530   1.534
 5740SOL     OW18118   3.689   5.549   0.107
 5740SOL    HW118119   3.730   5.640   0.104
 5740SOL    HW218120   3.720   5.501   0.189
 5741SOL     OW18121   0.606   4.250   1.649
 5741SOL    HW118122   0.607   4.208   1.739
 5741SOL    HW218123   0.626   4.348   1.658
 5742SOL     OW18124   0.498   5.683   4.710
 5742SOL    HW118125   0.594   5.672   4.735
 5742SOL    HW218126   0.464   5.597   4.671
 5743SOL     OW18127   1.772   6.101   4.660
 5743SOL    HW118128   1.762   6.086   4.561
 5743SOL    HW218129   1.868   6.089   4.686
 5744SOL     OW18130   6.158   0.337   1.158
 5744SOL    HW118131   6.064   0.304   1.169
 5744SOL    HW218132   6.208   0.322   1.243
 5745SOL     OW18133   1.509   2.407   3.176
 5745SOL    HW118134   1.558   2.465   3.111
 5745SOL    HW218135   1.562   2.398   3.260
 5746SOL     OW18136   6.495   4.151   6.945
 5746SOL    HW118137   6.403   4.189   6.955
 5746SOL    HW218138   6.489   4.058   6.910
 5747SOL     OW18139   0.585   6.580   3.538
 5747SOL    HW118140   0.570   6.661   3.481
 5747SOL    HW218141   0.584   6.606   3.634
 5748SOL     OW18142   2.103   6.238   3.724
 5748SOL    HW118143   2.050   6.155   3.744
 5748SOL    HW218144   2.041   6.317   3.723
 5749SOL     OW18145   1.647   1.261   3.092
 5749SOL    HW118146   1.559   1.292   3.128
 5749SOL    HW218147   1.657   1.292   2.997
 5750SOL     OW18148   6.026   6.083   2.398
 5750SOL    HW118149   5.981   6.003   2.437
 5750SOL    HW218150   6.013   6.084   2.299
 5751SOL     OW18151   0.786   3.391   6.153
 5751SOL    HW118152   0.851   3.463   6.178
 5751SOL    HW218153   0.837   3.310   6.123
 5752SOL     OW18154   0.655   1.330   6.759
 5752SOL    HW118155   0.588   1.333   6.834
 5752SOL    HW218156   0.611   1.294   6.677
 5753SOL     OW18157   4.326   1.747   0.232
 5753SOL    HW118158   4.260   1.820   0.210
 5753SOL    HW218159   4.279   1.659   0.231
 5754SOL     OW18160   5.906   5.068   0.622
 5754SOL    HW118161   5.987   5.042   0.569
 5754SOL    HW218162   5.826   5.070   0.562
 5755SOL     OW18163   3.456   3.888   1.418
 5755SOL    HW118164   3.433   3.883   1.515
 5755SOL    HW218165   3.470   3.983   1.391
 5756SOL     OW18166   0.004   6.388   4.535
 5756SOL    HW118167   7.017   6.320   4.463
 5756SOL    HW218168   7.004   6.347   4.624
 5757SOL     OW18169   7.017   6.160   1.635
 5757SOL    HW118170   0.091   6.170   1.660
 5757SOL    HW218171   6.960   6.200   1.706
 5758SOL     OW18172   2.743   0.986   5.335
 5758SOL    HW118173   2.769   1.043   5.413
 5758SOL    HW218174   2.735   1.042   5.253
 5759SOL     OW18175   0.120   1.965   5.160
 5759SOL    HW118176   0.125   1.889   5.224
 5759SOL    HW218177   0.154   2.048   5.204
 5760SOL     OW18178   0.642   5.429   1.534
 5760SOL    HW118179   0.632   5.414   1.632
 5760SOL    HW218180   0.563   5.390   1.486
 5761SOL     OW18181   5.215   0.330   4.679
 5761SOL    HW118182   5.307   0.361   4.705
 5761SOL    HW218183   5.193   0.364   4.588
 5762SOL     OW18184   5.890   6.241   1.309
 5762SOL    HW118185   5.826   6.230   1.233
 5762SOL    HW218186   5.957   6.167   1.308
 5763SOL     OW18187   2.173   1.357   0.945
 5763SOL    HW118188   2.146   1.453   0.936
 5763SOL    HW218189   2.272   1.349   0.936
 5764SOL     OW18190   4.770   3.096   6.411
 5764SOL    HW118191   4.839   3.167   6.423
 5764SOL    HW218192   4.713   3.090   6.493
 5765SOL     OW18193   6.257   5.561   0.260
 5765SOL    HW118194   6.299   5.527   0.177
 5765SOL    HW218195   6.167   5.600   0.239
 5766SOL     OW18196   3.121   1.494   3.132
 5766SOL    HW118197   3.072   1.445   3.204
 5766SOL    HW218198   3.058   1.554   3.083
 5767SOL     OW18199   5.411   0.226   0.450
 5767SOL    HW118200   5.487   0.291   0.439
 5767SOL    HW218201   5.351   0.258   0.524
 5768SOL     OW18202   6.327   0.663   2.453
 5768SOL    HW118203   6.333   0.751   2.500
 5768SOL    HW218204   6.344   0.589   2.519
 5769SOL     OW18205   2.112   5.010   3.055
 5769SOL    HW118206   2.036   4.999   2.991
 5769SOL    HW218207   2.129   4.924   3.101
 5770SOL     OW18208   5.463   2.094   1.497
 5770SOL    HW118209   5.402   2.168   1.469
 5770SOL    HW218210   5.558   2.123   1.486
 5771SOL     OW18211   0.981   0.786   0.691
 5771SOL    HW118212   1.075   0.757   0.708
 5771SOL    HW218213   0.926   0.707   0.666
 5772SOL     OW18214   6.451   4.554   6.188
 5772SOL    HW118215   6.390   4.504   6.250
 5772SOL    HW218216   6.465   4.647   6.222
 5773SOL     OW18217   5.112   5.803   4.828
 5773SOL    HW118218   5.069   5.777   4.915
 5773SOL    HW218219   5.209   5.782   4.831
 5774SOL     OW18220   2.275   4.673   2.415
 5774SOL    HW118221   2.338   4.717   2.479
 5774SOL    HW218222   2.300   4.577   2.403
 5775SOL     OW18223   0.549   1.063   0.270
 5775SOL    HW118224   0.548   1.053   0.370
 5775SOL    HW218225   0.497   1.144   0.244
 5776SOL     OW18226   4.567   1.253   6.470
 5776SOL    HW118227   4.605   1.168   6.507
 5776SOL    HW218228   4.639   1.322   6.463
 5777SOL     OW18229   5.465   0.356   5.443
 5777SOL    HW118230   5.528   0.298   5.392
 5777SOL    HW218231   5.372   0.342   5.410
 5778SOL     OW18232   2.632   6.433   4.318
 5778SOL    HW118233   2.688   6.355   4.289
 5778SOL    HW218234   2.552   6.441   4.258
 5779SOL     OW18235   4.072   0.115   1.077
 5779SOL    HW118236   4.038   0.207   1.094
 5779SOL    HW218237   4.159   0.102   1.124
 5780SOL     OW18238   6.105   3.657   0.406
 5780SOL    HW118239   6.021   3.609   0.380
 5780SOL    HW218240   6.144   3.701   0.325
 5781SOL     OW18241   3.334   4.454   5.355
 5781SOL    HW118242   3.390   4.388   5.405
 5781SOL    HW218243   3.393   4.525   5.317
 5782SOL     OW18244   4.515   1.380   3.216
 5782SOL    HW118245   4.594   1.421   3.172
 5782SOL    HW218246   4.434   1.437   3.200
 5783SOL     OW18247   2.283   6.565   2.306
 5783SOL    HW118248   2.195   6.535   2.342
 5783SOL    HW218249   2.278   6.575   2.207
 5784SOL     OW18250   1.324   6.447   0.123
 5784SOL    HW118251   1.311   6.354   0.155
 5784SOL    HW218252   1.370   6.501   0.194
 5785SOL     OW18253   1.968   1.839   6.533
 5785SOL    HW118254   2.048   1.896   6.551
 5785SOL    HW218255   1.963   1.820   6.435
 5786SOL     OW18256   0.741   2.205   5.581
 5786SOL    HW118257   0.732   2.300   5.551
 5786SOL    HW218258   0.835   2.174   5.563
 5787SOL     OW18259   0.699   2.526   5.185
 5787SOL    HW118260   0.620   2.499   5.129
 5787SOL    HW218261   0.745   2.604   5.142
 5788SOL     OW18262   0.406   1.705   1.516
 5788SOL    HW118263   0.403   1.630   1.450
 5788SOL    HW218264   0.381   1.791   1.471
 5789SOL     OW18265   2.662   5.539   6.893
 5789SOL    HW118266   2.755   5.557   6.859
 5789SOL    HW218267   2.637   5.444   6.870
 5790SOL     OW18268   6.695   6.630   2.393
 5790SOL    HW118269   6.758   6.631   2.315
 5790SOL    HW218270   6.638   6.712   2.390
 5791SOL     OW18271   4.015   0.912   1.224
 5791SOL    HW118272   3.920   0.944   1.220
 5791SOL    HW218273   4.075   0.983   1.187
 5792SOL     OW18274   5.010   2.199   2.302
 5792SOL    HW118275   5.017   2.145   2.218
 5792SOL    HW218276   4.916   2.199   2.335
 5793SOL     OW18277   3.954   1.698   0.008
 5793SOL    HW118278   3.934   1.601   0.025
 5793SOL    HW218279   3.881   1.738   6.976
 5794SOL     OW18280   2.996   5.584   0.058
 5794SOL    HW118281   2.933   5.552   0.129
 5794SOL    HW218282   2.951   5.654   0.002
 5795SOL     OW18283   0.616   0.270   0.958
 5795SOL    HW118284   0.555   0.192   0.975
 5795SOL    HW218285   0.592   0.313   0.871
 5796SOL     OW18286   4.883   0.396   5.899
 5796SOL    HW118287   4.977   0.389   5.931
 5796SOL    HW218288   4.840   0.306   5.903
 5797SOL     OW18289   0.539   2.471   0.213
 5797SOL    HW118290   0.578   2.564   0.215
 5797SOL    HW218291   0.472   2.465   0.139
 5798SOL     OW18292   2.046   2.984   4.046
 5798SOL    HW118293   2.017   2.889   4.059
 5798SOL    HW218294   2.021   3.038   4.126
 5799SOL     OW18295   2.602   0.233   3.464
 5799SOL    HW118296   2.586   0.327   3.437
 5799SOL    HW218297   2.662   0.231   3.544
 5800SOL     OW18298   1.211   6.351   2.262
 5800SOL    HW118299   1.296   6.311   2.228
 5800SOL    HW218300   1.139   6.281   2.262
 5801SOL     OW18301   1.660   1.849   2.719
 5801SOL    HW118302   1.660   1.947   2.702
 5801SOL    HW218303   1.611   1.830   2.805
 5802SOL     OW18304   0.247   0.238   2.635
 5802SOL    HW118305   0.181   0.190   2.577
 5802SOL    HW218306   0.286   0.174   2.701
 5803SOL     OW18307   0.386   6.910   4.024
 5803SOL    HW118308   0.473   6.862   4.014
 5803SOL    HW218309   0.368   6.927   4.121
 5804SOL     OW18310   6.349   1.843   3.563
 5804SOL    HW118311   6.370   1.749   3.537
 5804SOL    HW218312   6.332   1.848   3.661
 5805SOL     OW18313   0.700   2.543   1.426
 5805SOL    HW118314   0.755   2.494   1.495
 5805SOL    HW218315   0.709   2.497   1.338
 5806SOL     OW18316   6.623   3.849   1.811
 5806SOL    HW118317   6.528   3.877   1.824
 5806SOL    HW218318   6.648   3.858   1.714
 5807SOL     OW18319   1.095   1.705   2.060
 5807SOL    HW118320   1.031   1.652   2.005
 5807SOL    HW218321   1.055   1.725   2.149
 5808SOL     OW18322   6.986   0.302   5.594
 5808SOL    HW118323   6.996   0.400   5.576
 5808SOL    HW218324   6.990   0.252   5.507
 5809SOL     OW18325   7.006   3.529   4.319
 5809SOL    HW118326   6.910   3.555   4.308
 5809SOL    HW218327   0.038   3.612   4.328
 5810SOL     OW18328   1.597   0.053   5.681
 5810SOL    HW118329   1.512   0.003   5.696
 5810SOL    HW218330   1.667   0.020   5.743
 5811SOL     OW18331   3.401   5.306   7.018
 5811SOL    HW118332   3.429   5.210   7.021
 5811SOL    HW218333   3.482   5.364   7.014
 5812SOL     OW18334   6.371   3.667   5.813
 5812SOL    HW118335   6.341   3.762   5.810
 5812SOL    HW218336   6.439   3.656   5.886
 5813SOL     OW18337   6.167   5.041   0.724
 5813SOL    HW118338   6.201   4.966   0.780
 5813SOL    HW218339   6.148   5.120   0.783
 5814SOL     OW18340   5.508   0.965   2.503
 5814SOL    HW118341   5.604   0.995   2.507
 5814SOL    HW218342   5.460   0.996   2.584
 5815SOL     OW18343   6.518   3.626   4.632
 5815SOL    HW118344   6.512   3.681   4.715
 5815SOL    HW218345   6.609   3.638   4.590
 5816SOL     OW18346   6.846   4.397   1.075
 5816SOL    HW118347   6.817   4.477   1.024
 5816SOL    HW218348   6.942   4.377   1.056
 5817SOL     OW18349   6.857   2.816   3.722
 5817SOL    HW118350   6.913   2.774   3.651
 5817SOL    HW218351   6.762   2.820   3.692
 5818SOL     OW18352   2.427   0.219   4.410
 5818SOL    HW118353   2.379   0.185   4.330
 5818SOL    HW218354   2.406   0.162   4.489
 5819SOL     OW18355   4.172   4.245   1.147
 5819SOL    HW118356   4.227   4.311   1.095
 5819SOL    HW218357   4.091   4.221   1.094
 5820SOL     OW18358   6.892   6.702   2.204
 5820SOL    HW118359   6.992   6.694   2.210
 5820SOL    HW218360   6.867   6.796   2.183
 5821SOL     OW18361   6.302   6.771   2.147
 5821SOL    HW118362   6.354   6.852   2.120
 5821SOL    HW218363   6.364   6.695   2.165
 5822SOL     OW18364   0.904   3.913   2.771
 5822SOL    HW118365   1.003   3.920   2.785
 5822SOL    HW218366   0.861   3.998   2.802
 5823SOL     OW18367   2.479   6.631   5.090
 5823SOL    HW118368   2.466   6.706   5.155
 5823SOL    HW218369   2.564   6.584   5.111
 5824SOL     OW18370   2.023   6.261   2.299
 5824SOL    HW118371   2.091   6.258   2.225
 5824SOL    HW218372   2.066   6.235   2.385
 5825SOL     OW18373   4.040   1.734   5.431
 5825SOL    HW118374   3.999   1.816   5.392
 5825SOL    HW218375   4.110   1.698   5.369
 5826SOL     OW18376   1.624   6.000   4.364
 5826SOL    HW118377   1.618   5.943   4.282
 5826SOL    HW218378   1.718   6.032   4.375
 5827SOL     OW18379   2.104   3.609   3.246
 5827SOL    HW118380   2.167   3.615   3.169
 5827SOL    HW218381   2.066   3.700   3.265
 5828SOL     OW18382   4.496   6.798   4.966
 5828SOL    HW118383   4.458   6.774   5.055
 5828SOL    HW218384   4.515   6.715   4.914
 5829SOL     OW18385   2.211   0.548   2.461
 5829SOL    HW118386   2.291   0.596   2.497
 5829SOL    HW218387   2.192   0.581   2.368
 5830SOL     OW18388   4.521   5.730   4.647
 5830SOL    HW118389   4.533   5.725   4.548
 5830SOL    HW218390   4.594   5.787   4.686
 5831SOL     OW18391   2.437   1.751   4.488
 5831SOL    HW118392   2.343   1.773   4.462
 5831SOL    HW218393   2.488   1.836   4.505
 5832SOL     OW18394   2.217   5.138   3.676
 5832SOL    HW118395   2.230   5.238   3.674
 5832SOL    HW218396   2.279   5.096   3.609
 5833SOL     OW18397   3.264   4.460   1.084
 5833SOL    HW118398   3.185   4.518   1.101
 5833SOL    HW218399   3.239   4.364   1.099
 5834SOL     OW18400   6.320   2.323   6.631
 5834SOL    HW118401   6.286   2.331   6.725
 5834SOL    HW218402   6.256   2.268   6.577
 5835SOL     OW18403   4.167   1.708   3.634
 5835SOL    HW118404   4.206   1.639   3.695
 5835SOL    HW218405   4.239   1.769   3.603
 5836SOL     OW18406   4.946   5.272   1.687
 5836SOL    HW118407   4.889   5.191   1.670
 5836SOL    HW218408   5.043   5.246   1.684
 5837SOL     OW18409   2.988   4.126   0.291
 5837SOL    HW118410   2.954   4.209   0.247
 5837SOL    HW218411   2.947   4.045   0.248
 5838SOL     OW18412   3.436   3.174   0.063
 5838SOL    HW118413   3.523   3.195   0.018
 5838SOL    HW218414   3.362   3.221   0.014
 5839SOL     OW18415   1.956   1.193   0.999
 5839SOL    HW118416   2.033   1.258   0.999
 5839SOL    HW218417   1.884   1.227   1.059
 5840SOL     OW18418   0.277   3.346   2.439
 5840SOL    HW118419   0.290   3.268   2.499
 5840SOL    HW218420   0.195   3.332   2.383
 5841SOL     OW18421   5.206   1.821   0.591
 5841SOL    HW118422   5.137   1.891   0.607
 5841SOL    HW218423   5.177   1.735   0.634
 5842SOL     OW18424   3.256   2.096   2.279
 5842SOL    HW118425   3.162   2.063   2.273
 5842SOL    HW218426   3.280   2.114   2.374
 5843SOL     OW18427   3.277   3.215   0.870
 5843SOL    HW118428   3.212   3.259   0.932
 5843SOL    HW218429   3.316   3.135   0.915
 5844SOL     OW18430   0.563   6.071   5.293
 5844SOL    HW118431   0.590   6.141   5.227
 5844SOL    HW218432   0.613   6.084   5.378
 5845SOL     OW18433   2.086   6.385   2.649
 5845SOL    HW118434   2.157   6.401   2.718
 5845SOL    HW218435   1.997   6.411   2.688
 5846SOL     OW18436   0.317   4.672   5.989
 5846SOL    HW118437   0.408   4.695   6.023
 5846SOL    HW218438   0.326   4.611   5.909
 5847SOL     OW18439   1.732   3.855   6.365
 5847SOL    HW118440   1.666   3.788   6.329
 5847SOL    HW218441   1.811   3.806   6.402
 5848SOL     OW18442   2.525   6.349   1.494
 5848SOL    HW118443   2.535   6.260   1.449
 5848SOL    HW218444   2.522   6.336   1.593
 5849SOL     OW18445   2.731   5.913   6.436
 5849SOL    HW118446   2.711   5.896   6.339
 5849SOL    HW218447   2.764   5.828   6.478
 5850SOL     OW18448   5.659   1.560   1.567
 5850SOL    HW118449   5.750   1.520   1.559
 5850SOL    HW218450   5.665   1.646   1.616
 5851SOL     OW18451   0.536   3.806   4.350
 5851SOL    HW118452   0.602   3.744   4.308
 5851SOL    HW218453   0.548   3.806   4.450
 5852SOL     OW18454   4.916   4.076   2.845
 5852SOL    HW118455   4.954   4.135   2.915
 5852SOL    HW218456   4.857   4.129   2.784
 5853SOL     OW18457   4.197   5.158   0.240
 5853SOL    HW118458   4.227   5.252   0.257
 5853SOL    HW218459   4.146   5.153   0.154
 5854SOL     OW18460   2.929   4.782   5.329
 5854SOL    HW118461   2.918   4.759   5.425
 5854SOL    HW218462   2.938   4.698   5.275
 5855SOL     OW18463   2.082   2.095   4.570
 5855SOL    HW118464   2.138   2.171   4.536
 5855SOL    HW218465   2.050   2.116   4.663
 5856SOL     OW18466   0.292   0.236   2.174
 5856SOL    HW118467   0.300   0.281   2.263
 5856SOL    HW218468   0.374   0.254   2.121
 5857SOL     OW18469   5.593   5.065   6.956
 5857SOL    HW118470   5.590   5.165   6.952
 5857SOL    HW218471   5.517   5.027   6.902
 5858SOL     OW18472   2.607   1.733   2.640
 5858SOL    HW118473   2.509   1.745   2.653
 5858SOL    HW218474   2.630   1.748   2.544
 5859SOL     OW18475   5.551   5.549   2.371
 5859SOL    HW118476   5.538   5.569   2.468
 5859SOL    HW218477   5.608   5.620   2.330
 5860SOL     OW18478   2.053   3.243   2.705
 5860SOL    HW118479   2.077   3.332   2.667
 5860SOL    HW218480   1.994   3.194   2.640
 5861SOL     OW18481   5.679   0.442   5.205
 5861SOL    HW118482   5.729   0.451   5.291
 5861SOL    HW218483   5.681   0.346   5.175
 5862SOL     OW18484   6.785   5.114   3.131
 5862SOL    HW118485   6.776   5.095   3.229
 5862SOL    HW218486   6.759   5.208   3.112
 5863SOL     OW18487   4.109   6.938   5.784
 5863SOL    HW118488   4.207   6.955   5.791
 5863SOL    HW218489   4.074   6.907   5.872
 5864SOL     OW18490   3.706   2.914   3.190
 5864SOL    HW118491   3.681   2.828   3.146
 5864SOL    HW218492   3.771   2.964   3.132
 5865SOL     OW18493   6.113   0.065   1.264
 5865SOL    HW118494   6.034   0.057   1.324
 5865SOL    HW218495   6.087   0.042   1.170
 5866SOL     OW18496   3.488   3.536   3.705
 5866SOL    HW118497   3.402   3.571   3.667
 5866SOL    HW218498   3.468   3.464   3.771
 5867SOL     OW18499   3.812   1.317   0.884
 5867SOL    HW118500   3.749   1.386   0.846
 5867SOL    HW218501   3.796   1.229   0.838
 5868SOL     OW18502   1.477   0.752   0.642
 5868SOL    HW118503   1.560   0.696   0.631
 5868SOL    HW218504   1.436   0.769   0.553
 5869SOL     OW18505   1.886   5.529   2.648
 5869SOL    HW118506   1.830   5.601   2.690
 5869SOL    HW218507   1.944   5.487   2.717
 5870SOL     OW18508   4.612   0.176   3.874
 5870SOL    HW118509   4.603   0.095   3.932
 5870SOL    HW218510   4.625   0.256   3.932
 5871SOL     OW18511   3.739   3.483   3.909
 5871SOL    HW118512   3.769   3.463   3.815
 5871SOL    HW218513   3.643   3.512   3.908
 5872SOL     OW18514   3.655   6.045   1.328
 5872SOL    HW118515   3.628   5.953   1.300
 5872SOL    HW218516   3.692   6.042   1.421
 5873SOL     OW18517   4.052   6.284   2.112
 5873SOL    HW118518   3.963   6.259   2.075
 5873SOL    HW218519   4.092   6.357   2.057
 5874SOL     OW18520   0.558   4.560   5.004
 5874SOL    HW118521   0.649   4.552   4.963
 5874SOL    HW218522   0.499   4.615   4.944
 5875SOL     OW18523   4.112   2.365   1.262
 5875SOL    HW118524   4.034   2.319   1.220
 5875SOL    HW218525   4.110   2.348   1.361
 5876SOL     OW18526   3.543   2.957   2.294
 5876SOL    HW118527   3.577   2.915   2.210
 5876SOL    HW218528   3.581   3.049   2.302
 5877SOL     OW18529   5.331   4.776   1.768
 5877SOL    HW118530   5.422   4.778   1.809
 5877SOL    HW218531   5.316   4.860   1.716
 5878SOL     OW18532   1.921   3.676   2.680
 5878SOL    HW118533   1.884   3.631   2.599
 5878SOL    HW218534   1.868   3.758   2.700
 5879SOL     OW18535   1.999   3.665   4.189
 5879SOL    HW118536   2.043   3.690   4.275
 5879SOL    HW218537   2.065   3.618   4.130
 5880SOL     OW18538   3.047   5.596   6.685
 5880SOL    HW118539   3.029   5.517   6.744
 5880SOL    HW218540   3.140   5.629   6.700
 5881SOL     OW18541   1.942   6.361   4.326
 5881SOL    HW118542   1.903   6.365   4.234
 5881SOL    HW218543   1.888   6.419   4.387
 5882SOL     OW18544   5.125   0.258   3.064
 5882SOL    HW118545   5.156   0.349   3.089
 5882SOL    HW218546   5.184   0.221   2.991
 5883SOL     OW18547   1.219   3.283   4.652
 5883SOL    HW118548   1.175   3.297   4.563
 5883SOL    HW218549   1.154   3.239   4.714
 5884SOL     OW18550   0.394   0.721   2.963
 5884SOL    HW118551   0.466   0.667   3.007
 5884SOL    HW218552   0.315   0.662   2.943
 5885SOL     OW18553   5.717   6.998   0.586
 5885SOL    HW118554   5.638   0.017   0.629
 5885SOL    HW218555   5.689   6.917   0.535
 5886SOL     OW18556   5.978   1.669   6.513
 5886SOL    HW118557   6.042   1.746   6.508
 5886SOL    HW218558   6.012   1.603   6.580
 5887SOL     OW18559   3.987   5.768   3.140
 5887SOL    HW118560   4.016   5.757   3.045
 5887SOL    HW218561   4.016   5.857   3.174
 5888SOL     OW18562   6.876   6.282   1.825
 5888SOL    HW118563   6.810   6.215   1.859
 5888SOL    HW218564   6.923   6.325   1.902
 5889SOL     OW18565   2.932   6.930   6.584
 5889SOL    HW118566   2.858   6.915   6.518
 5889SOL    HW218567   2.973   6.842   6.608
 5890SOL     OW18568   4.026   5.242   6.301
 5890SOL    HW118569   4.007   5.145   6.283
 5890SOL    HW218570   4.059   5.252   6.394
 5891SOL     OW18571   2.116   3.367   5.923
 5891SOL    HW118572   2.158   3.279   5.899
 5891SOL    HW218573   2.172   3.441   5.887
 5892SOL     OW18574   2.181   6.172   2.531
 5892SOL    HW118575   2.176   6.091   2.589
 5892SOL    HW218576   2.143   6.251   2.579
 5893SOL     OW18577   1.311   2.063   3.049
 5893SOL    HW118578   1.397   2.035   3.091
 5893SOL    HW218579   1.263   2.126   3.109
 5894SOL     OW18580   1.388   4.134   4.072
 5894SOL    HW118581   1.301   4.162   4.113
 5894SOL    HW218582   1.462   4.189   4.109
 5895SOL     OW18583   5.990   3.864   3.421
 5895SOL    HW118584   5.946   3.873   3.332
 5895SOL    HW218585   5.920   3.850   3.491
 5896SOL     OW18586   5.175   3.140   6.188
 5896SOL    HW118587   5.143   3.054   6.149
 5896SOL    HW218588   5.226   3.122   6.272
 5897SOL     OW18589   4.486   5.548   1.172
 5897SOL    HW118590   4.509   5.634   1.218
 5897SOL    HW218591   4.515   5.553   1.076
 5898SOL     OW18592   2.904   0.013   3.303
 5898SOL    HW118593   2.830   0.058   3.254
 5898SOL    HW218594   2.868   6.959   3.355
 5899SOL     OW18595   5.631   0.600   3.934
 5899SOL    HW118596   5.532   0.615   3.925
 5899SOL    HW218597   5.649   0.545   4.016
 5900SOL     OW18598   3.870   4.855   2.043
 5900SOL    HW118599   3.795   4.800   2.006
 5900SOL    HW218600   3.835   4.945   2.070
 5901SOL     OW18601   3.021   6.318   4.804
 5901SOL    HW118602   3.029   6.363   4.715
 5901SOL    HW218603   3.079   6.364   4.871
 5902SOL     OW18604   6.116   2.590   6.915
 5902SOL    HW118605   6.167   2.648   6.852
 5902SOL    HW218606   6.100   2.640   7.000
 5903SOL     OW18607   0.517   3.011   6.148
 5903SOL    HW118608   0.440   2.949   6.160
 5903SOL    HW218609   0.557   3.033   6.237
 5904SOL     OW18610   1.810   2.804   2.426
 5904SOL    HW118611   1.748   2.742   2.378
 5904SOL    HW218612   1.833   2.881   2.367
 5905SOL     OW18613   0.076   4.443   2.654
 5905SOL    HW118614   0.139   4.503   2.605
 5905SOL    HW218615   0.013   4.498   2.708
 5906SOL     OW18616   0.953   0.672   2.689
 5906SOL    HW118617   1.048   0.681   2.719
 5906SOL    HW218618   0.909   0.762   2.691
 5907SOL     OW18619   2.259   6.908   2.722
 5907SOL    HW118620   2.182   6.855   2.685
 5907SOL    HW218621   2.226   6.967   2.796
 5908SOL     OW18622   0.903   2.749   6.052
 5908SOL    HW118623   0.932   2.684   6.123
 5908SOL    HW218624   0.807   2.733   6.030
 5909SOL     OW18625   6.557   5.007   0.265
 5909SOL    HW118626   6.615   4.942   0.216
 5909SOL    HW218627   6.541   5.087   0.207
 5910SOL     OW18628   1.035   1.849   3.355
 5910SOL    HW118629   0.994   1.844   3.264
 5910SOL    HW218630   1.112   1.786   3.360
 5911SOL     OW18631   6.845   5.885   6.694
 5911SOL    HW118632   6.880   5.872   6.786
 5911SOL    HW218633   6.900   5.832   6.629
 5912SOL     OW18634   0.240   0.214   3.543
 5912SOL    HW118635   0.155   0.168   3.571
 5912SOL    HW218636   0.290   0.243   3.624
 5913SOL     OW18637   6.634   2.465   1.003
 5913SOL    HW118638   6.586   2.542   1.046
 5913SOL    HW218639   6.635   2.477   0.904
 5914SOL     OW18640   0.799   6.460   0.741
 5914SOL    HW118641   0.726   6.509   0.789
 5914SOL    HW218642   0.776   6.363   0.735
 5915SOL     OW18643   3.849   0.607   5.823
 5915SOL    HW118644   3.938   0.650   5.817
 5915SOL    HW218645   3.799   0.642   5.902
 5916SOL     OW18646   0.724   0.537   2.254
 5916SOL    HW118647   0.681   0.614   2.208
 5916SOL    HW218648   0.670   0.454   2.239
 5917SOL     OW18649   3.376   2.576   0.204
 5917SOL    HW118650   3.432   2.499   0.175
 5917SOL    HW218651   3.338   2.623   0.124
 5918SOL     OW18652   3.403   6.775   4.432
 5918SOL    HW118653   3.479   6.837   4.412
 5918SOL    HW218654   3.404   6.699   4.367
 5919SOL     OW18655   3.267   3.360   4.783
 5919SOL    HW118656   3.185   3.305   4.766
 5919SOL    HW218657   3.300   3.398   4.697
 5920SOL     OW18658   0.680   0.659   5.908
 5920SOL    HW118659   0.754   0.720   5.878
 5920SOL    HW218660   0.596   0.682   5.859
 5921SOL     OW18661   2.868   4.265   0.062
 5921SOL    HW118662   2.911   4.201   7.021
 5921SOL    HW218663   2.769   4.266   0.047
 5922SOL     OW18664   5.383   2.985   2.764
 5922SOL    HW118665   5.388   3.061   2.828
 5922SOL    HW218666   5.400   3.018   2.671
 5923SOL     OW18667   5.901   0.742   3.035
 5923SOL    HW118668   5.977   0.679   3.052
 5923SOL    HW218669   5.827   0.724   3.101
 5924SOL     OW18670   6.009   6.733   3.706
 5924SOL    HW118671   6.012   6.685   3.618
 5924SOL    HW218672   5.965   6.822   3.693
 5925SOL     OW18673   4.486   1.454   0.865
 5925SOL    HW118674   4.440   1.424   0.782
 5925SOL    HW218675   4.439   1.534   0.902
 5926SOL     OW18676   5.851   3.593   3.131
 5926SOL    HW118677   5.839   3.496   3.150
 5926SOL    HW218678   5.762   3.639   3.133
 5927SOL     OW18679   0.297   5.516   1.749
 5927SOL    HW118680   0.288   5.616   1.754
 5927SOL    HW218681   0.330   5.491   1.658
 5928SOL     OW18682   2.728   6.963   6.760
 5928SOL    HW118683   2.728   0.003   6.838
 5928SOL    HW218684   2.817   6.965   6.715
 5929SOL     OW18685   1.233   0.734   0.787
 5929SOL    HW118686   1.310   0.747   0.725
 5929SOL    HW218687   1.235   0.805   0.858
 5930SOL     OW18688   1.367   3.839   2.496
 5930SOL    HW118689   1.403   3.927   2.464
 5930SOL    HW218690   1.427   3.765   2.465
 5931SOL     OW18691   5.040   6.338   3.301
 5931SOL    HW118692   5.109   6.326   3.229
 5931SOL    HW218693   4.954   6.367   3.259
 5932SOL     OW18694   3.084   6.089   0.501
 5932SOL    HW118695   3.176   6.109   0.466
 5932SOL    HW218696   3.018   6.149   0.456
 5933SOL     OW18697   6.327   5.625   4.659
 5933SOL    HW118698   6.388   5.637   4.580
 5933SOL    HW218699   6.276   5.540   4.649
 5934SOL     OW18700   3.107   3.114   0.676
 5934SOL    HW118701   3.181   3.146   0.735
 5934SOL    HW218702   3.114   3.158   0.587
 5935SOL     OW18703   0.846   0.490   4.967
 5935SOL    HW118704   0.832   0.539   5.053
 5935SOL    HW218705   0.810   0.397   4.975
 5936SOL     OW18706   3.622   2.851   2.034
 5936SOL    HW118707   3.592   2.763   1.996
 5936SOL    HW218708   3.636   2.916   1.959
 5937SOL     OW18709   0.561   2.869   0.533
 5937SOL    HW118710   0.494   2.798   0.513
 5937SOL    HW218711   0.514   2.949   0.570
 5938SOL     OW18712   0.545   3.472   3.829
 5938SOL    HW118713   0.461   3.459   3.880
 5938SOL    HW218714   0.545   3.414   3.748
 5939SOL     OW18715   4.548   1.354   6.129
 5939SOL    HW118716   4.554   1.378   6.032
 5939SOL    HW218717   4.607   1.276   6.147
 5940SOL     OW18718   4.663   5.153   2.011
 5940SOL    HW118719   4.703   5.063   2.030
 5940SOL    HW218720   4.568   5.155   2.042
 5941SOL     OW18721   0.194   1.915   3.023
 5941SOL    HW118722   0.235   1.891   3.111
 5941SOL    HW218723   0.255   1.977   2.974
 5942SOL     OW18724   5.442   2.570   6.872
 5942SOL    HW118725   5.343   2.585   6.872
 5942SOL    HW218726   5.472   2.548   6.779
 5943SOL     OW18727   1.701   4.584   1.060
 5943SOL    HW118728   1.734   4.501   1.105
 5943SOL    HW218729   1.763   4.660   1.081
 5944SOL     OW18730   6.036   3.742   5.530
 5944SOL    HW118731   6.120   3.781   5.491
 5944SOL    HW218732   6.054   3.648   5.559
 5945SOL     OW18733   6.714   6.358   4.524
 5945SOL    HW118734   6.631   6.358   4.467
 5945SOL    HW218735   6.754   6.449   4.525
 5946SOL     OW18736   2.308   3.134   6.804
 5946SOL    HW118737   2.246   3.060   6.778
 5946SOL    HW218738   2.275   3.176   6.888
 5947SOL     OW18739   3.612   3.503   4.662
 5947SOL    HW118740   3.543   3.575   4.655
 5947SOL    HW218741   3.619   3.456   4.574
 5948SOL     OW18742   4.808   3.901   1.271
 5948SOL    HW118743   4.799   3.843   1.353
 5948SOL    HW218744   4.859   3.984   1.294
 5949SOL     OW18745   0.471   3.702   2.859
 5949SOL    HW118746   0.564   3.725   2.889
 5949SOL    HW218747   0.444   3.763   2.784
 5950SOL     OW18748   3.046   6.849   4.752
 5950SOL    HW118749   3.137   6.818   4.777
 5950SOL    HW218750   3.041   6.860   4.653
 5951SOL     OW18751   6.970   3.628   6.674
 5951SOL    HW118752   6.909   3.686   6.728
 5951SOL    HW218753   6.918   3.583   6.601
 5952SOL     OW18754   3.564   4.104   1.830
 5952SOL    HW118755   3.567   4.088   1.928
 5952SOL    HW218756   3.472   4.133   1.804
 5953SOL     OW18757   6.644   3.437   5.768
 5953SOL    HW118758   6.630   3.339   5.756
 5953SOL    HW218759   6.645   3.481   5.678
 5954SOL     OW18760   1.946   5.665   3.757
 5954SOL    HW118761   1.898   5.618   3.683
 5954SOL    HW218762   1.922   5.624   3.845
 5955SOL     OW18763   4.578   3.273   0.484
 5955SOL    HW118764   4.661   3.320   0.457
 5955SOL    HW218765   4.553   3.301   0.577
 5956SOL     OW18766   4.190   3.007   6.012
 5956SOL    HW118767   4.201   3.098   6.052
 5956SOL    HW218768   4.174   2.940   6.084
 5957SOL     OW18769   6.462   1.609   3.447
 5957SOL    HW118770   6.512   1.523   3.447
 5957SOL    HW218771   6.390   1.606   3.378
 5958SOL     OW18772   2.294   6.418   3.252
 5958SOL    HW118773   2.224   6.462   3.310
 5958SOL    HW218774   2.351   6.488   3.210
 5959SOL     OW18775   5.720   3.318   2.954
 5959SOL    HW118776   5.817   3.308   2.973
 5959SOL    HW218777   5.667   3.276   3.028
 5960SOL     OW18778   5.158   0.419   5.922
 5960SOL    HW118779   5.206   0.505   5.936
 5960SOL    HW218780   5.198   0.370   5.844
 5961SOL     OW18781   3.135   2.162   3.565
 5961SOL    HW118782   3.168   2.150   3.659
 5961SOL    HW218783   3.036   2.176   3.566
 5962SOL     OW18784   4.557   5.000   0.708
 5962SOL    HW118785   4.570   4.989   0.806
 5962SOL    HW218786   4.559   5.097   0.685
 5963SOL     OW18787   2.146   3.673   0.482
 5963SOL    HW118788   2.121   3.691   0.577
 5963SOL    HW218789   2.184   3.580   0.475
 5964SOL     OW18790   2.029   0.040   3.170
 5964SOL    HW118791   2.095   7.000   3.128
 5964SOL    HW218792   2.012   0.012   3.264
 5965SOL     OW18793   2.352   0.593   0.919
 5965SOL    HW118794   2.317   0.500   0.905
 5965SOL    HW218795   2.299   0.638   0.991
 5966SOL     OW18796   2.857   2.094   5.342
 5966SOL    HW118797   2.879   2.191   5.353
 5966SOL    HW218798   2.757   2.083   5.339
 5967SOL     OW18799   4.865   2.319   5.178
 5967SOL    HW118800   4.795   2.260   5.138
 5967SOL    HW218801   4.837   2.415   5.170
 5968SOL     OW18802   5.623   1.900   3.073
 5968SOL    HW118803   5.689   1.943   3.012
 5968SOL    HW218804   5.531   1.932   3.051
 5969SOL     OW18805   4.468   0.139   0.921
 5969SOL    HW118806   4.519   0.184   0.994
 5969SOL    HW218807   4.517   0.057   0.890
 5970SOL     OW18808   6.863   3.124   0.576
 5970SOL    HW118809   6.797   3.056   0.608
 5970SOL    HW218810   6.884   3.188   0.650
 5971SOL     OW18811   0.155   5.445   3.833
 5971SOL    HW118812   0.207   5.373   3.879
 5971SOL    HW218813   0.072   5.406   3.792
 5972SOL     OW18814   5.939   5.434   1.081
 5972SOL    HW118815   5.997   5.470   1.008
 5972SOL    HW218816   5.851   5.481   1.080
 5973SOL     OW18817   2.525   0.757   2.404
 5973SOL    HW118818   2.550   0.683   2.342
 5973SOL    HW218819   2.607   0.804   2.435
 5974SOL     OW18820   5.540   1.317   4.654
 5974SOL    HW118821   5.479   1.356   4.585
 5974SOL    HW218822   5.602   1.252   4.611
 5975SOL     OW18823   4.522   5.298   1.666
 5975SOL    HW118824   4.495   5.369   1.730
 5975SOL    HW218825   4.445   5.237   1.648
 5976SOL     OW18826   1.506   3.926   5.581
 5976SOL    HW118827   1.493   3.849   5.518
 5976SOL    HW218828   1.593   3.972   5.561
 5977SOL     OW18829   6.597   5.147   0.681
 5977SOL    HW118830   6.657   5.132   0.760
 5977SOL    HW218831   6.502   5.141   0.710
 5978SOL     OW18832   2.554   3.698   6.616
 5978SOL    HW118833   2.545   3.616   6.559
 5978SOL    HW218834   2.516   3.680   6.706
 5979SOL     OW18835   6.512   6.966   1.123
 5979SOL    HW118836   6.464   0.027   1.097
 5979SOL    HW218837   6.602   6.963   1.078
 5980SOL     OW18838   3.051   2.374   0.869
 5980SOL    HW118839   3.090   2.440   0.805
 5980SOL    HW218840   3.056   2.282   0.829
 5981SOL     OW18841   2.653   2.331   1.041
 5981SOL    HW118842   2.692   2.423   1.041
 5981SOL    HW218843   2.602   2.318   1.126
 5982SOL     OW18844   5.699   3.247   2.006
 5982SOL    HW118845   5.607   3.282   1.987
 5982SOL    HW218846   5.756   3.261   1.925
 5983SOL     OW18847   6.930   0.771   3.737
 5983SOL    HW118848   6.920   0.829   3.656
 5983SOL    HW218849   6.980   0.821   3.808
 5984SOL     OW18850   6.088   6.027   3.004
 5984SOL    HW118851   6.026   5.994   3.075
 5984SOL    HW218852   6.180   5.991   3.021
 5985SOL     OW18853   0.108   3.631   2.674
 5985SOL    HW118854   0.067   3.621   2.583
 5985SOL    HW218855   0.202   3.662   2.665
 5986SOL     OW18856   3.586   3.812   4.000
 5986SOL    HW118857   3.486   3.801   3.992
 5986SOL    HW218858   3.609   3.833   4.095
 5987SOL     OW18859   0.095   6.003   4.899
 5987SOL    HW118860   0.144   5.924   4.864
 5987SOL    HW218861   0.007   5.974   4.936
 5988SOL     OW18862   1.156   3.052   6.718
 5988SOL    HW118863   1.078   2.995   6.745
 5988SOL    HW218864   1.129   3.148   6.717
 5989SOL     OW18865   1.304   6.743   5.314
 5989SOL    HW118866   1.249   6.792   5.382
 5989SOL    HW218867   1.245   6.709   5.241
 5990SOL     OW18868   2.271   4.433   1.657
 5990SOL    HW118869   2.296   4.429   1.561
 5990SOL    HW218870   2.174   4.458   1.666
 5991SOL     OW18871   5.686   1.032   1.101
 5991SOL    HW118872   5.711   0.956   1.041
 5991SOL    HW218873   5.759   1.100   1.100
 5992SOL     OW18874   3.335   5.429   2.919
 5992SOL    HW118875   3.293   5.339   2.906
 5992SOL    HW218876   3.263   5.498   2.926
 5993SOL     OW18877   5.989   2.301   0.505
 5993SOL    HW118878   5.935   2.228   0.548
 5993SOL    HW218879   6.047   2.344   0.574
 5994SOL     OW18880   6.804   3.536   7.009
 5994SOL    HW118881   6.704   3.528   7.009
 5994SOL    HW218882   6.844   3.457   0.032
 5995SOL     OW18883   5.220   3.470   1.258
 5995SOL    HW118884   5.245   3.517   1.173
 5995SOL    HW218885   5.303   3.450   1.311
 5996SOL     OW18886   2.309   6.783   1.227
 5996SOL    HW118887   2.289   6.875   1.192
 5996SOL    HW218888   2.407   6.773   1.241
 5997SOL     OW18889   6.208   0.485   3.911
 5997SOL    HW118890   6.113   0.513   3.924
 5997SOL    HW218891   6.260   0.502   3.995
 5998SOL     OW18892   6.728   6.470   6.403
 5998SOL    HW118893   6.701   6.457   6.499
 5998SOL    HW218894   6.826   6.454   6.394
 5999SOL     OW18895   5.405   3.805   1.332
 5999SOL    HW118896   5.340   3.879   1.316
 5999SOL    HW218897   5.382   3.758   1.417
 6000SOL     OW18898   1.377   4.396   0.793
 6000SOL    HW118899   1.352   4.303   0.766
 6000SOL    HW218900   1.473   4.413   0.768
 6001SOL     OW18901   6.064   5.356   5.781
 6001SOL    HW118902   6.059   5.430   5.848
 6001SOL    HW218903   6.020   5.275   5.817
 6002SOL     OW18904   5.217   4.567   5.310
 6002SOL    HW118905   5.230   4.469   5.323
 6002SOL    HW218906   5.282   4.601   5.242
 6003SOL     OW18907   2.543   2.150   4.773
 6003SOL    HW118908   2.640   2.128   4.759
 6003SOL    HW218909   2.534   2.210   4.853
 6004SOL     OW18910   5.373   3.404   5.270
 6004SOL    HW118911   5.436   3.400   5.347
 6004SOL    HW218912   5.411   3.463   5.198
 6005SOL     OW18913   4.060   4.007   0.446
 6005SOL    HW118914   4.025   3.945   0.376
 6005SOL    HW218915   3.984   4.045   0.499
 6006SOL     OW18916   3.118   6.446   6.773
 6006SOL    HW118917   3.213   6.443   6.744
 6006SOL    HW218918   3.113   6.436   6.873
 6007SOL     OW18919   2.261   6.468   5.068
 6007SOL    HW118920   2.354   6.499   5.090
 6007SOL    HW218921   2.265   6.401   4.994
 6008SOL     OW18922   2.115   4.152   6.397
 6008SOL    HW118923   2.155   4.113   6.315
 6008SOL    HW218924   2.020   4.178   6.378
 6009SOL     OW18925   4.388   5.316   2.820
 6009SOL    HW118926   4.458   5.357   2.878
 6009SOL    HW218927   4.329   5.257   2.876
 6010SOL     OW18928   0.360   5.018   4.818
 6010SOL    HW118929   0.459   5.008   4.809
 6010SOL    HW218930   0.316   4.929   4.801
 6011SOL     OW18931   5.364   1.745   3.337
 6011SOL    HW118932   5.334   1.715   3.246
 6011SOL    HW218933   5.296   1.808   3.375
 6012SOL     OW18934   6.460   0.631   5.606
 6012SOL    HW118935   6.441   0.598   5.699
 6012SOL    HW218936   6.460   0.731   5.606
 6013SOL     OW18937   5.637   1.326   2.512
 6013SOL    HW118938   5.679   1.349   2.424
 6013SOL    HW218939   5.649   1.403   2.575
 6014SOL     OW18940   3.326   3.347   4.514
 6014SOL    HW118941   3.272   3.274   4.472
 6014SOL    HW218942   3.422   3.335   4.491
 6015SOL     OW18943   6.051   6.808   4.579
 6015SOL    HW118944   6.145   6.795   4.549
 6015SOL    HW218945   6.004   6.871   4.516
 6016SOL     OW18946   4.196   2.332   4.708
 6016SOL    HW118947   4.171   2.429   4.710
 6016SOL    HW218948   4.214   2.305   4.613
 6017SOL     OW18949   1.469   1.797   5.512
 6017SOL    HW118950   1.432   1.733   5.445
 6017SOL    HW218951   1.412   1.879   5.515
 6018SOL     OW18952   2.479   1.156   3.691
 6018SOL    HW118953   2.573   1.179   3.669
 6018SOL    HW218954   2.477   1.079   3.755
 6019SOL     OW18955   6.641   4.773   6.634
 6019SOL    HW118956   6.546   4.744   6.640
 6019SOL    HW218957   6.680   4.781   6.726
 6020SOL     OW18958   0.787   4.989   5.717
 6020SOL    HW118959   0.869   4.953   5.761
 6020SOL    HW218960   0.814   5.042   5.636
 6021SOL     OW18961   5.823   0.271   3.452
 6021SOL    HW118962   5.823   0.371   3.459
 6021SOL    HW218963   5.736   0.236   3.487
 6022SOL     OW18964   6.011   2.971   1.757
 6022SOL    HW118965   5.932   2.986   1.816
 6022SOL    HW218966   6.006   2.879   1.717
 6023SOL     OW18967   4.634   6.456   2.125
 6023SOL    HW118968   4.713   6.432   2.069
 6023SOL    HW218969   4.645   6.549   2.161
 6024SOL     OW18970   0.573   6.555   6.420
 6024SOL    HW118971   0.635   6.541   6.342
 6024SOL    HW218972   0.622   6.534   6.505
 6025SOL     OW18973   2.657   0.401   5.696
 6025SOL    HW118974   2.608   0.486   5.678
 6025SOL    HW218975   2.738   0.396   5.638
 6026SOL     OW18976   6.153   5.713   3.477
 6026SOL    HW118977   6.062   5.690   3.441
 6026SOL    HW218978   6.173   5.809   3.458
 6027SOL     OW18979   6.145   5.281   6.169
 6027SOL    HW118980   6.054   5.318   6.149
 6027SOL    HW218981   6.171   5.304   6.263
 6028SOL     OW18982   6.194   5.921   6.232
 6028SOL    HW118983   6.204   5.970   6.146
 6028SOL    HW218984   6.123   5.851   6.223
 6029SOL     OW18985   3.740   1.537   2.578
 6029SOL    HW118986   3.734   1.605   2.652
 6029SOL    HW218987   3.781   1.580   2.497
 6030SOL     OW18988   6.152   3.263   4.493
 6030SOL    HW118989   6.162   3.293   4.398
 6030SOL    HW218990   6.213   3.316   4.552
 6031SOL     OW18991   0.238   6.514   5.247
 6031SOL    HW118992   0.204   6.466   5.328
 6031SOL    HW218993   0.199   6.472   5.165
 6032SOL     OW18994   3.133   6.786   3.408
 6032SOL    HW118995   3.069   6.853   3.444
 6032SOL    HW218996   3.226   6.824   3.410
 6033SOL     OW18997   0.446   1.678   2.443
 6033SOL    HW118998   0.491   1.656   2.530
 6033SOL    HW218999   0.412   1.773   2.446
 6034SOL     OW19000   0.219   6.986   0.447
 6034SOL    HW119001   0.230   6.995   0.348
 6034SOL    HW219002   0.163   0.039   0.481
 6035SOL     OW19003   2.655   0.214   2.578
 6035SOL    HW119004   2.577   0.270   2.551
 6035SOL    HW219005   2.624   0.124   2.608
 6036SOL     OW19006   6.164   3.557   0.661
 6036SOL    HW119007   6.156   3.627   0.590
 6036SOL    HW219008   6.115   3.475   0.632
 6037SOL     OW19009   4.815   1.209   6.294
 6037SOL    HW119010   4.847   1.302   6.273
 6037SOL    HW219011   4.888   1.144   6.276
 6038SOL     OW19012   1.502   1.134   5.891
 6038SOL    HW119013   1.461   1.211   5.842
 6038SOL    HW219014   1.483   1.049   5.842
 6039SOL     OW19015   4.031   3.546   3.514
 6039SOL    HW119016   3.970   3.487   3.568
 6039SOL    HW219017   4.051   3.629   3.566
 6040SOL     OW19018   0.907   2.132   0.274
 6040SOL    HW119019   0.876   2.219   0.236
 6040SOL    HW219020   0.838   2.061   0.257
 6041SOL     OW19021   0.830   3.694   5.208
 6041SOL    HW119022   0.922   3.669   5.238
 6041SOL    HW219023   0.821   3.794   5.206
 6042SOL     OW19024   2.990   6.078   3.516
 6042SOL    HW119025   3.054   6.127   3.576
 6042SOL    HW219026   2.898   6.117   3.527
 6043SOL     OW19027   2.487   7.004   2.597
 6043SOL    HW119028   2.420   6.939   2.633
 6043SOL    HW219029   2.441   0.067   2.575
 6044SOL     OW19030   0.568   3.284   0.433
 6044SOL    HW119031   0.503   3.337   0.380
 6044SOL    HW219032   0.576   3.192   0.394
 6045SOL     OW19033   5.635   1.114   3.849
 6045SOL    HW119034   5.711   1.164   3.889
 6045SOL    HW219035   5.632   1.132   3.750
 6046SOL     OW19036   3.423   3.279   2.812
 6046SOL    HW119037   3.388   3.193   2.774
 6046SOL    HW219038   3.349   3.326   2.860
 6047SOL     OW19039   6.663   1.686   0.277
 6047SOL    HW119040   6.695   1.718   0.188
 6047SOL    HW219041   6.697   1.746   0.349
 6048SOL     OW19042   5.910   6.233   3.334
 6048SOL    HW119043   5.903   6.331   3.353
 6048SOL    HW219044   5.914   6.219   3.235
 6049SOL     OW19045   4.543   5.133   6.547
 6049SOL    HW119046   4.496   5.187   6.617
 6049SOL    HW219047   4.478   5.111   6.474
 6050SOL     OW19048   2.541   5.484   2.652
 6050SOL    HW119049   2.505   5.576   2.667
 6050SOL    HW219050   2.465   5.419   2.642
 6051SOL     OW19051   0.479   1.550   2.971
 6051SOL    HW119052   0.489   1.459   2.930
 6051SOL    HW219053   0.414   1.546   3.047
 6052SOL     OW19054   5.377   5.516   0.460
 6052SOL    HW119055   5.283   5.481   0.458
 6052SOL    HW219056   5.439   5.442   0.485
 6053SOL     OW19057   4.547   2.496   6.885
 6053SOL    HW119058   4.496   2.426   6.934
 6053SOL    HW219059   4.596   2.554   6.950
 6054SOL     OW19060   4.314   3.768   0.839
 6054SOL    HW119061   4.341   3.672   0.834
 6054SOL    HW219062   4.340   3.815   0.755
 6055SOL     OW19063   2.882   3.643   1.161
 6055SOL    HW119064   2.850   3.556   1.124
 6055SOL    HW219065   2.804   3.705   1.175
 6056SOL     OW19066   5.263   6.093   3.531
 6056SOL    HW119067   5.191   6.044   3.482
 6056SOL    HW219068   5.340   6.110   3.470
 6057SOL     OW19069   5.462   0.747   3.620
 6057SOL    HW119070   5.463   0.648   3.633
 6057SOL    HW219071   5.383   0.786   3.669
 6058SOL     OW19072   0.271   2.661   5.857
 6058SOL    HW119073   0.191   2.712   5.886
 6058SOL    HW219074   0.248   2.564   5.849
 6059SOL     OW19075   4.430   2.846   0.036
 6059SOL    HW119076   4.514   2.805   7.023
 6059SOL    HW219077   4.374   2.880   6.984
 6060SOL     OW19078   2.291   2.557   0.306
 6060SOL    HW119079   2.331   2.613   0.233
 6060SOL    HW219080   2.273   2.465   0.271
 6061SOL     OW19081   3.613   4.092   6.956
 6061SOL    HW119082   3.594   4.049   0.021
 6061SOL    HW219083   3.587   4.030   6.882
 6062SOL     OW19084   2.403   1.771   6.097
 6062SOL    HW119085   2.401   1.773   6.197
 6062SOL    HW219086   2.371   1.859   6.061
 6063SOL     OW19087   4.301   4.324   6.741
 6063SOL    HW119088   4.226   4.389   6.736
 6063SOL    HW219089   4.340   4.325   6.833
 6064SOL     OW19090   5.929   6.036   0.954
 6064SOL    HW119091   5.876   6.121   0.959
 6064SOL    HW219092   5.909   5.980   1.034
 6065SOL     OW19093   2.067   6.173   1.278
 6065SOL    HW119094   2.160   6.144   1.301
 6065SOL    HW219095   2.015   6.188   1.363
 6066SOL     OW19096   6.110   5.667   2.623
 6066SOL    HW119097   6.186   5.602   2.627
 6066SOL    HW219098   6.048   5.642   2.548
 6067SOL     OW19099   6.819   6.267   5.931
 6067SOL    HW119100   6.835   6.342   5.994
 6067SOL    HW219101   6.777   6.302   5.847
 6068SOL     OW19102   4.766   2.016   4.328
 6068SOL    HW119103   4.858   1.992   4.298
 6068SOL    HW219104   4.770   2.088   4.397
 6069SOL     OW19105   0.142   4.866   5.997
 6069SOL    HW119106   0.209   4.793   5.983
 6069SOL    HW219107   0.054   4.837   5.959
 6070SOL     OW19108   2.265   1.656   0.628
 6070SOL    HW119109   2.286   1.752   0.645
 6070SOL    HW219110   2.240   1.611   0.714
 6071SOL     OW19111   5.318   0.886   5.873
 6071SOL    HW119112   5.304   0.941   5.956
 6071SOL    HW219113   5.370   0.939   5.806
 6072SOL     OW19114   6.835   3.270   0.082
 6072SOL    HW119115   6.831   3.231   0.174
 6072SOL    HW219116   6.905   3.222   0.028
 6073SOL     OW19117   4.965   3.790   0.546
 6073SOL    HW119118   4.942   3.868   0.488
 6073SOL    HW219119   4.948   3.813   0.642
 6074SOL     OW19120   0.854   6.707   1.776
 6074SOL    HW119121   0.778   6.728   1.838
 6074SOL    HW219122   0.940   6.727   1.821
 6075SOL     OW19123   6.123   0.873   6.773
 6075SOL    HW119124   6.188   0.942   6.742
 6075SOL    HW219125   6.039   0.880   6.719
 6076SOL     OW19126   0.338   6.199   3.191
 6076SOL    HW119127   0.410   6.184   3.259
 6076SOL    HW219128   0.364   6.155   3.105
 6077SOL     OW19129   5.129   6.038   2.855
 6077SOL    HW119130   5.141   6.124   2.806
 6077SOL    HW219131   5.175   5.964   2.806
 6078SOL     OW19132   5.076   4.254   0.453
 6078SOL    HW119133   5.055   4.344   0.491
 6078SOL    HW219134   5.143   4.264   0.379
 6079SOL     OW19135   3.369   1.714   6.949
 6079SOL    HW119136   3.271   1.720   6.965
 6079SOL    HW219137   3.417   1.777   7.010
 6080SOL     OW19138   6.688   3.838   5.717
 6080SOL    HW119139   6.764   3.885   5.672
 6080SOL    HW219140   6.637   3.785   5.649
 6081SOL     OW19141   1.463   3.672   3.601
 6081SOL    HW119142   1.453   3.649   3.504
 6081SOL    HW219143   1.510   3.759   3.610
 6082SOL     OW19144   5.319   1.274   1.682
 6082SOL    HW119145   5.370   1.327   1.750
 6082SOL    HW219146   5.359   1.289   1.591
 6083SOL     OW19147   5.149   6.823   6.697
 6083SOL    HW119148   5.101   6.840   6.611
 6083SOL    HW219149   5.235   6.776   6.678
 6084SOL     OW19150   6.334   5.532   3.094
 6084SOL    HW119151   6.238   5.557   3.094
 6084SOL    HW219152   6.364   5.513   3.000
 6085SOL     OW19153   0.895   6.520   0.445
 6085SOL    HW119154   0.872   6.579   0.522
 6085SOL    HW219155   0.814   6.510   0.386
 6086SOL     OW19156   3.199   3.621   6.995
 6086SOL    HW119157   3.285   3.574   7.014
 6086SOL    HW219158   3.215   3.696   6.930
 6087SOL     OW19159   4.326   0.324   0.685
 6087SOL    HW119160   4.351   0.308   0.781
 6087SOL    HW219161   4.228   0.305   0.673
 6088SOL     OW19162   4.635   5.424   2.943
 6088SOL    HW119163   4.626   5.520   2.970
 6088SOL    HW219164   4.686   5.374   3.012
 6089SOL     OW19165   6.529   3.848   3.132
 6089SOL    HW119166   6.515   3.752   3.109
 6089SOL    HW219167   6.443   3.898   3.125
 6090SOL     OW19168   3.699   5.536   4.570
 6090SOL    HW119169   3.764   5.463   4.546
 6090SOL    HW219170   3.737   5.590   4.645
 6091SOL     OW19171   0.281   1.339   1.577
 6091SOL    HW119172   0.212   1.395   1.530
 6091SOL    HW219173   0.358   1.323   1.516
 6092SOL     OW19174   2.531   6.695   1.507
 6092SOL    HW119175   2.576   6.606   1.497
 6092SOL    HW219176   2.588   6.766   1.465
 6093SOL     OW19177   2.462   2.622   2.097
 6093SOL    HW119178   2.380   2.665   2.058
 6093SOL    HW219179   2.542   2.650   2.044
 6094SOL     OW19180   0.737   6.629   5.600
 6094SOL    HW119181   0.726   6.540   5.555
 6094SOL    HW219182   0.749   6.700   5.531
 6095SOL     OW19183   5.098   4.966   1.884
 6095SOL    HW119184   5.159   5.044   1.867
 6095SOL    HW219185   5.082   4.917   1.798
 6096SOL     OW19186   5.098   5.896   3.099
 6096SOL    HW119187   5.009   5.850   3.094
 6096SOL    HW219188   5.111   5.952   3.017
 6097SOL     OW19189   2.618   5.009   2.162
 6097SOL    HW119190   2.637   5.104   2.186
 6097SOL    HW219191   2.541   5.005   2.098
 6098SOL     OW19192   6.486   0.744   5.327
 6098SOL    HW119193   6.575   0.766   5.288
 6098SOL    HW219194   6.449   0.824   5.374
 6099SOL     OW19195   4.035   0.149   5.661
 6099SOL    HW119196   4.086   0.215   5.717
 6099SOL    HW219197   4.039   0.059   5.704
 6100SOL     OW19198   1.049   5.839   5.379
 6100SOL    HW119199   0.975   5.773   5.376
 6100SOL    HW219200   1.035   5.908   5.308
 6101SOL     OW19201   0.109   3.072   1.712
 6101SOL    HW119202   0.122   2.973   1.721
 6101SOL    HW219203   0.188   3.119   1.751
 6102SOL     OW19204   3.760   6.979   2.842
 6102SOL    HW119205   3.687   6.927   2.798
 6102SOL    HW219206   3.729   7.012   2.931
 6103SOL     OW19207   5.909   1.281   2.819
 6103SOL    HW119208   5.928   1.221   2.896
 6103SOL    HW219209   5.811   1.299   2.815
 6104SOL     OW19210   6.663   1.398   4.924
 6104SOL    HW119211   6.687   1.428   4.831
 6104SOL    HW219212   6.570   1.426   4.945
 6105SOL     OW19213   3.729   4.416   5.925
 6105SOL    HW119214   3.824   4.387   5.934
 6105SOL    HW219215   3.673   4.370   5.994
 6106SOL     OW19216   6.237   4.655   5.136
 6106SOL    HW119217   6.159   4.606   5.097
 6106SOL    HW219218   6.322   4.607   5.111
 6107SOL     OW19219   5.387   5.211   5.615
 6107SOL    HW119220   5.373   5.176   5.523
 6107SOL    HW219221   5.344   5.150   5.681
 6108SOL     OW19222   2.587   1.041   6.441
 6108SOL    HW119223   2.677   1.023   6.401
 6108SOL    HW219224   2.597   1.058   6.539
 6109SOL     OW19225   0.168   6.653   4.174
 6109SOL    HW119226   0.185   6.554   4.170
 6109SOL    HW219227   0.114   6.681   4.094
 6110SOL     OW19228   1.996   1.367   4.398
 6110SOL    HW119229   2.040   1.347   4.485
 6110SOL    HW219230   2.015   1.461   4.372
 6111SOL     OW19231   2.251   3.424   0.475
 6111SOL    HW119232   2.229   3.344   0.419
 6111SOL    HW219233   2.351   3.436   0.477
 6112SOL     OW19234   4.701   6.709   3.451
 6112SOL    HW119235   4.714   6.761   3.367
 6112SOL    HW219236   4.724   6.766   3.529
 6113SOL     OW19237   2.128   5.582   0.636
 6113SOL    HW119238   2.207   5.633   0.602
 6113SOL    HW219239   2.059   5.576   0.564
 6114SOL     OW19240   4.969   2.434   1.169
 6114SOL    HW119241   4.934   2.502   1.234
 6114SOL    HW219242   5.063   2.458   1.144
 6115SOL     OW19243   0.871   1.059   5.209
 6115SOL    HW119244   0.923   1.139   5.238
 6115SOL    HW219245   0.933   0.987   5.179
 6116SOL     OW19246   5.823   3.634   0.141
 6116SOL    HW119247   5.871   3.722   0.137
 6116SOL    HW219248   5.800   3.613   0.236
 6117SOL     OW19249   1.630   1.894   1.178
 6117SOL    HW119250   1.622   1.984   1.221
 6117SOL    HW219251   1.725   1.863   1.185
 6118SOL     OW19252   5.758   1.097   2.518
 6118SOL    HW119253   5.708   1.183   2.529
 6118SOL    HW219254   5.838   1.112   2.460
 6119SOL     OW19255   6.434   1.325   6.714
 6119SOL    HW119256   6.415   1.350   6.808
 6119SOL    HW219257   6.508   1.257   6.711
 6120SOL     OW19258   3.312   0.107   4.214
 6120SOL    HW119259   3.300   0.201   4.183
 6120SOL    HW219260   3.388   0.064   4.165
 6121SOL     OW19261   2.154   1.682   5.265
 6121SOL    HW119262   2.154   1.692   5.365
 6121SOL    HW219263   2.244   1.705   5.229
 6122SOL     OW19264   5.162   4.731   4.996
 6122SOL    HW119265   5.184   4.736   4.899
 6122SOL    HW219266   5.234   4.776   5.049
 6123SOL     OW19267   5.932   1.352   5.626
 6123SOL    HW119268   5.984   1.302   5.695
 6123SOL    HW219269   5.990   1.370   5.547
 6124SOL     OW19270   2.772   5.926   3.932
 6124SOL    HW119271   2.778   6.024   3.911
 6124SOL    HW219272   2.727   5.879   3.857
 6125SOL     OW19273   3.212   1.696   5.959
 6125SOL    HW119274   3.306   1.662   5.949
 6125SOL    HW219275   3.214   1.790   5.992
 6126SOL     OW19276   5.997   3.081   5.865
 6126SOL    HW119277   6.007   2.981   5.869
 6126SOL    HW219278   6.050   3.122   5.939
 6127SOL     OW19279   5.319   2.043   3.063
 6127SOL    HW119280   5.348   2.110   2.995
 6127SOL    HW219281   5.295   2.090   3.148
 6128SOL     OW19282   5.982   5.886   6.780
 6128SOL    HW119283   5.972   5.974   6.828
 6128SOL    HW219284   6.068   5.885   6.730
 6129SOL     OW19285   2.910   5.682   2.434
 6129SOL    HW119286   2.888   5.751   2.503
 6129SOL    HW219287   2.931   5.727   2.347
 6130SOL     OW19288   5.717   2.918   0.265
 6130SOL    HW119289   5.747   2.917   0.360
 6130SOL    HW219290   5.778   2.861   0.210
 6131SOL     OW19291   6.278   2.060   2.967
 6131SOL    HW119292   6.200   2.080   2.907
 6131SOL    HW219293   6.348   2.011   2.915
 6132SOL     OW19294   4.334   0.244   6.172
 6132SOL    HW119295   4.290   0.322   6.215
 6132SOL    HW219296   4.403   0.206   6.233
 6133SOL     OW19297   0.423   2.032   2.919
 6133SOL    HW119298   0.472   2.050   3.004
 6133SOL    HW219299   0.451   1.944   2.881
 6134SOL     OW19300   0.564   6.739   5.271
 6134SOL    HW119301   0.557   6.642   5.247
 6134SOL    HW219302   0.649   6.755   5.321
 6135SOL     OW19303   6.872   0.266   0.431
 6135SOL    HW119304   6.774   0.257   0.412
 6135SOL    HW219305   6.897   0.363   0.430
 6136SOL     OW19306   1.033   2.435   3.674
 6136SOL    HW119307   0.946   2.396   3.645
 6136SOL    HW219308   1.045   2.525   3.633
 6137SOL     OW19309   0.368   4.518   0.843
 6137SOL    HW119310   0.280   4.544   0.802
 6137SOL    HW219311   0.358   4.509   0.942
 6138SOL     OW19312   4.711   0.214   2.456
 6138SOL    HW119313   4.739   0.236   2.362
 6138SOL    HW219314   4.723   0.294   2.514
 6139SOL     OW19315   1.208   0.858   4.892
 6139SOL    HW119316   1.259   0.943   4.879
 6139SOL    HW219317   1.256   0.783   4.845
 6140SOL     OW19318   1.438   6.945   2.677
 6140SOL    HW119319   1.418   6.926   2.773
 6140SOL    HW219320   1.458   0.020   2.666
 6141SOL     OW19321   0.932   1.085   6.281
 6141SOL    HW119322   0.993   1.022   6.329
 6141SOL    HW219323   0.883   1.035   6.209
 6142SOL     OW19324   6.214   0.561   1.419
 6142SOL    HW119325   6.277   0.483   1.419
 6142SOL    HW219326   6.233   0.619   1.498
 6143SOL     OW19327   0.385   3.398   5.077
 6143SOL    HW119328   0.313   3.468   5.081
 6143SOL    HW219329   0.471   3.436   5.110
 6144SOL     OW19330   4.327   5.246   2.566
 6144SOL    HW119331   4.331   5.294   2.654
 6144SOL    HW219332   4.312   5.148   2.583
 6145SOL     OW19333   4.899   3.585   4.097
 6145SOL    HW119334   4.871   3.531   4.018
 6145SOL    HW219335   4.901   3.682   4.072
 6146SOL     OW19336   5.722   0.185   5.365
 6146SOL    HW119337   5.818   0.164   5.386
 6146SOL    HW219338   5.665   0.166   5.444
 6147SOL     OW19339   1.439   2.565   4.886
 6147SOL    HW119340   1.408   2.655   4.916
 6147SOL    HW219341   1.424   2.499   4.959
 6148SOL     OW19342   3.328   5.069   0.238
 6148SOL    HW119343   3.360   5.113   0.154
 6148SOL    HW219344   3.351   4.972   0.236
 6149SOL     OW19345   3.818   1.163   1.830
 6149SOL    HW119346   3.821   1.092   1.900
 6149SOL    HW219347   3.787   1.123   1.744
 6150SOL     OW19348   0.770   4.168   4.847
 6150SOL    HW119349   0.853   4.161   4.792
 6150SOL    HW219350   0.692   4.132   4.795
 6151SOL     OW19351   4.476   5.103   3.125
 6151SOL    HW119352   4.533   5.079   3.047
 6151SOL    HW219353   4.508   5.190   3.164
 6152SOL     OW19354   1.716   4.544   3.802
 6152SOL    HW119355   1.790   4.609   3.786
 6152SOL    HW219356   1.746   4.474   3.867
 6153SOL     OW19357   4.778   6.173   1.231
 6153SOL    HW119358   4.838   6.122   1.292
 6153SOL    HW219359   4.793   6.143   1.137
 6154SOL     OW19360   5.154   3.847   2.249
 6154SOL    HW119361   5.227   3.785   2.276
 6154SOL    HW219362   5.066   3.802   2.262
 6155SOL     OW19363   1.793   1.590   3.648
 6155SOL    HW119364   1.878   1.592   3.700
 6155SOL    HW219365   1.717   1.619   3.706
 6156SOL     OW19366   5.239   4.510   1.753
 6156SOL    HW119367   5.293   4.594   1.754
 6156SOL    HW219368   5.170   4.516   1.680
 6157SOL     OW19369   0.344   3.026   1.438
 6157SOL    HW119370   0.327   3.121   1.464
 6157SOL    HW219371   0.442   3.010   1.432
 6158SOL     OW19372   3.079   2.201   4.749
 6158SOL    HW119373   2.991   2.248   4.748
 6158SOL    HW219374   3.132   2.230   4.828
 6159SOL     OW19375   6.455   2.840   6.995
 6159SOL    HW119376   6.383   2.907   7.013
 6159SOL    HW219377   6.443   2.761   0.032
 6160SOL     OW19378   1.014   0.488   1.398
 6160SOL    HW119379   1.093   0.435   1.368
 6160SOL    HW219380   0.943   0.484   1.328
 6161SOL     OW19381   4.653   3.970   0.021
 6161SOL    HW119382   4.724   4.017   0.073
 6161SOL    HW219383   4.569   4.024   0.022
 6162SOL     OW19384   6.342   5.431   2.321
 6162SOL    HW119385   6.369   5.523   2.292
 6162SOL    HW219386   6.371   5.365   2.252
 6163SOL     OW19387   6.443   5.946   2.675
 6163SOL    HW119388   6.358   5.934   2.623
 6163SOL    HW219389   6.494   5.860   2.677
 6164SOL     OW19390   2.981   3.591   4.924
 6164SOL    HW119391   2.930   3.508   4.949
 6164SOL    HW219392   2.925   3.672   4.947
 6165SOL     OW19393   3.313   1.769   0.476
 6165SOL    HW119394   3.260   1.718   0.543
 6165SOL    HW219395   3.289   1.738   0.384
 6166SOL     OW19396   2.701   2.237   6.233
 6166SOL    HW119397   2.680   2.144   6.203
 6166SOL    HW219398   2.771   2.277   6.174
 6167SOL     OW19399   1.622   3.490   2.922
 6167SOL    HW119400   1.599   3.545   2.842
 6167SOL    HW219401   1.721   3.475   2.925
 6168SOL     OW19402   0.370   3.597   3.618
 6168SOL    HW119403   0.426   3.544   3.555
 6168SOL    HW219404   0.327   3.673   3.569
 6169SOL     OW19405   2.047   0.594   6.603
 6169SOL    HW119406   2.145   0.598   6.583
 6169SOL    HW219407   2.026   0.658   6.677
 6170SOL     OW19408   2.711   3.586   0.873
 6170SOL    HW119409   2.623   3.542   0.853
 6170SOL    HW219410   2.749   3.547   0.956
 6171SOL     OW19411   2.089   3.628   1.794
 6171SOL    HW119412   2.147   3.575   1.856
 6171SOL    HW219413   2.139   3.709   1.763
 6172SOL     OW19414   2.714   5.435   2.465
 6172SOL    HW119415   2.767   5.518   2.452
 6172SOL    HW219416   2.638   5.453   2.528
 6173SOL     OW19417   1.063   6.010   2.605
 6173SOL    HW119418   1.094   5.944   2.673
 6173SOL    HW219419   1.007   5.963   2.536
 6174SOL     OW19420   6.026   4.832   2.266
 6174SOL    HW119421   6.100   4.853   2.330
 6174SOL    HW219422   5.939   4.831   2.316
 6175SOL     OW19423   4.844   0.288   3.132
 6175SOL    HW119424   4.939   0.276   3.104
 6175SOL    HW219425   4.839   0.296   3.231
 6176SOL     OW19426   5.350   3.263   6.509
 6176SOL    HW119427   5.256   3.229   6.522
 6176SOL    HW219428   5.415   3.189   6.526
 6177SOL     OW19429   6.770   3.023   1.649
 6177SOL    HW119430   6.684   3.065   1.677
 6177SOL    HW219431   6.808   2.969   1.725
 6178SOL     OW19432   6.030   3.562   2.028
 6178SOL    HW119433   5.941   3.592   2.064
 6178SOL    HW219434   6.098   3.634   2.043
 6179SOL     OW19435   0.355   2.534   5.460
 6179SOL    HW119436   0.451   2.547   5.435
 6179SOL    HW219437   0.307   2.621   5.451
 6180SOL     OW19438   3.192   7.013   5.852
 6180SOL    HW119439   3.256   0.066   5.861
 6180SOL    HW219440   3.104   0.023   5.819
 6181SOL     OW19441   4.680   5.785   0.423
 6181SOL    HW119442   4.656   5.796   0.327
 6181SOL    HW219443   4.754   5.719   0.432
 6182SOL     OW19444   4.837   6.611   6.559
 6182SOL    HW119445   4.782   6.616   6.642
 6182SOL    HW219446   4.917   6.552   6.576
 6183SOL     OW19447   3.080   0.859   2.899
 6183SOL    HW119448   3.128   0.905   2.824
 6183SOL    HW219449   2.984   0.884   2.896
 6184SOL     OW19450   6.074   0.752   6.522
 6184SOL    HW119451   6.162   0.712   6.497
 6184SOL    HW219452   6.025   0.689   6.582
 6185SOL     OW19453   0.998   3.600   5.827
 6185SOL    HW119454   0.996   3.646   5.739
 6185SOL    HW219455   0.924   3.634   5.884
 6186SOL     OW19456   5.298   0.216   5.114
 6186SOL    HW119457   5.398   0.207   5.113
 6186SOL    HW219458   5.262   0.190   5.024
 6187SOL     OW19459   3.072   4.934   4.292
 6187SOL    HW119460   3.110   4.910   4.381
 6187SOL    HW219461   3.130   5.002   4.248
 6188SOL     OW19462   2.800   0.351   1.813
 6188SOL    HW119463   2.744   0.427   1.847
 6188SOL    HW219464   2.751   0.302   1.741
 6189SOL     OW19465   5.480   4.619   3.605
 6189SOL    HW119466   5.512   4.713   3.593
 6189SOL    HW219467   5.465   4.601   3.702
 6190SOL     OW19468   5.041   2.655   6.060
 6190SOL    HW119469   4.983   2.657   5.979
 6190SOL    HW219470   5.136   2.671   6.033
 6191SOL     OW19471   0.085   2.404   6.737
 6191SOL    HW119472   0.153   2.340   6.774
 6191SOL    HW219473   7.016   2.367   6.754
 6192SOL     OW19474   2.975   2.536   0.304
 6192SOL    HW119475   3.017   2.462   0.250
 6192SOL    HW219476   2.943   2.499   0.391
 6193SOL     OW19477   5.862   0.442   0.879
 6193SOL    HW119478   5.808   0.401   0.806
 6193SOL    HW219479   5.828   0.410   0.968
 6194SOL     OW19480   2.151   0.849   0.607
 6194SOL    HW119481   2.091   0.770   0.619
 6194SOL    HW219482   2.145   0.908   0.688
 6195SOL     OW19483   2.590   6.166   6.225
 6195SOL    HW119484   2.519   6.191   6.291
 6195SOL    HW219485   2.550   6.158   6.134
 6196SOL     OW19486   0.434   1.215   6.116
 6196SOL    HW119487   0.341   1.223   6.150
 6196SOL    HW219488   0.490   1.289   6.152
 6197SOL     OW19489   2.371   2.914   0.104
 6197SOL    HW119490   2.397   2.946   0.195
 6197SOL    HW219491   2.454   2.898   0.050
 6198SOL     OW19492   4.330   4.663   2.236
 6198SOL    HW119493   4.235   4.648   2.266
 6198SOL    HW219494   4.348   4.761   2.231
 6199SOL     OW19495   1.066   0.649   6.404
 6199SOL    HW119496   1.064   0.549   6.405
 6199SOL    HW219497   0.976   0.684   6.378
 6200SOL     OW19498   3.379   0.506   5.989
 6200SOL    HW119499   3.382   0.558   6.075
 6200SOL    HW219500   3.456   0.443   5.986
 6201SOL     OW19501   2.408   4.377   3.705
 6201SOL    HW119502   2.433   4.468   3.738
 6201SOL    HW219503   2.417   4.374   3.605
 6202SOL     OW19504   3.181   2.479   1.371
 6202SOL    HW119505   3.107   2.422   1.405
 6202SOL    HW219506   3.219   2.532   1.446
 6203SOL     OW19507   5.296   2.220   5.382
 6203SOL    HW119508   5.373   2.255   5.328
 6203SOL    HW219509   5.328   2.150   5.445
 6204SOL     OW19510   1.503   6.598   5.763
 6204SOL    HW119511   1.471   6.572   5.672
 6204SOL    HW219512   1.430   6.645   5.812
 6205SOL     OW19513   5.420   5.712   0.286
 6205SOL    HW119514   5.481   5.661   0.225
 6205SOL    HW219515   5.390   5.653   0.361
 6206SOL     OW19516   5.266   0.013   3.173
 6206SOL    HW119517   5.334   7.020   3.102
 6206SOL    HW219518   5.185   0.055   3.133
 6207SOL     OW19519   2.034   4.096   4.187
 6207SOL    HW119520   2.017   4.016   4.128
 6207SOL    HW219521   1.950   4.151   4.193
 6208SOL     OW19522   5.205   6.017   6.423
 6208SOL    HW119523   5.305   6.021   6.430
 6208SOL    HW219524   5.171   6.103   6.385
 6209SOL     OW19525   3.033   5.626   1.008
 6209SOL    HW119526   2.975   5.686   1.063
 6209SOL    HW219527   3.090   5.570   1.068
 6210SOL     OW19528   6.772   5.072   3.403
 6210SOL    HW119529   6.812   5.100   3.491
 6210SOL    HW219530   6.682   5.031   3.418
 6211SOL     OW19531   2.567   0.480   4.944
 6211SOL    HW119532   2.570   0.545   4.868
 6211SOL    HW219533   2.572   0.387   4.908
 6212SOL     OW19534   6.674   6.529   3.806
 6212SOL    HW119535   6.736   6.467   3.854
 6212SOL    HW219536   6.706   6.623   3.817
 6213SOL     OW19537   6.736   6.903   6.264
 6213SOL    HW119538   6.681   6.917   6.346
 6213SOL    HW219539   6.722   6.810   6.230
 6214SOL     OW19540   6.301   5.118   2.358
 6214SOL    HW119541   6.277   5.091   2.265
 6214SOL    HW219542   6.225   5.169   2.398
 6215SOL     OW19543   2.572   4.637   1.519
 6215SOL    HW119544   2.607   4.726   1.551
 6215SOL    HW219545   2.608   4.564   1.578
 6216SOL     OW19546   6.206   1.776   2.872
 6216SOL    HW119547   6.228   1.682   2.845
 6216SOL    HW219548   6.263   1.803   2.949
 6217SOL     OW19549   5.599   3.037   2.209
 6217SOL    HW119550   5.580   3.117   2.266
 6217SOL    HW219551   5.623   3.068   2.117
 6218SOL     OW19552   3.713   4.916   4.443
 6218SOL    HW119553   3.659   4.839   4.410
 6218SOL    HW219554   3.708   4.992   4.378
 6219SOL     OW19555   1.369   1.656   4.204
 6219SOL    HW119556   1.390   1.744   4.247
 6219SOL    HW219557   1.317   1.599   4.268
 6220SOL     OW19558   1.575   4.031   5.263
 6220SOL    HW119559   1.547   4.115   5.309
 6220SOL    HW219560   1.597   4.051   5.168
 6221SOL     OW19561   4.586   5.031   4.383
 6221SOL    HW119562   4.662   5.090   4.411
 6221SOL    HW219563   4.503   5.087   4.373
 6222SOL     OW19564   0.117   1.716   0.934
 6222SOL    HW119565   0.150   1.672   1.018
 6222SOL    HW219566   0.119   1.815   0.945
 6223SOL     OW19567   5.345   3.936   4.755
 6223SOL    HW119568   5.342   4.025   4.710
 6223SOL    HW219569   5.275   3.876   4.717
 6224SOL     OW19570   2.824   0.472   4.768
 6224SOL    HW119571   2.760   0.547   4.754
 6224SOL    HW219572   2.780   0.385   4.746
 6225SOL     OW19573   4.382   2.629   6.680
 6225SOL    HW119574   4.415   2.586   6.764
 6225SOL    HW219575   4.415   2.578   6.601
 6226SOL     OW19576   6.587   6.648   4.506
 6226SOL    HW119577   6.544   6.637   4.416
 6226SOL    HW219578   6.685   6.665   4.495
 6227SOL     OW19579   2.964   4.064   6.925
 6227SOL    HW119580   3.016   4.008   6.990
 6227SOL    HW219581   3.020   4.142   6.896
 6228SOL     OW19582   0.033   0.885   2.337
 6228SOL    HW119583   0.129   0.911   2.330
 6228SOL    HW219584   0.002   0.896   2.431
 6229SOL     OW19585   1.731   2.703   1.840
 6229SOL    HW119586   1.631   2.713   1.834
 6229SOL    HW219587   1.752   2.633   1.908
 6230SOL     OW19588   2.075   2.286   3.328
 6230SOL    HW119589   2.098   2.192   3.353
 6230SOL    HW219590   2.031   2.332   3.406
 6231SOL     OW19591   6.624   5.209   1.234
 6231SOL    HW119592   6.694   5.148   1.197
 6231SOL    HW219593   6.660   5.255   1.315
 6232SOL     OW19594   0.819   1.565   6.808
 6232SOL    HW119595   0.918   1.575   6.815
 6232SOL    HW219596   0.797   1.482   6.757
 6233SOL     OW19597   4.292   2.036   7.021
 6233SOL    HW119598   4.229   2.005   0.069
 6233SOL    HW219599   4.385   2.006   0.020
 6234SOL     OW19600   2.330   2.349   3.199
 6234SOL    HW119601   2.401   2.293   3.243
 6234SOL    HW219602   2.240   2.323   3.234
 6235SOL     OW19603   2.392   5.988   3.268
 6235SOL    HW119604   2.401   5.889   3.254
 6235SOL    HW219605   2.423   6.011   3.360
 6236SOL     OW19606   6.767   3.862   0.070
 6236SOL    HW119607   6.693   3.875   0.136
 6236SOL    HW219608   6.802   3.769   0.077
 6237SOL     OW19609   4.252   6.552   0.464
 6237SOL    HW119610   4.272   6.454   0.470
 6237SOL    HW219611   4.325   6.603   0.510
 6238SOL     OW19612   4.629   4.161   1.260
 6238SOL    HW119613   4.611   4.145   1.163
 6238SOL    HW219614   4.722   4.196   1.271
 6239SOL     OW19615   2.247   1.070   3.533
 6239SOL    HW119616   2.318   1.098   3.598
 6239SOL    HW219617   2.224   0.974   3.548
 6240SOL     OW19618   2.535   3.472   0.504
 6240SOL    HW119619   2.547   3.564   0.541
 6240SOL    HW219620   2.586   3.464   0.419
 6241SOL     OW19621   4.415   0.008   2.075
 6241SOL    HW119622   4.387   6.998   2.165
 6241SOL    HW219623   4.443   6.954   2.018
 6242SOL     OW19624   3.549   2.126   3.616
 6242SOL    HW119625   3.544   2.028   3.630
 6242SOL    HW219626   3.486   2.152   3.542
 6243SOL     OW19627   5.424   5.315   3.596
 6243SOL    HW119628   5.458   5.231   3.555
 6243SOL    HW219629   5.486   5.345   3.669
 6244SOL     OW19630   1.794   2.372   2.332
 6244SOL    HW119631   1.801   2.367   2.233
 6244SOL    HW219632   1.876   2.415   2.370
 6245SOL     OW19633   2.039   3.827   0.293
 6245SOL    HW119634   2.085   3.763   0.355
 6245SOL    HW219635   2.087   3.830   0.205
 6246SOL     OW19636   3.618   1.466   6.325
 6246SOL    HW119637   3.519   1.463   6.314
 6246SOL    HW219638   3.661   1.403   6.259
 6247SOL     OW19639   6.626   6.159   3.042
 6247SOL    HW119640   6.687   6.083   3.061
 6247SOL    HW219641   6.538   6.124   3.010
 6248SOL     OW19642   1.029   4.837   1.011
 6248SOL    HW119643   0.946   4.789   1.040
 6248SOL    HW219644   1.041   4.920   1.066
 6249SOL     OW19645   5.383   4.059   6.302
 6249SOL    HW119646   5.289   4.089   6.313
 6249SOL    HW219647   5.387   3.979   6.242
 6250SOL     OW19648   5.889   5.390   6.115
 6250SOL    HW119649   5.877   5.296   6.085
 6250SOL    HW219650   5.912   5.448   6.037
 6251SOL     OW19651   4.636   1.852   0.998
 6251SOL    HW119652   4.670   1.765   1.034
 6251SOL    HW219653   4.712   1.903   0.957
 6252SOL     OW19654   1.908   6.301   5.174
 6252SOL    HW119655   1.971   6.378   5.164
 6252SOL    HW219656   1.851   6.315   5.255
 6253SOL     OW19657   1.805   3.791   1.147
 6253SOL    HW119658   1.882   3.768   1.087
 6253SOL    HW219659   1.815   3.886   1.178
 6254SOL     OW19660   5.052   0.695   0.549
 6254SOL    HW119661   5.067   0.761   0.476
 6254SOL    HW219662   5.064   0.602   0.514
 6255SOL     OW19663   6.999   1.888   2.423
 6255SOL    HW119664   0.030   1.807   2.399
 6255SOL    HW219665   0.034   1.955   2.468
 6256SOL     OW19666   3.193   4.978   3.310
 6256SOL    HW119667   3.099   4.981   3.343
 6256SOL    HW219668   3.255   4.958   3.386
 6257SOL     OW19669   4.289   2.681   0.191
 6257SOL    HW119670   4.252   2.751   0.252
 6257SOL    HW219671   4.342   2.726   0.118
 6258SOL     OW19672   5.157   2.493   2.756
 6258SOL    HW119673   5.075   2.473   2.703
 6258SOL    HW219674   5.141   2.574   2.812
 6259SOL     OW19675   3.080   2.154   1.755
 6259SOL    HW119676   3.039   2.231   1.805
 6259SOL    HW219677   3.014   2.080   1.746
 6260SOL     OW19678   3.676   3.413   0.599
 6260SOL    HW119679   3.768   3.424   0.561
 6260SOL    HW219680   3.651   3.495   0.650
 6261SOL     OW19681   4.574   0.667   6.762
 6261SOL    HW119682   4.574   0.683   6.861
 6261SOL    HW219683   4.492   0.707   6.722
 6262SOL     OW19684   0.393   5.955   5.606
 6262SOL    HW119685   0.341   5.905   5.675
 6262SOL    HW219686   0.439   5.890   5.546
 6263SOL     OW19687   6.505   0.995   0.908
 6263SOL    HW119688   6.558   1.077   0.929
 6263SOL    HW219689   6.459   1.006   0.820
 6264SOL     OW19690   2.055   1.073   6.871
 6264SOL    HW119691   1.973   1.124   6.843
 6264SOL    HW219692   2.046   1.044   6.966
 6265SOL     OW19693   4.672   3.275   1.339
 6265SOL    HW119694   4.705   3.294   1.432
 6265SOL    HW219695   4.712   3.341   1.275
 6266SOL     OW19696   2.318   6.849   2.094
 6266SOL    HW119697   2.410   6.814   2.075
 6266SOL    HW219698   2.284   6.899   2.014
 6267SOL     OW19699   2.345   6.729   0.174
 6267SOL    HW119700   2.291   6.709   0.092
 6267SOL    HW219701   2.419   6.792   0.151
 6268SOL     OW19702   3.023   4.916   2.591
 6268SOL    HW119703   2.985   4.930   2.499
 6268SOL    HW219704   3.027   5.005   2.638
 6269SOL     OW19705   6.055   4.488   0.676
 6269SOL    HW119706   5.971   4.489   0.731
 6269SOL    HW219707   6.058   4.404   0.621
 6270SOL     OW19708   0.833   1.600   4.431
 6270SOL    HW119709   0.863   1.523   4.374
 6270SOL    HW219710   0.754   1.644   4.388
 6271SOL     OW19711   6.221   1.807   0.899
 6271SOL    HW119712   6.228   1.746   0.978
 6271SOL    HW219713   6.183   1.757   0.821
 6272SOL     OW19714   1.903   2.413   3.655
 6272SOL    HW119715   1.967   2.490   3.658
 6272SOL    HW219716   1.943   2.334   3.700
 6273SOL     OW19717   4.036   0.179   2.013
 6273SOL    HW119718   4.068   0.173   2.108
 6273SOL    HW219719   4.114   0.167   1.952
 6274SOL     OW19720   3.381   6.401   6.365
 6274SOL    HW119721   3.286   6.377   6.341
 6274SOL    HW219722   3.439   6.321   6.353
 6275SOL     OW19723   2.534   0.457   4.255
 6275SOL    HW119724   2.527   0.376   4.313
 6275SOL    HW219725   2.609   0.515   4.287
 6276SOL     OW19726   1.360   4.991   4.217
 6276SOL    HW119727   1.392   4.955   4.130
 6276SOL    HW219728   1.409   4.946   4.292
 6277SOL     OW19729   5.485   3.143   3.973
 6277SOL    HW119730   5.554   3.076   3.946
 6277SOL    HW219731   5.500   3.170   4.068
 6278SOL     OW19732   5.230   0.677   4.242
 6278SOL    HW119733   5.242   0.631   4.154
 6278SOL    HW219734   5.205   0.773   4.226
 6279SOL     OW19735   4.857   1.742   6.784
 6279SOL    HW119736   4.767   1.778   6.810
 6279SOL    HW219737   4.846   1.652   6.742
 6280SOL     OW19738   0.696   5.109   6.119
 6280SOL    HW119739   0.705   5.025   6.067
 6280SOL    HW219740   0.607   5.151   6.100
 6281SOL     OW19741   2.863   6.656   5.090
 6281SOL    HW119742   2.822   6.565   5.095
 6281SOL    HW219743   2.879   6.681   4.994
 6282SOL     OW19744   1.902   0.057   3.538
 6282SOL    HW119745   1.983   0.114   3.527
 6282SOL    HW219746   1.823   0.115   3.557
 6283SOL     OW19747   0.319   3.198   4.882
 6283SOL    HW119748   0.405   3.194   4.830
 6283SOL    HW219749   0.328   3.265   4.956
 6284SOL     OW19750   2.073   4.501   6.620
 6284SOL    HW119751   2.031   4.433   6.680
 6284SOL    HW219752   2.018   4.512   6.537
 6285SOL     OW19753   1.680   4.787   2.628
 6285SOL    HW119754   1.605   4.728   2.599
 6285SOL    HW219755   1.750   4.791   2.557
 6286SOL     OW19756   5.774   0.166   4.952
 6286SOL    HW119757   5.748   0.238   4.888
 6286SOL    HW219758   5.823   0.094   4.903
 6287SOL     OW19759   4.322   4.561   1.976
 6287SOL    HW119760   4.322   4.574   2.076
 6287SOL    HW219761   4.346   4.467   1.955
 6288SOL     OW19762   5.183   4.014   1.334
 6288SOL    HW119763   5.086   4.037   1.329
 6288SOL    HW219764   5.222   4.054   1.417
 6289SOL     OW19765   1.396   0.517   2.663
 6289SOL    HW119766   1.360   0.499   2.571
 6289SOL    HW219767   1.483   0.566   2.656
 6290SOL     OW19768   5.918   2.956   3.399
 6290SOL    HW119769   5.855   2.896   3.350
 6290SOL    HW219770   6.012   2.925   3.384
 6291SOL     OW19771   3.946   3.764   3.009
 6291SOL    HW119772   4.001   3.765   3.092
 6291SOL    HW219773   3.851   3.744   3.031
 6292SOL     OW19774   6.907   1.759   1.812
 6292SOL    HW119775   6.961   1.685   1.854
 6292SOL    HW219776   6.969   1.826   1.772
 6293SOL     OW19777   5.126   5.434   0.631
 6293SOL    HW119778   5.179   5.519   0.638
 6293SOL    HW219779   5.165   5.365   0.692
 6294SOL     OW19780   4.075   5.062   2.434
 6294SOL    HW119781   4.001   4.995   2.423
 6294SOL    HW219782   4.058   5.117   2.516
 6295SOL     OW19783   6.273   6.280   5.999
 6295SOL    HW119784   6.269   6.181   5.986
 6295SOL    HW219785   6.235   6.303   6.089
 6296SOL     OW19786   6.629   0.791   2.362
 6296SOL    HW119787   6.701   0.726   2.339
 6296SOL    HW219788   6.587   0.765   2.450
 6297SOL     OW19789   5.575   0.583   6.024
 6297SOL    HW119790   5.595   0.486   6.008
 6297SOL    HW219791   5.585   0.604   6.121
 6298SOL     OW19792   0.569   1.954   4.217
 6298SOL    HW119793   0.654   2.002   4.239
 6298SOL    HW219794   0.492   2.017   4.224
 6299SOL     OW19795   6.225   3.393   0.295
 6299SOL    HW119796   6.207   3.460   0.367
 6299SOL    HW219797   6.160   3.407   0.220
 6300SOL     OW19798   5.025   1.472   3.944
 6300SOL    HW119799   5.069   1.559   3.920
 6300SOL    HW219800   4.988   1.478   4.037
 6301SOL     OW19801   3.152   0.341   0.647
 6301SOL    HW119802   3.233   0.353   0.704
 6301SOL    HW219803   3.180   0.323   0.553
 6302SOL     OW19804   0.236   0.976   3.019
 6302SOL    HW119805   0.307   0.909   2.996
 6302SOL    HW219806   0.181   0.941   3.096
 6303SOL     OW19807   2.088   5.944   5.138
 6303SOL    HW119808   2.157   6.014   5.159
 6303SOL    HW219809   1.997   5.980   5.158
 6304SOL     OW19810   3.527   1.070   5.705
 6304SOL    HW119811   3.578   1.151   5.677
 6304SOL    HW219812   3.568   0.988   5.665
 6305SOL     OW19813   5.931   1.187   2.295
 6305SOL    HW119814   5.933   1.105   2.238
 6305SOL    HW219815   5.903   1.265   2.239
 6306SOL     OW19816   5.925   2.917   4.586
 6306SOL    HW119817   5.877   2.985   4.641
 6306SOL    HW219818   5.862   2.875   4.521
 6307SOL     OW19819   2.614   4.203   0.557
 6307SOL    HW119820   2.603   4.178   0.461
 6307SOL    HW219821   2.663   4.131   0.606
 6308SOL     OW19822   3.185   2.230   5.524
 6308SOL    HW119823   3.202   2.185   5.436
 6308SOL    HW219824   3.197   2.163   5.598
 6309SOL     OW19825   5.474   2.075   4.900
 6309SOL    HW119826   5.471   2.001   4.832
 6309SOL    HW219827   5.389   2.128   4.894
 6310SOL     OW19828   0.922   4.866   4.772
 6310SOL    HW119829   0.935   4.778   4.726
 6310SOL    HW219830   0.830   4.900   4.753
 6311SOL     OW19831   6.354   6.178   4.138
 6311SOL    HW119832   6.298   6.171   4.056
 6311SOL    HW219833   6.299   6.154   4.218
 6312SOL     OW19834   5.135   4.635   6.036
 6312SOL    HW119835   5.128   4.684   5.950
 6312SOL    HW219836   5.229   4.635   6.068
 6313SOL     OW19837   2.380   5.153   3.418
 6313SOL    HW119838   2.372   5.253   3.419
 6313SOL    HW219839   2.376   5.120   3.323
 6314SOL     OW19840   2.493   6.958   4.009
 6314SOL    HW119841   2.484   0.027   4.049
 6314SOL    HW219842   2.470   6.962   3.912
 6315SOL     OW19843   2.545   3.741   0.571
 6315SOL    HW119844   2.644   3.759   0.577
 6315SOL    HW219845   2.506   3.798   0.499
 6316SOL     OW19846   4.852   1.647   6.006
 6316SOL    HW119847   4.881   1.592   5.928
 6316SOL    HW219848   4.892   1.739   6.000
 6317SOL     OW19849   6.294   5.816   4.230
 6317SOL    HW119850   6.271   5.899   4.281
 6317SOL    HW219851   6.285   5.833   4.132
 6318SOL     OW19852   2.295   1.725   4.756
 6318SOL    HW119853   2.292   1.810   4.809
 6318SOL    HW219854   2.275   1.745   4.660
 6319SOL     OW19855   0.490   1.789   2.834
 6319SOL    HW119856   0.581   1.768   2.798
 6319SOL    HW219857   0.465   1.720   2.902
 6320SOL     OW19858   6.801   1.839   3.292
 6320SOL    HW119859   6.768   1.836   3.197
 6320SOL    HW219860   6.900   1.827   3.293
 6321SOL     OW19861   2.440   3.731   6.177
 6321SOL    HW119862   2.400   3.749   6.088
 6321SOL    HW219863   2.505   3.803   6.201
 6322SOL     OW19864   1.285   0.741   0.024
 6322SOL    HW119865   1.193   0.737   0.064
 6322SOL    HW219866   1.332   0.654   0.041
 6323SOL     OW19867   4.480   1.669   1.479
 6323SOL    HW119868   4.468   1.586   1.533
 6323SOL    HW219869   4.576   1.695   1.478
 6324SOL     OW19870   4.465   2.037   6.796
 6324SOL    HW119871   4.502   1.963   6.852
 6324SOL    HW219872   4.427   2.108   6.854
 6325SOL     OW19873   1.095   2.499   2.528
 6325SOL    HW119874   1.032   2.535   2.458
 6325SOL    HW219875   1.161   2.570   2.553
 6326SOL     OW19876   4.631   6.329   1.470
 6326SOL    HW119877   4.676   6.408   1.510
 6326SOL    HW219878   4.693   6.251   1.471
 6327SOL     OW19879   3.496   5.362   5.771
 6327SOL    HW119880   3.510   5.449   5.817
 6327SOL    HW219881   3.530   5.368   5.677
 6328SOL     OW19882   3.254   4.126   6.813
 6328SOL    HW119883   3.197   4.207   6.821
 6328SOL    HW219884   3.294   4.104   6.902
 6329SOL     OW19885   1.524   1.484   2.584
 6329SOL    HW119886   1.545   1.425   2.505
 6329SOL    HW219887   1.463   1.557   2.555
 6330SOL     OW19888   3.590   0.882   0.246
 6330SOL    HW119889   3.513   0.823   0.223
 6330SOL    HW219890   3.665   0.866   0.182
 6331SOL     OW19891   5.679   2.984   2.608
 6331SOL    HW119892   5.705   3.081   2.612
 6331SOL    HW219893   5.697   2.949   2.516
 6332SOL     OW19894   4.840   6.389   2.475
 6332SOL    HW119895   4.936   6.406   2.453
 6332SOL    HW219896   4.808   6.458   2.540
 6333SOL     OW19897   2.412   5.563   2.901
 6333SOL    HW119898   2.400   5.469   2.934
 6333SOL    HW219899   2.508   5.589   2.909
 6334SOL     OW19900   2.601   1.773   2.374
 6334SOL    HW119901   2.532   1.736   2.312
 6334SOL    HW219902   2.614   1.871   2.356
 6335SOL     OW19903   0.225   1.552   6.774
 6335SOL    HW119904   0.191   1.632   6.823
 6335SOL    HW219905   0.304   1.578   6.719
 6336SOL     OW19906   0.689   2.920   4.963
 6336SOL    HW119907   0.720   3.015   4.971
 6336SOL    HW219908   0.622   2.914   4.888
 6337SOL     OW19909   6.986   4.755   5.075
 6337SOL    HW119910   6.944   4.798   5.155
 6337SOL    HW219911   6.943   4.667   5.058
 6338SOL     OW19912   3.586   1.117   4.127
 6338SOL    HW119913   3.565   1.080   4.218
 6338SOL    HW219914   3.504   1.158   4.088
 6339SOL     OW19915   0.441   2.905   4.833
 6339SOL    HW119916   0.404   2.818   4.864
 6339SOL    HW219917   0.384   2.980   4.868
 6340SOL     OW19918   2.419   5.347   4.065
 6340SOL    HW119919   2.460   5.329   4.154
 6340SOL    HW219920   2.321   5.332   4.070
 6341SOL     OW19921   6.518   4.962   2.454
 6341SOL    HW119922   6.454   5.033   2.424
 6341SOL    HW219923   6.597   4.961   2.392
 6342SOL     OW19924   1.370   3.727   1.044
 6342SOL    HW119925   1.401   3.802   0.986
 6342SOL    HW219926   1.443   3.702   1.108
 6343SOL     OW19927   4.219   0.808   0.378
 6343SOL    HW119928   4.296   0.836   0.319
 6343SOL    HW219929   4.217   0.866   0.459
 6344SOL     OW19930   0.059   5.134   4.472
 6344SOL    HW119931   0.028   5.131   4.567
 6344SOL    HW219932   0.095   5.045   4.446
 6345SOL     OW19933   2.609   2.411   2.204
 6345SOL    HW119934   2.567   2.485   2.152
 6345SOL    HW219935   2.690   2.378   2.155
 6346SOL     OW19936   0.786   5.471   4.133
 6346SOL    HW119937   0.821   5.378   4.138
 6346SOL    HW219938   0.722   5.478   4.056
 6347SOL     OW19939   2.725   0.317   0.992
 6347SOL    HW119940   2.661   0.256   0.946
 6347SOL    HW219941   2.777   0.267   1.060
 6348SOL     OW19942   0.911   2.487   4.928
 6348SOL    HW119943   0.981   2.497   4.857
 6348SOL    HW219944   0.901   2.391   4.952
 6349SOL     OW19945   2.074   0.963   0.361
 6349SOL    HW119946   2.104   0.927   0.449
 6349SOL    HW219947   1.976   0.946   0.349
 6350SOL     OW19948   0.820   5.937   2.883
 6350SOL    HW119949   0.781   5.867   2.824
 6350SOL    HW219950   0.747   5.981   2.936
 6351SOL     OW19951   6.844   1.185   3.410
 6351SOL    HW119952   6.849   1.273   3.456
 6351SOL    HW219953   6.750   1.152   3.410
 6352SOL     OW19954   0.081   5.973   2.390
 6352SOL    HW119955   0.003   6.012   2.342
 6352SOL    HW219956   0.103   6.030   2.469
 6353SOL     OW19957   0.309   6.756   1.966
 6353SOL    HW119958   0.312   6.833   2.029
 6353SOL    HW219959   0.338   6.673   2.013
 6354SOL     OW19960   0.206   6.750   4.447
 6354SOL    HW119961   0.177   6.678   4.383
 6354SOL    HW219962   0.228   6.709   4.535
 6355SOL     OW19963   1.042   2.402   2.063
 6355SOL    HW119964   1.079   2.345   2.137
 6355SOL    HW219965   1.007   2.344   1.990
 6356SOL     OW19966   3.220   2.495   0.689
 6356SOL    HW119967   3.277   2.524   0.765
 6356SOL    HW219968   3.259   2.526   0.603
 6357SOL     OW19969   4.943   1.927   0.635
 6357SOL    HW119970   4.923   2.003   0.573
 6357SOL    HW219971   4.859   1.879   0.657
 6358SOL     OW19972   0.866   3.156   3.751
 6358SOL    HW119973   0.889   3.232   3.812
 6358SOL    HW219974   0.933   3.151   3.677
 6359SOL     OW19975   0.063   1.336   6.740
 6359SOL    HW119976   0.132   1.409   6.745
 6359SOL    HW219977   0.097   1.255   6.788
 6360SOL     OW19978   3.352   5.515   3.965
 6360SOL    HW119979   3.367   5.589   4.031
 6360SOL    HW219980   3.259   5.479   3.977
 6361SOL     OW19981   3.331   6.695   5.971
 6361SOL    HW119982   3.311   6.598   5.987
 6361SOL    HW219983   3.269   6.751   6.027
 6362SOL     OW19984   6.517   5.474   6.174
 6362SOL    HW119985   6.526   5.504   6.079
 6362SOL    HW219986   6.586   5.520   6.230
 6363SOL     OW19987   1.042   5.912   4.195
 6363SOL    HW119988   1.139   5.905   4.170
 6363SOL    HW219989   0.989   5.844   4.145
 6364SOL     OW19990   1.948   2.650   6.171
 6364SOL    HW119991   2.015   2.588   6.130
 6364SOL    HW219992   1.978   2.675   6.263
 6365SOL     OW19993   5.014   5.492   2.980
 6365SOL    HW119994   4.981   5.400   3.002
 6365SOL    HW219995   5.033   5.497   2.882
 6366SOL     OW19996   0.133   4.606   5.333
 6366SOL    HW119997   0.199   4.532   5.342
 6366SOL    HW219998   0.173   4.679   5.278
 6367SOL     OW19999   6.247   5.858   2.475
 6367SOL    HW120000   6.220   5.792   2.545
 6367SOL    HW220001   6.332   5.828   2.432
 6368SOL     OW20002   3.630   0.521   3.248
 6368SOL    HW120003   3.536   0.496   3.227
 6368SOL    HW220004   3.634   0.563   3.339
 6369SOL     OW20005   1.925   5.032   5.617
 6369SOL    HW120006   1.981   5.066   5.541
 6369SOL    HW220007   1.925   4.932   5.616
 6370SOL     OW20008   5.510   2.663   2.173
 6370SOL    HW120009   5.587   2.601   2.155
 6370SOL    HW220010   5.479   2.703   2.087
 6371SOL     OW20011   4.557   1.787   3.820
 6371SOL    HW120012   4.625   1.734   3.770
 6371SOL    HW220013   4.593   1.879   3.837
 6372SOL     OW20014   2.964   6.311   2.269
 6372SOL    HW120015   2.923   6.401   2.256
 6372SOL    HW220016   3.050   6.320   2.319
 6373SOL     OW20017   3.855   4.854   0.309
 6373SOL    HW120018   3.769   4.840   0.261
 6373SOL    HW220019   3.931   4.826   0.250
 6374SOL     OW20020   2.912   3.331   2.504
 6374SOL    HW120021   2.917   3.265   2.429
 6374SOL    HW220022   2.926   3.284   2.591
 6375SOL     OW20023   1.307   6.036   2.458
 6375SOL    HW120024   1.215   6.034   2.496
 6375SOL    HW220025   1.349   6.125   2.478
 6376SOL     OW20026   0.615   2.577   5.434
 6376SOL    HW120027   0.656   2.561   5.344
 6376SOL    HW220028   0.680   2.625   5.492
 6377SOL     OW20029   0.770   1.807   4.060
 6377SOL    HW120030   0.689   1.825   4.116
 6377SOL    HW220031   0.852   1.829   4.113
 6378SOL     OW20032   4.633   4.701   3.536
 6378SOL    HW120033   4.600   4.651   3.617
 6378SOL    HW220034   4.586   4.790   3.531
 6379SOL     OW20035   2.209   4.985   2.109
 6379SOL    HW120036   2.209   4.886   2.122
 6379SOL    HW220037   2.285   5.012   2.051
 6380SOL     OW20038   1.200   0.935   6.019
 6380SOL    HW120039   1.258   0.893   6.088
 6380SOL    HW220040   1.105   0.907   6.033
 6381SOL     OW20041   2.857   3.373   2.084
 6381SOL    HW120042   2.831   3.355   1.990
 6381SOL    HW220043   2.785   3.341   2.146
 6382SOL     OW20044   1.359   4.409   5.094
 6382SOL    HW120045   1.420   4.341   5.134
 6382SOL    HW220046   1.269   4.402   5.135
 6383SOL     OW20047   4.151   1.433   4.125
 6383SOL    HW120048   4.155   1.451   4.026
 6383SOL    HW220049   4.197   1.506   4.174
 6384SOL     OW20050   6.657   4.343   2.698
 6384SOL    HW120051   6.571   4.334   2.648
 6384SOL    HW220052   6.670   4.439   2.723
 6385SOL     OW20053   0.520   5.957   4.765
 6385SOL    HW120054   0.494   5.861   4.752
 6385SOL    HW220055   0.438   6.013   4.771
 6386SOL     OW20056   2.568   5.702   1.555
 6386SOL    HW120057   2.668   5.690   1.557
 6386SOL    HW220058   2.531   5.661   1.472
 6387SOL     OW20059   6.810   1.725   5.250
 6387SOL    HW120060   6.879   1.688   5.313
 6387SOL    HW220061   6.724   1.675   5.263
 6388SOL     OW20062   2.356   4.936   2.869
 6388SOL    HW120063   2.399   4.868   2.809
 6388SOL    HW220064   2.265   4.904   2.896
 6389SOL     OW20065   0.825   4.858   1.524
 6389SOL    HW120066   0.829   4.957   1.540
 6389SOL    HW220067   0.882   4.835   1.445
 6390SOL     OW20068   0.612   3.175   4.166
 6390SOL    HW120069   0.535   3.192   4.227
 6390SOL    HW220070   0.580   3.121   4.088
 6391SOL     OW20071   3.569   1.032   6.905
 6391SOL    HW120072   3.531   1.083   6.827
 6391SOL    HW220073   3.532   1.068   6.990
 6392SOL     OW20074   1.503   6.259   4.179
 6392SOL    HW120075   1.482   6.204   4.098
 6392SOL    HW220076   1.450   6.224   4.257
 6393SOL     OW20077   5.456   1.054   0.937
 6393SOL    HW120078   5.519   1.012   1.002
 6393SOL    HW220079   5.425   1.142   0.974
 6394SOL     OW20080   3.225   4.814   1.905
 6394SOL    HW120081   3.226   4.740   1.838
 6394SOL    HW220082   3.138   4.813   1.955
 6395SOL     OW20083   6.120   1.687   0.666
 6395SOL    HW120084   6.035   1.686   0.613
 6395SOL    HW220085   6.163   1.596   0.663
 6396SOL     OW20086   6.064   3.582   5.288
 6396SOL    HW120087   5.973   3.620   5.307
 6396SOL    HW220088   6.095   3.528   5.367
 6397SOL     OW20089   6.632   0.972   0.030
 6397SOL    HW120090   6.660   1.006   0.120
 6397SOL    HW220091   6.693   1.009   6.983
 6398SOL     OW20092   4.189   0.759   1.621
 6398SOL    HW120093   4.217   0.849   1.588
 6398SOL    HW220094   4.141   0.710   1.549
 6399SOL     OW20095   2.600   6.067   6.604
 6399SOL    HW120096   2.555   6.025   6.682
 6399SOL    HW220097   2.641   5.997   6.546
 6400SOL     OW20098   2.898   5.210   4.105
 6400SOL    HW120099   2.877   5.173   4.195
 6400SOL    HW220100   2.813   5.220   4.053
 6401SOL     OW20101   1.370   4.258   4.794
 6401SOL    HW120102   1.296   4.219   4.849
 6401SOL    HW220103   1.339   4.344   4.754
 6402SOL     OW20104   1.952   2.499   2.863
 6402SOL    HW120105   1.916   2.541   2.780
 6402SOL    HW220106   2.037   2.545   2.889
 6403SOL     OW20107   0.884   6.205   1.379
 6403SOL    HW120108   0.901   6.276   1.310
 6403SOL    HW220109   0.886   6.246   1.470
 6404SOL     OW20110   4.976   0.933   3.335
 6404SOL    HW120111   5.041   0.994   3.289
 6404SOL    HW220112   4.921   0.987   3.400
 6405SOL     OW20113   2.917   1.403   1.343
 6405SOL    HW120114   2.969   1.486   1.361
 6405SOL    HW220115   2.827   1.426   1.307
 6406SOL     OW20116   2.718   2.003   3.406
 6406SOL    HW120117   2.789   2.061   3.446
 6406SOL    HW220118   2.682   2.048   3.324
 6407SOL     OW20119   4.551   5.754   6.348
 6407SOL    HW120120   4.591   5.837   6.310
 6407SOL    HW220121   4.596   5.732   6.434
 6408SOL     OW20122   6.072   1.954   0.319
 6408SOL    HW120123   6.058   1.893   0.242
 6408SOL    HW220124   6.005   1.935   0.390
 6409SOL     OW20125   1.344   4.873   2.140
 6409SOL    HW120126   1.330   4.818   2.222
 6409SOL    HW220127   1.440   4.902   2.135
 6410SOL     OW20128   1.138   1.006   2.030
 6410SOL    HW120129   1.237   1.001   2.045
 6410SOL    HW220130   1.092   1.024   2.117
 6411SOL     OW20131   1.630   0.928   3.529
 6411SOL    HW120132   1.616   0.971   3.619
 6411SOL    HW220133   1.546   0.934   3.476
 6412SOL     OW20134   6.738   2.627   4.453
 6412SOL    HW120135   6.663   2.573   4.414
 6412SOL    HW220136   6.822   2.607   4.403
 6413SOL     OW20137   0.358   4.666   0.453
 6413SOL    HW120138   0.439   4.612   0.428
 6413SOL    HW220139   0.340   4.733   0.382
 6414SOL     OW20140   6.154   6.782   2.732
 6414SOL    HW120141   6.128   6.699   2.683
 6414SOL    HW220142   6.190   6.757   2.822
 6415SOL     OW20143   1.444   1.659   2.165
 6415SOL    HW120144   1.464   1.748   2.205
 6415SOL    HW220145   1.413   1.671   2.071
 6416SOL     OW20146   2.181   6.360   6.017
 6416SOL    HW120147   2.223   6.380   6.106
 6416SOL    HW220148   2.235   6.291   5.970
 6417SOL     OW20149   0.108   6.670   3.233
 6417SOL    HW120150   0.150   6.759   3.248
 6417SOL    HW220151   0.171   6.613   3.179
 6418SOL     OW20152   6.873   5.666   2.626
 6418SOL    HW120153   6.950   5.657   2.689
 6418SOL    HW220154   6.811   5.588   2.639
 6419SOL     OW20155   2.573   3.550   1.132
 6419SOL    HW120156   2.577   3.604   1.047
 6419SOL    HW220157   2.566   3.612   1.210
 6420SOL     OW20158   0.807   3.164   6.820
 6420SOL    HW120159   0.751   3.246   6.828
 6420SOL    HW220160   0.788   3.119   6.733
 6421SOL     OW20161   6.187   2.372   0.661
 6421SOL    HW120162   6.244   2.450   0.634
 6421SOL    HW220163   6.168   2.377   0.759
 6422SOL     OW20164   6.194   2.192   3.730
 6422SOL    HW120165   6.142   2.196   3.644
 6422SOL    HW220166   6.140   2.143   3.799
 6423SOL     OW20167   4.604   4.179   0.774
 6423SOL    HW120168   4.693   4.135   0.787
 6423SOL    HW220169   4.616   4.267   0.730
 6424SOL     OW20170   6.514   4.677   5.067
 6424SOL    HW120171   6.519   4.583   5.100
 6424SOL    HW220172   6.511   4.740   5.145
 6425SOL     OW20173   0.723   5.047   1.337
 6425SOL    HW120174   0.695   5.083   1.248
 6425SOL    HW220175   0.679   4.958   1.352
 6426SOL     OW20176   6.851   2.776   3.257
 6426SOL    HW120177   6.924   2.747   3.320
 6426SOL    HW220178   6.774   2.712   3.264
 6427SOL     OW20179   1.155   2.885   6.081
 6427SOL    HW120180   1.075   2.827   6.070
 6427SOL    HW220181   1.150   2.961   6.016
 6428SOL     OW20182   6.828   3.262   4.117
 6428SOL    HW120183   6.917   3.300   4.142
 6428SOL    HW220184   6.758   3.301   4.176
 6429SOL     OW20185   0.668   1.497   4.658
 6429SOL    HW120186   0.703   1.524   4.569
 6429SOL    HW220187   0.744   1.490   4.723
 6430SOL     OW20188   6.534   3.511   0.018
 6430SOL    HW120189   6.498   3.418   0.027
 6430SOL    HW220190   6.520   3.561   0.103
 6431SOL     OW20191   5.537   1.099   3.318
 6431SOL    HW120192   5.479   1.019   3.332
 6431SOL    HW220193   5.598   1.084   3.241
 6432SOL     OW20194   5.720   3.273   0.375
 6432SOL    HW120195   5.766   3.357   0.405
 6432SOL    HW220196   5.623   3.293   0.359
 6433SOL     OW20197   2.479   3.690   1.626
 6433SOL    HW120198   2.456   3.665   1.532
 6433SOL    HW220199   2.522   3.781   1.626
 6434SOL     OW20200   1.947   5.355   6.987
 6434SOL    HW120201   1.949   5.267   6.940
 6434SOL    HW220202   1.994   5.346   0.052
 6435SOL     OW20203   4.704   3.876   0.615
 6435SOL    HW120204   4.747   3.940   0.679
 6435SOL    HW220205   4.704   3.784   0.656
 6436SOL     OW20206   1.530   2.380   2.363
 6436SOL    HW120207   1.494   2.454   2.307
 6436SOL    HW220208   1.630   2.384   2.363
 6437SOL     OW20209   0.327   0.736   6.744
 6437SOL    HW120210   0.406   0.722   6.684
 6437SOL    HW220211   0.279   0.650   6.756
 6438SOL     OW20212   0.927   3.681   3.804
 6438SOL    HW120213   0.981   3.610   3.851
 6438SOL    HW220214   0.832   3.678   3.836
 6439SOL     OW20215   0.207   6.264   1.808
 6439SOL    HW120216   0.202   6.357   1.770
 6439SOL    HW220217   0.298   6.249   1.846
 6440SOL     OW20218   0.503   0.797   1.826
 6440SOL    HW120219   0.509   0.840   1.736
 6440SOL    HW220220   0.478   0.865   1.894
 6441SOL     OW20221   4.158   1.790   3.264
 6441SOL    HW120222   4.079   1.794   3.325
 6441SOL    HW220223   4.189   1.882   3.243
 6442SOL     OW20224   3.682   0.046   3.097
 6442SOL    HW120225   3.746   0.068   3.170
 6442SOL    HW220226   3.609   7.010   3.133
 6443SOL     OW20227   2.268   0.796   0.108
 6443SOL    HW120228   2.192   0.774   0.046
 6443SOL    HW220229   2.232   0.808   0.201
 6444SOL     OW20230   0.425   0.889   3.298
 6444SOL    HW120231   0.430   0.914   3.395
 6444SOL    HW220232   0.436   0.971   3.243
 6445SOL     OW20233   3.631   3.857   5.570
 6445SOL    HW120234   3.579   3.844   5.486
 6445SOL    HW220235   3.719   3.809   5.562
 6446SOL     OW20236   6.913   1.951   0.893
 6446SOL    HW120237   6.848   1.919   0.825
 6446SOL    HW220238   6.877   2.031   0.941
 6447SOL     OW20239   1.541   7.017   3.152
 6447SOL    HW120240   1.493   6.989   3.069
 6447SOL    HW220241   1.564   0.091   3.146
 6448SOL     OW20242   6.589   2.247   2.256
 6448SOL    HW120243   6.616   2.322   2.195
 6448SOL    HW220244   6.574   2.283   2.348
 6449SOL     OW20245   3.789   2.764   1.022
 6449SOL    HW120246   3.736   2.745   1.105
 6449SOL    HW220247   3.744   2.722   0.943
 6450SOL     OW20248   6.803   3.196   6.512
 6450SOL    HW120249   6.806   3.141   6.596
 6450SOL    HW220250   6.811   3.293   6.534
 6451SOL     OW20251   2.609   6.335   3.908
 6451SOL    HW120252   2.535   6.369   3.849
 6451SOL    HW220253   2.579   6.250   3.953
 6452SOL     OW20254   4.048   6.043   3.533
 6452SOL    HW120255   3.963   6.009   3.572
 6452SOL    HW220256   4.051   6.022   3.435
 6453SOL     OW20257   2.347   4.498   6.583
 6453SOL    HW120258   2.248   4.512   6.587
 6453SOL    HW220259   2.366   4.411   6.536
 6454SOL     OW20260   3.648   1.090   4.821
 6454SOL    HW120261   3.663   1.188   4.808
 6454SOL    HW220262   3.582   1.057   4.754
 6455SOL     OW20263   6.145   2.832   5.890
 6455SOL    HW120264   6.096   2.750   5.861
 6455SOL    HW220265   6.205   2.863   5.816
 6456SOL     OW20266   6.763   0.915   5.000
 6456SOL    HW120267   6.666   0.894   4.988
 6456SOL    HW220268   6.788   0.991   4.940
 6457SOL     OW20269   6.194   2.809   2.564
 6457SOL    HW120270   6.270   2.747   2.546
 6457SOL    HW220271   6.226   2.904   2.560
 6458SOL     OW20272   1.462   6.449   3.143
 6458SOL    HW120273   1.476   6.364   3.192
 6458SOL    HW220274   1.369   6.452   3.106
 6459SOL     OW20275   5.300   5.125   0.956
 6459SOL    HW120276   5.399   5.137   0.945
 6459SOL    HW220277   5.279   5.027   0.962
 6460SOL     OW20278   2.971   4.744   0.892
 6460SOL    HW120279   2.976   4.663   0.834
 6460SOL    HW220280   2.935   4.820   0.838
 6461SOL     OW20281   3.152   5.655   5.335
 6461SOL    HW120282   3.220   5.623   5.401
 6461SOL    HW220283   3.118   5.745   5.363
 6462SOL     OW20284   2.264   2.991   3.520
 6462SOL    HW120285   2.302   3.058   3.455
 6462SOL    HW220286   2.165   3.002   3.524
 6463SOL     OW20287   1.304   4.365   5.501
 6463SOL    HW120288   1.275   4.419   5.422
 6463SOL    HW220289   1.229   4.361   5.568
 6464SOL     OW20290   1.142   5.427   2.659
 6464SOL    HW120291   1.218   5.374   2.697
 6464SOL    HW220292   1.137   5.517   2.704
 6465SOL     OW20293   6.347   0.836   3.096
 6465SOL    HW120294   6.337   0.875   3.188
 6465SOL    HW220295   6.444   0.830   3.073
 6466SOL     OW20296   0.493   3.094   5.154
 6466SOL    HW120297   0.568   3.103   5.089
 6466SOL    HW220298   0.428   3.026   5.121
 6467SOL     OW20299   2.998   0.731   5.856
 6467SOL    HW120300   2.926   0.757   5.920
 6467SOL    HW220301   2.978   0.770   5.766
 6468SOL     OW20302   4.927   4.629   1.274
 6468SOL    HW120303   4.997   4.680   1.225
 6468SOL    HW220304   4.962   4.601   1.364
 6469SOL     OW20305   6.643   1.021   6.203
 6469SOL    HW120306   6.638   1.007   6.104
 6469SOL    HW220307   6.622   1.116   6.225
 6470SOL     OW20308   6.432   6.031   4.987
 6470SOL    HW120309   6.363   5.999   4.923
 6470SOL    HW220310   6.407   6.002   5.080
 6471SOL     OW20311   5.419   5.689   5.763
 6471SOL    HW120312   5.394   5.593   5.772
 6471SOL    HW220313   5.354   5.745   5.815
 6472SOL     OW20314   1.352   6.000   1.300
 6472SOL    HW120315   1.413   5.923   1.318
 6472SOL    HW220316   1.362   6.029   1.205
 6473SOL     OW20317   2.648   0.766   5.158
 6473SOL    HW120318   2.566   0.786   5.105
 6473SOL    HW220319   2.646   0.818   5.244
 6474SOL     OW20320   2.586   3.591   5.689
 6474SOL    HW120321   2.665   3.571   5.632
 6474SOL    HW220322   2.610   3.663   5.754
 6475SOL     OW20323   4.616   5.874   3.982
 6475SOL    HW120324   4.667   5.801   3.937
 6475SOL    HW220325   4.519   5.867   3.958
 6476SOL     OW20326   5.220   4.714   2.363
 6476SOL    HW120327   5.315   4.696   2.337
 6476SOL    HW220328   5.177   4.772   2.293
 6477SOL     OW20329   6.831   6.684   0.448
 6477SOL    HW120330   6.909   6.696   0.510
 6477SOL    HW220331   6.748   6.718   0.492
 6478SOL     OW20332   5.334   6.167   1.252
 6478SOL    HW120333   5.262   6.227   1.285
 6478SOL    HW220334   5.374   6.117   1.330
 6479SOL     OW20335   4.137   6.102   2.950
 6479SOL    HW120336   4.084   6.052   2.882
 6479SOL    HW220337   4.108   6.198   2.951
 6480SOL     OW20338   2.440   1.288   0.934
 6480SOL    HW120339   2.448   1.192   0.961
 6480SOL    HW220340   2.511   1.310   0.867
 6481SOL     OW20341   4.755   0.761   1.269
 6481SOL    HW120342   4.844   0.756   1.224
 6481SOL    HW220343   4.765   0.809   1.356
 6482SOL     OW20344   0.153   0.516   6.753
 6482SOL    HW120345   0.054   0.513   6.762
 6482SOL    HW220346   0.194   0.477   6.836
 6483SOL     OW20347   2.103   5.363   1.812
 6483SOL    HW120348   2.057   5.275   1.795
 6483SOL    HW220349   2.045   5.420   1.870
 6484SOL     OW20350   5.397   6.184   3.732
 6484SOL    HW120351   5.485   6.187   3.685
 6484SOL    HW220352   5.328   6.145   3.671
 6485SOL     OW20353   1.174   2.644   3.199
 6485SOL    HW120354   1.125   2.619   3.283
 6485SOL    HW220355   1.108   2.672   3.129
 6486SOL     OW20356   1.814   3.053   3.328
 6486SOL    HW120357   1.717   3.051   3.350
 6486SOL    HW220358   1.828   3.100   3.241
 6487SOL     OW20359   5.928   5.506   3.331
 6487SOL    HW120360   5.834   5.539   3.331
 6487SOL    HW220361   5.928   5.406   3.326
 6488SOL     OW20362   3.255   4.966   5.214
 6488SOL    HW120363   3.210   5.000   5.297
 6488SOL    HW220364   3.189   4.916   5.158
 6489SOL     OW20365   2.581   1.828   5.578
 6489SOL    HW120366   2.588   1.876   5.665
 6489SOL    HW220367   2.585   1.894   5.503
 6490SOL     OW20368   4.765   1.517   0.695
 6490SOL    HW120369   4.698   1.522   0.769
 6490SOL    HW220370   4.817   1.432   0.702
 6491SOL     OW20371   4.187   0.979   6.455
 6491SOL    HW120372   4.119   0.966   6.527
 6491SOL    HW220373   4.170   1.066   6.409
 6492SOL     OW20374   6.006   5.881   6.477
 6492SOL    HW120375   5.966   5.964   6.439
 6492SOL    HW220376   6.094   5.903   6.520
 6493SOL     OW20377   1.014   6.377   5.215
 6493SOL    HW120378   0.935   6.389   5.155
 6493SOL    HW220379   1.071   6.301   5.182
 6494SOL     OW20380   1.330   0.127   3.562
 6494SOL    HW120381   1.265   0.189   3.605
 6494SOL    HW220382   1.363   0.167   3.477
 6495SOL     OW20383   5.530   5.302   2.277
 6495SOL    HW120384   5.519   5.401   2.282
 6495SOL    HW220385   5.442   5.258   2.290
 6496SOL     OW20386   0.765   6.548   2.874
 6496SOL    HW120387   0.858   6.514   2.864
 6496SOL    HW220388   0.767   6.645   2.897
 6497SOL     OW20389   0.420   5.500   0.219
 6497SOL    HW120390   0.377   5.415   0.247
 6497SOL    HW220391   0.418   5.507   0.119
 6498SOL     OW20392   1.298   4.526   3.935
 6498SOL    HW120393   1.360   4.481   3.871
 6498SOL    HW220394   1.239   4.458   3.978
 6499SOL     OW20395   5.833   0.748   4.104
 6499SOL    HW120396   5.767   0.772   4.033
 6499SOL    HW220397   5.820   0.808   4.183
 6500SOL     OW20398   5.552   5.164   3.374
 6500SOL    HW120399   5.552   5.196   3.279
 6500SOL    HW220400   5.478   5.099   3.388
 6501SOL     OW20401   0.147   3.456   0.947
 6501SOL    HW120402   0.154   3.368   0.898
 6501SOL    HW220403   0.156   3.440   1.045
 6502SOL     OW20404   1.056   4.892   2.281
 6502SOL    HW120405   1.048   4.835   2.363
 6502SOL    HW220406   1.002   4.976   2.293
 6503SOL     OW20407   4.558   0.197   4.295
 6503SOL    HW120408   4.616   0.131   4.248
 6503SOL    HW220409   4.524   0.157   4.381
 6504SOL     OW20410   1.783   0.897   0.340
 6504SOL    HW120411   1.761   0.806   0.375
 6504SOL    HW220412   1.763   0.966   0.409
 6505SOL     OW20413   5.495   5.292   0.622
 6505SOL    HW120414   5.420   5.228   0.636
 6505SOL    HW220415   5.505   5.350   0.703
 6506SOL     OW20416   1.818   1.781   0.622
 6506SOL    HW120417   1.720   1.763   0.623
 6506SOL    HW220418   1.835   1.878   0.604
 6507SOL     OW20419   3.081   0.588   1.801
 6507SOL    HW120420   2.987   0.606   1.830
 6507SOL    HW220421   3.134   0.552   1.878
 6508SOL     OW20422   2.647   1.453   1.632
 6508SOL    HW120423   2.653   1.521   1.705
 6508SOL    HW220424   2.577   1.385   1.656
 6509SOL     OW20425   1.036   2.627   4.070
 6509SOL    HW120426   1.027   2.722   4.099
 6509SOL    HW220427   0.986   2.612   3.985
 6510SOL     OW20428   5.617   5.378   6.523
 6510SOL    HW120429   5.557   5.399   6.446
 6510SOL    HW220430   5.575   5.410   6.607
 6511SOL     OW20431   6.549   5.715   5.728
 6511SOL    HW120432   6.492   5.716   5.646
 6511SOL    HW220433   6.580   5.622   5.746
 6512SOL     OW20434   4.948   6.020   3.772
 6512SOL    HW120435   5.044   6.030   3.796
 6512SOL    HW220436   4.935   6.038   3.675
 6513SOL     OW20437   2.133   6.720   2.948
 6513SOL    HW120438   2.177   6.809   2.960
 6513SOL    HW220439   2.198   6.656   2.906
 6514SOL     OW20440   3.304   0.314   3.904
 6514SOL    HW120441   3.262   0.328   3.994
 6514SOL    HW220442   3.357   0.395   3.880
 6515SOL     OW20443   0.640   0.840   3.831
 6515SOL    HW120444   0.727   0.823   3.784
 6515SOL    HW220445   0.652   0.824   3.929
 6516SOL     OW20446   1.720   1.665   5.871
 6516SOL    HW120447   1.692   1.577   5.911
 6516SOL    HW220448   1.697   1.666   5.774
 6517SOL     OW20449   1.436   1.878   0.381
 6517SOL    HW120450   1.407   1.811   0.450
 6517SOL    HW220451   1.464   1.829   0.297
 6518SOL     OW20452   5.848   6.084   0.598
 6518SOL    HW120453   5.898   5.999   0.616
 6518SOL    HW220454   5.853   6.143   0.679
 6519SOL     OW20455   1.314   2.093   3.534
 6519SOL    HW120456   1.333   2.001   3.568
 6519SOL    HW220457   1.344   2.101   3.439
 6520SOL     OW20458   5.842   5.699   1.929
 6520SOL    HW120459   5.889   5.668   1.846
 6520SOL    HW220460   5.776   5.629   1.957
 6521SOL     OW20461   1.730   2.365   5.151
 6521SOL    HW120462   1.706   2.280   5.103
 6521SOL    HW220463   1.776   2.343   5.237
 6522SOL     OW20464   2.861   5.488   4.683
 6522SOL    HW120465   2.869   5.555   4.757
 6522SOL    HW220466   2.776   5.506   4.632
 6523SOL     OW20467   1.840   2.482   6.933
 6523SOL    HW120468   1.939   2.495   6.928
 6523SOL    HW220469   1.816   2.448   0.001
 6524SOL     OW20470   3.916   3.844   4.854
 6524SOL    HW120471   3.983   3.781   4.814
 6524SOL    HW220472   3.842   3.792   4.896
 6525SOL     OW20473   0.529   2.664   4.289
 6525SOL    HW120474   0.616   2.621   4.262
 6525SOL    HW220475   0.454   2.599   4.274
 6526SOL     OW20476   1.799   5.365   4.297
 6526SOL    HW120477   1.722   5.336   4.354
 6526SOL    HW220478   1.765   5.418   4.219
 6527SOL     OW20479   2.442   0.964   3.900
 6527SOL    HW120480   2.507   0.992   3.970
 6527SOL    HW220481   2.399   0.878   3.926
 6528SOL     OW20482   6.969   6.722   3.442
 6528SOL    HW120483   6.879   6.677   3.438
 6528SOL    HW220484   0.000   6.696   3.362
 6529SOL     OW20485   6.490   2.695   1.780
 6529SOL    HW120486   6.541   2.775   1.809
 6529SOL    HW220487   6.549   2.635   1.725
 6530SOL     OW20488   0.322   1.989   0.279
 6530SOL    HW120489   0.328   1.994   0.379
 6530SOL    HW220490   0.384   1.918   0.246
 6531SOL     OW20491   5.257   2.847   4.757
 6531SOL    HW120492   5.250   2.947   4.753
 6531SOL    HW220493   5.175   2.810   4.801
 6532SOL     OW20494   1.310   2.443   0.007
 6532SOL    HW120495   1.371   2.395   0.070
 6532SOL    HW220496   1.215   2.421   0.028
 6533SOL     OW20497   4.345   0.905   1.046
 6533SOL    HW120498   4.324   0.808   1.031
 6533SOL    HW220499   4.433   0.913   1.092
 6534SOL     OW20500   1.745   3.278   0.050
 6534SOL    HW120501   1.793   3.218   0.113
 6534SOL    HW220502   1.799   3.361   0.035
 6535SOL     OW20503   2.203   3.571   5.486
 6535SOL    HW120504   2.265   3.627   5.431
 6535SOL    HW220505   2.116   3.619   5.496
 6536SOL     OW20506   6.851   2.330   6.845
 6536SOL    HW120507   6.830   2.296   6.937
 6536SOL    HW220508   6.765   2.349   6.797
 6537SOL     OW20509   0.828   0.206   0.343
 6537SOL    HW120510   0.765   0.201   0.420
 6537SOL    HW220511   0.825   0.120   0.292
 6538SOL     OW20512   1.614   2.976   6.256
 6538SOL    HW120513   1.604   2.903   6.189
 6538SOL    HW220514   1.684   3.040   6.224
 6539SOL     OW20515   2.696   1.642   6.150
 6539SOL    HW120516   2.679   1.584   6.070
 6539SOL    HW220517   2.683   1.589   6.234
 6540SOL     OW20518   3.152   2.130   3.836
 6540SOL    HW120519   3.133   2.165   3.927
 6540SOL    HW220520   3.198   2.041   3.843
 6541SOL     OW20521   2.786   2.584   5.277
 6541SOL    HW120522   2.842   2.502   5.273
 6541SOL    HW220523   2.845   2.665   5.283
 6542SOL     OW20524   6.351   4.580   3.447
 6542SOL    HW120525   6.295   4.580   3.530
 6542SOL    HW220526   6.320   4.507   3.386
 6543SOL     OW20527   0.655   5.522   6.193
 6543SOL    HW120528   0.624   5.577   6.115
 6543SOL    HW220529   0.598   5.440   6.201
 6544SOL     OW20530   6.802   6.331   2.924
 6544SOL    HW120531   6.841   6.397   2.989
 6544SOL    HW220532   6.720   6.290   2.964
 6545SOL     OW20533   5.704   3.002   6.186
 6545SOL    HW120534   5.705   2.920   6.129
 6545SOL    HW220535   5.745   2.981   6.275
 6546SOL     OW20536   3.364   4.854   5.975
 6546SOL    HW120537   3.417   4.934   5.945
 6546SOL    HW220538   3.276   4.885   6.012
 6547SOL     OW20539   5.172   0.847   0.082
 6547SOL    HW120540   5.101   0.896   0.030
 6547SOL    HW220541   5.258   0.850   0.030
 6548SOL     OW20542   6.074   4.192   5.082
 6548SOL    HW120543   6.104   4.140   5.163
 6548SOL    HW220544   6.022   4.271   5.112
 6549SOL     OW20545   2.716   1.286   2.142
 6549SOL    HW120546   2.740   1.271   2.046
 6549SOL    HW220547   2.784   1.242   2.200
 6550SOL     OW20548   0.702   5.178   3.369
 6550SOL    HW120549   0.682   5.133   3.456
 6550SOL    HW220550   0.788   5.229   3.377
 6551SOL     OW20551   2.604   4.766   1.828
 6551SOL    HW120552   2.627   4.862   1.815
 6551SOL    HW220553   2.679   4.720   1.875
 6552SOL     OW20554   4.772   5.318   6.527
 6552SOL    HW120555   4.781   5.391   6.461
 6552SOL    HW220556   4.698   5.256   6.500
 6553SOL     OW20557   6.567   3.182   2.921
 6553SOL    HW120558   6.629   3.260   2.925
 6553SOL    HW220559   6.493   3.195   2.987
 6554SOL     OW20560   0.136   3.806   4.829
 6554SOL    HW120561   0.100   3.782   4.739
 6554SOL    HW220562   0.236   3.811   4.825
 6555SOL     OW20563   0.718   1.045   2.150
 6555SOL    HW120564   0.759   1.122   2.200
 6555SOL    HW220565   0.638   1.076   2.100
 6556SOL     OW20566   3.385   0.602   3.849
 6556SOL    HW120567   3.426   0.640   3.933
 6556SOL    HW220568   3.289   0.630   3.844
 6557SOL     OW20569   5.642   6.481   0.912
 6557SOL    HW120570   5.702   6.534   0.851
 6557SOL    HW220571   5.572   6.435   0.858
 6558SOL     OW20572   6.860   6.139   6.393
 6558SOL    HW120573   6.829   6.131   6.299
 6558SOL    HW220574   6.795   6.195   6.445
 6559SOL     OW20575   3.412   3.130   1.218
 6559SOL    HW120576   3.347   3.095   1.151
 6559SOL    HW220577   3.363   3.177   1.291
 6560SOL     OW20578   3.685   1.798   0.701
 6560SOL    HW120579   3.635   1.826   0.619
 6560SOL    HW220580   3.750   1.726   0.677
 6561SOL     OW20581   3.640   3.869   4.277
 6561SOL    HW120582   3.730   3.904   4.252
 6561SOL    HW220583   3.576   3.945   4.286
 6562SOL     OW20584   6.396   3.688   5.276
 6562SOL    HW120585   6.463   3.621   5.243
 6562SOL    HW220586   6.308   3.643   5.290
 6563SOL     OW20587   0.675   5.350   2.913
 6563SOL    HW120588   0.705   5.287   2.985
 6563SOL    HW220589   0.719   5.327   2.827
 6564SOL     OW20590   1.133   6.227   3.104
 6564SOL    HW120591   1.137   6.308   3.162
 6564SOL    HW220592   1.190   6.154   3.143
 6565SOL     OW20593   6.534   3.431   5.193
 6565SOL    HW120594   6.585   3.364   5.138
 6565SOL    HW220595   6.497   3.385   5.274
 6566SOL     OW20596   3.430   0.004   0.603
 6566SOL    HW120597   3.456   7.008   0.698
 6566SOL    HW220598   3.419   0.102   0.590
 6567SOL     OW20599   6.130   3.223   1.443
 6567SOL    HW120600   6.075   3.261   1.516
 6567SOL    HW220601   6.093   3.250   1.354
 6568SOL     OW20602   4.453   3.831   1.167
 6568SOL    HW120603   4.451   3.880   1.254
 6568SOL    HW220604   4.488   3.892   1.096
 6569SOL     OW20605   0.674   4.822   6.418
 6569SOL    HW120606   0.682   4.913   6.378
 6569SOL    HW220607   0.599   4.822   6.485
 6570SOL     OW20608   6.118   3.613   1.599
 6570SOL    HW120609   6.076   3.590   1.511
 6570SOL    HW220610   6.193   3.677   1.585
 6571SOL     OW20611   2.759   6.194   3.576
 6571SOL    HW120612   2.762   6.161   3.671
 6571SOL    HW220613   2.683   6.258   3.566
 6572SOL     OW20614   1.278   4.419   6.253
 6572SOL    HW120615   1.275   4.423   6.353
 6572SOL    HW220616   1.250   4.508   6.216
 6573SOL     OW20617   1.475   1.912   2.312
 6573SOL    HW120618   1.478   1.995   2.367
 6573SOL    HW220619   1.495   1.934   2.216
 6574SOL     OW20620   1.671   4.727   4.021
 6574SOL    HW120621   1.659   4.663   3.944
 6574SOL    HW220622   1.765   4.762   4.020
 6575SOL     OW20623   2.120   1.198   2.352
 6575SOL    HW120624   2.163   1.211   2.442
 6575SOL    HW220625   2.096   1.102   2.339
 6576SOL     OW20626   1.221   6.192   4.041
 6576SOL    HW120627   1.253   6.103   4.009
 6576SOL    HW220628   1.147   6.224   3.981
 6577SOL     OW20629   6.645   3.233   5.052
 6577SOL    HW120630   6.583   3.160   5.021
 6577SOL    HW220631   6.684   3.278   4.972
 6578SOL     OW20632   6.878   5.528   3.662
 6578SOL    HW120633   6.879   5.517   3.761
 6578SOL    HW220634   6.789   5.563   3.633
 6579SOL     OW20635   1.128   4.047   3.123
 6579SOL    HW120636   1.192   4.100   3.180
 6579SOL    HW220637   1.108   4.098   3.040
 6580SOL     OW20638   5.624   2.505   1.521
 6580SOL    HW120639   5.601   2.577   1.456
 6580SOL    HW220640   5.694   2.445   1.481
 6581SOL     OW20641   2.340   2.614   5.449
 6581SOL    HW120642   2.400   2.692   5.467
 6581SOL    HW220643   2.387   2.548   5.391
 6582SOL     OW20644   6.719   0.621   1.975
 6582SOL    HW120645   6.634   0.568   1.976
 6582SOL    HW220646   6.711   0.698   2.038
 6583SOL     OW20647   5.645   2.006   5.627
 6583SOL    HW120648   5.702   1.949   5.567
 6583SOL    HW220649   5.700   2.036   5.705
 6584SOL     OW20650   5.705   2.201   6.879
 6584SOL    HW120651   5.804   2.205   6.874
 6584SOL    HW220652   5.673   2.259   6.955
 6585SOL     OW20653   2.489   1.079   1.462
 6585SOL    HW120654   2.433   1.144   1.411
 6585SOL    HW220655   2.582   1.113   1.469
 6586SOL     OW20656   6.810   1.323   6.690
 6586SOL    HW120657   6.908   1.337   6.700
 6586SOL    HW220658   6.761   1.377   6.758
 6587SOL     OW20659   1.805   6.845   2.692
 6587SOL    HW120660   1.788   6.901   2.774
 6587SOL    HW220661   1.721   6.798   2.666
 6588SOL     OW20662   2.641   2.777   6.693
 6588SOL    HW120663   2.570   2.810   6.631
 6588SOL    HW220664   2.669   2.685   6.666
 6589SOL     OW20665   5.350   1.585   5.663
 6589SOL    HW120666   5.265   1.608   5.614
 6589SOL    HW220667   5.412   1.538   5.600
 6590SOL     OW20668   6.266   1.134   5.865
 6590SOL    HW120669   6.289   1.166   5.957
 6590SOL    HW220670   6.292   1.039   5.855
 6591SOL     OW20671   5.400   0.597   2.763
 6591SOL    HW120672   5.456   0.656   2.822
 6591SOL    HW220673   5.405   0.630   2.669
 6592SOL     OW20674   5.514   5.916   4.672
 6592SOL    HW120675   5.602   5.870   4.665
 6592SOL    HW220676   5.521   5.991   4.738
 6593SOL     OW20677   4.366   0.882   2.219
 6593SOL    HW120678   4.445   0.914   2.272
 6593SOL    HW220679   4.391   0.801   2.167
 6594SOL     OW20680   5.436   1.193   6.634
 6594SOL    HW120681   5.468   1.123   6.571
 6594SOL    HW220682   5.435   1.282   6.588
 6595SOL     OW20683   1.662   3.637   0.107
 6595SOL    HW120684   1.741   3.584   0.076
 6595SOL    HW220685   1.692   3.707   0.172
 6596SOL     OW20686   3.306   6.406   5.625
 6596SOL    HW120687   3.364   6.480   5.660
 6596SOL    HW220688   3.239   6.443   5.561
 6597SOL     OW20689   6.510   4.478   6.691
 6597SOL    HW120690   6.558   4.410   6.636
 6597SOL    HW220691   6.569   4.508   6.766
 6598SOL     OW20692   2.439   5.517   4.708
 6598SOL    HW120693   2.490   5.436   4.680
 6598SOL    HW220694   2.460   5.537   4.804
 6599SOL     OW20695   4.325   3.232   5.713
 6599SOL    HW120696   4.410   3.220   5.660
 6599SOL    HW220697   4.341   3.301   5.784
 6600SOL     OW20698   4.381   5.415   4.233
 6600SOL    HW120699   4.426   5.446   4.317
 6600SOL    HW220700   4.347   5.495   4.182
 6601SOL     OW20701   0.934   0.252   1.173
 6601SOL    HW120702   0.927   0.163   1.129
 6601SOL    HW220703   0.845   0.279   1.210
 6602SOL     OW20704   6.396   1.037   1.849
 6602SOL    HW120705   6.445   1.108   1.901
 6602SOL    HW220706   6.450   1.012   1.769
 6603SOL     OW20707   2.624   2.012   2.216
 6603SOL    HW120708   2.718   1.988   2.194
 6603SOL    HW220709   2.572   2.023   2.132
 6604SOL     OW20710   4.035   5.739   3.559
 6604SOL    HW120711   4.016   5.787   3.645
 6604SOL    HW220712   4.134   5.729   3.548
 6605SOL     OW20713   5.680   6.385   0.220
 6605SOL    HW120714   5.660   6.483   0.212
 6605SOL    HW220715   5.697   6.347   0.129
 6606SOL     OW20716   6.401   1.133   3.215
 6606SOL    HW120717   6.381   1.166   3.123
 6606SOL    HW220718   6.353   1.047   3.230
 6607SOL     OW20719   0.853   1.833   3.128
 6607SOL    HW120720   0.883   1.890   3.052
 6607SOL    HW220721   0.832   1.742   3.095
 6608SOL     OW20722   5.449   4.784   5.062
 6608SOL    HW120723   5.457   4.796   4.963
 6608SOL    HW220724   5.534   4.744   5.097
 6609SOL     OW20725   5.748   1.405   6.902
 6609SOL    HW120726   5.827   1.344   6.904
 6609SOL    HW220727   5.770   1.485   6.846
 6610SOL     OW20728   3.092   0.912   0.521
 6610SOL    HW120729   3.108   0.921   0.620
 6610SOL    HW220730   3.114   0.818   0.493
 6611SOL     OW20731   5.252   3.103   3.386
 6611SOL    HW120732   5.243   3.042   3.307
 6611SOL    HW220733   5.349   3.116   3.406
 6612SOL     OW20734   1.157   5.950   6.624
 6612SOL    HW120735   1.068   5.970   6.582
 6612SOL    HW220736   1.219   6.027   6.609
 6613SOL     OW20737   5.007   5.013   1.313
 6613SOL    HW120738   4.943   5.003   1.389
 6613SOL    HW220739   5.070   5.089   1.332
 6614SOL     OW20740   5.271   5.434   5.766
 6614SOL    HW120741   5.307   5.354   5.717
 6614SOL    HW220742   5.182   5.459   5.727
 6615SOL     OW20743   0.824   4.391   5.504
 6615SOL    HW120744   0.858   4.424   5.416
 6615SOL    HW220745   0.735   4.432   5.524
 6616SOL     OW20746   5.256   1.148   4.547
 6616SOL    HW120747   5.204   1.096   4.616
 6616SOL    HW220748   5.337   1.096   4.521
 6617SOL     OW20749   4.485   0.032   5.135
 6617SOL    HW120750   4.387   0.026   5.121
 6617SOL    HW220751   4.525   6.963   5.132
 6618SOL     OW20752   0.475   4.996   1.170
 6618SOL    HW120753   0.457   5.093   1.188
 6618SOL    HW220754   0.521   4.986   1.082
 6619SOL     OW20755   6.932   6.361   1.447
 6619SOL    HW120756   6.960   6.266   1.451
 6619SOL    HW220757   6.926   6.398   1.540
 6620SOL     OW20758   4.089   3.361   5.831
 6620SOL    HW120759   4.120   3.333   5.740
 6620SOL    HW220760   4.019   3.297   5.864
 6621SOL     OW20761   2.836   3.864   0.232
 6621SOL    HW120762   2.747   3.836   0.197
 6621SOL    HW220763   2.860   3.808   0.311
 6622SOL     OW20764   6.280   6.432   0.790
 6622SOL    HW120765   6.224   6.391   0.862
 6622SOL    HW220766   6.374   6.400   0.799
 6623SOL     OW20767   3.556   3.773   2.446
 6623SOL    HW120768   3.637   3.715   2.451
 6623SOL    HW220769   3.517   3.784   2.538
 6624SOL     OW20770   4.534   5.393   4.003
 6624SOL    HW120771   4.472   5.392   4.082
 6624SOL    HW220772   4.628   5.398   4.035
 6625SOL     OW20773   5.644   0.087   0.050
 6625SOL    HW120774   5.637   0.094   0.149
 6625SOL    HW220775   5.737   0.063   0.024
 6626SOL     OW20776   2.948   5.516   3.163
 6626SOL    HW120777   2.909   5.584   3.224
 6626SOL    HW220778   2.991   5.443   3.216
 6627SOL     OW20779   1.911   5.883   1.911
 6627SOL    HW120780   1.953   5.973   1.925
 6627SOL    HW220781   1.813   5.893   1.899
 6628SOL     OW20782   3.625   6.207   3.508
 6628SOL    HW120783   3.686   6.154   3.449
 6628SOL    HW220784   3.679   6.261   3.572
 6629SOL     OW20785   3.499   3.554   0.322
 6629SOL    HW120786   3.564   3.552   0.398
 6629SOL    HW220787   3.433   3.628   0.336
 6630SOL     OW20788   3.075   1.927   6.048
 6630SOL    HW120789   3.122   1.932   6.137
 6630SOL    HW220790   3.008   1.853   6.050
 6631SOL     OW20791   4.425   0.689   2.021
 6631SOL    HW120792   4.482   0.762   1.984
 6631SOL    HW220793   4.336   0.689   1.974
 6632SOL     OW20794   6.629   2.731   2.725
 6632SOL    HW120795   6.646   2.662   2.796
 6632SOL    HW220796   6.571   2.804   2.763
 6633SOL     OW20797   0.568   0.185   1.478
 6633SOL    HW120798   0.629   0.113   1.444
 6633SOL    HW220799   0.546   0.167   1.574
 6634SOL     OW20800   6.795   2.880   5.657
 6634SOL    HW120801   6.833   2.964   5.696
 6634SOL    HW220802   6.870   2.819   5.632
 6635SOL     OW20803   4.473   4.494   2.958
 6635SOL    HW120804   4.505   4.400   2.948
 6635SOL    HW220805   4.427   4.523   2.873
 6636SOL     OW20806   1.702   3.065   3.777
 6636SOL    HW120807   1.768   3.006   3.823
 6636SOL    HW220808   1.730   3.161   3.787
 6637SOL     OW20809   6.385   1.890   1.614
 6637SOL    HW120810   6.435   1.929   1.691
 6637SOL    HW220811   6.426   1.921   1.528
 6638SOL     OW20812   2.423   6.239   6.434
 6638SOL    HW120813   2.490   6.205   6.500
 6638SOL    HW220814   2.331   6.210   6.462
 6639SOL     OW20815   5.112   5.703   6.273
 6639SOL    HW120816   5.122   5.680   6.177
 6639SOL    HW220817   5.070   5.626   6.322
 6640SOL     OW20818   6.133   2.797   3.886
 6640SOL    HW120819   6.097   2.705   3.905
 6640SOL    HW220820   6.220   2.809   3.933
 6641SOL     OW20821   2.164   4.653   6.935
 6641SOL    HW120822   2.110   4.573   6.959
 6641SOL    HW220823   2.131   4.691   6.848
 6642SOL     OW20824   6.105   6.503   0.353
 6642SOL    HW120825   6.029   6.565   0.335
 6642SOL    HW220826   6.121   6.499   0.452
 6643SOL     OW20827   3.753   5.626   0.546
 6643SOL    HW120828   3.758   5.571   0.462
 6643SOL    HW220829   3.801   5.713   0.531
 6644SOL     OW20830   2.374   4.300   2.045
 6644SOL    HW120831   2.389   4.237   1.969
 6644SOL    HW220832   2.428   4.383   2.030
 6645SOL     OW20833   6.480   5.061   5.121
 6645SOL    HW120834   6.544   5.027   5.053
 6645SOL    HW220835   6.402   4.999   5.128
 6646SOL     OW20836   1.456   6.183   3.708
 6646SOL    HW120837   1.379   6.178   3.645
 6646SOL    HW220838   1.542   6.174   3.657
 6647SOL     OW20839   4.412   1.862   2.220
 6647SOL    HW120840   4.369   1.775   2.197
 6647SOL    HW220841   4.345   1.935   2.215
 6648SOL     OW20842   4.392   5.638   1.973
 6648SOL    HW120843   4.361   5.635   2.068
 6648SOL    HW220844   4.373   5.728   1.934
 6649SOL     OW20845   4.348   2.091   6.544
 6649SOL    HW120846   4.384   2.182   6.567
 6649SOL    HW220847   4.375   2.025   6.614
 6650SOL     OW20848   2.910   1.509   3.624
 6650SOL    HW120849   2.947   1.602   3.625
 6650SOL    HW220850   2.985   1.443   3.615
 6651SOL     OW20851   1.465   2.289   0.169
 6651SOL    HW120852   1.389   2.224   0.167
 6651SOL    HW220853   1.550   2.241   0.150
 6652SOL     OW20854   1.000   5.835   3.255
 6652SOL    HW120855   0.972   5.744   3.224
 6652SOL    HW220856   1.052   5.826   3.340
 6653SOL     OW20857   3.098   3.482   3.678
 6653SOL    HW120858   3.170   3.509   3.613
 6653SOL    HW220859   3.038   3.414   3.635
 6654SOL     OW20860   2.049   3.326   1.831
 6654SOL    HW120861   1.978   3.334   1.902
 6654SOL    HW220862   2.127   3.383   1.856
 6655SOL     OW20863   2.108   0.270   0.670
 6655SOL    HW120864   2.038   0.304   0.732
 6655SOL    HW220865   2.072   0.192   0.618
 6656SOL     OW20866   6.724   2.592   1.499
 6656SOL    HW120867   6.631   2.556   1.485
 6656SOL    HW220868   6.732   2.681   1.453
 6657SOL     OW20869   2.517   4.786   5.956
 6657SOL    HW120870   2.591   4.813   6.017
 6657SOL    HW220871   2.524   4.837   5.870
 6658SOL     OW20872   5.520   0.094   5.601
 6658SOL    HW120873   5.452   0.150   5.646
 6658SOL    HW220874   5.481   0.053   5.518
 6659SOL     OW20875   1.769   2.892   6.492
 6659SOL    HW120876   1.688   2.897   6.433
 6659SOL    HW220877   1.774   2.973   6.549
 6660SOL     OW20878   0.583   6.948   2.125
 6660SOL    HW120879   0.673   6.981   2.152
 6660SOL    HW220880   0.589   6.900   2.038
 6661SOL     OW20881   0.148   5.622   3.514
 6661SOL    HW120882   0.181   5.658   3.426
 6661SOL    HW220883   0.205   5.658   3.587
 6662SOL     OW20884   1.302   3.679   5.694
 6662SOL    HW120885   1.287   3.725   5.607
 6662SOL    HW220886   1.237   3.714   5.762
 6663SOL     OW20887   0.354   4.909   2.292
 6663SOL    HW120888   0.382   4.907   2.196
 6663SOL    HW220889   0.428   4.872   2.349
 6664SOL     OW20890   0.675   1.688   3.589
 6664SOL    HW120891   0.692   1.770   3.645
 6664SOL    HW220892   0.577   1.679   3.574
 6665SOL     OW20893   2.782   6.477   2.624
 6665SOL    HW120894   2.880   6.460   2.633
 6665SOL    HW220895   2.767   6.568   2.585
 6666SOL     OW20896   6.231   0.285   0.393
 6666SOL    HW120897   6.295   0.277   0.317
 6666SOL    HW220898   6.255   0.364   0.449
 6667SOL     OW20899   6.633   4.757   4.606
 6667SOL    HW120900   6.646   4.677   4.665
 6667SOL    HW220901   6.592   4.728   4.519
 6668SOL     OW20902   0.400   6.616   1.353
 6668SOL    HW120903   0.472   6.669   1.309
 6668SOL    HW220904   0.392   6.527   1.308
 6669SOL     OW20905   1.240   5.354   2.946
 6669SOL    HW120906   1.143   5.350   2.968
 6669SOL    HW220907   1.292   5.304   3.015
 6670SOL     OW20908   3.348   4.769   0.914
 6670SOL    HW120909   3.312   4.721   0.994
 6670SOL    HW220910   3.396   4.851   0.943
 6671SOL     OW20911   0.654   2.923   5.322
 6671SOL    HW120912   0.705   2.880   5.248
 6671SOL    HW220913   0.589   2.989   5.283
 6672SOL     OW20914   0.452   0.962   5.421
 6672SOL    HW120915   0.355   0.971   5.399
 6672SOL    HW220916   0.507   0.977   5.339
 6673SOL     OW20917   5.276   5.484   1.732
 6673SOL    HW120918   5.241   5.570   1.695
 6673SOL    HW220919   5.233   5.407   1.686
 6674SOL     OW20920   0.526   6.810   4.763
 6674SOL    HW120921   0.488   6.874   4.830
 6674SOL    HW220922   0.544   6.858   4.677
 6675SOL     OW20923   0.113   6.138   0.451
 6675SOL    HW120924   0.193   6.151   0.392
 6675SOL    HW220925   0.031   6.127   0.394
 6676SOL     OW20926   1.099   2.076   0.446
 6676SOL    HW120927   1.044   2.101   0.366
 6676SOL    HW220928   1.186   2.126   0.443
 6677SOL     OW20929   6.389   3.895   6.747
 6677SOL    HW120930   6.368   3.800   6.723
 6677SOL    HW220931   6.469   3.925   6.695
 6678SOL     OW20932   0.900   2.845   4.328
 6678SOL    HW120933   0.884   2.933   4.284
 6678SOL    HW220934   0.973   2.855   4.396
 6679SOL     OW20935   1.499   1.009   4.262
 6679SOL    HW120936   1.598   1.005   4.276
 6679SOL    HW220937   1.453   0.957   4.334
 6680SOL     OW20938   2.410   6.863   6.252
 6680SOL    HW120939   2.426   6.922   6.331
 6680SOL    HW220940   2.494   6.814   6.229
 6681SOL     OW20941   5.547   5.158   0.405
 6681SOL    HW120942   5.558   5.193   0.498
 6681SOL    HW220943   5.591   5.068   0.399
 6682SOL     OW20944   0.310   5.394   2.503
 6682SOL    HW120945   0.274   5.482   2.470
 6682SOL    HW220946   0.291   5.323   2.436
 6683SOL     OW20947   5.225   2.006   4.063
 6683SOL    HW120948   5.213   2.104   4.082
 6683SOL    HW220949   5.310   1.991   4.014
 6684SOL     OW20950   2.103   0.541   2.207
 6684SOL    HW120951   2.066   0.449   2.200
 6684SOL    HW220952   2.046   0.604   2.154
 6685SOL     OW20953   5.401   3.478   6.359
 6685SOL    HW120954   5.379   3.405   6.423
 6685SOL    HW220955   5.331   3.549   6.363
 6686SOL     OW20956   5.608   3.525   3.970
 6686SOL    HW120957   5.693   3.474   3.962
 6686SOL    HW220958   5.599   3.561   4.063
 6687SOL     OW20959   1.022   1.421   7.013
 6687SOL    HW120960   1.070   1.500   0.028
 6687SOL    HW220961   0.929   1.418   0.026
 6688SOL     OW20962   0.671   4.984   2.857
 6688SOL    HW120963   0.766   4.957   2.875
 6688SOL    HW220964   0.609   4.923   2.906
 6689SOL     OW20965   4.219   4.673   0.638
 6689SOL    HW120966   4.146   4.685   0.571
 6689SOL    HW220967   4.222   4.752   0.699
 6690SOL     OW20968   1.091   1.841   0.584
 6690SOL    HW120969   1.067   1.875   0.675
 6690SOL    HW220970   1.099   1.918   0.521
 6691SOL     OW20971   1.497   5.243   0.759
 6691SOL    HW120972   1.402   5.230   0.788
 6691SOL    HW220973   1.545   5.297   0.828
 6692SOL     OW20974   3.364   4.486   5.897
 6692SOL    HW120975   3.378   4.570   5.845
 6692SOL    HW220976   3.430   4.482   5.972
 6693SOL     OW20977   4.107   3.449   5.025
 6693SOL    HW120978   4.044   3.450   5.102
 6693SOL    HW220979   4.083   3.374   4.963
 6694SOL     OW20980   2.888   6.172   0.180
 6694SOL    HW120981   2.911   6.228   0.259
 6694SOL    HW220982   2.820   6.104   0.206
 6695SOL     OW20983   1.425   1.551   6.546
 6695SOL    HW120984   1.445   1.618   6.475
 6695SOL    HW220985   1.507   1.497   6.565
 6696SOL     OW20986   1.852   3.246   1.657
 6696SOL    HW120987   1.946   3.262   1.686
 6696SOL    HW220988   1.803   3.197   1.729
 6697SOL     OW20989   5.197   2.505   4.096
 6697SOL    HW120990   5.178   2.555   4.011
 6697SOL    HW220991   5.185   2.566   4.174
 6698SOL     OW20992   3.339   4.254   0.559
 6698SOL    HW120993   3.420   4.252   0.618
 6698SOL    HW220994   3.313   4.349   0.542
 6699SOL     OW20995   1.598   3.280   6.670
 6699SOL    HW120996   1.570   3.256   6.763
 6699SOL    HW220997   1.519   3.278   6.609
 6700SOL     OW20998   6.719   6.924   5.862
 6700SOL    HW120999   6.690   7.017   5.841
 6700SOL    HW221000   6.817   6.922   5.879
 6701SOL     OW21001   0.542   2.458   1.028
 6701SOL    HW121002   0.558   2.359   1.037
 6701SOL    HW221003   0.444   2.477   1.034
 6702SOL     OW21004   1.441   3.227   0.990
 6702SOL    HW121005   1.382   3.285   1.047
 6702SOL    HW221006   1.474   3.280   0.912
 6703SOL     OW21007   0.420   2.266   6.836
 6703SOL    HW121008   0.433   2.235   6.931
 6703SOL    HW221009   0.507   2.301   6.801
 6704SOL     OW21010   5.034   2.260   3.090
 6704SOL    HW121011   4.973   2.336   3.112
 6704SOL    HW221012   5.098   2.246   3.166
 6705SOL     OW21013   6.343   1.006   0.669
 6705SOL    HW121014   6.273   1.064   0.628
 6705SOL    HW221015   6.388   0.953   0.597
 6706SOL     OW21016   0.778   5.530   0.077
 6706SOL    HW121017   0.809   5.541   0.172
 6706SOL    HW221018   0.796   5.437   0.046
 6707SOL     OW21019   0.938   5.562   2.463
 6707SOL    HW121020   0.995   5.537   2.385
 6707SOL    HW221021   0.981   5.530   2.548
 6708SOL     OW21022   2.317   6.141   1.782
 6708SOL    HW121023   2.340   6.049   1.751
 6708SOL    HW221024   2.229   6.139   1.831
 6709SOL     OW21025   5.306   1.633   3.068
 6709SOL    HW121026   5.253   1.549   3.055
 6709SOL    HW221027   5.395   1.623   3.024
 6710SOL     OW21028   2.086   1.936   0.412
 6710SOL    HW121029   2.049   1.943   0.504
 6710SOL    HW221030   2.096   1.840   0.387
 6711SOL     OW21031   4.919   3.593   0.085
 6711SOL    HW121032   4.834   3.643   0.102
 6711SOL    HW221033   4.916   3.553   7.016
 6712SOL     OW21034   3.295   6.107   1.279
 6712SOL    HW121035   3.340   6.192   1.305
 6712SOL    HW221036   3.317   6.085   1.184
 6713SOL     OW21037   1.673   1.379   2.836
 6713SOL    HW121038   1.626   1.445   2.778
 6713SOL    HW221039   1.766   1.366   2.803
 6714SOL     OW21040   6.684   0.174   4.606
 6714SOL    HW121041   6.660   0.179   4.703
 6714SOL    HW221042   6.618   0.226   4.552
 6715SOL     OW21043   0.251   1.984   0.839
 6715SOL    HW121044   0.321   2.054   0.830
 6715SOL    HW221045   0.178   2.001   0.773
 6716SOL     OW21046   2.809   5.689   0.399
 6716SOL    HW121047   2.795   5.623   0.325
 6716SOL    HW221048   2.861   5.767   0.363
 6717SOL     OW21049   4.068   1.692   6.424
 6717SOL    HW121050   4.002   1.767   6.419
 6717SOL    HW221051   4.147   1.722   6.478
 6718SOL     OW21052   3.230   6.911   0.160
 6718SOL    HW121053   3.295   6.887   0.233
 6718SOL    HW221054   3.207   6.830   0.107
 6719SOL     OW21055   0.778   0.667   5.455
 6719SOL    HW121056   0.857   0.727   5.444
 6719SOL    HW221057   0.710   0.713   5.514
 6720SOL     OW21058   1.907   4.600   1.474
 6720SOL    HW121059   1.842   4.645   1.412
 6720SOL    HW221060   2.000   4.629   1.451
 6721SOL     OW21061   6.463   6.111   3.314
 6721SOL    HW121062   6.552   6.147   3.285
 6721SOL    HW221063   6.402   6.186   3.339
 6722SOL     OW21064   5.094   4.612   6.911
 6722SOL    HW121065   5.016   4.674   6.907
 6722SOL    HW221066   5.177   4.666   6.930
 6723SOL     OW21067   4.586   0.688   2.723
 6723SOL    HW121068   4.508   0.736   2.763
 6723SOL    HW221069   4.555   0.604   2.679
 6724SOL     OW21070   3.407   4.722   5.283
 6724SOL    HW121071   3.424   4.811   5.241
 6724SOL    HW221072   3.340   4.732   5.357
 6725SOL     OW21073   6.866   4.996   1.730
 6725SOL    HW121074   6.964   4.980   1.715
 6725SOL    HW221075   6.814   4.959   1.653
 6726SOL     OW21076   2.272   2.776   1.942
 6726SOL    HW121077   2.226   2.743   1.860
 6726SOL    HW221078   2.234   2.864   1.969
 6727SOL     OW21079   3.615   3.960   0.190
 6727SOL    HW121080   3.579   4.021   0.261
 6727SOL    HW221081   3.704   3.925   0.219
 6728SOL     OW21082   4.711   1.377   4.897
 6728SOL    HW121083   4.673   1.317   4.967
 6728SOL    HW221084   4.654   1.373   4.814
 6729SOL     OW21085   5.616   6.146   3.572
 6729SOL    HW121086   5.584   6.183   3.485
 6729SOL    HW221087   5.713   6.169   3.584
 6730SOL     OW21088   1.245   0.401   2.398
 6730SOL    HW121089   1.313   0.438   2.335
 6730SOL    HW221090   1.153   0.430   2.369
 6731SOL     OW21091   2.341   4.182   1.777
 6731SOL    HW121092   2.302   4.260   1.728
 6731SOL    HW221093   2.272   4.110   1.785
 6732SOL     OW21094   2.298   4.918   0.999
 6732SOL    HW121095   2.308   5.005   0.950
 6732SOL    HW221096   2.297   4.935   1.097
 6733SOL     OW21097   5.785   6.104   4.978
 6733SOL    HW121098   5.762   6.182   5.036
 6733SOL    HW221099   5.883   6.100   4.964
 6734SOL     OW21100   2.904   3.694   5.451
 6734SOL    HW121101   2.811   3.695   5.414
 6734SOL    HW221102   2.955   3.773   5.416
 6735SOL     OW21103   0.574   5.619   6.681
 6735SOL    HW121104   0.557   5.604   6.778
 6735SOL    HW221105   0.661   5.667   6.668
 6736SOL     OW21106   2.072   4.056   2.405
 6736SOL    HW121107   2.044   4.132   2.463
 6736SOL    HW221108   2.152   4.082   2.351
 6737SOL     OW21109   1.814   0.227   1.209
 6737SOL    HW121110   1.722   0.263   1.193
 6737SOL    HW221111   1.865   0.292   1.266
 6738SOL     OW21112   4.208   1.302   1.573
 6738SOL    HW121113   4.304   1.314   1.595
 6738SOL    HW221114   4.177   1.375   1.513
 6739SOL     OW21115   4.519   0.425   4.675
 6739SOL    HW121116   4.521   0.437   4.576
 6739SOL    HW221117   4.556   0.336   4.699
 6740SOL     OW21118   5.864   3.205   5.508
 6740SOL    HW121119   5.852   3.269   5.432
 6740SOL    HW221120   5.907   3.253   5.585
 6741SOL     OW21121   0.156   6.951   5.833
 6741SOL    HW121122   0.223   6.975   5.903
 6741SOL    HW221123   0.076   6.910   5.876
 6742SOL     OW21124   6.102   6.023   5.092
 6742SOL    HW121125   6.053   5.943   5.126
 6742SOL    HW221126   6.165   6.057   5.162
 6743SOL     OW21127   5.600   2.664   1.077
 6743SOL    HW121128   5.506   2.696   1.064
 6743SOL    HW221129   5.661   2.743   1.088
 6744SOL     OW21130   5.182   5.079   4.781
 6744SOL    HW121131   5.169   5.064   4.879
 6744SOL    HW221132   5.157   5.173   4.758
 6745SOL     OW21133   0.776   3.697   2.897
 6745SOL    HW121134   0.724   3.635   2.838
 6745SOL    HW221135   0.794   3.783   2.848
 6746SOL     OW21136   0.120   0.991   1.079
 6746SOL    HW121137   0.131   0.893   1.068
 6746SOL    HW221138   0.026   1.016   1.056
 6747SOL     OW21139   4.901   6.257   6.915
 6747SOL    HW121140   4.880   6.339   6.967
 6747SOL    HW221141   4.895   6.277   6.817
 6748SOL     OW21142   0.319   6.432   1.590
 6748SOL    HW121143   0.411   6.409   1.557
 6748SOL    HW221144   0.314   6.530   1.608
 6749SOL     OW21145   3.429   5.623   0.959
 6749SOL    HW121146   3.339   5.579   0.962
 6749SOL    HW221147   3.470   5.608   0.869
 6750SOL     OW21148   2.241   2.909   5.303
 6750SOL    HW121149   2.184   2.864   5.234
 6750SOL    HW221150   2.307   2.969   5.258
 6751SOL     OW21151   3.210   1.916   6.274
 6751SOL    HW121152   3.298   1.956   6.247
 6751SOL    HW221153   3.222   1.858   6.354
 6752SOL     OW21154   6.387   2.158   0.352
 6752SOL    HW121155   6.402   2.096   0.274
 6752SOL    HW221156   6.320   2.118   0.414
 6753SOL     OW21157   5.982   1.346   6.618
 6753SOL    HW121158   5.896   1.346   6.567
 6753SOL    HW221159   6.058   1.335   6.555
 6754SOL     OW21160   4.971   1.274   0.017
 6754SOL    HW121161   5.017   1.325   6.968
 6754SOL    HW221162   4.873   1.296   0.017
 6755SOL     OW21163   5.101   2.281   3.982
 6755SOL    HW121164   5.159   2.355   4.014
 6755SOL    HW221165   5.005   2.309   3.988
 6756SOL     OW21166   4.854   3.900   3.404
 6756SOL    HW121167   4.812   3.990   3.391
 6756SOL    HW221168   4.953   3.910   3.405
 6757SOL     OW21169   6.065   4.905   1.699
 6757SOL    HW121170   6.057   4.956   1.784
 6757SOL    HW221171   6.125   4.954   1.636
 6758SOL     OW21172   5.723   1.441   3.227
 6758SOL    HW121173   5.732   1.366   3.162
 6758SOL    HW221174   5.697   1.525   3.179
 6759SOL     OW21175   0.882   4.804   3.242
 6759SOL    HW121176   0.784   4.815   3.257
 6759SOL    HW221177   0.900   4.711   3.207
 6760SOL     OW21178   0.428   4.381   5.599
 6760SOL    HW121179   0.367   4.384   5.677
 6760SOL    HW221180   0.485   4.463   5.596
 6761SOL     OW21181   6.223   3.446   6.168
 6761SOL    HW121182   6.276   3.419   6.249
 6761SOL    HW221183   6.196   3.542   6.177
 6762SOL     OW21184   6.756   3.968   3.227
 6762SOL    HW121185   6.800   3.909   3.295
 6762SOL    HW221186   6.677   3.921   3.188
 6763SOL     OW21187   6.511   6.523   5.347
 6763SOL    HW121188   6.448   6.538   5.270
 6763SOL    HW221189   6.605   6.521   5.313
 6764SOL     OW21190   2.057   3.201   6.575
 6764SOL    HW121191   2.069   3.176   6.479
 6764SOL    HW221192   1.974   3.157   6.610
 6765SOL     OW21193   5.372   5.275   2.704
 6765SOL    HW121194   5.379   5.364   2.750
 6765SOL    HW221195   5.311   5.284   2.625
 6766SOL     OW21196   2.049   1.682   5.779
 6766SOL    HW121197   2.009   1.613   5.719
 6766SOL    HW221198   2.016   1.667   5.873
 6767SOL     OW21199   0.540   2.594   6.152
 6767SOL    HW121200   0.549   2.669   6.086
 6767SOL    HW221201   0.589   2.514   6.118
 6768SOL     OW21202   6.335   1.519   5.920
 6768SOL    HW121203   6.271   1.462   5.972
 6768SOL    HW221204   6.427   1.482   5.928
 6769SOL     OW21205   0.988   2.458   6.634
 6769SOL    HW121206   1.071   2.485   6.683
 6769SOL    HW221207   1.005   2.371   6.587
 6770SOL     OW21208   6.603   1.523   4.575
 6770SOL    HW121209   6.524   1.467   4.601
 6770SOL    HW221210   6.585   1.568   4.488
 6771SOL     OW21211   5.850   1.704   2.109
 6771SOL    HW121212   5.781   1.747   2.166
 6771SOL    HW221213   5.938   1.751   2.122
 6772SOL     OW21214   1.416   0.768   2.169
 6772SOL    HW121215   1.482   0.695   2.186
 6772SOL    HW221216   1.327   0.728   2.149
 6773SOL     OW21217   1.771   0.484   2.484
 6773SOL    HW121218   1.867   0.455   2.480
 6773SOL    HW221219   1.712   0.403   2.481
 6774SOL     OW21220   3.657   1.256   5.531
 6774SOL    HW121221   3.656   1.308   5.446
 6774SOL    HW221222   3.703   1.310   5.603
 6775SOL     OW21223   0.987   2.662   4.700
 6775SOL    HW121224   0.988   2.761   4.690
 6775SOL    HW221225   1.077   2.631   4.732
 6776SOL     OW21226   2.977   3.798   3.667
 6776SOL    HW121227   2.898   3.850   3.699
 6776SOL    HW221228   2.979   3.709   3.714
 6777SOL     OW21229   0.400   6.769   6.062
 6777SOL    HW121230   0.421   6.774   6.160
 6777SOL    HW221231   0.477   6.807   6.010
 6778SOL     OW21232   0.044   6.105   2.643
 6778SOL    HW121233   0.010   6.036   2.707
 6778SOL    HW221234   7.014   6.189   2.653
 6779SOL     OW21235   4.599   4.705   6.875
 6779SOL    HW121236   4.577   4.710   6.777
 6779SOL    HW221237   4.522   4.741   6.928
 6780SOL     OW21238   4.473   0.258   3.073
 6780SOL    HW121239   4.537   0.307   3.013
 6780SOL    HW221240   4.515   0.172   3.102
 6781SOL     OW21241   6.614   3.288   3.260
 6781SOL    HW121242   6.675   3.230   3.206
 6781SOL    HW221243   6.639   3.383   3.246
 6782SOL     OW21244   0.808   1.138   3.961
 6782SOL    HW121245   0.718   1.137   3.916
 6782SOL    HW221246   0.796   1.128   4.059
 6783SOL     OW21247   0.348   6.243   6.424
 6783SOL    HW121248   0.386   6.206   6.509
 6783SOL    HW221249   0.367   6.341   6.420
 6784SOL     OW21250   1.483   4.741   0.374
 6784SOL    HW121251   1.409   4.673   0.374
 6784SOL    HW221252   1.479   4.795   0.457
 6785SOL     OW21253   5.379   4.959   2.001
 6785SOL    HW121254   5.435   4.890   1.955
 6785SOL    HW221255   5.282   4.936   1.991
 6786SOL     OW21256   6.148   1.678   5.487
 6786SOL    HW121257   6.200   1.733   5.421
 6786SOL    HW221258   6.097   1.740   5.548
 6787SOL     OW21259   3.291   1.715   0.935
 6787SOL    HW121260   3.332   1.625   0.949
 6787SOL    HW221261   3.239   1.715   0.849
 6788SOL     OW21262   1.159   4.261   1.596
 6788SOL    HW121263   1.134   4.240   1.501
 6788SOL    HW221264   1.100   4.210   1.658
 6789SOL     OW21265   5.691   3.794   2.735
 6789SOL    HW121266   5.781   3.786   2.778
 6789SOL    HW221267   5.646   3.878   2.765
 6790SOL     OW21268   0.577   5.705   0.613
 6790SOL    HW121269   0.524   5.788   0.628
 6790SOL    HW221270   0.664   5.711   0.663
 6791SOL     OW21271   2.815   6.179   3.850
 6791SOL    HW121272   2.892   6.240   3.871
 6791SOL    HW221273   2.729   6.227   3.867
 6792SOL     OW21274   3.592   6.243   6.579
 6792SOL    HW121275   3.516   6.305   6.599
 6792SOL    HW221276   3.586   6.213   6.483
 6793SOL     OW21277   3.021   4.121   6.489
 6793SOL    HW121278   3.118   4.103   6.507
 6793SOL    HW221279   2.967   4.043   6.521
 6794SOL     OW21280   5.088   2.575   4.538
 6794SOL    HW121281   5.111   2.492   4.589
 6794SOL    HW221282   5.151   2.649   4.565
 6795SOL     OW21283   0.783   0.873   1.781
 6795SOL    HW121284   0.716   0.828   1.839
 6795SOL    HW221285   0.759   0.858   1.685
 6796SOL     OW21286   6.869   2.661   2.567
 6796SOL    HW121287   6.830   2.717   2.494
 6796SOL    HW221288   6.798   2.635   2.631
 6797SOL     OW21289   2.050   3.413   1.271
 6797SOL    HW121290   2.142   3.434   1.236
 6797SOL    HW221291   1.988   3.397   1.194
 6798SOL     OW21292   4.723   0.655   1.933
 6798SOL    HW121293   4.661   0.627   1.859
 6798SOL    HW221294   4.698   0.748   1.963
 6799SOL     OW21295   5.776   6.648   2.819
 6799SOL    HW121296   5.823   6.581   2.762
 6799SOL    HW221297   5.698   6.686   2.768
 6800SOL     OW21298   6.857   2.851   2.316
 6800SOL    HW121299   6.952   2.864   2.288
 6800SOL    HW221300   6.824   2.933   2.362
 6801SOL     OW21301   1.663   5.113   5.303
 6801SOL    HW121302   1.671   5.045   5.231
 6801SOL    HW221303   1.634   5.201   5.263
 6802SOL     OW21304   2.666   4.451   1.690
 6802SOL    HW121305   2.670   4.352   1.703
 6802SOL    HW221306   2.741   4.494   1.740
 6803SOL     OW21307   5.471   5.471   6.751
 6803SOL    HW121308   5.399   5.525   6.794
 6803SOL    HW221309   5.528   5.429   6.823
 6804SOL     OW21310   3.152   5.192   2.004
 6804SOL    HW121311   3.244   5.210   2.038
 6804SOL    HW221312   3.107   5.278   1.982
 6805SOL     OW21313   0.542   4.835   3.617
 6805SOL    HW121314   0.443   4.823   3.606
 6805SOL    HW221315   0.570   4.795   3.704
 6806SOL     OW21316   6.122   3.852   2.499
 6806SOL    HW121317   6.101   3.759   2.527
 6806SOL    HW221318   6.181   3.895   2.567
 6807SOL     OW21319   2.908   3.596   2.457
 6807SOL    HW121320   2.815   3.634   2.452
 6807SOL    HW221321   2.904   3.502   2.490
 6808SOL     OW21322   3.496   6.883   3.160
 6808SOL    HW121323   3.433   6.858   3.086
 6808SOL    HW221324   3.448   6.880   3.247
 6809SOL     OW21325   5.903   2.703   0.944
 6809SOL    HW121326   5.840   2.773   0.977
 6809SOL    HW221327   5.968   2.679   1.017
 6810SOL     OW21328   2.922   0.262   4.266
 6810SOL    HW121329   2.941   0.226   4.174
 6810SOL    HW221330   2.869   0.195   4.317
 6811SOL     OW21331   6.663   1.246   0.972
 6811SOL    HW121332   6.660   1.255   0.872
 6811SOL    HW221333   6.723   1.317   1.009
 6812SOL     OW21334   3.105   4.518   5.479
 6812SOL    HW121335   3.178   4.493   5.416
 6812SOL    HW221336   3.100   4.618   5.486
 6813SOL     OW21337   0.402   3.920   1.814
 6813SOL    HW121338   0.421   3.838   1.868
 6813SOL    HW221339   0.367   3.893   1.724
 6814SOL     OW21340   4.973   1.713   1.837
 6814SOL    HW121341   4.915   1.794   1.845
 6814SOL    HW221342   4.948   1.663   1.754
 6815SOL     OW21343   0.446   6.175   0.031
 6815SOL    HW121344   0.457   6.076   0.035
 6815SOL    HW221345   0.379   6.204   0.100
 6816SOL     OW21346   6.788   6.984   4.153
 6816SOL    HW121347   6.750   6.903   4.198
 6816SOL    HW221348   6.826   0.022   4.222
 6817SOL     OW21349   5.122   1.123   1.847
 6817SOL    HW121350   5.202   1.174   1.817
 6817SOL    HW221351   5.118   1.123   1.947
 6818SOL     OW21352   0.221   0.658   5.404
 6818SOL    HW121353   0.264   0.684   5.491
 6818SOL    HW221354   0.187   0.564   5.411
 6819SOL     OW21355   5.585   4.092   0.852
 6819SOL    HW121356   5.630   4.055   0.771
 6819SOL    HW221357   5.627   4.052   0.934
 6820SOL     OW21358   2.504   4.246   1.312
 6820SOL    HW121359   2.494   4.344   1.324
 6820SOL    HW221360   2.598   4.225   1.286
 6821SOL     OW21361   3.214   2.881   5.837
 6821SOL    HW121362   3.123   2.899   5.801
 6821SOL    HW221363   3.283   2.918   5.774
 6822SOL     OW21364   6.534   3.916   5.135
 6822SOL    HW121365   6.492   3.838   5.181
 6822SOL    HW221366   6.563   3.890   5.044
 6823SOL     OW21367   6.476   3.011   5.502
 6823SOL    HW121368   6.440   3.071   5.430
 6823SOL    HW221369   6.566   2.976   5.475
 6824SOL     OW21370   0.987   0.723   4.014
 6824SOL    HW121371   0.993   0.676   3.926
 6824SOL    HW221372   0.892   0.747   4.032
 6825SOL     OW21373   4.369   4.387   1.337
 6825SOL    HW121374   4.348   4.309   1.278
 6825SOL    HW221375   4.360   4.360   1.433
 6826SOL     OW21376   5.704   0.890   3.607
 6826SOL    HW121377   5.629   0.824   3.609
 6826SOL    HW221378   5.669   0.979   3.578
 6827SOL     OW21379   4.920   5.840   5.744
 6827SOL    HW121380   4.869   5.913   5.698
 6827SOL    HW221381   4.865   5.806   5.821
 6828SOL     OW21382   2.803   2.314   2.563
 6828SOL    HW121383   2.865   2.329   2.640
 6828SOL    HW221384   2.855   2.307   2.478
 6829SOL     OW21385   5.493   6.462   4.440
 6829SOL    HW121386   5.513   6.365   4.459
 6829SOL    HW221387   5.456   6.471   4.348
 6830SOL     OW21388   4.086   6.155   2.367
 6830SOL    HW121389   4.134   6.068   2.378
 6830SOL    HW221390   4.089   6.182   2.270
 6831SOL     OW21391   1.623   0.978   6.831
 6831SOL    HW121392   1.541   0.923   6.814
 6831SOL    HW221393   1.659   0.957   6.921
 6832SOL     OW21394   2.909   3.176   0.042
 6832SOL    HW121395   2.960   3.244   0.096
 6832SOL    HW221396   2.881   3.101   0.103
 6833SOL     OW21397   4.701   5.035   6.839
 6833SOL    HW121398   4.617   5.003   6.883
 6833SOL    HW221399   4.703   5.003   6.744
 6834SOL     OW21400   5.639   5.736   5.351
 6834SOL    HW121401   5.694   5.798   5.296
 6834SOL    HW221402   5.655   5.756   5.448
 6835SOL     OW21403   3.841   0.434   3.076
 6835SOL    HW121404   3.871   0.352   3.124
 6835SOL    HW221405   3.771   0.481   3.130
 6836SOL     OW21406   0.739   4.264   6.787
 6836SOL    HW121407   0.697   4.173   6.795
 6836SOL    HW221408   0.835   4.259   6.816
 6837SOL     OW21409   6.368   1.622   1.635
 6837SOL    HW121410   6.358   1.722   1.634
 6837SOL    HW221411   6.461   1.598   1.610
 6838SOL     OW21412   2.896   4.078   5.710
 6838SOL    HW121413   2.895   4.164   5.660
 6838SOL    HW221414   2.939   4.091   5.799
 6839SOL     OW21415   6.034   2.584   5.775
 6839SOL    HW121416   5.958   2.590   5.710
 6839SOL    HW221417   6.090   2.504   5.753
 6840SOL     OW21418   3.629   6.518   4.399
 6840SOL    HW121419   3.666   6.485   4.312
 6840SOL    HW221420   3.664   6.610   4.418
 6841SOL     OW21421   4.407   7.002   0.503
 6841SOL    HW121422   4.445   0.072   0.512
 6841SOL    HW221423   4.320   6.997   0.552
 6842SOL     OW21424   0.899   3.221   3.251
 6842SOL    HW121425   0.873   3.279   3.174
 6842SOL    HW221426   0.978   3.260   3.298
 6843SOL     OW21427   4.895   2.898   2.206
 6843SOL    HW121428   4.834   2.958   2.154
 6843SOL    HW221429   4.881   2.913   2.304
 6844SOL     OW21430   3.912   6.985   4.826
 6844SOL    HW121431   3.870   6.895   4.825
 6844SOL    HW221432   3.872   0.019   4.754
 6845SOL     OW21433   4.109   3.969   0.062
 6845SOL    HW121434   4.022   3.948   0.106
 6845SOL    HW221435   4.093   3.990   6.989
 6846SOL     OW21436   3.991   3.733   3.291
 6846SOL    HW121437   3.970   3.831   3.299
 6846SOL    HW221438   3.966   3.686   3.375
 6847SOL     OW21439   5.974   2.731   2.423
 6847SOL    HW121440   5.893   2.788   2.428
 6847SOL    HW221441   6.044   2.765   2.486
 6848SOL     OW21442   0.721   6.160   4.813
 6848SOL    HW121443   0.675   6.075   4.785
 6848SOL    HW221444   0.806   6.170   4.763
 6849SOL     OW21445   3.445   0.289   5.139
 6849SOL    HW121446   3.542   0.263   5.139
 6849SOL    HW221447   3.390   0.212   5.171
 6850SOL     OW21448   6.297   3.721   1.308
 6850SOL    HW121449   6.393   3.704   1.328
 6850SOL    HW221450   6.272   3.813   1.339
 6851SOL     OW21451   1.200   5.901   6.255
 6851SOL    HW121452   1.223   5.979   6.312
 6851SOL    HW221453   1.283   5.863   6.215
 6852SOL     OW21454   6.483   5.338   2.095
 6852SOL    HW121455   6.522   5.400   2.027
 6852SOL    HW221456   6.499   5.243   2.067
 6853SOL     OW21457   6.031   4.554   4.436
 6853SOL    HW121458   6.105   4.607   4.479
 6853SOL    HW221459   5.943   4.595   4.459
 6854SOL     OW21460   6.400   1.756   6.692
 6854SOL    HW121461   6.407   1.683   6.760
 6854SOL    HW221462   6.375   1.716   6.603
 6855SOL     OW21463   3.054   6.432   2.630
 6855SOL    HW121464   3.081   6.362   2.695
 6855SOL    HW221465   3.095   6.520   2.656
 6856SOL     OW21466   0.633   5.464   5.559
 6856SOL    HW121467   0.589   5.375   5.548
 6856SOL    HW221468   0.692   5.462   5.640
 6857SOL     OW21469   4.677   1.288   6.977
 6857SOL    HW121470   4.668   1.363   6.911
 6857SOL    HW221471   4.632   1.206   6.941
 6858SOL     OW21472   3.654   3.384   6.702
 6858SOL    HW121473   3.660   3.286   6.716
 6858SOL    HW221474   3.570   3.419   6.744
 6859SOL     OW21475   3.521   0.813   0.539
 6859SOL    HW121476   3.580   0.815   0.620
 6859SOL    HW221477   3.517   0.904   0.497
 6860SOL     OW21478   4.645   3.696   0.043
 6860SOL    HW121479   4.646   3.794   0.027
 6860SOL    HW221480   4.629   3.678   0.141
 6861SOL     OW21481   5.889   3.720   0.711
 6861SOL    HW121482   5.986   3.745   0.705
 6861SOL    HW221483   5.833   3.801   0.693
 6862SOL     OW21484   3.079   5.419   4.229
 6862SOL    HW121485   3.021   5.478   4.285
 6862SOL    HW221486   3.025   5.341   4.196
 6863SOL     OW21487   1.124   2.955   3.401
 6863SOL    HW121488   1.069   2.908   3.332
 6863SOL    HW221489   1.221   2.941   3.381
 6864SOL     OW21490   3.837   5.893   6.632
 6864SOL    HW121491   3.929   5.892   6.670
 6864SOL    HW221492   3.839   5.854   6.540
 6865SOL     OW21493   0.233   3.660   4.596
 6865SOL    HW121494   0.178   3.578   4.613
 6865SOL    HW221495   0.209   3.699   4.507
 6866SOL     OW21496   0.996   3.386   2.242
 6866SOL    HW121497   1.076   3.402   2.299
 6866SOL    HW221498   0.926   3.339   2.295
 6867SOL     OW21499   2.336   5.202   2.841
 6867SOL    HW121500   2.253   5.207   2.897
 6867SOL    HW221501   2.377   5.111   2.851
 6868SOL     OW21502   2.121   5.445   4.651
 6868SOL    HW121503   2.129   5.529   4.597
 6868SOL    HW221504   2.207   5.429   4.699
 6869SOL     OW21505   0.146   3.579   5.077
 6869SOL    HW121506   0.093   3.579   5.162
 6869SOL    HW221507   0.204   3.661   5.075
 6870SOL     OW21508   5.980   3.603   2.639
 6870SOL    HW121509   6.049   3.531   2.639
 6870SOL    HW221510   5.909   3.583   2.571
 6871SOL     OW21511   4.895   6.202   1.970
 6871SOL    HW121512   4.802   6.165   1.967
 6871SOL    HW221513   4.952   6.144   2.028
 6872SOL     OW21514   3.668   3.794   0.472
 6872SOL    HW121515   3.591   3.858   0.479
 6872SOL    HW221516   3.717   3.792   0.559
 6873SOL     OW21517   5.745   4.687   4.797
 6873SOL    HW121518   5.841   4.693   4.825
 6873SOL    HW221519   5.721   4.591   4.781
 6874SOL     OW21520   1.018   2.246   5.931
 6874SOL    HW121521   1.081   2.321   5.954
 6874SOL    HW221522   0.998   2.248   5.833
 6875SOL     OW21523   4.104   1.347   4.369
 6875SOL    HW121524   4.148   1.265   4.404
 6875SOL    HW221525   4.126   1.359   4.273
 6876SOL     OW21526   3.600   5.855   4.680
 6876SOL    HW121527   3.699   5.850   4.690
 6876SOL    HW221528   3.576   5.850   4.583
 6877SOL     OW21529   1.871   3.424   5.822
 6877SOL    HW121530   1.855   3.508   5.873
 6877SOL    HW221531   1.942   3.370   5.868
 6878SOL     OW21532   1.518   1.906   4.297
 6878SOL    HW121533   1.536   1.910   4.199
 6878SOL    HW221534   1.443   1.968   4.320
 6879SOL     OW21535   7.016   1.060   5.577
 6879SOL    HW121536   0.050   1.068   5.658
 6879SOL    HW221537   0.019   0.977   5.527
 6880SOL     OW21538   2.123   3.763   4.442
 6880SOL    HW121539   2.154   3.817   4.363
 6880SOL    HW221540   2.066   3.820   4.500
 6881SOL     OW21541   5.849   5.894   1.427
 6881SOL    HW121542   5.775   5.944   1.381
 6881SOL    HW221543   5.830   5.889   1.525
 6882SOL     OW21544   2.232   6.143   5.320
 6882SOL    HW121545   2.213   6.222   5.378
 6882SOL    HW221546   2.280   6.172   5.237
 6883SOL     OW21547   3.030   6.041   1.873
 6883SOL    HW121548   3.076   5.983   1.806
 6883SOL    HW221549   3.059   6.136   1.861
 6884SOL     OW21550   2.097   5.144   2.508
 6884SOL    HW121551   2.101   5.176   2.413
 6884SOL    HW221552   2.122   5.048   2.512
 6885SOL     OW21553   4.129   5.249   4.728
 6885SOL    HW121554   4.220   5.231   4.764
 6885SOL    HW221555   4.119   5.205   4.639
 6886SOL     OW21556   5.321   1.294   2.416
 6886SOL    HW121557   5.304   1.254   2.506
 6886SOL    HW221558   5.381   1.233   2.364
 6887SOL     OW21559   5.497   0.643   5.421
 6887SOL    HW121560   5.505   0.547   5.447
 6887SOL    HW221561   5.401   0.665   5.402
 6888SOL     OW21562   6.326   6.835   4.529
 6888SOL    HW121563   6.375   6.753   4.500
 6888SOL    HW221564   6.334   6.905   4.459
 6889SOL     OW21565   1.471   4.708   5.847
 6889SOL    HW121566   1.488   4.627   5.903
 6889SOL    HW221567   1.534   4.781   5.873
 6890SOL     OW21568   1.938   0.204   0.933
 6890SOL    HW121569   1.896   0.281   0.886
 6890SOL    HW221570   1.881   0.177   1.011
 6891SOL     OW21571   3.368   5.208   5.441
 6891SOL    HW121572   3.284   5.232   5.392
 6891SOL    HW221573   3.433   5.283   5.435
 6892SOL     OW21574   3.336   1.280   4.714
 6892SOL    HW121575   3.436   1.277   4.723
 6892SOL    HW221576   3.311   1.357   4.655
 6893SOL     OW21577   5.658   0.733   1.809
 6893SOL    HW121578   5.648   0.709   1.712
 6893SOL    HW221579   5.642   0.831   1.821
 6894SOL     OW21580   5.997   4.847   6.667
 6894SOL    HW121581   5.987   4.901   6.584
 6894SOL    HW221582   5.983   4.750   6.646
 6895SOL     OW21583   3.904   5.758   6.372
 6895SOL    HW121584   3.944   5.848   6.354
 6895SOL    HW221585   3.973   5.688   6.362
 6896SOL     OW21586   4.780   0.785   2.421
 6896SOL    HW121587   4.787   0.733   2.336
 6896SOL    HW221588   4.742   0.727   2.493
 6897SOL     OW21589   3.781   0.800   0.998
 6897SOL    HW121590   3.874   0.769   1.016
 6897SOL    HW221591   3.760   0.878   1.056
 6898SOL     OW21592   3.674   1.271   2.665
 6898SOL    HW121593   3.680   1.369   2.642
 6898SOL    HW221594   3.745   1.248   2.732
 6899SOL     OW21595   6.144   6.276   6.570
 6899SOL    HW121596   6.208   6.228   6.630
 6899SOL    HW221597   6.172   6.264   6.475
 6900SOL     OW21598   4.519   1.587   6.611
 6900SOL    HW121599   4.470   1.500   6.605
 6900SOL    HW221600   4.462   1.661   6.575
 6901SOL     OW21601   1.445   1.050   0.325
 6901SOL    HW121602   1.455   0.973   0.388
 6901SOL    HW221603   1.377   1.027   0.255
 6902SOL     OW21604   6.477   5.781   2.373
 6902SOL    HW121605   6.567   5.816   2.400
 6902SOL    HW221606   6.478   5.762   2.275
 6903SOL     OW21607   4.686   4.395   0.400
 6903SOL    HW121608   4.720   4.381   0.493
 6903SOL    HW221609   4.763   4.390   0.336
 6904SOL     OW21610   0.651   1.369   2.849
 6904SOL    HW121611   0.747   1.345   2.842
 6904SOL    HW221612   0.595   1.296   2.809
 6905SOL     OW21613   3.926   5.646   1.411
 6905SOL    HW121614   4.009   5.688   1.374
 6905SOL    HW221615   3.874   5.714   1.462
 6906SOL     OW21616   6.126   6.436   3.109
 6906SOL    HW121617   6.066   6.381   3.051
 6906SOL    HW221618   6.073   6.474   3.185
 6907SOL     OW21619   3.486   0.905   1.307
 6907SOL    HW121620   3.432   0.830   1.268
 6907SOL    HW221621   3.489   0.896   1.407
 6908SOL     OW21622   5.886   6.993   6.690
 6908SOL    HW121623   5.805   6.953   6.647
 6908SOL    HW221624   5.965   6.981   6.629
 6909SOL     OW21625   2.456   2.392   6.683
 6909SOL    HW121626   2.536   2.437   6.645
 6909SOL    HW221627   2.455   2.402   6.782
 6910SOL     OW21628   5.575   0.998   1.790
 6910SOL    HW121629   5.553   1.051   1.872
 6910SOL    HW221630   5.492   0.954   1.756
 6911SOL     OW21631   4.152   0.748   5.115
 6911SOL    HW121632   4.244   0.769   5.083
 6911SOL    HW221633   4.123   0.819   5.180
 6912SOL     OW21634   4.142   4.662   1.793
 6912SOL    HW121635   4.216   4.635   1.854
 6912SOL    HW221636   4.125   4.588   1.728
 6913SOL     OW21637   4.595   5.777   5.621
 6913SOL    HW121638   4.690   5.760   5.649
 6913SOL    HW221639   4.534   5.763   5.699
 6914SOL     OW21640   5.927   5.240   6.925
 6914SOL    HW121641   5.967   5.151   6.900
 6914SOL    HW221642   5.967   5.312   6.869
 6915SOL     OW21643   0.844   5.617   1.020
 6915SOL    HW121644   0.820   5.702   1.066
 6915SOL    HW221645   0.861   5.635   0.923
 6916SOL     OW21646   6.251   0.431   5.868
 6916SOL    HW121647   6.255   0.355   5.804
 6916SOL    HW221648   6.183   0.498   5.836
 6917SOL     OW21649   4.505   0.265   6.850
 6917SOL    HW121650   4.592   0.313   6.865
 6917SOL    HW221651   4.488   0.259   6.751
 6918SOL     OW21652   2.354   2.859   3.741
 6918SOL    HW121653   2.331   2.924   3.669
 6918SOL    HW221654   2.407   2.783   3.703
 6919SOL     OW21655   0.634   6.446   3.856
 6919SOL    HW121656   0.570   6.521   3.839
 6919SOL    HW221657   0.591   6.377   3.914
 6920SOL     OW21658   5.096   6.041   4.382
 6920SOL    HW121659   5.070   5.983   4.306
 6920SOL    HW221660   5.131   6.128   4.348
 6921SOL     OW21661   0.970   6.036   3.829
 6921SOL    HW121662   1.032   6.018   3.752
 6921SOL    HW221663   0.896   6.097   3.799
 6922SOL     OW21664   1.797   6.659   0.707
 6922SOL    HW121665   1.703   6.632   0.683
 6922SOL    HW221666   1.810   6.649   0.806
 6923SOL     OW21667   5.055   5.982   4.094
 6923SOL    HW121668   5.138   5.928   4.104
 6923SOL    HW221669   5.075   6.067   4.045
 6924SOL     OW21670   6.811   5.952   1.419
 6924SOL    HW121671   6.785   6.001   1.335
 6924SOL    HW221672   6.869   5.874   1.396
 6925SOL     OW21673   5.911   5.703   2.840
 6925SOL    HW121674   5.987   5.724   2.902
 6925SOL    HW221675   5.948   5.672   2.753
 6926SOL     OW21676   2.632   4.450   5.480
 6926SOL    HW121677   2.685   4.439   5.396
 6926SOL    HW221678   2.694   4.459   5.558
 6927SOL     OW21679   4.357   3.506   0.924
 6927SOL    HW121680   4.260   3.493   0.940
 6927SOL    HW221681   4.405   3.514   1.011
 6928SOL     OW21682   6.821   0.433   6.428
 6928SOL    HW121683   6.754   0.435   6.354
 6928SOL    HW221684   6.792   0.368   6.498
 6929SOL     OW21685   2.789   4.842   1.565
 6929SOL    HW121686   2.860   4.807   1.627
 6929SOL    HW221687   2.785   4.942   1.571
 6930SOL     OW21688   0.955   0.605   3.010
 6930SOL    HW121689   1.021   0.547   3.058
 6930SOL    HW221690   0.974   0.604   2.912
 6931SOL     OW21691   2.106   0.150   0.193
 6931SOL    HW121692   2.156   0.093   0.258
 6931SOL    HW221693   2.155   0.237   0.182
 6932SOL     OW21694   2.442   2.418   6.950
 6932SOL    HW121695   2.493   2.381   0.005
 6932SOL    HW221696   2.397   2.503   6.976
 6933SOL     OW21697   2.469   5.846   5.737
 6933SOL    HW121698   2.533   5.912   5.777
 6933SOL    HW221699   2.398   5.895   5.686
 6934SOL     OW21700   5.636   5.174   6.179
 6934SOL    HW121701   5.623   5.230   6.097
 6934SOL    HW221702   5.627   5.231   6.260
 6935SOL     OW21703   4.331   5.675   3.513
 6935SOL    HW121704   4.375   5.610   3.575
 6935SOL    HW221705   4.380   5.762   3.516
 6936SOL     OW21706   0.813   4.800   0.635
 6936SOL    HW121707   0.752   4.793   0.555
 6936SOL    HW221708   0.881   4.872   0.618
 6937SOL     OW21709   4.384   6.392   5.487
 6937SOL    HW121710   4.330   6.357   5.563
 6937SOL    HW221711   4.464   6.333   5.473
 6938SOL     OW21712   5.635   2.475   5.239
 6938SOL    HW121713   5.697   2.443   5.311
 6938SOL    HW221714   5.683   2.541   5.181
 6939SOL     OW21715   7.022   4.540   1.915
 6939SOL    HW121716   6.922   4.536   1.910
 6939SOL    HW221717   0.031   4.486   1.993
 6940SOL     OW21718   4.224   0.538   4.664
 6940SOL    HW121719   4.262   0.570   4.577
 6940SOL    HW221720   4.262   0.593   4.739
 6941SOL     OW21721   4.118   3.545   4.483
 6941SOL    HW121722   4.092   3.454   4.514
 6941SOL    HW221723   4.213   3.543   4.450
 6942SOL     OW21724   6.417   1.590   6.904
 6942SOL    HW121725   6.495   1.527   6.910
 6942SOL    HW221726   6.397   1.626   6.995
 6943SOL     OW21727   6.386   6.169   0.038
 6943SOL    HW121728   6.395   6.236   0.112
 6943SOL    HW221729   6.475   6.156   7.018
 6944SOL     OW21730   1.412   6.235   6.846
 6944SOL    HW121731   1.364   6.193   6.923
 6944SOL    HW221732   1.484   6.174   6.813
 6945SOL     OW21733   4.373   2.109   5.817
 6945SOL    HW121734   4.325   2.141   5.899
 6945SOL    HW221735   4.463   2.074   5.842
 6946SOL     OW21736   5.971   3.392   3.431
 6946SOL    HW121737   5.959   3.309   3.376
 6946SOL    HW221738   5.897   3.397   3.498
 6947SOL     OW21739   3.372   6.906   1.731
 6947SOL    HW121740   3.461   6.950   1.715
 6947SOL    HW221741   3.379   6.844   1.809
 6948SOL     OW21742   3.842   2.222   5.349
 6948SOL    HW121743   3.823   2.203   5.252
 6948SOL    HW221744   3.879   2.315   5.358
 6949SOL     OW21745   4.615   0.956   2.298
 6949SOL    HW121746   4.685   0.900   2.343
 6949SOL    HW221747   4.621   1.050   2.332
 6950SOL     OW21748   2.939   1.783   3.648
 6950SOL    HW121749   2.905   1.860   3.702
 6950SOL    HW221750   2.959   1.814   3.555
 6951SOL     OW21751   4.658   4.911   5.264
 6951SOL    HW121752   4.586   4.851   5.299
 6951SOL    HW221753   4.715   4.859   5.200
 6952SOL     OW21754   0.402   5.070   5.120
 6952SOL    HW121755   0.328   5.046   5.182
 6952SOL    HW221756   0.371   5.063   5.025
 6953SOL     OW21757   5.461   2.743   5.347
 6953SOL    HW121758   5.474   2.668   5.413
 6953SOL    HW221759   5.419   2.707   5.264
 6954SOL     OW21760   0.631   4.504   2.283
 6954SOL    HW121761   0.531   4.495   2.288
 6954SOL    HW221762   0.667   4.517   2.375
 6955SOL     OW21763   6.727   6.981   2.900
 6955SOL    HW121764   6.731   6.901   2.840
 6955SOL    HW221765   6.656   0.020   2.866
 6956SOL     OW21766   2.396   4.328   1.045
 6956SOL    HW121767   2.384   4.427   1.034
 6956SOL    HW221768   2.454   4.310   1.124
 6957SOL     OW21769   1.060   3.619   6.766
 6957SOL    HW121770   1.088   3.548   6.701
 6957SOL    HW221771   1.109   3.704   6.746
 6958SOL     OW21772   2.317   3.533   6.328
 6958SOL    HW121773   2.222   3.561   6.340
 6958SOL    HW221774   2.365   3.599   6.271
 6959SOL     OW21775   3.777   1.308   3.683
 6959SOL    HW121776   3.715   1.245   3.729
 6959SOL    HW221777   3.749   1.319   3.588
 6960SOL     OW21778   0.715   4.645   0.089
 6960SOL    HW121779   0.735   4.743   0.091
 6960SOL    HW221780   0.727   4.610   7.019
 6961SOL     OW21781   6.692   1.255   3.081
 6961SOL    HW121782   6.724   1.204   3.001
 6961SOL    HW221783   6.770   1.276   3.140
 6962SOL     OW21784   3.806   3.365   0.872
 6962SOL    HW121785   3.794   3.311   0.789
 6962SOL    HW221786   3.718   3.404   0.899
 6963SOL     OW21787   6.316   6.272   2.148
 6963SOL    HW121788   6.242   6.205   2.146
 6963SOL    HW221789   6.403   6.226   2.165
 6964SOL     OW21790   3.436   5.646   5.397
 6964SOL    HW121791   3.486   5.612   5.317
 6964SOL    HW221792   3.473   5.735   5.424
 6965SOL     OW21793   6.078   1.796   5.726
 6965SOL    HW121794   6.052   1.892   5.715
 6965SOL    HW221795   6.020   1.754   5.796
 6966SOL     OW21796   5.349   2.749   4.224
 6966SOL    HW121797   5.284   2.823   4.207
 6966SOL    HW221798   5.403   2.731   4.142
 6967SOL     OW21799   2.488   2.112   6.065
 6967SOL    HW121800   2.570   2.154   6.026
 6967SOL    HW221801   2.409   2.135   6.009
 6968SOL     OW21802   4.157   6.896   3.828
 6968SOL    HW121803   4.125   6.838   3.753
 6968SOL    HW221804   4.080   6.949   3.863
 6969SOL     OW21805   2.871   2.500   1.039
 6969SOL    HW121806   2.940   2.443   0.993
 6969SOL    HW221807   2.809   2.538   0.971
 6970SOL     OW21808   4.467   4.188   0.482
 6970SOL    HW121809   4.503   4.171   0.574
 6970SOL    HW221810   4.535   4.238   0.428
 6971SOL     OW21811   5.880   1.294   2.006
 6971SOL    HW121812   5.959   1.353   2.018
 6971SOL    HW221813   5.910   1.205   1.972
 6972SOL     OW21814   5.740   5.098   4.802
 6972SOL    HW121815   5.796   5.025   4.762
 6972SOL    HW221816   5.645   5.086   4.774
 6973SOL     OW21817   1.958   4.134   3.222
 6973SOL    HW121818   2.019   4.158   3.298
 6973SOL    HW221819   1.964   4.035   3.205
 6974SOL     OW21820   3.359   4.086   4.869
 6974SOL    HW121821   3.274   4.105   4.918
 6974SOL    HW221822   3.357   3.993   4.833
 6975SOL     OW21823   2.922   0.518   5.622
 6975SOL    HW121824   2.934   0.617   5.611
 6975SOL    HW221825   2.968   0.488   5.707
 6976SOL     OW21826   1.184   6.613   0.610
 6976SOL    HW121827   1.099   6.631   0.560
 6976SOL    HW221828   1.166   6.549   0.685
 6977SOL     OW21829   4.706   2.730   2.500
 6977SOL    HW121830   4.619   2.684   2.487
 6977SOL    HW221831   4.780   2.674   2.463
 6978SOL     OW21832   4.697   1.516   3.103
 6978SOL    HW121833   4.788   1.546   3.132
 6978SOL    HW221834   4.688   1.528   3.004
 6979SOL     OW21835   0.251   4.800   3.798
 6979SOL    HW121836   0.225   4.753   3.714
 6979SOL    HW221837   0.199   4.885   3.807
 6980SOL     OW21838   4.414   0.856   4.486
 6980SOL    HW121839   4.369   0.861   4.576
 6980SOL    HW221840   4.513   0.860   4.498
 6981SOL     OW21841   3.270   4.032   0.052
 6981SOL    HW121842   3.207   3.968   0.096
 6981SOL    HW221843   3.300   4.099   0.120
 6982SOL     OW21844   0.775   0.271   4.551
 6982SOL    HW121845   0.765   0.260   4.650
 6982SOL    HW221846   0.707   0.213   4.505
 6983SOL     OW21847   6.910   0.277   3.035
 6983SOL    HW121848   7.009   0.283   3.049
 6983SOL    HW221849   6.886   0.323   2.949
 6984SOL     OW21850   2.208   0.835   5.509
 6984SOL    HW121851   2.122   0.839   5.559
 6984SOL    HW221852   2.190   0.817   5.412
 6985SOL     OW21853   5.488   6.800   3.724
 6985SOL    HW121854   5.522   6.714   3.684
 6985SOL    HW221855   5.391   6.810   3.702
 6986SOL     OW21856   1.617   7.010   4.902
 6986SOL    HW121857   1.645   6.914   4.909
 6986SOL    HW221858   1.692   0.046   4.931
 6987SOL     OW21859   6.593   3.443   6.240
 6987SOL    HW121860   6.621   3.530   6.282
 6987SOL    HW221861   6.539   3.390   6.306
 6988SOL     OW21862   5.413   1.331   5.862
 6988SOL    HW121863   5.363   1.406   5.906
 6988SOL    HW221864   5.349   1.273   5.813
 6989SOL     OW21865   2.101   3.240   3.640
 6989SOL    HW121866   2.140   3.226   3.731
 6989SOL    HW221867   2.111   3.336   3.615
 6990SOL     OW21868   4.024   3.468   1.012
 6990SOL    HW121869   3.938   3.446   0.965
 6990SOL    HW221870   4.075   3.384   1.031
 6991SOL     OW21871   4.460   4.729   5.294
 6991SOL    HW121872   4.397   4.806   5.293
 6991SOL    HW221873   4.445   4.674   5.376
 6992SOL     OW21874   6.480   6.567   4.744
 6992SOL    HW121875   6.387   6.531   4.736
 6992SOL    HW221876   6.511   6.600   4.655
 6993SOL     OW21877   7.007   6.535   3.695
 6993SOL    HW121878   0.010   6.439   3.688
 6993SOL    HW221879   0.007   6.582   3.610
 6994SOL     OW21880   1.052   3.321   0.383
 6994SOL    HW121881   1.098   3.262   0.317
 6994SOL    HW221882   1.014   3.265   0.456
 6995SOL     OW21883   1.301   5.369   3.669
 6995SOL    HW121884   1.362   5.410   3.601
 6995SOL    HW221885   1.346   5.291   3.712
 6996SOL     OW21886   1.949   6.718   6.480
 6996SOL    HW121887   1.942   6.759   6.389
 6996SOL    HW221888   1.885   6.641   6.487
 6997SOL     OW21889   4.964   6.470   4.356
 6997SOL    HW121890   4.882   6.509   4.397
 6997SOL    HW221891   4.945   6.378   4.323
 6998SOL     OW21892   2.304   1.909   3.026
 6998SOL    HW121893   2.374   1.848   3.062
 6998SOL    HW221894   2.329   1.939   2.934
 6999SOL     OW21895   5.328   2.205   0.081
 6999SOL    HW121896   5.409   2.148   0.089
 6999SOL    HW221897   5.282   2.211   0.170
 7000SOL     OW21898   6.621   0.408   1.417
 7000SOL    HW121899   6.607   0.495   1.369
 7000SOL    HW221900   6.659   0.426   1.508
 7001SOL     OW21901   2.675   1.533   5.657
 7001SOL    HW121902   2.658   1.442   5.620
 7001SOL    HW221903   2.593   1.589   5.645
 7002SOL     OW21904   1.989   4.342   2.034
 7002SOL    HW121905   1.919   4.410   2.011
 7002SOL    HW221906   1.968   4.256   1.987
 7003SOL     OW21907   1.600   6.208   5.948
 7003SOL    HW121908   1.666   6.133   5.959
 7003SOL    HW221909   1.534   6.206   6.023
 7004SOL     OW21910   1.533   4.220   6.849
 7004SOL    HW121911   1.446   4.172   6.841
 7004SOL    HW221912   1.517   4.312   6.886
 7005SOL     OW21913   6.274   6.953   6.079
 7005SOL    HW121914   6.317   0.009   6.122
 7005SOL    HW221915   6.252   6.975   5.984
 7006SOL     OW21916   4.637   4.957   4.123
 7006SOL    HW121917   4.728   4.919   4.142
 7006SOL    HW221918   4.592   4.980   4.210
 7007SOL     OW21919   4.891   5.135   2.764
 7007SOL    HW121920   4.977   5.157   2.811
 7007SOL    HW221921   4.890   5.038   2.739
 7008SOL     OW21922   1.202   4.507   4.794
 7008SOL    HW121923   1.172   4.429   4.848
 7008SOL    HW221924   1.232   4.580   4.855
 7009SOL     OW21925   0.564   4.324   2.679
 7009SOL    HW121926   0.602   4.259   2.613
 7009SOL    HW221927   0.468   4.302   2.695
 7010SOL     OW21928   4.531   4.758   6.609
 7010SOL    HW121929   4.615   4.807   6.590
 7010SOL    HW221930   4.541   4.663   6.579
 7011SOL     OW21931   1.217   1.144   5.420
 7011SOL    HW121932   1.152   1.184   5.355
 7011SOL    HW221933   1.178   1.146   5.512
 7012SOL     OW21934   1.480   1.804   1.600
 7012SOL    HW121935   1.551   1.747   1.559
 7012SOL    HW221936   1.522   1.884   1.642
 7013SOL     OW21937   0.072   1.516   1.407
 7013SOL    HW121938   0.030   1.425   1.404
 7013SOL    HW221939   0.011   1.579   1.455
 7014SOL     OW21940   2.092   5.132   0.561
 7014SOL    HW121941   2.097   5.054   0.499
 7014SOL    HW221942   2.069   5.099   0.653
 7015SOL     OW21943   5.051   1.741   2.749
 7015SOL    HW121944   5.133   1.736   2.692
 7015SOL    HW221945   5.076   1.771   2.841
 7016SOL     OW21946   4.007   4.486   1.588
 7016SOL    HW121947   4.018   4.387   1.585
 7016SOL    HW221948   3.910   4.509   1.584
 7017SOL     OW21949   4.682   2.115   4.805
 7017SOL    HW121950   4.604   2.103   4.743
 7017SOL    HW221951   4.760   2.063   4.771
 7018SOL     OW21952   0.507   3.366   3.197
 7018SOL    HW121953   0.436   3.343   3.130
 7018SOL    HW221954   0.514   3.292   3.264
 7019SOL     OW21955   1.205   5.531   1.142
 7019SOL    HW121956   1.162   5.594   1.207
 7019SOL    HW221957   1.148   5.450   1.131
 7020SOL     OW21958   0.088   6.287   6.282
 7020SOL    HW121959   0.183   6.296   6.312
 7020SOL    HW221960   0.035   6.242   6.354
 7021SOL     OW21961   3.770   7.007   5.841
 7021SOL    HW121962   3.771   0.084   5.834
 7021SOL    HW221963   3.684   6.977   5.882
 7022SOL     OW21964   4.345   5.450   6.419
 7022SOL    HW121965   4.355   5.411   6.327
 7022SOL    HW221966   4.262   5.506   6.422
 7023SOL     OW21967   5.725   3.973   2.497
 7023SOL    HW121968   5.765   4.059   2.528
 7023SOL    HW221969   5.733   3.904   2.570
 7024SOL     OW21970   6.616   6.290   1.385
 7024SOL    HW121971   6.704   6.263   1.345
 7024SOL    HW221972   6.629   6.315   1.481
 7025SOL     OW21973   2.268   0.275   6.897
 7025SOL    HW121974   2.242   0.203   6.961
 7025SOL    HW221975   2.250   0.364   6.939
 7026SOL     OW21976   3.776   1.302   1.238
 7026SOL    HW121977   3.719   1.359   1.180
 7026SOL    HW221978   3.783   1.343   1.329
 7027SOL     OW21979   4.789   6.038   4.131
 7027SOL    HW121980   4.727   5.986   4.073
 7027SOL    HW221981   4.883   6.026   4.098
 7028SOL     OW21982   3.244   0.134   4.474
 7028SOL    HW121983   3.163   0.079   4.457
 7028SOL    HW221984   3.291   0.152   4.387
 7029SOL     OW21985   4.201   1.373   5.168
 7029SOL    HW121986   4.162   1.464   5.153
 7029SOL    HW221987   4.259   1.348   5.090
 7030SOL     OW21988   2.169   3.236   3.896
 7030SOL    HW121989   2.257   3.188   3.902
 7030SOL    HW221990   2.099   3.183   3.943
 7031SOL     OW21991   1.335   0.687   4.725
 7031SOL    HW121992   1.285   0.626   4.664
 7031SOL    HW221993   1.376   0.761   4.672
 7032SOL     OW21994   5.986   1.879   3.930
 7032SOL    HW121995   5.913   1.889   3.863
 7032SOL    HW221996   5.987   1.959   3.991
 7033SOL     OW21997   0.299   0.186   4.470
 7033SOL    HW121998   0.277   0.166   4.566
 7033SOL    HW221999   0.279   0.282   4.451
 7034SOL     OW22000   0.138   5.139   2.987
 7034SOL    HW122001   0.195   5.060   3.010
 7034SOL    HW222002   0.194   5.222   2.987
 7035SOL     OW22003   6.716   5.013   2.241
 7035SOL    HW122004   6.800   5.013   2.188
 7035SOL    HW222005   6.645   5.065   2.192
 7036SOL     OW22006   6.317   4.826   0.842
 7036SOL    HW122007   6.380   4.785   0.775
 7036SOL    HW222008   6.353   4.914   0.872
 7037SOL     OW22009   0.810   0.784   6.585
 7037SOL    HW122010   0.824   0.767   6.487
 7037SOL    HW222011   0.894   0.821   6.624
 7038SOL     OW22012   2.099   3.382   4.320
 7038SOL    HW122013   2.125   3.427   4.405
 7038SOL    HW222014   2.101   3.282   4.332
 7039SOL     OW22015   3.558   2.426   6.534
 7039SOL    HW122016   3.632   2.457   6.593
 7039SOL    HW222017   3.529   2.501   6.475
 7040SOL     OW22018   5.080   2.655   0.225
 7040SOL    HW122019   5.099   2.686   0.318
 7040SOL    HW222020   5.155   2.681   0.165
 7041SOL     OW22021   2.052   1.374   3.357
 7041SOL    HW122022   2.022   1.308   3.288
 7041SOL    HW222023   2.077   1.326   3.441
 7042SOL     OW22024   1.319   0.561   6.259
 7042SOL    HW122025   1.242   0.583   6.319
 7042SOL    HW222026   1.378   0.641   6.249
 7043SOL     OW22027   1.440   2.397   2.637
 7043SOL    HW122028   1.471   2.405   2.542
 7043SOL    HW222029   1.341   2.409   2.640
 7044SOL     OW22030   5.097   6.347   1.743
 7044SOL    HW122031   5.022   6.304   1.794
 7044SOL    HW222032   5.178   6.288   1.747
 7045SOL     OW22033   6.515   5.189   0.056
 7045SOL    HW122034   6.613   5.179   0.040
 7045SOL    HW222035   6.465   5.144   7.005
 7046SOL     OW22036   2.663   1.362   3.962
 7046SOL    HW122037   2.740   1.325   3.911
 7046SOL    HW222038   2.666   1.328   4.056
 7047SOL     OW22039   1.297   0.963   2.795
 7047SOL    HW122040   1.316   0.956   2.698
 7047SOL    HW222041   1.257   1.053   2.816
 7048SOL     OW22042   6.942   5.733   0.445
 7048SOL    HW122043   6.931   5.634   0.459
 7048SOL    HW222044   0.015   5.757   0.452
 7049SOL     OW22045   1.989   0.833   6.756
 7049SOL    HW122046   1.983   0.920   6.805
 7049SOL    HW222047   1.899   0.807   6.722
 7050SOL     OW22048   3.980   3.960   4.597
 7050SOL    HW122049   4.024   3.967   4.687
 7050SOL    HW222050   3.964   3.863   4.575
 7051SOL     OW22051   6.275   6.320   3.291
 7051SOL    HW122052   6.226   6.338   3.206
 7051SOL    HW222053   6.319   6.404   3.324
 7052SOL     OW22054   0.014   0.799   4.249
 7052SOL    HW122055   6.990   0.851   4.320
 7052SOL    HW222056   6.970   0.743   4.200
 7053SOL     OW22057   6.371   4.439   5.930
 7053SOL    HW122058   6.455   4.385   5.937
 7053SOL    HW222059   6.362   4.496   6.012
 7054SOL     OW22060   6.450   1.560   1.297
 7054SOL    HW122061   6.407   1.485   1.347
 7054SOL    HW222062   6.524   1.598   1.352
 7055SOL     OW22063   4.535   1.242   4.494
 7055SOL    HW122064   4.594   1.273   4.419
 7055SOL    HW222065   4.485   1.160   4.465
 7056SOL     OW22066   4.123   5.051   3.691
 7056SOL    HW122067   4.072   5.005   3.619
 7056SOL    HW222068   4.189   5.114   3.651
 7057SOL     OW22069   6.956   5.910   2.865
 7057SOL    HW122070   7.007   5.986   2.905
 7057SOL    HW222071   7.021   5.842   2.829
 7058SOL     OW22072   0.347   4.384   4.785
 7058SOL    HW122073   0.427   4.324   4.779
 7058SOL    HW222074   0.264   4.330   4.777
 7059SOL     OW22075   1.993   0.309   2.118
 7059SOL    HW122076   2.078   0.255   2.120
 7059SOL    HW222077   1.918   0.251   2.085
 7060SOL     OW22078   2.825   6.871   0.947
 7060SOL    HW122079   2.754   6.900   0.883
 7060SOL    HW222080   2.914   6.903   0.914
 7061SOL     OW22081   0.050   0.812   3.173
 7061SOL    HW122082   0.028   0.762   3.090
 7061SOL    HW222083   0.116   0.760   3.227
 7062SOL     OW22084   0.088   1.280   5.431
 7062SOL    HW122085   0.178   1.320   5.446
 7062SOL    HW222086   0.095   1.180   5.436
 7063SOL     OW22087   2.028   6.773   2.154
 7063SOL    HW122088   2.002   6.847   2.091
 7063SOL    HW222089   2.114   6.796   2.198
 7064SOL     OW22090   4.189   2.658   0.955
 7064SOL    HW122091   4.198   2.668   0.856
 7064SOL    HW222092   4.104   2.609   0.975
 7065SOL     OW22093   3.603   3.383   2.147
 7065SOL    HW122094   3.645   3.466   2.183
 7065SOL    HW222095   3.667   3.339   2.083
 7066SOL     OW22096   2.413   5.590   1.360
 7066SOL    HW122097   2.316   5.593   1.383
 7066SOL    HW222098   2.429   5.643   1.276
 7067SOL     OW22099   0.436   4.091   4.044
 7067SOL    HW122100   0.379   4.173   4.043
 7067SOL    HW222101   0.443   4.054   3.951
 7068SOL     OW22102   1.176   0.261   2.992
 7068SOL    HW122103   1.119   0.281   2.913
 7068SOL    HW222104   1.126   0.282   3.076
 7069SOL     OW22105   1.599   4.525   5.324
 7069SOL    HW122106   1.570   4.603   5.268
 7069SOL    HW222107   1.625   4.558   5.415
 7070SOL     OW22108   5.257   5.567   4.007
 7070SOL    HW122109   5.166   5.610   4.009
 7070SOL    HW222110   5.252   5.477   4.050
 7071SOL     OW22111   1.187   0.421   5.127
 7071SOL    HW122112   1.226   0.503   5.168
 7071SOL    HW222113   1.163   0.439   5.032
 7072SOL     OW22114   0.239   7.013   0.151
 7072SOL    HW122115   0.310   7.001   0.082
 7072SOL    HW222116   0.162   6.952   0.131
 7073SOL     OW22117   1.503   1.738   6.164
 7073SOL    HW122118   1.499   1.744   6.263
 7073SOL    HW222119   1.457   1.655   6.133
 7074SOL     OW22120   2.922   1.117   0.146
 7074SOL    HW122121   2.888   1.043   0.204
 7074SOL    HW222122   2.924   1.202   0.198
 7075SOL     OW22123   0.977   5.632   2.801
 7075SOL    HW122124   1.040   5.685   2.856
 7075SOL    HW222125   0.885   5.669   2.809
 7076SOL     OW22126   3.716   1.768   6.614
 7076SOL    HW122127   3.730   1.791   6.517
 7076SOL    HW222128   3.768   1.833   6.670
 7077SOL     OW22129   1.910   4.946   6.558
 7077SOL    HW122130   1.850   4.937   6.637
 7077SOL    HW222131   1.911   5.042   6.528
 7078SOL     OW22132   6.547   0.736   2.765
 7078SOL    HW122133   6.564   0.756   2.861
 7078SOL    HW222134   6.633   0.708   2.721
 7079SOL     OW22135   5.155   5.989   5.660
 7079SOL    HW122136   5.153   6.015   5.564
 7079SOL    HW222137   5.075   5.932   5.681
 7080SOL     OW22138   5.963   6.931   4.325
 7080SOL    HW122139   5.868   6.902   4.325
 7080SOL    HW222140   6.009   6.895   4.243
 7081SOL     OW22141   4.389   1.326   5.790
 7081SOL    HW122142   4.311   1.335   5.727
 7081SOL    HW222143   4.473   1.349   5.742
 7082SOL     OW22144   5.185   1.175   6.446
 7082SOL    HW122145   5.140   1.109   6.386
 7082SOL    HW222146   5.197   1.135   6.536
 7083SOL     OW22147   3.328   0.220   5.851
 7083SOL    HW122148   3.330   0.304   5.905
 7083SOL    HW222149   3.404   0.220   5.786
 7084SOL     OW22150   6.470   6.171   0.400
 7084SOL    HW122151   6.417   6.233   0.342
 7084SOL    HW222152   6.487   6.215   0.489
 7085SOL     OW22153   3.636   1.534   0.826
 7085SOL    HW122154   3.549   1.503   0.863
 7085SOL    HW222155   3.626   1.628   0.792
 7086SOL     OW22156   0.846   1.511   6.008
 7086SOL    HW122157   0.940   1.544   6.003
 7086SOL    HW222158   0.812   1.521   6.102
 7087SOL     OW22159   2.375   2.674   4.689
 7087SOL    HW122160   2.452   2.712   4.637
 7087SOL    HW222161   2.327   2.748   4.735
 7088SOL     OW22162   0.385   2.080   5.278
 7088SOL    HW122163   0.472   2.094   5.325
 7088SOL    HW222164   0.403   2.063   5.180
 7089SOL     OW22165   2.898   1.691   1.355
 7089SOL    HW122166   2.857   1.767   1.304
 7089SOL    HW222167   2.931   1.725   1.444
 7090SOL     OW22168   2.735   2.379   4.415
 7090SOL    HW122169   2.645   2.381   4.460
 7090SOL    HW222170   2.731   2.433   4.331
 7091SOL     OW22171   6.728   6.552   1.090
 7091SOL    HW122172   6.808   6.495   1.110
 7091SOL    HW222173   6.709   6.550   0.992
 7092SOL     OW22174   2.798   2.906   0.163
 7092SOL    HW122175   2.864   2.833   0.147
 7092SOL    HW222176   2.723   2.899   0.098
 7093SOL     OW22177   4.228   3.267   6.063
 7093SOL    HW122178   4.209   3.276   5.965
 7093SOL    HW222179   4.147   3.292   6.115
 7094SOL     OW22180   6.919   0.876   6.207
 7094SOL    HW122181   6.934   0.880   6.306
 7094SOL    HW222182   6.843   0.936   6.182
 7095SOL     OW22183   0.655   4.338   6.532
 7095SOL    HW122184   0.681   4.291   6.616
 7095SOL    HW222185   0.602   4.420   6.555
 7096SOL     OW22186   4.758   0.439   2.602
 7096SOL    HW122187   4.821   0.500   2.556
 7096SOL    HW222188   4.767   0.450   2.701
 7097SOL     OW22189   1.703   1.024   1.886
 7097SOL    HW122190   1.613   0.981   1.896
 7097SOL    HW222191   1.696   1.099   1.819
 7098SOL     OW22192   1.275   0.150   5.996
 7098SOL    HW122193   1.260   0.054   5.974
 7098SOL    HW222194   1.271   0.205   5.912
 7099SOL     OW22195   0.342   1.379   5.492
 7099SOL    HW122196   0.359   1.475   5.516
 7099SOL    HW222197   0.427   1.338   5.458
 7100SOL     OW22198   5.641   2.141   1.130
 7100SOL    HW122199   5.628   2.150   1.031
 7100SOL    HW222200   5.659   2.231   1.169
 7101SOL     OW22201   1.340   0.831   4.406
 7101SOL    HW122202   1.399   0.753   4.385
 7101SOL    HW222203   1.246   0.809   4.380
 7102SOL     OW22204   5.363   3.314   0.975
 7102SOL    HW122205   5.393   3.398   1.022
 7102SOL    HW222206   5.264   3.317   0.962
 7103SOL     OW22207   2.702   6.843   5.932
 7103SOL    HW122208   2.687   6.797   5.845
 7103SOL    HW222209   2.793   6.884   5.934
 7104SOL     OW22210   0.560   2.085   1.393
 7104SOL    HW122211   0.578   2.002   1.446
 7104SOL    HW222212   0.471   2.123   1.419
 7105SOL     OW22213   2.333   4.113   5.401
 7105SOL    HW122214   2.409   4.137   5.462
 7105SOL    HW222215   2.370   4.073   5.317
 7106SOL     OW22216   3.116   2.608   5.324
 7106SOL    HW122217   3.183   2.680   5.343
 7106SOL    HW222218   3.156   2.541   5.262
 7107SOL     OW22219   2.347   0.714   6.797
 7107SOL    HW122220   2.308   0.806   6.797
 7107SOL    HW222221   2.304   0.659   6.869
 7108SOL     OW22222   4.363   6.445   2.026
 7108SOL    HW122223   4.463   6.448   2.033
 7108SOL    HW222224   4.324   6.421   2.115
 7109SOL     OW22225   3.963   6.425   6.502
 7109SOL    HW122226   4.019   6.461   6.576
 7109SOL    HW222227   4.008   6.345   6.462
 7110SOL     OW22228   3.240   4.937   3.037
 7110SOL    HW122229   3.242   4.956   3.135
 7110SOL    HW222230   3.329   4.903   3.007
 7111SOL     OW22231   1.685   2.501   3.804
 7111SOL    HW122232   1.667   2.600   3.798
 7111SOL    HW222233   1.740   2.473   3.726
 7112SOL     OW22234   1.480   6.261   2.264
 7112SOL    HW122235   1.576   6.283   2.250
 7112SOL    HW222236   1.449   6.299   2.351
 7113SOL     OW22237   3.889   4.089   4.948
 7113SOL    HW122238   3.892   4.016   4.880
 7113SOL    HW222239   3.930   4.172   4.910
 7114SOL     OW22240   4.182   6.933   0.640
 7114SOL    HW122241   4.189   6.995   0.719
 7114SOL    HW222242   4.086   6.907   0.627
 7115SOL     OW22243   4.866   1.572   1.619
 7115SOL    HW122244   4.888   1.476   1.635
 7115SOL    HW222245   4.851   1.587   1.522
 7116SOL     OW22246   6.326   3.664   2.769
 7116SOL    HW122247   6.304   3.585   2.710
 7116SOL    HW222248   6.387   3.634   2.842
 7117SOL     OW22249   6.075   6.880   2.283
 7117SOL    HW122250   6.060   6.805   2.348
 7117SOL    HW222251   6.154   6.859   2.226
 7118SOL     OW22252   6.428   2.632   2.557
 7118SOL    HW122253   6.430   2.590   2.466
 7118SOL    HW222254   6.521   2.650   2.587
 7119SOL     OW22255   0.847   2.227   2.848
 7119SOL    HW122256   0.897   2.238   2.763
 7119SOL    HW222257   0.748   2.235   2.831
 7120SOL     OW22258   4.925   6.144   3.506
 7120SOL    HW122259   4.963   6.068   3.453
 7120SOL    HW222260   4.967   6.230   3.475
 7121SOL     OW22261   3.087   6.714   2.037
 7121SOL    HW122262   3.017   6.647   2.013
 7121SOL    HW222263   3.096   6.717   2.137
 7122SOL     OW22264   6.681   6.700   0.152
 7122SOL    HW122265   6.756   6.753   0.114
 7122SOL    HW222266   6.629   6.756   0.215
 7123SOL     OW22267   2.103   5.143   0.185
 7123SOL    HW122268   2.015   5.105   0.157
 7123SOL    HW222269   2.091   5.197   0.268
 7124SOL     OW22270   0.570   5.786   1.151
 7124SOL    HW122271   0.573   5.695   1.191
 7124SOL    HW222272   0.622   5.849   1.208
 7125SOL     OW22273   0.059   6.538   2.650
 7125SOL    HW122274   0.024   6.595   2.725
 7125SOL    HW222275   7.022   6.460   2.636
 7126SOL     OW22276   1.511   4.832   0.622
 7126SOL    HW122277   1.557   4.920   0.634
 7126SOL    HW222278   1.543   4.768   0.693
 7127SOL     OW22279   2.978   0.491   4.411
 7127SOL    HW122280   3.036   0.467   4.489
 7127SOL    HW222281   2.967   0.412   4.351
 7128SOL     OW22282   3.391   4.401   1.421
 7128SOL    HW122283   3.404   4.393   1.520
 7128SOL    HW222284   3.380   4.498   1.397
 7129SOL     OW22285   2.449   1.829   1.406
 7129SOL    HW122286   2.516   1.759   1.428
 7129SOL    HW222287   2.475   1.873   1.320
 7130SOL     OW22288   2.632   6.880   2.303
 7130SOL    HW122289   2.638   6.821   2.223
 7130SOL    HW222290   2.554   6.942   2.292
 7131SOL     OW22291   2.709   1.297   3.629
 7131SOL    HW122292   2.647   1.364   3.671
 7131SOL    HW222293   2.803   1.325   3.644
 7132SOL     OW22294   3.641   3.823   2.770
 7132SOL    HW122295   3.614   3.911   2.808
 7132SOL    HW222296   3.682   3.837   2.680
 7133SOL     OW22297   6.025   4.468   2.070
 7133SOL    HW122298   6.108   4.486   2.122
 7133SOL    HW222299   6.033   4.379   2.025
 7134SOL     OW22300   5.537   4.769   3.197
 7134SOL    HW122301   5.510   4.769   3.101
 7134SOL    HW222302   5.492   4.693   3.244
 7135SOL     OW22303   1.214   2.377   5.687
 7135SOL    HW122304   1.302   2.361   5.733
 7135SOL    HW222305   1.171   2.459   5.725
 7136SOL     OW22306   2.450   1.765   6.726
 7136SOL    HW122307   2.436   1.674   6.764
 7136SOL    HW222308   2.498   1.758   6.638
 7137SOL     OW22309   4.073   1.122   5.182
 7137SOL    HW122310   3.995   1.144   5.240
 7137SOL    HW222311   4.128   1.204   5.167
 7138SOL     OW22312   2.073   3.663   6.455
 7138SOL    HW122313   1.988   3.610   6.455
 7138SOL    HW222314   2.126   3.642   6.537
 7139SOL     OW22315   3.159   1.967   6.924
 7139SOL    HW122316   3.220   1.975   6.845
 7139SOL    HW222317   3.113   1.878   6.923
 7140SOL     OW22318   6.941   4.188   5.176
 7140SOL    HW122319   6.844   4.186   5.151
 7140SOL    HW222320   6.963   4.106   5.229
 7141SOL     OW22321   1.558   6.874   1.899
 7141SOL    HW122322   1.636   6.835   1.849
 7141SOL    HW222323   1.533   6.962   1.858
 7142SOL     OW22324   3.890   6.645   3.759
 7142SOL    HW122325   3.948   6.602   3.828
 7142SOL    HW222326   3.947   6.684   3.686
 7143SOL     OW22327   2.453   2.073   3.962
 7143SOL    HW122328   2.506   2.010   4.019
 7143SOL    HW222329   2.509   2.107   3.887
 7144SOL     OW22330   1.070   3.147   3.580
 7144SOL    HW122331   1.068   3.064   3.525
 7144SOL    HW222332   1.076   3.227   3.520
 7145SOL     OW22333   4.327   6.580   6.270
 7145SOL    HW122334   4.338   6.554   6.366
 7145SOL    HW222335   4.359   6.506   6.212
 7146SOL     OW22336   2.691   5.043   1.817
 7146SOL    HW122337   2.768   5.038   1.881
 7146SOL    HW222338   2.684   5.135   1.780
 7147SOL     OW22339   0.693   1.058   3.480
 7147SOL    HW122340   0.737   1.049   3.569
 7147SOL    HW222341   0.759   1.093   3.413
 7148SOL     OW22342   0.129   1.239   0.222
 7148SOL    HW122343   0.125   1.339   0.219
 7148SOL    HW222344   0.124   1.209   0.317
 7149SOL     OW22345   6.828   0.672   4.162
 7149SOL    HW122346   6.787   0.650   4.250
 7149SOL    HW222347   6.838   0.588   4.108
 7150SOL     OW22348   5.870   4.144   6.751
 7150SOL    HW122349   5.957   4.098   6.769
 7150SOL    HW222350   5.878   4.241   6.776
 7151SOL     OW22351   1.905   6.208   1.046
 7151SOL    HW122352   1.816   6.168   1.067
 7151SOL    HW222353   1.966   6.197   1.124
 7152SOL     OW22354   1.372   2.605   3.602
 7152SOL    HW122355   1.385   2.507   3.616
 7152SOL    HW222356   1.455   2.644   3.562
 7153SOL     OW22357   3.236   2.065   3.058
 7153SOL    HW122358   3.329   2.079   3.091
 7153SOL    HW222359   3.228   1.973   3.020
 7154SOL     OW22360   4.359   6.007   4.416
 7154SOL    HW122361   4.400   6.095   4.439
 7154SOL    HW222362   4.430   5.943   4.389
 7155SOL     OW22363   1.991   0.664   2.917
 7155SOL    HW122364   2.024   0.589   2.860
 7155SOL    HW222365   1.892   0.673   2.905
 7156SOL     OW22366   1.259   5.742   4.781
 7156SOL    HW122367   1.315   5.740   4.864
 7156SOL    HW222368   1.167   5.708   4.801
 7157SOL     OW22369   4.909   4.354   1.171
 7157SOL    HW122370   4.904   4.449   1.202
 7157SOL    HW222371   4.868   4.345   1.081
 7158SOL     OW22372   4.787   0.003   4.219
 7158SOL    HW122373   4.810   6.929   4.216
 7158SOL    HW222374   4.819   0.043   4.304
 7159SOL     OW22375   1.103   5.528   0.194
 7159SOL    HW122376   1.134   5.433   0.203
 7159SOL    HW222377   1.011   5.536   0.233
 7160SOL     OW22378   6.610   1.152   2.001
 7160SOL    HW122379   6.615   1.251   2.013
 7160SOL    HW222380   6.657   1.107   2.078
 7161SOL     OW22381   3.506   4.111   3.985
 7161SOL    HW122382   3.556   4.172   4.047
 7161SOL    HW222383   3.535   4.017   4.001
 7162SOL     OW22384   3.369   4.940   3.519
 7162SOL    HW122385   3.410   5.028   3.546
 7162SOL    HW222386   3.441   4.878   3.488
 7163SOL     OW22387   1.964   6.523   3.052
 7163SOL    HW122388   2.020   6.479   3.122
 7163SOL    HW222389   2.018   6.592   3.004
 7164SOL     OW22390   2.861   1.558   4.255
 7164SOL    HW122391   2.957   1.538   4.232
 7164SOL    HW222392   2.817   1.603   4.178
 7165SOL     OW22393   5.174   6.783   2.320
 7165SOL    HW122394   5.227   6.759   2.401
 7165SOL    HW222395   5.172   6.705   2.257
 7166SOL     OW22396   5.258   5.481   2.294
 7166SOL    HW122397   5.349   5.521   2.306
 7166SOL    HW222398   5.226   5.499   2.201
 7167SOL     OW22399   4.861   3.037   5.675
 7167SOL    HW122400   4.956   3.024   5.704
 7167SOL    HW222401   4.800   3.032   5.754
 7168SOL     OW22402   0.944   1.912   4.234
 7168SOL    HW122403   0.886   1.988   4.263
 7168SOL    HW222404   0.958   1.849   4.311
 7169SOL     OW22405   1.982   2.523   6.601
 7169SOL    HW122406   1.967   2.465   6.681
 7169SOL    HW222407   1.930   2.488   6.524
 7170SOL     OW22408   5.866   4.676   3.872
 7170SOL    HW122409   5.810   4.621   3.811
 7170SOL    HW222410   5.948   4.625   3.897
 7171SOL     OW22411   4.504   2.879   6.040
 7171SOL    HW122412   4.423   2.821   6.034
 7171SOL    HW222413   4.486   2.956   6.101
 7172SOL     OW22414   0.692   0.419   1.298
 7172SOL    HW122415   0.600   0.392   1.272
 7172SOL    HW222416   0.698   0.424   1.398
 7173SOL     OW22417   6.164   6.121   5.762
 7173SOL    HW122418   6.260   6.112   5.735
 7173SOL    HW222419   6.106   6.075   5.695
 7174SOL     OW22420   0.686   5.687   6.414
 7174SOL    HW122421   0.773   5.735   6.428
 7174SOL    HW222422   0.695   5.626   6.335
 7175SOL     OW22423   6.144   2.830   5.519
 7175SOL    HW122424   6.220   2.842   5.582
 7175SOL    HW222425   6.113   2.920   5.487
 7176SOL     OW22426   6.996   3.524   1.499
 7176SOL    HW122427   6.952   3.489   1.582
 7176SOL    HW222428   6.932   3.519   1.423
 7177SOL     OW22429   0.674   5.469   2.414
 7177SOL    HW122430   0.622   5.473   2.500
 7177SOL    HW222431   0.758   5.522   2.424
 7178SOL     OW22432   0.237   2.167   6.232
 7178SOL    HW122433   0.246   2.132   6.139
 7178SOL    HW222434   0.142   2.160   6.262
 7179SOL     OW22435   1.823   4.653   6.108
 7179SOL    HW122436   1.894   4.660   6.038
 7179SOL    HW222437   1.841   4.720   6.180
 7180SOL     OW22438   0.577   6.914   2.949
 7180SOL    HW122439   0.490   6.870   2.925
 7180SOL    HW222440   0.600   6.981   2.880
 7181SOL     OW22441   5.864   6.332   2.700
 7181SOL    HW122442   5.876   6.234   2.681
 7181SOL    HW222443   5.767   6.350   2.719
 7182SOL     OW22444   3.649   3.472   5.875
 7182SOL    HW122445   3.648   3.389   5.930
 7182SOL    HW222446   3.561   3.484   5.830
 7183SOL     OW22447   1.749   4.201   3.586
 7183SOL    HW122448   1.813   4.125   3.585
 7183SOL    HW222449   1.798   4.286   3.605
 7184SOL     OW22450   2.609   5.773   2.671
 7184SOL    HW122451   2.620   5.725   2.758
 7184SOL    HW222452   2.698   5.808   2.642
 7185SOL     OW22453   4.701   3.109   6.789
 7185SOL    HW122454   4.644   3.121   6.870
 7185SOL    HW222455   4.667   3.031   6.735
 7186SOL     OW22456   0.450   0.115   3.886
 7186SOL    HW122457   0.521   0.079   3.825
 7186SOL    HW222458   0.424   0.044   3.952
 7187SOL     OW22459   1.842   5.145   1.290
 7187SOL    HW122460   1.760   5.092   1.313
 7187SOL    HW222461   1.913   5.084   1.256
 7188SOL     OW22462   5.142   0.120   1.542
 7188SOL    HW122463   5.097   0.033   1.563
 7188SOL    HW222464   5.105   0.191   1.602
 7189SOL     OW22465   6.842   0.653   5.046
 7189SOL    HW122466   6.908   0.723   5.018
 7189SOL    HW222467   6.755   0.671   5.001
 7190SOL     OW22468   4.724   4.630   2.863
 7190SOL    HW122469   4.798   4.579   2.820
 7190SOL    HW222470   4.639   4.578   2.856
 7191SOL     OW22471   0.767   3.534   1.685
 7191SOL    HW122472   0.767   3.497   1.778
 7191SOL    HW222473   0.777   3.460   1.619
 7192SOL     OW22474   3.612   5.282   6.609
 7192SOL    HW122475   3.540   5.342   6.574
 7192SOL    HW222476   3.590   5.187   6.587
 7193SOL     OW22477   5.176   1.691   3.889
 7193SOL    HW122478   5.247   1.756   3.917
 7193SOL    HW222479   5.166   1.693   3.790
 7194SOL     OW22480   3.406   1.353   1.431
 7194SOL    HW122481   3.426   1.435   1.378
 7194SOL    HW222482   3.343   1.377   1.505
 7195SOL     OW22483   0.369   5.818   1.631
 7195SOL    HW122484   0.412   5.893   1.581
 7195SOL    HW222485   0.272   5.838   1.644
 7196SOL     OW22486   3.760   2.536   1.741
 7196SOL    HW122487   3.720   2.460   1.791
 7196SOL    HW222488   3.776   2.508   1.646
 7197SOL     OW22489   1.094   1.562   4.011
 7197SOL    HW122490   1.085   1.530   3.917
 7197SOL    HW222491   1.179   1.527   4.050
 7198SOL     OW22492   0.210   6.624   6.427
 7198SOL    HW122493   0.172   6.710   6.394
 7198SOL    HW222494   0.217   6.559   6.351
 7199SOL     OW22495   5.634   6.996   3.181
 7199SOL    HW122496   5.607   6.998   3.085
 7199SOL    HW222497   5.601   6.912   3.224
 7200SOL     OW22498   1.916   2.002   1.967
 7200SOL    HW122499   1.984   1.974   1.899
 7200SOL    HW222500   1.962   2.050   2.042
 7201SOL     OW22501   2.476   4.844   3.149
 7201SOL    HW122502   2.548   4.791   3.193
 7201SOL    HW222503   2.424   4.783   3.088
 7202SOL     OW22504   3.825   6.946   5.596
 7202SOL    HW122505   3.855   0.007   5.552
 7202SOL    HW222506   3.806   6.964   5.693
 7203SOL     OW22507   5.938   0.210   6.804
 7203SOL    HW122508   6.032   0.219   6.772
 7203SOL    HW222509   5.907   0.116   6.793
 7204SOL     OW22510   5.745   1.667   3.093
 7204SOL    HW122511   5.683   1.743   3.073
 7204SOL    HW222512   5.840   1.699   3.087
 7205SOL     OW22513   1.559   4.565   1.630
 7205SOL    HW122514   1.545   4.576   1.532
 7205SOL    HW222515   1.518   4.480   1.661
 7206SOL     OW22516   5.528   1.728   1.373
 7206SOL    HW122517   5.586   1.660   1.418
 7206SOL    HW222518   5.449   1.749   1.431
 7207SOL     OW22519   4.112   6.674   2.265
 7207SOL    HW122520   4.057   6.668   2.181
 7207SOL    HW222521   4.131   6.770   2.285
 7208SOL     OW22522   3.217   0.101   4.991
 7208SOL    HW122523   3.184   0.163   5.062
 7208SOL    HW222524   3.220   0.008   5.027
 7209SOL     OW22525   3.321   2.914   4.285
 7209SOL    HW122526   3.380   2.835   4.268
 7209SOL    HW222527   3.317   2.932   4.383
 7210SOL     OW22528   4.916   0.200   4.064
 7210SOL    HW122529   4.944   0.242   4.151
 7210SOL    HW222530   4.882   0.108   4.081
 7211SOL     OW22531   1.442   5.507   2.557
 7211SOL    HW122532   1.531   5.495   2.513
 7211SOL    HW222533   1.411   5.419   2.595
 7212SOL     OW22534   4.776   0.127   3.662
 7212SOL    HW122535   4.729   0.133   3.573
 7212SOL    HW222536   4.709   0.138   3.735
 7213SOL     OW22537   5.101   6.842   5.476
 7213SOL    HW122538   5.174   6.910   5.483
 7213SOL    HW222539   5.084   6.822   5.379
 7214SOL     OW22540   0.364   5.060   5.566
 7214SOL    HW122541   0.445   5.098   5.522
 7214SOL    HW222542   0.382   5.044   5.663
 7215SOL     OW22543   0.783   3.309   2.372
 7215SOL    HW122544   0.702   3.350   2.330
 7215SOL    HW222545   0.757   3.221   2.414
 7216SOL     OW22546   2.467   1.272   1.721
 7216SOL    HW122547   2.408   1.312   1.792
 7216SOL    HW222548   2.448   1.174   1.715
 7217SOL     OW22549   0.951   2.573   2.306
 7217SOL    HW122550   0.931   2.574   2.208
 7217SOL    HW222551   0.866   2.589   2.357
 7218SOL     OW22552   6.576   2.717   5.742
 7218SOL    HW122553   6.558   2.638   5.683
 7218SOL    HW222554   6.650   2.771   5.704
 7219SOL     OW22555   3.152   0.465   1.241
 7219SOL    HW122556   3.178   0.416   1.158
 7219SOL    HW222557   3.054   0.481   1.242
 7220SOL     OW22558   6.912   1.031   3.164
 7220SOL    HW122559   6.907   1.071   3.256
 7220SOL    HW222560   6.941   0.935   3.171
 7221SOL     OW22561   5.882   4.567   5.574
 7221SOL    HW122562   5.886   4.627   5.494
 7221SOL    HW222563   5.838   4.481   5.548
 7222SOL     OW22564   6.085   6.757   3.403
 7222SOL    HW122565   6.152   6.820   3.363
 7222SOL    HW222566   5.994   6.798   3.399
 7223SOL     OW22567   4.424   0.894   5.395
 7223SOL    HW122568   4.429   0.939   5.306
 7223SOL    HW222569   4.511   0.848   5.414
 7224SOL     OW22570   5.632   1.196   4.186
 7224SOL    HW122571   5.697   1.218   4.114
 7224SOL    HW222572   5.551   1.153   4.146
 7225SOL     OW22573   2.288   0.631   1.425
 7225SOL    HW122574   2.194   0.647   1.454
 7225SOL    HW222575   2.315   0.703   1.360
 7226SOL     OW22576   5.581   6.579   5.780
 7226SOL    HW122577   5.603   6.565   5.877
 7226SOL    HW222578   5.531   6.665   5.770
 7227SOL     OW22579   6.876   2.333   6.118
 7227SOL    HW122580   6.955   2.395   6.117
 7227SOL    HW222581   6.906   2.241   6.094
 7228SOL     OW22582   2.329   0.506   2.958
 7228SOL    HW122583   2.261   0.502   2.885
 7228SOL    HW222584   2.283   0.510   3.046
 7229SOL     OW22585   6.682   0.046   3.566
 7229SOL    HW122586   6.713   0.037   3.660
 7229SOL    HW222587   6.704   6.986   3.515
 7230SOL     OW22588   6.248   5.316   1.288
 7230SOL    HW122589   6.149   5.299   1.281
 7230SOL    HW222590   6.274   5.386   1.222
 7231SOL     OW22591   5.850   0.947   6.697
 7231SOL    HW122592   5.845   1.036   6.651
 7231SOL    HW222593   5.797   0.880   6.645
 7232SOL     OW22594   3.573   3.630   0.730
 7232SOL    HW122595   3.546   3.605   0.823
 7232SOL    HW222596   3.666   3.665   0.732
 7233SOL     OW22597   0.522   2.248   5.741
 7233SOL    HW122598   0.611   2.256   5.697
 7233SOL    HW222599   0.513   2.157   5.782
 7234SOL     OW22600   4.483   1.901   2.888
 7234SOL    HW122601   4.386   1.878   2.903
 7234SOL    HW222602   4.517   1.954   2.965
 7235SOL     OW22603   6.123   2.978   4.405
 7235SOL    HW122604   6.067   2.924   4.467
 7235SOL    HW222605   6.157   3.059   4.453
 7236SOL     OW22606   1.817   1.503   3.124
 7236SOL    HW122607   1.779   1.411   3.122
 7236SOL    HW222608   1.804   1.542   3.215
 7237SOL     OW22609   5.759   5.258   5.025
 7237SOL    HW122610   5.737   5.204   4.944
 7237SOL    HW222611   5.675   5.276   5.076
 7238SOL     OW22612   1.422   0.983   1.492
 7238SOL    HW122613   1.422   0.913   1.421
 7238SOL    HW222614   1.359   0.956   1.565
 7239SOL     OW22615   4.455   1.431   1.655
 7239SOL    HW122616   4.498   1.342   1.642
 7239SOL    HW222617   4.517   1.491   1.705
 7240SOL     OW22618   2.926   3.309   1.797
 7240SOL    HW122619   2.948   3.292   1.701
 7240SOL    HW222620   3.009   3.300   1.852
 7241SOL     OW22621   4.991   6.859   4.461
 7241SOL    HW122622   4.924   6.816   4.522
 7241SOL    HW222623   5.055   6.790   4.428
 7242SOL     OW22624   5.753   4.706   0.837
 7242SOL    HW122625   5.791   4.617   0.858
 7242SOL    HW222626   5.700   4.701   0.752
 7243SOL     OW22627   0.643   5.480   0.442
 7243SOL    HW122628   0.588   5.474   0.359
 7243SOL    HW222629   0.604   5.548   0.504
 7244SOL     OW22630   5.731   1.724   0.722
 7244SOL    HW122631   5.767   1.749   0.812
 7244SOL    HW222632   5.631   1.724   0.726
 7245SOL     OW22633   6.392   2.199   4.459
 7245SOL    HW122634   6.474   2.154   4.424
 7245SOL    HW222635   6.386   2.186   4.558
 7246SOL     OW22636   1.372   5.731   5.297
 7246SOL    HW122637   1.297   5.666   5.283
 7246SOL    HW222638   1.397   5.733   5.393
 7247SOL     OW22639   3.832   5.664   4.084
 7247SOL    HW122640   3.837   5.642   3.987
 7247SOL    HW222641   3.779   5.595   4.132
 7248SOL     OW22642   3.496   0.762   4.091
 7248SOL    HW122643   3.552   0.832   4.045
 7248SOL    HW222644   3.550   0.719   4.163
 7249SOL     OW22645   5.201   3.587   5.595
 7249SOL    HW122646   5.127   3.655   5.595
 7249SOL    HW222647   5.163   3.498   5.570
 7250SOL     OW22648   2.823   3.626   7.018
 7250SOL    HW122649   2.775   3.542   6.994
 7250SOL    HW222650   2.792   3.700   6.958
 7251SOL     OW22651   5.477   1.394   5.090
 7251SOL    HW122652   5.484   1.488   5.059
 7251SOL    HW222653   5.394   1.383   5.145
 7252SOL     OW22654   4.315   3.369   5.291
 7252SOL    HW122655   4.306   3.464   5.323
 7252SOL    HW222656   4.274   3.361   5.200
 7253SOL     OW22657   5.138   4.775   1.211
 7253SOL    HW122658   5.220   4.735   1.251
 7253SOL    HW222659   5.118   4.862   1.257
 7254SOL     OW22660   5.524   6.378   5.097
 7254SOL    HW122661   5.535   6.367   4.998
 7254SOL    HW222662   5.612   6.366   5.141
 7255SOL     OW22663   4.057   3.244   2.840
 7255SOL    HW122664   4.025   3.160   2.796
 7255SOL    HW222665   4.078   3.312   2.769
 7256SOL     OW22666   3.453   5.155   3.637
 7256SOL    HW122667   3.532   5.119   3.687
 7256SOL    HW222668   3.484   5.217   3.566
 7257SOL     OW22669   6.152   4.302   2.900
 7257SOL    HW122670   6.111   4.333   2.986
 7257SOL    HW222671   6.143   4.202   2.893
 7258SOL     OW22672   2.627   0.061   5.662
 7258SOL    HW122673   2.672   0.151   5.663
 7258SOL    HW222674   2.679   7.022   5.604
 7259SOL     OW22675   2.968   4.813   6.513
 7259SOL    HW122676   2.973   4.841   6.417
 7259SOL    HW222677   2.877   4.836   6.549
 7260SOL     OW22678   4.302   1.839   2.658
 7260SOL    HW122679   4.257   1.884   2.735
 7260SOL    HW222680   4.389   1.801   2.688
 7261SOL     OW22681   1.567   4.824   0.886
 7261SOL    HW122682   1.640   4.810   0.953
 7261SOL    HW222683   1.582   4.909   0.837
 7262SOL     OW22684   5.929   0.701   5.306
 7262SOL    HW122685   5.949   0.782   5.361
 7262SOL    HW222686   5.902   0.729   5.214
 7263SOL     OW22687   5.120   6.562   1.566
 7263SOL    HW122688   5.202   6.604   1.604
 7263SOL    HW222689   5.087   6.491   1.628
 7264SOL     OW22690   1.201   6.471   4.110
 7264SOL    HW122691   1.204   6.373   4.090
 7264SOL    HW222692   1.263   6.491   4.185
 7265SOL     OW22693   4.479   3.630   6.402
 7265SOL    HW122694   4.563   3.590   6.366
 7265SOL    HW222695   4.485   3.638   6.501
 7266SOL     OW22696   3.584   1.829   2.097
 7266SOL    HW122697   3.559   1.735   2.072
 7266SOL    HW222698   3.509   1.891   2.072
 7267SOL     OW22699   5.946   3.320   4.641
 7267SOL    HW122700   5.858   3.275   4.626
 7267SOL    HW222701   6.015   3.280   4.581
 7268SOL     OW22702   3.842   0.896   0.445
 7268SOL    HW122703   3.752   0.879   0.405
 7268SOL    HW222704   3.892   0.961   0.387
 7269SOL     OW22705   1.228   0.408   1.955
 7269SOL    HW122706   1.208   0.499   1.992
 7269SOL    HW222707   1.200   0.339   2.022
 7270SOL     OW22708   3.390   1.412   2.259
 7270SOL    HW122709   3.431   1.495   2.297
 7270SOL    HW222710   3.341   1.434   2.175
 7271SOL     OW22711   6.166   5.176   3.838
 7271SOL    HW122712   6.154   5.082   3.807
 7271SOL    HW222713   6.221   5.227   3.772
 7272SOL     OW22714   6.614   2.190   1.021
 7272SOL    HW122715   6.604   2.173   0.923
 7272SOL    HW222716   6.604   2.287   1.040
 7273SOL     OW22717   5.666   5.766   5.654
 7273SOL    HW122718   5.605   5.730   5.724
 7273SOL    HW222719   5.753   5.718   5.657
 7274SOL     OW22720   5.762   4.599   4.436
 7274SOL    HW122721   5.704   4.525   4.471
 7274SOL    HW222722   5.744   4.611   4.338
 7275SOL     OW22723   5.512   6.561   1.373
 7275SOL    HW122724   5.491   6.507   1.290
 7275SOL    HW222725   5.477   6.654   1.361
 7276SOL     OW22726   2.917   2.268   3.833
 7276SOL    HW122727   3.016   2.264   3.846
 7276SOL    HW222728   2.873   2.290   3.920
 7277SOL     OW22729   6.308   1.357   4.262
 7277SOL    HW122730   6.384   1.307   4.304
 7277SOL    HW222731   6.344   1.435   4.212
 7278SOL     OW22732   3.084   2.194   4.097
 7278SOL    HW122733   3.129   2.199   4.186
 7278SOL    HW222734   2.993   2.234   4.103
 7279SOL     OW22735   4.286   3.645   1.511
 7279SOL    HW122736   4.327   3.614   1.424
 7279SOL    HW222737   4.232   3.727   1.495
 7280SOL     OW22738   6.863   2.052   5.146
 7280SOL    HW122739   6.807   2.057   5.228
 7280SOL    HW222740   6.937   1.987   5.160
 7281SOL     OW22741   3.601   6.356   2.550
 7281SOL    HW122742   3.614   6.257   2.555
 7281SOL    HW222743   3.585   6.383   2.456
 7282SOL     OW22744   0.235   3.522   1.572
 7282SOL    HW122745   0.137   3.527   1.550
 7282SOL    HW222746   0.279   3.608   1.544
 7283SOL     OW22747   3.824   5.932   2.850
 7283SOL    HW122748   3.912   5.887   2.833
 7283SOL    HW222749   3.819   6.016   2.798
 7284SOL     OW22750   0.577   1.103   2.725
 7284SOL    HW122751   0.531   1.013   2.729
 7284SOL    HW222752   0.569   1.140   2.633
 7285SOL     OW22753   5.277   2.977   2.209
 7285SOL    HW122754   5.373   2.950   2.196
 7285SOL    HW222755   5.219   2.896   2.206
 7286SOL     OW22756   6.035   1.324   4.270
 7286SOL    HW122757   6.132   1.346   4.276
 7286SOL    HW222758   6.004   1.338   4.176
 7287SOL     OW22759   3.176   1.307   4.146
 7287SOL    HW122760   3.185   1.350   4.236
 7287SOL    HW222761   3.111   1.232   4.151
 7288SOL     OW22762   3.086   1.709   1.829
 7288SOL    HW122763   3.042   1.678   1.914
 7288SOL    HW222764   3.171   1.757   1.852
 7289SOL     OW22765   6.062   2.708   2.037
 7289SOL    HW122766   6.082   2.641   2.109
 7289SOL    HW222767   6.102   2.677   1.951
 7290SOL     OW22768   3.763   1.714   5.007
 7290SOL    HW122769   3.701   1.698   5.084
 7290SOL    HW222770   3.714   1.699   4.921
 7291SOL     OW22771   1.469   1.241   0.559
 7291SOL    HW122772   1.440   1.195   0.643
 7291SOL    HW222773   1.414   1.207   0.482
 7292SOL     OW22774   3.184   1.000   2.692
 7292SOL    HW122775   3.276   1.031   2.669
 7292SOL    HW222776   3.134   0.981   2.607
 7293SOL     OW22777   6.366   0.982   4.518
 7293SOL    HW122778   6.410   1.063   4.480
 7293SOL    HW222779   6.270   0.980   4.491
 7294SOL     OW22780   4.154   0.039   2.987
 7294SOL    HW122781   4.081   6.994   2.993
 7294SOL    HW222782   4.116   0.131   2.994
 7295SOL     OW22783   5.322   4.030   1.572
 7295SOL    HW122784   5.414   4.070   1.583
 7295SOL    HW222785   5.328   3.931   1.579
 7296SOL     OW22786   3.322   6.105   2.282
 7296SOL    HW122787   3.265   6.182   2.311
 7296SOL    HW222788   3.269   6.021   2.283
 7297SOL     OW22789   3.620   0.018   0.391
 7297SOL    HW122790   3.560   7.007   0.463
 7297SOL    HW222791   3.568   0.074   0.327
 7298SOL     OW22792   4.203   5.225   1.406
 7298SOL    HW122793   4.161   5.160   1.343
 7298SOL    HW222794   4.263   5.175   1.469
 7299SOL     OW22795   0.089   3.655   6.208
 7299SOL    HW122796   0.099   3.745   6.165
 7299SOL    HW222797   0.107   3.663   6.306
 7300SOL     OW22798   0.800   4.057   2.006
 7300SOL    HW122799   0.826   4.090   1.915
 7300SOL    HW222800   0.881   4.054   2.064
 7301SOL     OW22801   4.338   2.229   0.278
 7301SOL    HW122802   4.362   2.137   0.311
 7301SOL    HW222803   4.239   2.241   0.283
 7302SOL     OW22804   5.445   2.118   6.281
 7302SOL    HW122805   5.385   2.103   6.360
 7302SOL    HW222806   5.523   2.055   6.287
 7303SOL     OW22807   2.808   2.212   1.654
 7303SOL    HW122808   2.792   2.136   1.591
 7303SOL    HW222809   2.804   2.180   1.748
 7304SOL     OW22810   2.214   6.874   0.665
 7304SOL    HW122811   2.115   6.860   0.666
 7304SOL    HW222812   2.253   6.826   0.586
 7305SOL     OW22813   5.983   0.327   6.394
 7305SOL    HW122814   5.892   0.288   6.387
 7305SOL    HW222815   5.985   0.395   6.467
 7306SOL     OW22816   1.292   3.197   1.580
 7306SOL    HW122817   1.324   3.113   1.537
 7306SOL    HW222818   1.202   3.182   1.620
 7307SOL     OW22819   3.140   0.143   1.861
 7307SOL    HW122820   3.182   0.234   1.866
 7307SOL    HW222821   3.186   0.089   1.791
 7308SOL     OW22822   3.757   1.517   3.071
 7308SOL    HW122823   3.725   1.550   2.981
 7308SOL    HW222824   3.761   1.417   3.069
 7309SOL     OW22825   2.187   5.442   3.556
 7309SOL    HW122826   2.159   5.537   3.540
 7309SOL    HW222827   2.256   5.440   3.628
 7310SOL     OW22828   2.590   2.885   6.951
 7310SOL    HW122829   2.624   2.854   6.863
 7310SOL    HW222830   2.571   2.983   6.947
 7311SOL     OW22831   0.141   6.611   5.960
 7311SOL    HW122832   0.211   6.681   5.972
 7311SOL    HW222833   0.158   6.562   5.874
 7312SOL     OW22834   6.130   2.018   4.731
 7312SOL    HW122835   6.040   2.027   4.689
 7312SOL    HW222836   6.182   1.947   4.683
 7313SOL     OW22837   3.084   0.946   2.451
 7313SOL    HW122838   3.109   0.849   2.451
 7313SOL    HW222839   3.148   0.996   2.393
 7314SOL     OW22840   1.939   5.199   5.323
 7314SOL    HW122841   1.895   5.264   5.386
 7314SOL    HW222842   1.874   5.128   5.299
 7315SOL     OW22843   3.217   5.175   2.886
 7315SOL    HW122844   3.187   5.085   2.918
 7315SOL    HW222845   3.225   5.174   2.786
 7316SOL     OW22846   3.790   1.384   1.506
 7316SOL    HW122847   3.869   1.372   1.566
 7316SOL    HW222848   3.745   1.471   1.526
 7317SOL     OW22849   5.440   1.964   0.703
 7317SOL    HW122850   5.349   1.962   0.662
 7317SOL    HW222851   5.463   1.872   0.736
 7318SOL     OW22852   4.861   6.781   1.275
 7318SOL    HW122853   4.836   6.695   1.232
 7318SOL    HW222854   4.827   6.857   1.220
 7319SOL     OW22855   4.939   6.012   6.743
 7319SOL    HW122856   5.029   6.014   6.787
 7319SOL    HW222857   4.873   5.969   6.805
 7320SOL     OW22858   0.607   3.157   0.065
 7320SOL    HW122859   0.577   3.063   0.082
 7320SOL    HW222860   0.703   3.157   0.039
 7321SOL     OW22861   2.102   2.213   5.604
 7321SOL    HW122862   2.008   2.183   5.593
 7321SOL    HW222863   2.163   2.149   5.557
 7322SOL     OW22864   1.659   2.268   3.916
 7322SOL    HW122865   1.667   2.361   3.881
 7322SOL    HW222866   1.655   2.270   4.016
 7323SOL     OW22867   1.642   2.051   0.918
 7323SOL    HW122868   1.568   1.994   0.881
 7323SOL    HW222869   1.634   2.054   1.018
 7324SOL     OW22870   4.978   3.617   4.509
 7324SOL    HW122871   4.969   3.521   4.537
 7324SOL    HW222872   5.041   3.623   4.432
 7325SOL     OW22873   3.760   1.600   5.974
 7325SOL    HW122874   3.720   1.658   5.903
 7325SOL    HW222875   3.852   1.572   5.946
 7326SOL     OW22876   3.968   6.625   0.523
 7326SOL    HW122877   4.067   6.615   0.511
 7326SOL    HW222878   3.938   6.573   0.603
 7327SOL     OW22879   1.398   4.738   3.590
 7327SOL    HW122880   1.405   4.650   3.637
 7327SOL    HW222881   1.357   4.805   3.652
 7328SOL     OW22882   4.912   5.482   6.036
 7328SOL    HW122883   4.858   5.550   5.986
 7328SOL    HW222884   4.859   5.398   6.044
 7329SOL     OW22885   2.446   3.133   0.899
 7329SOL    HW122886   2.467   3.157   0.994
 7329SOL    HW222887   2.525   3.150   0.841
 7330SOL     OW22888   2.949   3.126   0.939
 7330SOL    HW122889   2.954   3.036   0.982
 7330SOL    HW222890   3.014   3.130   0.863
 7331SOL     OW22891   5.219   1.769   2.532
 7331SOL    HW122892   5.192   1.694   2.471
 7331SOL    HW222893   5.214   1.856   2.483
 7332SOL     OW22894   2.704   6.790   5.269
 7332SOL    HW122895   2.761   6.730   5.212
 7332SOL    HW222896   2.674   6.869   5.215
 7333SOL     OW22897   6.193   1.016   1.295
 7333SOL    HW122898   6.124   1.088   1.304
 7333SOL    HW222899   6.148   0.928   1.281
 7334SOL     OW22900   1.776   4.349   5.093
 7334SOL    HW122901   1.793   4.296   5.176
 7334SOL    HW222902   1.858   4.349   5.036
 7335SOL     OW22903   1.136   3.643   2.523
 7335SOL    HW122904   1.197   3.722   2.520
 7335SOL    HW222905   1.168   3.574   2.458
 7336SOL     OW22906   2.468   0.152   1.022
 7336SOL    HW122907   2.398   0.095   1.066
 7336SOL    HW222908   2.442   0.168   0.927
 7337SOL     OW22909   3.446   1.433   3.747
 7337SOL    HW122910   3.500   1.484   3.679
 7337SOL    HW222911   3.365   1.486   3.771
 7338SOL     OW22912   4.929   4.128   1.339
 7338SOL    HW122913   4.898   4.159   1.428
 7338SOL    HW222914   4.924   4.203   1.273
 7339SOL     OW22915   0.285   6.513   4.853
 7339SOL    HW122916   0.384   6.500   4.859
 7339SOL    HW222917   0.239   6.454   4.919
 7340SOL     OW22918   2.478   6.018   6.941
 7340SOL    HW122919   2.438   6.101   6.901
 7340SOL    HW222920   2.446   6.008   0.012
 7341SOL     OW22921   6.337   5.315   3.682
 7341SOL    HW122922   6.351   5.413   3.696
 7341SOL    HW222923   6.396   5.283   3.608
 7342SOL     OW22924   0.900   5.123   0.374
 7342SOL    HW122925   0.975   5.180   0.342
 7342SOL    HW222926   0.926   5.027   0.370
 7343SOL     OW22927   6.607   2.258   3.325
 7343SOL    HW122928   6.516   2.221   3.305
 7343SOL    HW222929   6.632   2.237   3.419
 7344SOL     OW22930   2.321   0.912   6.453
 7344SOL    HW122931   2.390   0.981   6.474
 7344SOL    HW222932   2.360   0.843   6.393
 7345SOL     OW22933   2.225   6.641   6.437
 7345SOL    HW122934   2.139   6.689   6.453
 7345SOL    HW222935   2.296   6.708   6.413
 7346SOL     OW22936   3.941   5.232   2.623
 7346SOL    HW122937   3.849   5.232   2.583
 7346SOL    HW222938   3.972   5.327   2.632
 7347SOL     OW22939   6.335   2.583   2.871
 7347SOL    HW122940   6.383   2.591   2.784
 7347SOL    HW222941   6.238   2.607   2.858
 7348SOL     OW22942   6.556   1.399   5.994
 7348SOL    HW122943   6.639   1.377   5.943
 7348SOL    HW222944   6.562   1.360   6.086
 7349SOL     OW22945   3.952   1.750   1.460
 7349SOL    HW122946   3.977   1.701   1.376
 7349SOL    HW222947   3.861   1.721   1.490
 7350SOL     OW22948   2.814   0.926   2.969
 7350SOL    HW122949   2.812   1.016   2.926
 7350SOL    HW222950   2.742   0.920   3.038
 7351SOL     OW22951   4.358   4.354   1.002
 7351SOL    HW122952   4.324   4.381   0.912
 7351SOL    HW222953   4.458   4.364   1.005
 7352SOL     OW22954   6.750   0.570   3.099
 7352SOL    HW122955   6.726   0.601   3.191
 7352SOL    HW222956   6.744   0.470   3.096
 7353SOL     OW22957   5.478   1.399   5.499
 7353SOL    HW122958   5.409   1.334   5.469
 7353SOL    HW222959   5.550   1.351   5.549
 7354SOL     OW22960   6.139   4.933   4.958
 7354SOL    HW122961   6.104   5.023   4.931
 7354SOL    HW222962   6.177   4.938   5.050
 7355SOL     OW22963   0.326   5.637   1.089
 7355SOL    HW122964   0.424   5.643   1.072
 7355SOL    HW222965   0.305   5.677   1.178
 7356SOL     OW22966   0.237   2.379   5.847
 7356SOL    HW122967   0.162   2.347   5.790
 7356SOL    HW222968   0.324   2.356   5.804
 7357SOL     OW22969   0.743   1.423   0.048
 7357SOL    HW122970   0.733   1.483   6.992
 7357SOL    HW222971   0.668   1.441   0.112
 7358SOL     OW22972   3.474   0.977   3.799
 7358SOL    HW122973   3.541   1.013   3.735
 7358SOL    HW222974   3.450   1.048   3.866
 7359SOL     OW22975   3.372   2.920   3.368
 7359SOL    HW122976   3.434   2.863   3.421
 7359SOL    HW222977   3.397   2.916   3.272
 7360SOL     OW22978   0.511   3.908   6.412
 7360SOL    HW122979   0.525   3.812   6.437
 7360SOL    HW222980   0.415   3.922   6.385
 7361SOL     OW22981   4.465   6.806   1.661
 7361SOL    HW122982   4.455   6.772   1.568
 7361SOL    HW222983   4.454   6.731   1.726
 7362SOL     OW22984   1.858   6.182   6.140
 7362SOL    HW122985   1.785   6.114   6.149
 7362SOL    HW222986   1.910   6.188   6.226
 7363SOL     OW22987   4.791   2.660   6.628
 7363SOL    HW122988   4.829   2.567   6.623
 7363SOL    HW222989   4.815   2.701   6.716
 7364SOL     OW22990   4.456   0.368   1.448
 7364SOL    HW122991   4.495   0.442   1.502
 7364SOL    HW222992   4.487   0.280   1.485
 7365SOL     OW22993   4.577   0.164   1.600
 7365SOL    HW122994   4.662   0.149   1.549
 7365SOL    HW222995   4.596   0.215   1.683
 7366SOL     OW22996   1.094   6.894   0.321
 7366SOL    HW122997   1.153   6.814   0.326
 7366SOL    HW222998   1.080   6.920   0.226
 7367SOL     OW22999   4.774   2.595   0.030
 7367SOL    HW123000   4.781   2.665   0.101
 7367SOL    HW223001   4.807   2.507   0.066
 7368SOL     OW23002   3.433   3.007   4.046
 7368SOL    HW123003   3.346   3.013   3.997
 7368SOL    HW223004   3.418   3.031   4.142
 7369SOL     OW23005   5.475   0.850   6.242
 7369SOL    HW123006   5.409   0.859   6.167
 7369SOL    HW223007   5.463   0.761   6.286
 7370SOL     OW23008   0.830   5.758   0.734
 7370SOL    HW123009   0.777   5.830   0.779
 7370SOL    HW223010   0.887   5.798   0.662
 7371SOL     OW23011   1.769   4.624   4.493
 7371SOL    HW123012   1.814   4.629   4.403
 7371SOL    HW223013   1.825   4.669   4.561
 7372SOL     OW23014   3.112   0.265   5.192
 7372SOL    HW123015   3.136   0.356   5.228
 7372SOL    HW223016   3.016   0.246   5.212
 7373SOL     OW23017   3.733   0.462   0.980
 7373SOL    HW123018   3.825   0.438   1.010
 7373SOL    HW223019   3.736   0.550   0.934
 7374SOL     OW23020   2.361   3.153   6.528
 7374SOL    HW123021   2.313   3.162   6.615
 7374SOL    HW223022   2.307   3.195   6.455
 7375SOL     OW23023   2.786   6.462   2.909
 7375SOL    HW123024   2.779   6.364   2.931
 7375SOL    HW223025   2.759   6.476   2.814
 7376SOL     OW23026   2.984   4.114   6.216
 7376SOL    HW123027   2.902   4.066   6.186
 7376SOL    HW223028   2.970   4.150   6.308
 7377SOL     OW23029   6.211   5.795   1.632
 7377SOL    HW123030   6.310   5.807   1.620
 7377SOL    HW223031   6.179   5.720   1.574
 7378SOL     OW23032   0.264   2.810   5.627
 7378SOL    HW123033   0.272   2.909   5.637
 7378SOL    HW223034   0.277   2.767   5.716
 7379SOL     OW23035   4.513   0.670   0.472
 7379SOL    HW123036   4.536   0.730   0.548
 7379SOL    HW223037   4.513   0.722   0.386
 7380SOL     OW23038   6.972   2.830   6.195
 7380SOL    HW123039   0.014   2.849   6.268
 7380SOL    HW223040   6.879   2.847   6.228
 7381SOL     OW23041   4.838   2.108   0.487
 7381SOL    HW123042   4.825   2.052   0.404
 7381SOL    HW223043   4.787   2.193   0.477
 7382SOL     OW23044   0.783   5.702   3.731
 7382SOL    HW123045   0.878   5.733   3.734
 7382SOL    HW223046   0.739   5.734   3.647
 7383SOL     OW23047   1.248   4.729   3.040
 7383SOL    HW123048   1.196   4.770   3.114
 7383SOL    HW223049   1.326   4.788   3.017
 7384SOL     OW23050   6.286   2.180   0.981
 7384SOL    HW123051   6.264   2.149   0.889
 7384SOL    HW223052   6.374   2.142   1.009
 7385SOL     OW23053   4.961   0.631   1.805
 7385SOL    HW123054   4.928   0.600   1.716
 7385SOL    HW223055   4.884   0.651   1.865
 7386SOL     OW23056   0.078   2.483   6.067
 7386SOL    HW123057   0.130   2.529   6.138
 7386SOL    HW223058   0.139   2.422   6.015
 7387SOL     OW23059   5.344   6.464   3.692
 7387SOL    HW123060   5.416   6.533   3.691
 7387SOL    HW223061   5.382   6.376   3.721
 7388SOL     OW23062   5.283   4.193   5.112
 7388SOL    HW123063   5.212   4.193   5.042
 7388SOL    HW223064   5.319   4.101   5.123
 7389SOL     OW23065   0.709   3.672   4.562
 7389SOL    HW123066   0.672   3.597   4.507
 7389SOL    HW223067   0.754   3.634   4.643
 7390SOL     OW23068   3.410   0.686   6.213
 7390SOL    HW123069   3.476   0.750   6.254
 7390SOL    HW223070   3.392   0.611   6.276
 7391SOL     OW23071   0.028   4.912   7.021
 7391SOL    HW123072   7.018   4.842   0.062
 7391SOL    HW223073   0.089   4.974   0.046
 7392SOL     OW23074   2.092   4.391   2.268
 7392SOL    HW123075   2.050   4.369   2.180
 7392SOL    HW223076   2.165   4.326   2.287
 7393SOL     OW23077   1.117   3.957   0.090
 7393SOL    HW123078   1.019   3.961   0.071
 7393SOL    HW223079   1.151   3.864   0.071
 7394SOL     OW23080   2.518   2.490   5.841
 7394SOL    HW123081   2.575   2.554   5.790
 7394SOL    HW223082   2.434   2.472   5.789
 7395SOL     OW23083   2.499   0.051   6.927
 7395SOL    HW123084   2.401   0.034   6.941
 7395SOL    HW223085   2.525   0.018   6.836
 7396SOL     OW23086   6.476   6.926   1.769
 7396SOL    HW123087   6.386   6.949   1.804
 7396SOL    HW223088   6.470   6.841   1.716
 7397SOL     OW23089   6.430   4.212   4.460
 7397SOL    HW123090   6.434   4.298   4.407
 7397SOL    HW223091   6.422   4.135   4.397
 7398SOL     OW23092   4.797   6.456   3.201
 7398SOL    HW123093   4.705   6.495   3.191
 7398SOL    HW223094   4.860   6.527   3.231
 7399SOL     OW23095   5.332   4.429   4.678
 7399SOL    HW123096   5.319   4.335   4.649
 7399SOL    HW223097   5.427   4.443   4.705
 7400SOL     OW23098   3.220   3.882   0.530
 7400SOL    HW123099   3.254   3.827   0.606
 7400SOL    HW223100   3.257   3.848   0.444
 7401SOL     OW23101   5.783   2.195   5.082
 7401SOL    HW123102   5.689   2.228   5.069
 7401SOL    HW223103   5.846   2.257   5.035
 7402SOL     OW23104   2.681   6.175   4.206
 7402SOL    HW123105   2.777   6.200   4.192
 7402SOL    HW223106   2.672   6.076   4.199
 7403SOL     OW23107   2.950   2.802   1.354
 7403SOL    HW123108   2.936   2.716   1.304
 7403SOL    HW223109   2.886   2.806   1.431
 7404SOL     OW23110   0.776   1.845   2.733
 7404SOL    HW123111   0.750   1.764   2.681
 7404SOL    HW223112   0.788   1.922   2.670
 7405SOL     OW23113   4.090   4.963   6.290
 7405SOL    HW123114   3.992   4.941   6.291
 7405SOL    HW223115   4.143   4.879   6.304
 7406SOL     OW23116   0.510   6.541   1.986
 7406SOL    HW123117   0.559   6.558   2.071
 7406SOL    HW223118   0.491   6.444   1.976
 7407SOL     OW23119   2.710   0.521   6.085
 7407SOL    HW123120   2.695   0.429   6.049
 7407SOL    HW223121   2.691   0.522   6.183
 7408SOL     OW23122   0.943   3.718   4.941
 7408SOL    HW123123   0.993   3.794   4.899
 7408SOL    HW223124   0.949   3.725   5.041
 7409SOL     OW23125   2.398   6.814   5.273
 7409SOL    HW123126   2.452   6.884   5.319
 7409SOL    HW223127   2.329   6.778   5.335
 7410SOL     OW23128   4.616   5.485   6.332
 7410SOL    HW123129   4.552   5.475   6.409
 7410SOL    HW223130   4.604   5.576   6.291
 7411SOL     OW23131   5.077   4.787   5.802
 7411SOL    HW123132   5.035   4.853   5.864
 7411SOL    HW223133   5.008   4.749   5.740
 7412SOL     OW23134   1.286   1.322   6.417
 7412SOL    HW123135   1.341   1.395   6.459
 7412SOL    HW223136   1.201   1.360   6.383
 7413SOL     OW23137   6.725   3.679   3.900
 7413SOL    HW123138   6.756   3.591   3.864
 7413SOL    HW223139   6.795   3.748   3.884
 7414SOL     OW23140   0.563   4.850   1.490
 7414SOL    HW123141   0.660   4.835   1.509
 7414SOL    HW223142   0.518   4.762   1.473
 7415SOL     OW23143   3.326   1.808   3.438
 7415SOL    HW123144   3.352   1.735   3.375
 7415SOL    HW223145   3.226   1.809   3.448
 7416SOL     OW23146   6.349   6.885   3.402
 7416SOL    HW123147   6.424   6.849   3.348
 7416SOL    HW223148   6.380   6.964   3.454
 7417SOL     OW23149   0.693   5.264   0.824
 7417SOL    HW123150   0.662   5.246   0.731
 7417SOL    HW223151   0.746   5.186   0.857
 7418SOL     OW23152   0.997   3.647   0.499
 7418SOL    HW123153   1.064   3.607   0.436
 7418SOL    HW223154   0.955   3.574   0.552
 7419SOL     OW23155   5.729   1.785   5.203
 7419SOL    HW123156   5.709   1.882   5.218
 7419SOL    HW223157   5.684   1.731   5.274
 7420SOL     OW23158   0.015   5.580   2.247
 7420SOL    HW123159   0.109   5.569   2.215
 7420SOL    HW223160   0.008   5.548   2.341
 7421SOL     OW23161   4.495   2.176   1.103
 7421SOL    HW123162   4.572   2.193   1.166
 7421SOL    HW223163   4.531   2.162   1.011
 7422SOL     OW23164   0.739   1.442   0.486
 7422SOL    HW123165   0.725   1.347   0.457
 7422SOL    HW223166   0.754   1.445   0.584
 7423SOL     OW23167   2.410   4.456   0.291
 7423SOL    HW123168   2.452   4.512   0.220
 7423SOL    HW223169   2.368   4.375   0.249
 7424SOL     OW23170   5.262   0.141   4.855
 7424SOL    HW123171   5.344   0.118   4.804
 7424SOL    HW223172   5.211   0.213   4.806
 7425SOL     OW23173   3.905   0.374   4.881
 7425SOL    HW123174   3.933   0.387   4.786
 7425SOL    HW223175   3.811   0.406   4.893
 7426SOL     OW23176   7.015   1.768   6.690
 7426SOL    HW123177   6.928   1.731   6.724
 7426SOL    HW223178   0.064   1.750   6.757
 7427SOL     OW23179   5.163   5.536   5.056
 7427SOL    HW123180   5.091   5.603   5.038
 7427SOL    HW223181   5.252   5.579   5.040
 7428SOL     OW23182   4.233   1.295   5.991
 7428SOL    HW123183   4.307   1.314   5.927
 7428SOL    HW223184   4.249   1.344   6.076
 7429SOL     OW23185   6.523   6.335   3.996
 7429SOL    HW123186   6.500   6.430   4.013
 7429SOL    HW223187   6.481   6.276   4.065
 7430SOL     OW23188   0.656   4.164   4.497
 7430SOL    HW123189   0.722   4.090   4.514
 7430SOL    HW223190   0.588   4.165   4.571
 7431SOL     OW23191   0.638   4.165   2.487
 7431SOL    HW123192   0.594   4.173   2.398
 7431SOL    HW223193   0.734   4.139   2.475
 7432SOL     OW23194   1.618   6.705   4.988
 7432SOL    HW123195   1.624   6.670   5.081
 7432SOL    HW223196   1.522   6.710   4.961
 7433SOL     OW23197   0.331   6.166   1.038
 7433SOL    HW123198   0.362   6.105   0.965
 7433SOL    HW223199   0.242   6.137   1.072
 7434SOL     OW23200   3.821   6.988   0.171
 7434SOL    HW123201   3.760   0.001   0.241
 7434SOL    HW223202   3.913   6.977   0.209
 7435SOL     OW23203   1.704   6.160   6.966
 7435SOL    HW123204   1.652   6.213   0.010
 7435SOL    HW223205   1.641   6.104   6.912
 7436SOL     OW23206   4.428   3.403   0.029
 7436SOL    HW123207   4.500   3.432   6.990
 7436SOL    HW223208   4.340   3.435   7.018
 7437SOL     OW23209   7.006   6.450   5.672
 7437SOL    HW123210   6.908   6.444   5.689
 7437SOL    HW223211   0.013   6.544   5.681
 7438SOL     OW23212   5.560   4.148   1.545
 7438SOL    HW123213   5.615   4.192   1.474
 7438SOL    HW223214   5.516   4.217   1.601
 7439SOL     OW23215   1.152   6.468   3.224
 7439SOL    HW123216   1.186   6.557   3.193
 7439SOL    HW223217   1.059   6.479   3.260
 7440SOL     OW23218   0.559   1.219   3.764
 7440SOL    HW123219   0.563   1.305   3.816
 7440SOL    HW223220   0.601   1.232   3.675
 7441SOL     OW23221   6.280   0.193   3.790
 7441SOL    HW123222   6.211   0.265   3.778
 7441SOL    HW223223   6.370   0.235   3.803
 7442SOL     OW23224   1.810   0.604   5.911
 7442SOL    HW123225   1.808   0.535   5.839
 7442SOL    HW223226   1.881   0.581   5.978
 7443SOL     OW23227   6.730   2.141   1.906
 7443SOL    HW123228   6.742   2.106   1.813
 7443SOL    HW223229   6.785   2.223   1.919
 7444SOL     OW23230   0.323   2.680   4.932
 7444SOL    HW123231   0.245   2.644   4.880
 7444SOL    HW223232   0.392   2.609   4.943
 7445SOL     OW23233   5.800   3.321   1.765
 7445SOL    HW123234   5.774   3.316   1.668
 7445SOL    HW223235   5.888   3.368   1.774
 7446SOL     OW23236   6.216   3.346   2.886
 7446SOL    HW123237   6.177   3.408   2.955
 7446SOL    HW223238   6.209   3.252   2.920
 7447SOL     OW23239   0.035   4.143   6.478
 7447SOL    HW123240   0.081   4.231   6.477
 7447SOL    HW223241   6.974   4.149   6.424
 7448SOL     OW23242   0.439   6.799   6.346
 7448SOL    HW123243   0.343   6.810   6.369
 7448SOL    HW223244   0.475   6.717   6.392
 7449SOL     OW23245   4.107   0.070   1.503
 7449SOL    HW123246   4.199   0.050   1.536
 7449SOL    HW223247   4.051   0.103   1.578
 7450SOL     OW23248   3.833   0.739   2.120
 7450SOL    HW123249   3.861   0.655   2.167
 7450SOL    HW223250   3.864   0.737   2.025
 7451SOL     OW23251   1.425   0.365   2.910
 7451SOL    HW123252   1.381   0.412   2.833
 7451SOL    HW223253   1.355   0.318   2.964
 7452SOL     OW23254   1.740   6.390   3.298
 7452SOL    HW123255   1.736   6.291   3.312
 7452SOL    HW223256   1.666   6.418   3.238
 7453SOL     OW23257   5.890   4.953   5.845
 7453SOL    HW123258   5.936   4.966   5.757
 7453SOL    HW223259   5.840   4.866   5.843
 7454SOL     OW23260   0.904   3.448   6.582
 7454SOL    HW123261   0.828   3.459   6.646
 7454SOL    HW223262   0.958   3.368   6.608
 7455SOL     OW23263   5.267   0.730   1.068
 7455SOL    HW123264   5.336   0.796   1.097
 7455SOL    HW223265   5.247   0.743   0.971
 7456SOL     OW23266   1.020   3.756   5.608
 7456SOL    HW123267   1.049   3.850   5.591
 7456SOL    HW223268   0.949   3.730   5.542
 7457SOL     OW23269   6.503   0.125   5.752
 7457SOL    HW123270   6.408   0.124   5.784
 7457SOL    HW223271   6.512   0.066   5.672
 7458SOL     OW23272   2.264   0.214   1.394
 7458SOL    HW123273   2.335   0.272   1.353
 7458SOL    HW223274   2.179   0.266   1.402
 7459SOL     OW23275   4.294   6.786   4.632
 7459SOL    HW123276   4.284   6.812   4.536
 7459SOL    HW223277   4.296   6.869   4.689
 7460SOL     OW23278   0.948   5.824   6.953
 7460SOL    HW123279   0.909   5.856   0.017
 7460SOL    HW223280   1.014   5.892   6.920
 7461SOL     OW23281   4.271   1.130   4.397
 7461SOL    HW123282   4.228   1.067   4.462
 7461SOL    HW223283   4.274   1.087   4.306
 7462SOL     OW23284   1.779   0.878   2.988
 7462SOL    HW123285   1.706   0.818   2.955
 7462SOL    HW223286   1.753   0.919   3.075
 7463SOL     OW23287   3.593   3.726   1.903
 7463SOL    HW123288   3.650   3.754   1.981
 7463SOL    HW223289   3.510   3.682   1.937
 7464SOL     OW23290   4.891   6.695   0.176
 7464SOL    HW123291   4.956   6.726   0.107
 7464SOL    HW223292   4.844   6.774   0.216
 7465SOL     OW23293   3.691   0.535   2.650
 7465SOL    HW123294   3.730   0.484   2.726
 7465SOL    HW223295   3.737   0.624   2.642
 7466SOL     OW23296   6.546   0.013   0.080
 7466SOL    HW123297   6.465   6.982   0.059
 7466SOL    HW223298   6.562   0.014   0.179
 7467SOL     OW23299   4.999   1.641   0.813
 7467SOL    HW123300   4.948   1.656   0.729
 7467SOL    HW223301   4.939   1.652   0.892
 7468SOL     OW23302   6.263   4.018   4.179
 7468SOL    HW123303   6.215   3.981   4.100
 7468SOL    HW223304   6.198   4.063   4.240
 7469SOL     OW23305   5.702   0.919   2.205
 7469SOL    HW123306   5.801   0.910   2.211
 7469SOL    HW223307   5.659   0.833   2.232
 7470SOL     OW23308   7.014   3.190   2.829
 7470SOL    HW123309   7.001   3.286   2.853
 7470SOL    HW223310   6.981   3.174   2.736
 7471SOL     OW23311   6.326   4.703   5.776
 7471SOL    HW123312   6.319   4.644   5.857
 7471SOL    HW223313   6.235   4.738   5.753
 7472SOL     OW23314   4.222   5.116   3.003
 7472SOL    HW123315   4.310   5.079   3.034
 7472SOL    HW223316   4.177   5.049   2.944
 7473SOL     OW23317   0.750   3.169   5.031
 7473SOL    HW123318   0.836   3.163   5.081
 7473SOL    HW223319   0.764   3.221   4.946
 7474SOL     OW23320   3.120   1.798   2.867
 7474SOL    HW123321   3.062   1.797   2.948
 7474SOL    HW223322   3.090   1.728   2.803
 7475SOL     OW23323   4.607   1.044   6.869
 7475SOL    HW123324   4.654   0.993   6.941
 7475SOL    HW223325   4.510   1.051   6.890
 7476SOL     OW23326   2.665   6.951   4.876
 7476SOL    HW123327   2.572   6.919   4.860
 7476SOL    HW223328   2.730   6.876   4.861
 7477SOL     OW23329   4.928   3.805   3.934
 7477SOL    HW123330   4.923   3.860   4.018
 7477SOL    HW223331   4.887   3.856   3.859
 7478SOL     OW23332   1.285   4.644   1.997
 7478SOL    HW123333   1.271   4.669   1.901
 7478SOL    HW223334   1.311   4.725   2.049
 7479SOL     OW23335   4.371   0.575   5.260
 7479SOL    HW123336   4.300   0.626   5.212
 7479SOL    HW223337   4.346   0.478   5.263
 7480SOL     OW23338   6.372   5.588   0.687
 7480SOL    HW123339   6.412   5.639   0.611
 7480SOL    HW223340   6.280   5.558   0.662
 7481SOL     OW23341   6.014   6.053   0.362
 7481SOL    HW123342   6.064   5.981   0.410
 7481SOL    HW223343   5.963   6.108   0.429
 7482SOL     OW23344   5.351   6.776   4.027
 7482SOL    HW123345   5.427   6.840   4.014
 7482SOL    HW223346   5.269   6.827   4.053
 7483SOL     OW23347   3.208   0.586   5.769
 7483SOL    HW123348   3.141   0.657   5.789
 7483SOL    HW223349   3.241   0.545   5.854
 7484SOL     OW23350   3.748   0.421   2.051
 7484SOL    HW123351   3.686   0.347   2.078
 7484SOL    HW223352   3.783   0.467   2.133
 7485SOL     OW23353   1.072   0.358   4.862
 7485SOL    HW123354   1.070   0.351   4.763
 7485SOL    HW223355   1.009   0.430   4.892
 7486SOL     OW23356   1.180   1.811   5.117
 7486SOL    HW123357   1.202   1.715   5.099
 7486SOL    HW223358   1.106   1.840   5.057
 7487SOL     OW23359   3.433   5.106   3.244
 7487SOL    HW123360   3.349   5.056   3.267
 7487SOL    HW223361   3.470   5.069   3.159
 7488SOL     OW23362   4.191   0.746   5.472
 7488SOL    HW123363   4.108   0.776   5.425
 7488SOL    HW223364   4.271   0.774   5.420
 7489SOL     OW23365   6.838   3.807   3.454
 7489SOL    HW123366   6.760   3.818   3.515
 7489SOL    HW223367   6.901   3.739   3.491
 7490SOL     OW23368   5.729   1.136   3.148
 7490SOL    HW123369   5.704   1.175   3.059
 7490SOL    HW223370   5.824   1.158   3.168
 7491SOL     OW23371   0.593   6.949   0.274
 7491SOL    HW123372   0.557   6.869   0.226
 7491SOL    HW223373   0.681   6.926   0.316
 7492SOL     OW23374   2.619   2.121   3.707
 7492SOL    HW123375   2.556   2.054   3.669
 7492SOL    HW223376   2.700   2.127   3.648
 7493SOL     OW23377   5.342   4.989   6.846
 7493SOL    HW123378   5.280   5.048   6.794
 7493SOL    HW223379   5.301   4.899   6.857
 7494SOL     OW23380   5.120   2.042   1.247
 7494SOL    HW123381   5.206   2.054   1.198
 7494SOL    HW223382   5.088   2.131   1.280
 7495SOL     OW23383   0.964   1.907   2.243
 7495SOL    HW123384   0.905   1.870   2.315
 7495SOL    HW223385   1.054   1.927   2.280
 7496SOL     OW23386   0.253   5.433   5.784
 7496SOL    HW123387   0.223   5.341   5.812
 7496SOL    HW223388   0.311   5.426   5.704
 7497SOL     OW23389   1.940   4.775   1.998
 7497SOL    HW123390   2.004   4.786   1.923
 7497SOL    HW223391   1.985   4.727   2.074
 7498SOL     OW23392   5.484   2.132   4.486
 7498SOL    HW123393   5.469   2.082   4.401
 7498SOL    HW223394   5.397   2.144   4.533
 7499SOL     OW23395   3.996   4.855   3.946
 7499SOL    HW123396   4.010   4.859   4.045
 7499SOL    HW223397   3.929   4.924   3.919
 7500SOL     OW23398   4.778   4.147   1.930
 7500SOL    HW123399   4.833   4.228   1.952
 7500SOL    HW223400   4.683   4.162   1.957
 7501SOL     OW23401   0.382   4.905   4.037
 7501SOL    HW123402   0.331   4.876   3.957
 7501SOL    HW223403   0.478   4.880   4.026
 7502SOL     OW23404   1.890   2.257   4.259
 7502SOL    HW123405   1.830   2.306   4.322
 7502SOL    HW223406   1.868   2.159   4.262
 7503SOL     OW23407   2.417   2.902   6.579
 7503SOL    HW123408   2.430   2.996   6.548
 7503SOL    HW223409   2.336   2.863   6.535
 7504SOL     OW23410   3.969   4.951   3.501
 7504SOL    HW123411   3.942   4.874   3.443
 7504SOL    HW223412   3.907   5.028   3.486
 7505SOL     OW23413   1.597   1.265   4.365
 7505SOL    HW123414   1.517   1.324   4.364
 7505SOL    HW223415   1.645   1.272   4.277
 7506SOL     OW23416   3.468   1.340   3.317
 7506SOL    HW123417   3.424   1.285   3.388
 7506SOL    HW223418   3.476   1.286   3.233
 7507SOL     OW23419   1.946   6.294   5.660
 7507SOL    HW123420   1.884   6.318   5.734
 7507SOL    HW223421   1.914   6.211   5.615
 7508SOL     OW23422   5.122   5.372   4.154
 7508SOL    HW123423   5.136   5.398   4.250
 7508SOL    HW223424   5.156   5.279   4.140
 7509SOL     OW23425   4.168   3.688   6.550
 7509SOL    HW123426   4.260   3.693   6.589
 7509SOL    HW223427   4.167   3.623   6.474
 7510SOL     OW23428   3.582   4.010   4.617
 7510SOL    HW123429   3.640   4.083   4.650
 7510SOL    HW223430   3.496   4.048   4.583
 7511SOL     OW23431   0.795   0.628   1.938
 7511SOL    HW123432   0.873   0.690   1.945
 7511SOL    HW223433   0.825   0.539   1.904
 7512SOL     OW23434   2.007   2.840   1.669
 7512SOL    HW123435   1.987   2.881   1.757
 7512SOL    HW223436   1.947   2.761   1.654
 7513SOL     OW23437   1.339   3.329   6.088
 7513SOL    HW123438   1.260   3.274   6.116
 7513SOL    HW223439   1.371   3.383   6.165
 7514SOL     OW23440   3.224   5.615   3.616
 7514SOL    HW123441   3.260   5.610   3.523
 7514SOL    HW223442   3.178   5.529   3.638
 7515SOL     OW23443   0.182   4.861   2.814
 7515SOL    HW123444   0.230   4.856   2.727
 7515SOL    HW223445   0.190   4.773   2.861
 7516SOL     OW23446   1.159   1.960   1.762
 7516SOL    HW123447   1.100   1.880   1.759
 7516SOL    HW223448   1.142   2.012   1.846
 7517SOL     OW23449   0.844   4.655   1.090
 7517SOL    HW123450   0.827   4.584   1.023
 7517SOL    HW223451   0.876   4.613   1.176
 7518SOL     OW23452   5.040   4.561   3.528
 7518SOL    HW123453   5.022   4.526   3.620
 7518SOL    HW223454   5.124   4.616   3.529
 7519SOL     OW23455   1.707   0.218   4.277
 7519SOL    HW123456   1.743   0.149   4.339
 7519SOL    HW223457   1.761   0.301   4.284
 7520SOL     OW23458   2.723   0.105   3.965
 7520SOL    HW123459   2.676   0.019   3.987
 7520SOL    HW223460   2.669   0.182   4.001
 7521SOL     OW23461   4.101   3.195   5.565
 7521SOL    HW123462   4.119   3.190   5.466
 7521SOL    HW223463   4.187   3.203   5.614
 7522SOL     OW23464   1.598   0.270   2.437
 7522SOL    HW123465   1.671   0.208   2.409
 7522SOL    HW223466   1.564   0.243   2.527
 7523SOL     OW23467   6.096   6.849   6.271
 7523SOL    HW123468   6.114   6.751   6.286
 7523SOL    HW223469   6.162   6.885   6.206
 7524SOL     OW23470   6.039   1.165   4.789
 7524SOL    HW123471   5.964   1.231   4.800
 7524SOL    HW223472   6.002   1.072   4.788
 7525SOL     OW23473   0.644   6.876   0.802
 7525SOL    HW123474   0.573   6.849   0.867
 7525SOL    HW223475   0.610   6.865   0.709
 7526SOL     OW23476   3.574   3.158   4.717
 7526SOL    HW123477   3.567   3.213   4.634
 7526SOL    HW223478   3.576   3.219   4.797
 7527SOL     OW23479   4.518   5.727   2.237
 7527SOL    HW123480   4.582   5.762   2.305
 7527SOL    HW223481   4.569   5.690   2.159
 7528SOL     OW23482   5.958   3.311   6.736
 7528SOL    HW123483   6.038   3.323   6.794
 7528SOL    HW223484   5.940   3.396   6.686
 7529SOL     OW23485   2.844   0.073   5.001
 7529SOL    HW123486   2.898   0.101   4.921
 7529SOL    HW223487   2.761   0.027   4.971
 7530SOL     OW23488   6.723   2.962   3.100
 7530SOL    HW123489   6.629   2.936   3.078
 7530SOL    HW223490   6.762   2.896   3.164
 7531SOL     OW23491   2.776   1.241   4.756
 7531SOL    HW123492   2.729   1.324   4.724
 7531SOL    HW223493   2.873   1.261   4.769
 7532SOL     OW23494   4.841   4.871   2.643
 7532SOL    HW123495   4.836   4.924   2.558
 7532SOL    HW223496   4.895   4.788   2.627
 7533SOL     OW23497   3.687   0.537   4.849
 7533SOL    HW123498   3.746   0.603   4.803
 7533SOL    HW223499   3.630   0.584   4.916
 7534SOL     OW23500   5.695   6.629   4.463
 7534SOL    HW123501   5.617   6.565   4.468
 7534SOL    HW223502   5.769   6.596   4.521
 7535SOL     OW23503   3.476   4.672   0.491
 7535SOL    HW123504   3.554   4.632   0.539
 7535SOL    HW223505   3.419   4.722   0.556
 7536SOL     OW23506   3.516   5.970   5.175
 7536SOL    HW123507   3.477   6.028   5.247
 7536SOL    HW223508   3.443   5.919   5.129
 7537SOL     OW23509   2.282   4.526   5.587
 7537SOL    HW123510   2.351   4.559   5.652
 7537SOL    HW223511   2.327   4.472   5.515
 7538SOL     OW23512   2.955   3.263   3.598
 7538SOL    HW123513   3.015   3.190   3.566
 7538SOL    HW223514   2.958   3.268   3.698
 7539SOL     OW23515   1.440   2.240   4.523
 7539SOL    HW123516   1.379   2.168   4.490
 7539SOL    HW223517   1.396   2.329   4.514
 7540SOL     OW23518   2.265   0.976   6.746
 7540SOL    HW123519   2.228   0.945   6.658
 7540SOL    HW223520   2.192   1.017   6.801
 7541SOL     OW23521   6.824   2.844   5.177
 7541SOL    HW123522   6.882   2.763   5.187
 7541SOL    HW223523   6.800   2.855   5.081
 7542SOL     OW23524   1.635   0.295   6.090
 7542SOL    HW123525   1.628   0.195   6.082
 7542SOL    HW223526   1.732   0.322   6.086
 7543SOL     OW23527   3.427   2.280   0.234
 7543SOL    HW123528   3.412   2.202   0.296
 7543SOL    HW223529   3.430   2.247   0.140
 7544SOL     OW23530   1.139   2.279   2.275
 7544SOL    HW123531   1.170   2.366   2.313
 7544SOL    HW223532   1.042   2.267   2.295
 7545SOL     OW23533   4.364   0.554   3.858
 7545SOL    HW123534   4.315   0.582   3.941
 7545SOL    HW223535   4.347   0.620   3.785
 7546SOL     OW23536   5.478   6.839   5.733
 7546SOL    HW123537   5.508   6.934   5.737
 7546SOL    HW223538   5.423   6.825   5.651
 7547SOL     OW23539   2.862   0.203   0.053
 7547SOL    HW123540   2.896   0.283   0.102
 7547SOL    HW223541   2.790   0.231   7.013
 7548SOL     OW23542   1.016   3.310   1.697
 7548SOL    HW123543   1.079   3.377   1.657
 7548SOL    HW223544   0.932   3.357   1.726
 7549SOL     OW23545   5.743   1.805   2.639
 7549SOL    HW123546   5.741   1.860   2.722
 7549SOL    HW223547   5.822   1.831   2.583
 7550SOL     OW23548   1.221   5.186   1.131
 7550SOL    HW123549   1.239   5.187   1.033
 7550SOL    HW223550   1.147   5.122   1.151
 7551SOL     OW23551   5.189   4.388   6.575
 7551SOL    HW123552   5.233   4.304   6.543
 7551SOL    HW223553   5.199   4.395   6.674
 7552SOL     OW23554   3.467   5.554   3.729
 7552SOL    HW123555   3.384   5.548   3.674
 7552SOL    HW223556   3.444   5.542   3.826
 7553SOL     OW23557   4.166   4.219   5.809
 7553SOL    HW123558   4.104   4.243   5.734
 7553SOL    HW223559   4.239   4.288   5.815
 7554SOL     OW23560   6.963   1.610   0.748
 7554SOL    HW123561   6.871   1.615   0.788
 7554SOL    HW223562   0.007   1.640   0.816
 7555SOL     OW23563   1.293   6.215   5.917
 7555SOL    HW123564   1.283   6.129   5.867
 7555SOL    HW223565   1.269   6.292   5.857
 7556SOL     OW23566   6.504   3.532   3.502
 7556SOL    HW123567   6.492   3.461   3.572
 7556SOL    HW223568   6.527   3.618   3.547
 7557SOL     OW23569   3.830   3.739   0.699
 7557SOL    HW123570   3.859   3.645   0.682
 7557SOL    HW223571   3.909   3.795   0.723
 7558SOL     OW23572   1.870   2.417   3.150
 7558SOL    HW123573   1.889   2.422   3.052
 7558SOL    HW223574   1.952   2.441   3.202
 7559SOL     OW23575   1.464   4.722   0.106
 7559SOL    HW123576   1.491   4.735   0.202
 7559SOL    HW223577   1.377   4.673   0.102
 7560SOL     OW23578   4.590   0.220   5.400
 7560SOL    HW123579   4.589   0.288   5.327
 7560SOL    HW223580   4.674   0.165   5.394
 7561SOL     OW23581   0.057   3.716   0.306
 7561SOL    HW123582   6.987   3.751   0.317
 7561SOL    HW223583   0.123   3.787   0.329
 7562SOL     OW23584   4.531   6.353   4.979
 7562SOL    HW123585   4.453   6.294   5.000
 7562SOL    HW223586   4.600   6.342   5.050
 7563SOL     OW23587   2.705   1.379   2.999
 7563SOL    HW123588   2.738   1.376   3.094
 7563SOL    HW223589   2.723   1.470   2.961
 7564SOL     OW23590   5.537   5.740   4.262
 7564SOL    HW123591   5.572   5.663   4.208
 7564SOL    HW223592   5.579   5.825   4.231
 7565SOL     OW23593   5.155   5.145   6.721
 7565SOL    HW123594   5.117   5.155   6.629
 7565SOL    HW223595   5.081   5.124   6.785
 7566SOL     OW23596   1.552   6.002   4.804
 7566SOL    HW123597   1.631   6.026   4.748
 7566SOL    HW223598   1.468   6.026   4.756
 7567SOL     OW23599   2.859   3.094   0.371
 7567SOL    HW123600   2.955   3.072   0.386
 7567SOL    HW223601   2.815   3.020   0.320
 7568SOL     OW23602   4.403   4.594   2.719
 7568SOL    HW123603   4.439   4.557   2.633
 7568SOL    HW223604   4.332   4.661   2.700
 7569SOL     OW23605   3.982   0.437   1.120
 7569SOL    HW123606   3.968   0.378   1.200
 7569SOL    HW223607   3.997   0.531   1.150
 7570SOL     OW23608   6.198   5.583   4.978
 7570SOL    HW123609   6.189   5.549   4.884
 7570SOL    HW223610   6.244   5.515   5.034
 7571SOL     OW23611   5.654   4.232   1.265
 7571SOL    HW123612   5.679   4.279   1.180
 7571SOL    HW223613   5.558   4.204   1.260
 7572SOL     OW23614   0.481   1.171   3.358
 7572SOL    HW123615   0.552   1.133   3.417
 7572SOL    HW223616   0.504   1.153   3.262
 7573SOL     OW23617   2.718   5.447   5.345
 7573SOL    HW123618   2.784   5.497   5.401
 7573SOL    HW223619   2.745   5.453   5.248
 7574SOL     OW23620   4.861   6.130   2.403
 7574SOL    HW123621   4.835   6.071   2.480
 7574SOL    HW223622   4.841   6.225   2.427
 7575SOL     OW23623   4.852   2.683   4.652
 7575SOL    HW123624   4.902   2.619   4.595
 7575SOL    HW223625   4.783   2.634   4.706
 7576SOL     OW23626   6.580   3.689   1.314
 7576SOL    HW123627   6.601   3.758   1.245
 7576SOL    HW223628   6.656   3.623   1.319
 7577SOL     OW23629   4.459   0.678   4.790
 7577SOL    HW123630   4.521   0.703   4.864
 7577SOL    HW223631   4.500   0.607   4.733
 7578SOL     OW23632   2.799   5.251   4.593
 7578SOL    HW123633   2.828   5.221   4.502
 7578SOL    HW223634   2.835   5.343   4.610
 7579SOL     OW23635   4.575   2.359   3.529
 7579SOL    HW123636   4.651   2.295   3.522
 7579SOL    HW223637   4.606   2.444   3.572
 7580SOL     OW23638   2.024   3.510   2.185
 7580SOL    HW123639   2.094   3.526   2.115
 7580SOL    HW223640   2.043   3.424   2.233
 7581SOL     OW23641   5.476   0.913   1.227
 7581SOL    HW123642   5.408   0.986   1.235
 7581SOL    HW223643   5.565   0.953   1.204
 7582SOL     OW23644   3.160   2.099   1.079
 7582SOL    HW123645   3.191   2.034   1.010
 7582SOL    HW223646   3.226   2.102   1.154
 7583SOL     OW23647   0.077   3.814   2.927
 7583SOL    HW123648   0.143   3.742   2.950
 7583SOL    HW223649   0.000   3.774   2.877
 7584SOL     OW23650   1.880   1.766   1.232
 7584SOL    HW123651   1.867   1.667   1.223
 7584SOL    HW223652   1.975   1.789   1.214
 7585SOL     OW23653   1.292   5.202   6.428
 7585SOL    HW123654   1.266   5.107   6.413
 7585SOL    HW223655   1.210   5.258   6.439
 7586SOL     OW23656   2.087   1.431   2.592
 7586SOL    HW123657   2.164   1.368   2.604
 7586SOL    HW223658   2.086   1.463   2.497
 7587SOL     OW23659   1.690   0.875   6.182
 7587SOL    HW123660   1.728   0.948   6.125
 7587SOL    HW223661   1.660   0.799   6.124
 7588SOL     OW23662   1.190   4.370   2.085
 7588SOL    HW123663   1.269   4.312   2.066
 7588SOL    HW223664   1.217   4.466   2.076
 7589SOL     OW23665   5.196   6.007   6.827
 7589SOL    HW123666   5.200   6.085   6.890
 7589SOL    HW223667   5.287   5.989   6.790
 7590SOL     OW23668   1.794   0.156   6.570
 7590SOL    HW123669   1.739   0.196   6.497
 7590SOL    HW223670   1.860   0.224   6.602
 7591SOL     OW23671   6.256   5.536   6.772
 7591SOL    HW123672   6.318   5.541   6.694
 7591SOL    HW223673   6.286   5.600   6.842
 7592SOL     OW23674   5.062   5.416   6.266
 7592SOL    HW123675   5.001   5.434   6.190
 7592SOL    HW223676   5.157   5.429   6.236
 7593SOL     OW23677   6.037   3.980   0.440
 7593SOL    HW123678   6.058   3.941   0.530
 7593SOL    HW223679   6.022   3.906   0.375
 7594SOL     OW23680   0.869   6.499   3.714
 7594SOL    HW123681   0.779   6.489   3.758
 7594SOL    HW223682   0.932   6.543   3.777
 7595SOL     OW23683   6.430   2.558   0.024
 7595SOL    HW123684   6.502   2.508   0.071
 7595SOL    HW223685   6.341   2.531   0.060
 7596SOL     OW23686   4.615   4.634   2.110
 7596SOL    HW123687   4.588   4.575   2.034
 7596SOL    HW223688   4.595   4.589   2.196
 7597SOL     OW23689   2.834   5.915   1.653
 7597SOL    HW123690   2.756   5.940   1.710
 7597SOL    HW223691   2.895   5.994   1.643
 7598SOL     OW23692   6.794   1.017   2.172
 7598SOL    HW123693   6.855   0.986   2.245
 7598SOL    HW223694   6.737   0.940   2.143
 7599SOL     OW23695   6.540   2.572   2.307
 7599SOL    HW123696   6.459   2.514   2.298
 7599SOL    HW223697   6.589   2.574   2.220
 7600SOL     OW23698   2.047   1.583   2.359
 7600SOL    HW123699   1.948   1.599   2.351
 7600SOL    HW223700   2.094   1.671   2.360
 7601SOL     OW23701   1.656   0.476   5.002
 7601SOL    HW123702   1.684   0.432   4.916
 7601SOL    HW223703   1.689   0.421   5.079
 7602SOL     OW23704   2.218   3.311   5.370
 7602SOL    HW123705   2.221   3.409   5.390
 7602SOL    HW223706   2.132   3.272   5.404
 7603SOL     OW23707   0.004   1.478   1.766
 7603SOL    HW123708   0.013   1.470   1.865
 7603SOL    HW223709   0.081   1.530   1.729
 7604SOL     OW23710   4.969   5.672   6.851
 7604SOL    HW123711   5.065   5.701   6.848
 7604SOL    HW223712   4.911   5.750   6.870
 7605SOL     OW23713   5.583   3.812   6.029
 7605SOL    HW123714   5.503   3.831   5.972
 7605SOL    HW223715   5.588   3.714   6.048
 7606SOL     OW23716   5.685   1.602   3.622
 7606SOL    HW123717   5.709   1.508   3.601
 7606SOL    HW223718   5.732   1.664   3.560
 7607SOL     OW23719   4.832   0.091   6.175
 7607SOL    HW123720   4.901   0.126   6.239
 7607SOL    HW223721   4.826   0.151   6.096
 7608SOL     OW23722   4.094   3.526   4.171
 7608SOL    HW123723   4.032   3.597   4.204
 7608SOL    HW223724   4.098   3.451   4.237
 7609SOL     OW23725   2.139   2.540   3.981
 7609SOL    HW123726   2.063   2.501   4.033
 7609SOL    HW223727   2.175   2.619   4.030
 7610SOL     OW23728   5.389   1.078   2.254
 7610SOL    HW123729   5.400   1.015   2.331
 7610SOL    HW223730   5.425   1.034   2.171
 7611SOL     OW23731   1.974   1.947   1.581
 7611SOL    HW123732   1.880   1.961   1.612
 7611SOL    HW223733   1.997   2.015   1.512
 7612SOL     OW23734   4.166   1.593   2.634
 7612SOL    HW123735   4.218   1.678   2.637
 7612SOL    HW223736   4.113   1.588   2.550
 7613SOL     OW23737   5.365   0.889   3.286
 7613SOL    HW123738   5.354   0.906   3.188
 7613SOL    HW223739   5.278   0.860   3.325
 7614SOL     OW23740   4.228   1.227   0.412
 7614SOL    HW123741   4.139   1.208   0.370
 7614SOL    HW223742   4.251   1.156   0.478
 7615SOL     OW23743   3.971   4.790   5.754
 7615SOL    HW123744   4.007   4.700   5.778
 7615SOL    HW223745   3.957   4.843   5.838
 7616SOL     OW23746   6.772   4.489   3.295
 7616SOL    HW123747   6.718   4.470   3.213
 7616SOL    HW223748   6.826   4.408   3.319
 7617SOL     OW23749   3.348   6.118   2.731
 7617SOL    HW123750   3.306   6.206   2.753
 7617SOL    HW223751   3.444   6.132   2.707
 7618SOL     OW23752   2.096   2.215   0.429
 7618SOL    HW123753   2.066   2.128   0.390
 7618SOL    HW223754   2.127   2.200   0.523
 7619SOL     OW23755   5.706   3.487   5.714
 7619SOL    HW123756   5.798   3.461   5.686
 7619SOL    HW223757   5.696   3.586   5.708
 7620SOL     OW23758   2.753   6.492   1.566
 7620SOL    HW123759   2.764   6.429   1.642
 7620SOL    HW223760   2.695   6.451   1.495
 7621SOL     OW23761   2.231   2.183   0.979
 7621SOL    HW123762   2.277   2.271   0.988
 7621SOL    HW223763   2.287   2.112   1.023
 7622SOL     OW23764   5.546   1.671   1.045
 7622SOL    HW123765   5.485   1.650   1.122
 7622SOL    HW223766   5.613   1.740   1.074
 7623SOL     OW23767   5.570   0.160   5.125
 7623SOL    HW123768   5.620   0.135   5.209
 7623SOL    HW223769   5.634   0.164   5.048
 7624SOL     OW23770   6.502   1.123   4.782
 7624SOL    HW123771   6.601   1.135   4.789
 7624SOL    HW223772   6.480   1.082   4.694
 7625SOL     OW23773   3.616   6.216   0.881
 7625SOL    HW123774   3.526   6.178   0.902
 7625SOL    HW223775   3.606   6.288   0.812
 7626SOL     OW23776   2.481   4.558   4.510
 7626SOL    HW123777   2.526   4.526   4.593
 7626SOL    HW223778   2.385   4.529   4.511
 7627SOL     OW23779   6.671   1.437   6.934
 7627SOL    HW123780   6.696   1.382   7.014
 7627SOL    HW223781   6.739   1.510   6.921
 7628SOL     OW23782   4.400   1.768   0.905
 7628SOL    HW123783   4.485   1.795   0.950
 7628SOL    HW223784   4.359   1.848   0.860
 7629SOL     OW23785   6.640   5.585   3.519
 7629SOL    HW123786   6.650   5.496   3.475
 7629SOL    HW223787   6.544   5.598   3.546
 7630SOL     OW23788   6.526   1.516   2.179
 7630SOL    HW123789   6.576   1.600   2.198
 7630SOL    HW223790   6.548   1.484   2.087
 7631SOL     OW23791   1.303   1.183   3.561
 7631SOL    HW123792   1.220   1.177   3.505
 7631SOL    HW223793   1.283   1.152   3.654
 7632SOL     OW23794   4.333   0.955   6.227
 7632SOL    HW123795   4.272   0.955   6.307
 7632SOL    HW223796   4.395   1.033   6.233
 7633SOL     OW23797   5.384   5.099   6.453
 7633SOL    HW123798   5.345   5.094   6.545
 7633SOL    HW223799   5.484   5.088   6.459
 7634SOL     OW23800   0.732   2.617   1.915
 7634SOL    HW123801   0.773   2.530   1.886
 7634SOL    HW223802   0.641   2.600   1.953
 7635SOL     OW23803   2.548   5.113   6.085
 7635SOL    HW123804   2.553   5.014   6.099
 7635SOL    HW223805   2.535   5.132   5.988
 7636SOL     OW23806   2.546   0.295   4.023
 7636SOL    HW123807   2.496   0.338   4.098
 7636SOL    HW223808   2.482   0.271   3.950
 7637SOL     OW23809   2.193   6.208   4.153
 7637SOL    HW123810   2.277   6.262   4.163
 7637SOL    HW223811   2.117   6.268   4.131
 7638SOL     OW23812   4.027   4.226   1.637
 7638SOL    HW123813   4.067   4.180   1.716
 7638SOL    HW223814   4.068   4.191   1.553
 7639SOL     OW23815   6.926   2.565   4.261
 7639SOL    HW123816   7.014   2.594   4.222
 7639SOL    HW223817   6.910   2.469   4.238
 7640SOL     OW23818   2.457   3.101   5.540
 7640SOL    HW123819   2.488   3.179   5.595
 7640SOL    HW223820   2.464   3.124   5.443
 7641SOL     OW23821   6.178   2.504   3.551
 7641SOL    HW123822   6.104   2.560   3.589
 7641SOL    HW223823   6.262   2.519   3.604
 7642SOL     OW23824   1.781   1.048   2.750
 7642SOL    HW123825   1.765   0.992   2.832
 7642SOL    HW223826   1.832   1.130   2.775
 7643SOL     OW23827   5.710   2.791   3.324
 7643SOL    HW123828   5.745   2.710   3.371
 7643SOL    HW223829   5.656   2.762   3.244
 7644SOL     OW23830   6.412   4.006   3.487
 7644SOL    HW123831   6.362   4.084   3.524
 7644SOL    HW223832   6.445   4.027   3.396
 7645SOL     OW23833   3.889   2.887   0.217
 7645SOL    HW123834   3.919   2.874   0.311
 7645SOL    HW223835   3.813   2.825   0.197
 7646SOL     OW23836   0.489   1.117   1.974
 7646SOL    HW123837   0.535   1.144   1.890
 7646SOL    HW223838   0.390   1.133   1.965
 7647SOL     OW23839   2.412   5.145   0.871
 7647SOL    HW123840   2.493   5.204   0.880
 7647SOL    HW223841   2.345   5.190   0.812
 7648SOL     OW23842   3.711   0.516   4.113
 7648SOL    HW123843   3.684   0.518   4.209
 7648SOL    HW223844   3.648   0.457   4.062
 7649SOL     OW23845   2.913   1.279   1.670
 7649SOL    HW123846   2.908   1.337   1.588
 7649SOL    HW223847   3.004   1.239   1.676
 7650SOL     OW23848   6.026   4.285   1.221
 7650SOL    HW123849   6.123   4.298   1.237
 7650SOL    HW223850   5.976   4.297   1.307
 7651SOL     OW23851   4.645   2.388   6.660
 7651SOL    HW123852   4.666   2.294   6.684
 7651SOL    HW223853   4.642   2.445   6.742
 7652SOL     OW23854   1.554   3.309   3.085
 7652SOL    HW123855   1.598   3.381   3.032
 7652SOL    HW223856   1.561   3.223   3.035
 7653SOL     OW23857   4.069   2.271   1.525
 7653SOL    HW123858   4.134   2.287   1.599
 7653SOL    HW223859   4.031   2.178   1.533
 7654SOL     OW23860   5.108   3.578   4.264
 7654SOL    HW123861   5.041   3.584   4.191
 7654SOL    HW223862   5.197   3.553   4.225
 7655SOL     OW23863   4.696   5.951   5.388
 7655SOL    HW123864   4.663   5.867   5.431
 7655SOL    HW223865   4.619   6.001   5.349
 7656SOL     OW23866   1.219   6.722   3.995
 7656SOL    HW123867   1.177   6.647   4.046
 7656SOL    HW223868   1.318   6.723   4.012
 7657SOL     OW23869   4.528   1.787   4.283
 7657SOL    HW123870   4.469   1.788   4.202
 7657SOL    HW223871   4.515   1.701   4.333
 7658SOL     OW23872   4.465   0.335   6.547
 7658SOL    HW123873   4.406   0.415   6.539
 7658SOL    HW223874   4.545   0.346   6.489
 7659SOL     OW23875   5.240   6.274   0.216
 7659SOL    HW123876   5.150   6.278   0.259
 7659SOL    HW223877   5.283   6.186   0.237
 7660SOL     OW23878   5.842   4.896   4.597
 7660SOL    HW123879   5.773   4.936   4.536
 7660SOL    HW223880   5.815   4.803   4.622
 7661SOL     OW23881   5.865   3.337   4.034
 7661SOL    HW123882   5.917   3.275   3.975
 7661SOL    HW223883   5.874   3.308   4.129
 7662SOL     OW23884   6.772   5.593   2.956
 7662SOL    HW123885   6.810   5.557   2.871
 7662SOL    HW223886   6.844   5.638   3.009
 7663SOL     OW23887   6.910   5.801   6.949
 7663SOL    HW123888   6.944   5.889   6.983
 7663SOL    HW223889   6.891   5.740   0.003
 7664SOL     OW23890   2.621   5.412   5.039
 7664SOL    HW123891   2.705   5.463   5.061
 7664SOL    HW223892   2.543   5.475   5.042
 7665SOL     OW23893   2.466   5.638   4.154
 7665SOL    HW123894   2.466   5.649   4.054
 7665SOL    HW223895   2.402   5.565   4.179
 7666SOL     OW23896   2.317   1.249   1.332
 7666SOL    HW123897   2.240   1.191   1.304
 7666SOL    HW223898   2.292   1.345   1.319
 7667SOL     OW23899   4.687   5.915   6.187
 7667SOL    HW123900   4.756   5.946   6.252
 7667SOL    HW223901   4.664   5.989   6.124
 7668SOL     OW23902   2.836   3.982   1.382
 7668SOL    HW123903   2.835   4.078   1.413
 7668SOL    HW223904   2.918   3.937   1.418
 7669SOL     OW23905   4.533   6.576   4.796
 7669SOL    HW123906   4.481   6.497   4.827
 7669SOL    HW223907   4.575   6.555   4.708
 7670SOL     OW23908   1.340   5.686   0.977
 7670SOL    HW123909   1.282   5.630   1.035
 7670SOL    HW223910   1.380   5.630   0.905
 7671SOL     OW23911   5.428   2.328   5.186
 7671SOL    HW123912   5.467   2.236   5.186
 7671SOL    HW223913   5.498   2.394   5.214
 7672SOL     OW23914   6.059   0.166   1.972
 7672SOL    HW123915   5.986   0.235   1.969
 7672SOL    HW223916   6.121   0.186   2.048
 7673SOL     OW23917   0.328   4.451   6.694
 7673SOL    HW123918   0.374   4.469   6.607
 7673SOL    HW223919   0.377   4.498   6.767
 7674SOL     OW23920   6.005   1.105   5.410
 7674SOL    HW123921   6.019   1.051   5.493
 7674SOL    HW223922   5.978   1.198   5.434
 7675SOL     OW23923   5.153   0.024   3.423
 7675SOL    HW123924   5.173   0.116   3.456
 7675SOL    HW223925   5.204   0.007   3.339
 7676SOL     OW23926   1.238   0.460   1.704
 7676SOL    HW123927   1.240   0.445   1.803
 7676SOL    HW223928   1.188   0.544   1.684
 7677SOL     OW23929   1.930   1.810   2.766
 7677SOL    HW123930   1.833   1.800   2.743
 7677SOL    HW223931   1.940   1.883   2.834
 7678SOL     OW23932   5.185   6.663   6.056
 7678SOL    HW123933   5.116   6.665   5.983
 7678SOL    HW223934   5.250   6.590   6.039
 7679SOL     OW23935   1.117   4.999   4.909
 7679SOL    HW123936   1.198   4.947   4.882
 7679SOL    HW223937   1.039   4.970   4.853
 7680SOL     OW23938   4.903   1.171   6.622
 7680SOL    HW123939   4.893   1.269   6.605
 7680SOL    HW223940   5.000   1.150   6.637
 7681SOL     OW23941   2.852   1.955   5.780
 7681SOL    HW123942   2.908   2.035   5.802
 7681SOL    HW223943   2.854   1.892   5.858
 7682SOL     OW23944   2.471   0.016   1.392
 7682SOL    HW123945   2.394   7.021   1.332
 7682SOL    HW223946   2.438   0.055   1.478
 7683SOL     OW23947   6.018   1.764   3.055
 7683SOL    HW123948   6.029   1.839   3.121
 7683SOL    HW223949   6.077   1.780   2.976
 7684SOL     OW23950   4.448   2.449   6.459
 7684SOL    HW123951   4.526   2.405   6.504
 7684SOL    HW223952   4.473   2.475   6.366
 7685SOL     OW23953   4.522   3.969   0.923
 7685SOL    HW123954   4.538   4.050   0.867
 7685SOL    HW223955   4.426   3.943   0.918
 7686SOL     OW23956   3.217   0.867   3.765
 7686SOL    HW123957   3.210   0.814   3.680
 7686SOL    HW223958   3.307   0.910   3.771
 7687SOL     OW23959   4.489   5.066   6.140
 7687SOL    HW123960   4.454   5.050   6.233
 7687SOL    HW223961   4.497   4.979   6.092
 7688SOL     OW23962   6.411   0.053   3.592
 7688SOL    HW123963   6.375   0.100   3.673
 7688SOL    HW223964   6.509   0.067   3.587
 7689SOL     OW23965   3.490   6.374   4.925
 7689SOL    HW123966   3.568   6.326   4.965
 7689SOL    HW223967   3.457   6.324   4.845
 7690SOL     OW23968   0.536   5.117   2.662
 7690SOL    HW123969   0.596   5.065   2.722
 7690SOL    HW223970   0.532   5.212   2.693
 7691SOL     OW23971   5.835   3.892   5.650
 7691SOL    HW123972   5.760   3.827   5.656
 7691SOL    HW223973   5.916   3.847   5.611
 7692SOL     OW23974   1.636   6.571   1.491
 7692SOL    HW123975   1.631   6.498   1.558
 7692SOL    HW223976   1.719   6.562   1.437
 7693SOL     OW23977   5.521   1.036   0.490
 7693SOL    HW123978   5.615   1.070   0.497
 7693SOL    HW223979   5.523   0.936   0.483
 7694SOL     OW23980   6.264   4.806   4.298
 7694SOL    HW123981   6.197   4.781   4.367
 7694SOL    HW223982   6.272   4.905   4.293
 7695SOL     OW23983   4.271   0.522   6.502
 7695SOL    HW123984   4.180   0.509   6.464
 7695SOL    HW223985   4.329   0.569   6.435
 7696SOL     OW23986   1.364   4.053   5.850
 7696SOL    HW123987   1.349   3.954   5.845
 7696SOL    HW223988   1.382   4.079   5.945
 7697SOL     OW23989   4.451   2.086   2.001
 7697SOL    HW123990   4.383   2.158   2.017
 7697SOL    HW223991   4.477   2.045   2.088
 7698SOL     OW23992   0.238   3.148   5.655
 7698SOL    HW123993   0.335   3.166   5.638
 7698SOL    HW223994   0.189   3.147   5.567
 7699SOL     OW23995   2.470   4.426   0.558
 7699SOL    HW123996   2.448   4.459   0.466
 7699SOL    HW223997   2.530   4.346   0.551
 7700SOL     OW23998   5.344   6.655   4.900
 7700SOL    HW123999   5.304   6.745   4.916
 7700SOL    HW224000   5.405   6.660   4.821
 7701SOL     OW24001   6.381   2.062   5.236
 7701SOL    HW124002   6.480   2.057   5.228
 7701SOL    HW224003   6.346   2.133   5.175
 7702SOL     OW24004   2.285   6.100   5.918
 7702SOL    HW124005   2.291   6.046   6.002
 7702SOL    HW224006   2.190   6.102   5.887
 7703SOL     OW24007   0.637   2.045   5.363
 7703SOL    HW124008   0.649   2.065   5.460
 7703SOL    HW224009   0.722   2.066   5.314
 7704SOL     OW24010   2.973   4.313   0.717
 7704SOL    HW124011   2.912   4.277   0.646
 7704SOL    HW224012   2.988   4.244   0.787
 7705SOL     OW24013   3.758   4.456   5.373
 7705SOL    HW124014   3.721   4.459   5.465
 7705SOL    HW224015   3.717   4.529   5.318
 7706SOL     OW24016   6.399   0.535   5.171
 7706SOL    HW124017   6.461   0.458   5.181
 7706SOL    HW224018   6.429   0.611   5.229
 7707SOL     OW24019   0.284   5.423   6.337
 7707SOL    HW124020   0.375   5.382   6.334
 7707SOL    HW224021   0.257   5.453   6.245
 7708SOL     OW24022   4.839   1.084   4.689
 7708SOL    HW124023   4.907   1.084   4.763
 7708SOL    HW224024   4.851   1.166   4.634
 7709SOL     OW24025   3.660   2.182   1.624
 7709SOL    HW124026   3.645   2.217   1.716
 7709SOL    HW224027   3.692   2.255   1.565
 7710SOL     OW24028   3.106   2.515   6.116
 7710SOL    HW124029   3.049   2.437   6.090
 7710SOL    HW224030   3.152   2.551   6.035
 7711SOL     OW24031   4.828   6.415   5.056
 7711SOL    HW124032   4.846   6.323   5.023
 7711SOL    HW224033   4.915   6.465   5.062
 7712SOL     OW24034   4.986   4.863   0.459
 7712SOL    HW124035   4.914   4.925   0.489
 7712SOL    HW224036   5.000   4.874   0.360
 7713SOL     OW24037   0.894   5.411   6.309
 7713SOL    HW124038   0.815   5.461   6.273
 7713SOL    HW224039   0.930   5.457   6.390
 7714SOL     OW24040   5.232   3.829   4.302
 7714SOL    HW124041   5.158   3.766   4.278
 7714SOL    HW224042   5.299   3.830   4.228
 7715SOL     OW24043   4.228   2.343   1.715
 7715SOL    HW124044   4.327   2.344   1.732
 7715SOL    HW224045   4.184   2.280   1.778
 7716SOL     OW24046   4.660   2.579   3.649
 7716SOL    HW124047   4.646   2.674   3.677
 7716SOL    HW224048   4.741   2.543   3.693
 7717SOL     OW24049   3.078   0.158   6.552
 7717SOL    HW124050   3.170   0.166   6.589
 7717SOL    HW224051   3.044   0.065   6.568
 7718SOL     OW24052   2.931   6.253   4.200
 7718SOL    HW124053   2.995   6.176   4.186
 7718SOL    HW224054   2.983   6.338   4.208
 7719SOL     OW24055   6.154   2.682   5.286
 7719SOL    HW124056   6.116   2.594   5.314
 7719SOL    HW224057   6.142   2.748   5.361
 7720SOL     OW24058   5.375   6.133   1.748
 7720SOL    HW124059   5.409   6.099   1.835
 7720SOL    HW224060   5.406   6.227   1.735
 7721SOL     OW24061   0.914   4.863   2.876
 7721SOL    HW124062   0.938   4.767   2.862
 7721SOL    HW224063   0.951   4.893   2.964
 7722SOL     OW24064   0.458   6.286   4.166
 7722SOL    HW124065   0.486   6.213   4.104
 7722SOL    HW224066   0.524   6.361   4.163
 7723SOL     OW24067   6.903   2.413   0.669
 7723SOL    HW124068   6.824   2.447   0.720
 7723SOL    HW224069   6.886   2.319   0.638
 7724SOL     OW24070   1.751   5.837   0.377
 7724SOL    HW124071   1.745   5.744   0.340
 7724SOL    HW224072   1.839   5.850   0.422
 7725SOL     OW24073   5.165   3.812   4.582
 7725SOL    HW124074   5.084   3.754   4.567
 7725SOL    HW224075   5.173   3.877   4.506
 7726SOL     OW24076   5.721   4.244   3.808
 7726SOL    HW124077   5.792   4.205   3.866
 7726SOL    HW224078   5.749   4.238   3.712
 7727SOL     OW24079   5.770   3.426   2.200
 7727SOL    HW124080   5.748   3.371   2.119
 7727SOL    HW224081   5.794   3.365   2.276
 7728SOL     OW24082   2.276   2.347   2.157
 7728SOL    HW124083   2.353   2.370   2.217
 7728SOL    HW224084   2.277   2.408   2.077
 7729SOL     OW24085   4.960   2.443   0.464
 7729SOL    HW124086   4.883   2.506   0.456
 7729SOL    HW224087   4.995   2.444   0.557
 7730SOL     OW24088   4.730   6.962   2.442
 7730SOL    HW124089   4.710   0.037   2.445
 7730SOL    HW224090   4.799   6.945   2.372
 7731SOL     OW24091   6.967   1.813   4.785
 7731SOL    HW124092   6.913   1.795   4.868
 7731SOL    HW224093   0.039   1.786   4.801
 7732SOL     OW24094   4.259   4.924   0.670
 7732SOL    HW124095   4.208   4.979   0.604
 7732SOL    HW224096   4.336   4.978   0.704
 7733SOL     OW24097   2.853   6.527   0.553
 7733SOL    HW124098   2.851   6.486   0.644
 7733SOL    HW224099   2.931   6.589   0.546
 7734SOL     OW24100   1.626   2.330   2.835
 7734SOL    HW124101   1.645   2.419   2.877
 7734SOL    HW224102   1.565   2.343   2.757
 7735SOL     OW24103   5.260   4.351   0.822
 7735SOL    HW124104   5.231   4.397   0.905
 7735SOL    HW224105   5.196   4.277   0.800
 7736SOL     OW24106   5.545   4.453   6.072
 7736SOL    HW124107   5.575   4.427   6.165
 7736SOL    HW224108   5.559   4.551   6.059
 7737SOL     OW24109   5.137   2.460   0.799
 7737SOL    HW124110   5.222   2.448   0.748
 7737SOL    HW224111   5.095   2.547   0.775
 7738SOL     OW24112   2.293   4.826   0.080
 7738SOL    HW124113   2.253   4.771   0.007
 7738SOL    HW224114   2.286   4.776   0.166
 7739SOL     OW24115   5.723   3.607   2.515
 7739SOL    HW124116   5.707   3.644   2.424
 7739SOL    HW224117   5.715   3.681   2.583
 7740SOL     OW24118   0.472   6.136   3.897
 7740SOL    HW124119   0.431   6.145   3.806
 7740SOL    HW224120   0.458   6.042   3.929
 7741SOL     OW24121   3.229   5.893   4.378
 7741SOL    HW124122   3.205   5.930   4.288
 7741SOL    HW224123   3.197   5.799   4.385
 7742SOL     OW24124   6.495   1.454   4.063
 7742SOL    HW124125   6.490   1.426   3.968
 7742SOL    HW224126   6.591   1.455   4.093
 7743SOL     OW24127   5.016   2.896   2.601
 7743SOL    HW124128   5.098   2.874   2.547
 7743SOL    HW224129   5.034   2.877   2.698
 7744SOL     OW24130   0.337   0.074   5.002
 7744SOL    HW124131   0.405   0.081   5.075
 7744SOL    HW224132   0.336   7.004   4.966
 7745SOL     OW24133   4.828   3.344   5.279
 7745SOL    HW124134   4.760   3.415   5.261
 7745SOL    HW224135   4.913   3.387   5.309
 7746SOL     OW24136   1.167   0.289   7.006
 7746SOL    HW124137   1.158   0.355   6.932
 7746SOL    HW224138   1.263   0.284   0.013
 7747SOL     OW24139   5.238   5.399   1.085
 7747SOL    HW124140   5.294   5.347   1.149
 7747SOL    HW224141   5.287   5.482   1.057
 7748SOL     OW24142   2.566   3.990   6.213
 7748SOL    HW124143   2.521   4.061   6.159
 7748SOL    HW224144   2.659   3.975   6.178
 7749SOL     OW24145   5.692   4.045   6.141
 7749SOL    HW124146   5.624   3.990   6.093
 7749SOL    HW224147   5.647   4.117   6.193
 7750SOL     OW24148   5.613   5.212   3.086
 7750SOL    HW124149   5.599   5.145   3.014
 7750SOL    HW224150   5.571   5.299   3.059
 7751SOL     OW24151   0.039   2.754   1.146
 7751SOL    HW124152   7.023   2.843   1.168
 7751SOL    HW224153   7.001   2.705   1.084
 7752SOL     OW24154   4.135   1.522   3.427
 7752SOL    HW124155   4.121   1.604   3.483
 7752SOL    HW224156   4.227   1.486   3.444
 7753SOL     OW24157   3.442   1.936   5.313
 7753SOL    HW124158   3.497   2.016   5.339
 7753SOL    HW224159   3.356   1.966   5.274
 7754SOL     OW24160   5.556   5.518   1.713
 7754SOL    HW124161   5.619   5.444   1.736
 7754SOL    HW224162   5.463   5.484   1.712
 7755SOL     OW24163   0.781   5.213   4.901
 7755SOL    HW124164   0.746   5.264   4.823
 7755SOL    HW224165   0.877   5.238   4.917
 7756SOL     OW24166   2.153   4.667   2.163
 7756SOL    HW124167   2.178   4.573   2.140
 7756SOL    HW224168   2.197   4.693   2.249
 7757SOL     OW24169   6.952   4.043   1.336
 7757SOL    HW124170   6.963   3.961   1.392
 7757SOL    HW224171   7.019   4.043   1.262
 7758SOL     OW24172   1.166   2.475   4.787
 7758SOL    HW124173   1.204   2.430   4.707
 7758SOL    HW224174   1.218   2.448   4.869
 7759SOL     OW24175   3.644   1.273   2.265
 7759SOL    HW124176   3.568   1.338   2.264
 7759SOL    HW224177   3.696   1.284   2.349
 7760SOL     OW24178   5.208   3.245   0.203
 7760SOL    HW124179   5.204   3.160   0.256
 7760SOL    HW224180   5.136   3.244   0.133
 7761SOL     OW24181   4.891   4.968   3.267
 7761SOL    HW124182   4.870   4.878   3.228
 7761SOL    HW224183   4.811   5.003   3.315
 7762SOL     OW24184   5.292   1.891   1.517
 7762SOL    HW124185   5.210   1.937   1.552
 7762SOL    HW224186   5.362   1.959   1.495
 7763SOL     OW24187   2.422   0.200   3.787
 7763SOL    HW124188   2.347   0.137   3.769
 7763SOL    HW224189   2.460   0.232   3.700
 7764SOL     OW24190   3.252   4.329   5.660
 7764SOL    HW124191   3.228   4.390   5.585
 7764SOL    HW224192   3.275   4.382   5.742
 7765SOL     OW24193   5.348   4.185   4.574
 7765SOL    HW124194   5.405   4.185   4.492
 7765SOL    HW224195   5.256   4.152   4.551
 7766SOL     OW24196   6.981   2.834   6.558
 7766SOL    HW124197   6.913   2.774   6.516
 7766SOL    HW224198   0.039   2.781   6.582
 7767SOL     OW24199   4.371   0.288   3.790
 7767SOL    HW124200   4.366   0.369   3.848
 7767SOL    HW224201   4.452   0.235   3.813
 7768SOL     OW24202   4.065   5.480   4.513
 7768SOL    HW124203   4.118   5.553   4.470
 7768SOL    HW224204   4.110   5.452   4.598
 7769SOL     OW24205   3.704   3.119   6.744
 7769SOL    HW124206   3.753   3.042   6.703
 7769SOL    HW224207   3.712   3.114   6.844
 7770SOL     OW24208   1.282   3.781   3.883
 7770SOL    HW124209   1.319   3.761   3.792
 7770SOL    HW224210   1.216   3.855   3.876
 7771SOL     OW24211   1.559   3.698   5.422
 7771SOL    HW124212   1.549   3.713   5.323
 7771SOL    HW224213   1.575   3.601   5.439
 7772SOL     OW24214   5.618   6.304   1.956
 7772SOL    HW124215   5.596   6.288   2.052
 7772SOL    HW224216   5.673   6.387   1.947
 7773SOL     OW24217   2.496   6.893   6.657
 7773SOL    HW124218   2.509   6.804   6.702
 7773SOL    HW224219   2.579   6.947   6.667
 7774SOL     OW24220   4.938   1.150   2.352
 7774SOL    HW124221   4.948   1.091   2.432
 7774SOL    HW224222   4.847   1.192   2.353
 7775SOL     OW24223   3.116   1.943   1.380
 7775SOL    HW124224   3.171   2.027   1.373
 7775SOL    HW224225   3.028   1.958   1.334
 7776SOL     OW24226   2.965   1.097   4.054
 7776SOL    HW124227   2.940   1.126   4.146
 7776SOL    HW224228   2.969   0.997   4.050
 7777SOL     OW24229   6.047   5.618   3.107
 7777SOL    HW124230   6.042   5.712   3.140
 7777SOL    HW224231   5.996   5.558   3.168
 7778SOL     OW24232   0.633   4.577   2.761
 7778SOL    HW124233   0.589   4.491   2.734
 7778SOL    HW224234   0.622   4.591   2.859
 7779SOL     OW24235   3.336   6.262   1.887
 7779SOL    HW124236   3.355   6.204   1.966
 7779SOL    HW224237   3.240   6.289   1.888
 7780SOL     OW24238   6.394   5.460   4.349
 7780SOL    HW124239   6.432   5.549   4.374
 7780SOL    HW224240   6.425   5.391   4.414
 7781SOL     OW24241   2.621   3.180   0.526
 7781SOL    HW124242   2.672   3.148   0.606
 7781SOL    HW224243   2.612   3.280   0.530
 7782SOL     OW24244   5.961   3.962   4.946
 7782SOL    HW124245   6.012   4.036   4.990
 7782SOL    HW224246   6.024   3.896   4.907
 7783SOL     OW24247   1.752   6.595   3.882
 7783SOL    HW124248   1.717   6.512   3.926
 7783SOL    HW224249   1.747   6.671   3.947
 7784SOL     OW24250   1.760   1.825   2.128
 7784SOL    HW124251   1.745   1.864   2.219
 7784SOL    HW224252   1.824   1.882   2.077
 7785SOL     OW24253   6.798   5.936   3.116
 7785SOL    HW124254   6.764   5.860   3.172
 7785SOL    HW224255   6.828   5.902   3.028
 7786SOL     OW24256   5.036   0.981   6.289
 7786SOL    HW124257   5.004   0.915   6.220
 7786SOL    HW224258   4.996   0.958   6.377
 7787SOL     OW24259   1.980   2.723   1.228
 7787SOL    HW124260   1.911   2.689   1.164
 7787SOL    HW224261   1.947   2.808   1.270
 7788SOL     OW24262   1.093   3.856   1.851
 7788SOL    HW124263   1.046   3.795   1.915
 7788SOL    HW224264   1.040   3.862   1.766
 7789SOL     OW24265   3.338   1.096   6.154
 7789SOL    HW124266   3.320   1.041   6.073
 7789SOL    HW224267   3.436   1.115   6.161
 7790SOL     OW24268   3.908   5.096   3.887
 7790SOL    HW124269   3.983   5.065   3.829
 7790SOL    HW224270   3.910   5.196   3.894
 7791SOL     OW24271   3.040   5.429   1.925
 7791SOL    HW124272   3.074   5.474   1.842
 7791SOL    HW224273   2.954   5.471   1.952
 7792SOL     OW24274   1.083   1.266   2.557
 7792SOL    HW124275   1.167   1.258   2.610
 7792SOL    HW224276   1.101   1.315   2.472
 7793SOL     OW24277   5.161   1.276   0.839
 7793SOL    HW124278   5.081   1.303   0.786
 7793SOL    HW224279   5.189   1.184   0.813
 7794SOL     OW24280   1.420   0.234   3.323
 7794SOL    HW124281   1.493   0.203   3.262
 7794SOL    HW224282   1.428   0.333   3.337
 7795SOL     OW24283   3.742   4.027   1.499
 7795SOL    HW124284   3.728   4.109   1.555
 7795SOL    HW224285   3.739   3.946   1.557
 7796SOL     OW24286   3.176   1.300   0.613
 7796SOL    HW124287   3.188   1.254   0.701
 7796SOL    HW224288   3.241   1.262   0.547
 7797SOL     OW24289   1.489   5.528   2.955
 7797SOL    HW124290   1.571   5.485   2.918
 7797SOL    HW224291   1.445   5.584   2.885
 7798SOL     OW24292   1.963   3.307   0.605
 7798SOL    HW124293   1.996   3.401   0.616
 7798SOL    HW224294   1.911   3.281   0.686
 7799SOL     OW24295   2.994   6.326   4.529
 7799SOL    HW124296   2.920   6.300   4.591
 7799SOL    HW224297   3.059   6.251   4.520
 7800SOL     OW24298   1.857   0.904   2.549
 7800SOL    HW124299   1.823   0.963   2.622
 7800SOL    HW224300   1.824   0.937   2.461
 7801SOL     OW24301   1.602   2.520   0.545
 7801SOL    HW124302   1.574   2.447   0.483
 7801SOL    HW224303   1.595   2.608   0.498
 7802SOL     OW24304   6.314   4.427   3.854
 7802SOL    HW124305   6.313   4.407   3.756
 7802SOL    HW224306   6.368   4.510   3.871
 7803SOL     OW24307   3.270   2.562   5.579
 7803SOL    HW124308   3.260   2.540   5.482
 7803SOL    HW224309   3.360   2.602   5.595
 7804SOL     OW24310   2.953   1.606   5.306
 7804SOL    HW124311   2.991   1.655   5.385
 7804SOL    HW224312   2.855   1.626   5.298
 7805SOL     OW24313   5.733   3.213   6.541
 7805SOL    HW124314   5.729   3.266   6.456
 7805SOL    HW224315   5.727   3.275   6.619
 7806SOL     OW24316   6.022   1.433   5.389
 7806SOL    HW124317   6.022   1.424   5.290
 7806SOL    HW224318   6.047   1.526   5.415
 7807SOL     OW24319   1.827   5.574   5.403
 7807SOL    HW124320   1.764   5.561   5.326
 7807SOL    HW224321   1.893   5.645   5.381
 7808SOL     OW24322   6.257   3.724   3.766
 7808SOL    HW124323   6.240   3.705   3.669
 7808SOL    HW224324   6.329   3.663   3.799
 7809SOL     OW24325   4.536   6.372   2.413
 7809SOL    HW124326   4.567   6.412   2.327
 7809SOL    HW224327   4.613   6.366   2.477
 7810SOL     OW24328   1.757   6.714   5.739
 7810SOL    HW124329   1.664   6.681   5.750
 7810SOL    HW224330   1.822   6.646   5.774
 7811SOL     OW24331   1.154   6.219   2.823
 7811SOL    HW124332   1.130   6.230   2.920
 7811SOL    HW224333   1.086   6.159   2.779
 7812SOL     OW24334   2.982   1.208   5.676
 7812SOL    HW124335   2.906   1.231   5.615
 7812SOL    HW224336   2.950   1.203   5.770
 7813SOL     OW24337   5.689   0.776   0.965
 7813SOL    HW124338   5.770   0.780   0.907
 7813SOL    HW224339   5.609   0.752   0.909
 7814SOL     OW24340   5.743   2.202   1.805
 7814SOL    HW124341   5.659   2.149   1.797
 7814SOL    HW224342   5.757   2.256   1.722
 7815SOL     OW24343   4.860   5.281   3.692
 7815SOL    HW124344   4.897   5.279   3.785
 7815SOL    HW224345   4.902   5.356   3.641
 7816SOL     OW24346   1.077   1.546   5.243
 7816SOL    HW124347   1.121   1.598   5.316
 7816SOL    HW224348   1.140   1.537   5.166
 7817SOL     OW24349   4.640   1.842   6.899
 7817SOL    HW124350   4.571   1.778   6.934
 7817SOL    HW224351   4.653   1.916   6.965
 7818SOL     OW24352   6.317   0.917   3.344
 7818SOL    HW124353   6.226   0.880   3.363
 7818SOL    HW224354   6.383   0.881   3.410
 7819SOL     OW24355   1.550   3.000   5.342
 7819SOL    HW124356   1.498   2.915   5.344
 7819SOL    HW224357   1.487   3.078   5.342
 7820SOL     OW24358   1.466   1.369   5.466
 7820SOL    HW124359   1.403   1.291   5.462
 7820SOL    HW224360   1.539   1.356   5.398
 7821SOL     OW24361   3.768   5.684   6.832
 7821SOL    HW124362   3.798   5.746   6.905
 7821SOL    HW224363   3.747   5.737   6.750
 7822SOL     OW24364   0.450   1.401   4.815
 7822SOL    HW124365   0.532   1.433   4.768
 7822SOL    HW224366   0.394   1.479   4.842
 7823SOL     OW24367   2.695   3.186   5.832
 7823SOL    HW124368   2.639   3.167   5.913
 7823SOL    HW224369   2.732   3.100   5.797
 7824SOL     OW24370   6.252   3.790   3.090
 7824SOL    HW124371   6.193   3.710   3.074
 7824SOL    HW224372   6.273   3.797   3.188
 7825SOL     OW24373   3.663   3.414   2.685
 7825SOL    HW124374   3.576   3.461   2.669
 7825SOL    HW224375   3.736   3.462   2.636
 7826SOL     OW24376   6.702   0.206   0.764
 7826SOL    HW124377   6.640   0.284   0.768
 7826SOL    HW224378   6.730   0.180   0.856
 7827SOL     OW24379   4.277   3.655   0.420
 7827SOL    HW124380   4.328   3.624   0.339
 7827SOL    HW224381   4.291   3.590   0.494
 7828SOL     OW24382   1.088   6.320   1.212
 7828SOL    HW124383   1.121   6.394   1.271
 7828SOL    HW224384   1.165   6.266   1.181
 7829SOL     OW24385   3.690   3.722   3.103
 7829SOL    HW124386   3.683   3.653   3.175
 7829SOL    HW224387   3.627   3.699   3.028
 7830SOL     OW24388   6.328   4.372   0.287
 7830SOL    HW124389   6.256   4.322   0.335
 7830SOL    HW224390   6.369   4.439   0.349
 7831SOL     OW24391   1.903   2.664   0.495
 7831SOL    HW124392   1.822   2.721   0.504
 7831SOL    HW224393   1.980   2.720   0.465
 7832SOL     OW24394   3.526   2.600   5.620
 7832SOL    HW124395   3.520   2.528   5.690
 7832SOL    HW224396   3.618   2.599   5.580
 7833SOL     OW24397   6.620   6.366   1.651
 7833SOL    HW124398   6.702   6.356   1.708
 7833SOL    HW224399   6.539   6.352   1.707
 7834SOL     OW24400   5.851   0.827   1.479
 7834SOL    HW124401   5.836   0.730   1.498
 7834SOL    HW224402   5.765   0.868   1.448
 7835SOL     OW24403   1.942   1.821   4.104
 7835SOL    HW124404   2.015   1.858   4.047
 7835SOL    HW224405   1.891   1.897   4.145
 7836SOL     OW24406   1.897   0.461   0.359
 7836SOL    HW124407   1.859   0.372   0.334
 7836SOL    HW224408   1.996   0.453   0.372
 7837SOL     OW24409   5.500   6.134   2.789
 7837SOL    HW124410   5.520   6.091   2.700
 7837SOL    HW224411   5.510   6.066   2.861
 7838SOL     OW24412   4.394   6.313   4.076
 7838SOL    HW124413   4.371   6.217   4.094
 7838SOL    HW224414   4.450   6.319   3.994
 7839SOL     OW24415   0.269   4.767   3.496
 7839SOL    HW124416   0.298   4.673   3.482
 7839SOL    HW224417   0.177   4.780   3.459
 7840SOL     OW24418   5.106   3.620   6.102
 7840SOL    HW124419   5.010   3.647   6.088
 7840SOL    HW224420   5.147   3.596   6.014
 7841SOL     OW24421   1.082   1.926   6.443
 7841SOL    HW124422   1.157   1.899   6.503
 7841SOL    HW224423   1.118   1.950   6.353
 7842SOL     OW24424   2.796   6.956   2.523
 7842SOL    HW124425   2.823   0.028   2.534
 7842SOL    HW224426   2.739   6.946   2.442
 7843SOL     OW24427   0.393   2.760   2.103
 7843SOL    HW124428   0.339   2.734   2.183
 7843SOL    HW224429   0.440   2.679   2.067
 7844SOL     OW24430   3.871   1.930   3.764
 7844SOL    HW124431   3.810   1.955   3.689
 7844SOL    HW224432   3.888   2.010   3.822
 7845SOL     OW24433   0.883   1.176   3.685
 7845SOL    HW124434   0.823   1.245   3.645
 7845SOL    HW224435   0.837   1.134   3.763
 7846SOL     OW24436   4.440   6.579   2.626
 7846SOL    HW124437   4.433   6.637   2.707
 7846SOL    HW224438   4.350   6.547   2.599
 7847SOL     OW24439   0.250   0.123   6.866
 7847SOL    HW124440   0.230   0.105   6.769
 7847SOL    HW224441   0.262   0.221   6.880
 7848SOL     OW24442   3.766   4.297   1.297
 7848SOL    HW124443   3.756   4.291   1.397
 7848SOL    HW224444   3.679   4.323   1.257
 7849SOL     OW24445   5.383   4.449   5.062
 7849SOL    HW124446   5.350   4.359   5.092
 7849SOL    HW224447   5.322   4.484   4.991
 7850SOL     OW24448   0.696   2.630   4.800
 7850SOL    HW124449   0.793   2.608   4.798
 7850SOL    HW224450   0.669   2.651   4.894
 7851SOL     OW24451   3.945   6.352   1.301
 7851SOL    HW124452   3.963   6.278   1.365
 7851SOL    HW224453   3.874   6.324   1.236
 7852SOL     OW24454   2.340   6.644   0.443
 7852SOL    HW124455   2.350   6.706   0.365
 7852SOL    HW224456   2.430   6.621   0.479
 7853SOL     OW24457   2.116   2.429   6.987
 7853SOL    HW124458   2.125   2.396   0.058
 7853SOL    HW224459   2.193   2.489   6.965
 7854SOL     OW24460   3.544   3.965   3.682
 7854SOL    HW124461   3.535   4.022   3.763
 7854SOL    HW224462   3.536   3.869   3.707
 7855SOL     OW24463   3.550   0.024   4.981
 7855SOL    HW124464   3.539   6.983   5.058
 7855SOL    HW224465   3.624   0.088   5.001
 7856SOL     OW24466   3.018   3.464   6.823
 7856SOL    HW124467   2.923   3.494   6.820
 7856SOL    HW224468   3.069   3.521   6.888
 7857SOL     OW24469   0.497   3.065   5.567
 7857SOL    HW124470   0.522   3.021   5.480
 7857SOL    HW224471   0.559   3.141   5.584
 7858SOL     OW24472   6.479   3.591   2.998
 7858SOL    HW124473   6.392   3.564   3.040
 7858SOL    HW224474   6.554   3.552   3.052
 7859SOL     OW24475   0.687   6.509   0.254
 7859SOL    HW124476   0.691   6.457   0.169
 7859SOL    HW224477   0.663   6.604   0.234
 7860SOL     OW24478   4.220   6.547   1.608
 7860SOL    HW124479   4.207   6.511   1.701
 7860SOL    HW224480   4.190   6.642   1.604
 7861SOL     OW24481   5.366   3.496   0.641
 7861SOL    HW124482   5.412   3.570   0.591
 7861SOL    HW224483   5.430   3.420   0.653
 7862SOL     OW24484   2.977   4.730   1.742
 7862SOL    HW124485   2.919   4.666   1.791
 7862SOL    HW224486   3.066   4.686   1.724
 7863SOL     OW24487   5.154   5.745   2.668
 7863SOL    HW124488   5.124   5.788   2.583
 7863SOL    HW224489   5.118   5.652   2.674
 7864SOL     OW24490   0.956   6.081   4.648
 7864SOL    HW124491   1.027   6.105   4.581
 7864SOL    HW224492   0.929   5.986   4.634
 7865SOL     OW24493   4.227   1.015   3.315
 7865SOL    HW124494   4.313   1.064   3.297
 7865SOL    HW224495   4.153   1.081   3.326
 7866SOL     OW24496   2.414   1.995   5.104
 7866SOL    HW124497   2.353   1.994   5.025
 7866SOL    HW224498   2.476   2.073   5.097
 7867SOL     OW24499   5.897   4.014   1.357
 7867SOL    HW124500   5.819   3.952   1.358
 7867SOL    HW224501   5.936   4.015   1.264
 7868SOL     OW24502   4.950   0.284   0.735
 7868SOL    HW124503   4.869   0.307   0.681
 7868SOL    HW224504   4.995   0.369   0.764
 7869SOL     OW24505   6.144   1.759   4.363
 7869SOL    HW124506   6.221   1.785   4.305
 7869SOL    HW224507   6.166   1.779   4.459
 7870SOL     OW24508   6.384   6.896   3.062
 7870SOL    HW124509   6.320   6.963   3.027
 7870SOL    HW224510   6.453   6.942   3.118
 7871SOL     OW24511   6.341   3.157   4.227
 7871SOL    HW124512   6.334   3.136   4.129
 7871SOL    HW224513   6.325   3.254   4.242
 7872SOL     OW24514   0.098   4.353   4.459
 7872SOL    HW124515   0.055   4.419   4.520
 7872SOL    HW224516   0.164   4.399   4.399
 7873SOL     OW24517   6.963   5.762   4.906
 7873SOL    HW124518   0.027   5.760   4.859
 7873SOL    HW224519   6.929   5.669   4.918
 7874SOL     OW24520   6.343   0.456   0.587
 7874SOL    HW124521   6.316   0.469   0.683
 7874SOL    HW224522   6.433   0.496   0.572
 7875SOL     OW24523   5.009   3.169   0.426
 7875SOL    HW124524   5.038   3.202   0.516
 7875SOL    HW224525   5.086   3.122   0.382
 7876SOL     OW24526   6.843   1.292   5.111
 7876SOL    HW124527   6.765   1.321   5.054
 7876SOL    HW224528   6.809   1.242   5.191
 7877SOL     OW24529   6.060   2.714   2.833
 7877SOL    HW124530   5.963   2.738   2.827
 7877SOL    HW224531   6.099   2.710   2.742
 7878SOL     OW24532   4.102   3.877   1.521
 7878SOL    HW124533   4.089   3.880   1.422
 7878SOL    HW224534   4.181   3.934   1.546
 7879SOL     OW24535   6.245   0.931   5.107
 7879SOL    HW124536   6.303   0.942   5.187
 7879SOL    HW224537   6.214   1.021   5.075
 7880SOL     OW24538   1.645   6.476   6.090
 7880SOL    HW124539   1.739   6.470   6.056
 7880SOL    HW224540   1.608   6.384   6.104
 7881SOL     OW24541   1.122   5.537   4.216
 7881SOL    HW124542   1.027   5.512   4.200
 7881SOL    HW224543   1.128   5.595   4.297
 7882SOL     OW24544   1.630   4.792   1.807
 7882SOL    HW124545   1.606   4.865   1.743
 7882SOL    HW224546   1.605   4.704   1.768
 7883SOL     OW24547   3.560   1.815   2.617
 7883SOL    HW124548   3.650   1.857   2.614
 7883SOL    HW224549   3.537   1.789   2.711
 7884SOL     OW24550   0.617   3.431   4.490
 7884SOL    HW124551   0.539   3.395   4.439
 7884SOL    HW224552   0.702   3.390   4.455
 7885SOL     OW24553   6.129   5.320   2.450
 7885SOL    HW124554   6.040   5.346   2.413
 7885SOL    HW224555   6.200   5.377   2.408
 7886SOL     OW24556   4.864   3.996   2.453
 7886SOL    HW124557   4.948   4.050   2.448
 7886SOL    HW224558   4.860   3.948   2.540
 7887SOL     OW24559   0.904   3.112   1.357
 7887SOL    HW124560   0.969   3.036   1.345
 7887SOL    HW224561   0.932   3.189   1.300
 7888SOL     OW24562   6.151   1.211   5.063
 7888SOL    HW124563   6.154   1.185   4.966
 7888SOL    HW224564   6.091   1.290   5.074
 7889SOL     OW24565   5.583   5.184   0.960
 7889SOL    HW124566   5.670   5.151   0.998
 7889SOL    HW224567   5.596   5.275   0.920
 7890SOL     OW24568   2.356   2.767   3.410
 7890SOL    HW124569   2.364   2.859   3.449
 7890SOL    HW224570   2.392   2.700   3.475
 7891SOL     OW24571   6.232   1.811   4.606
 7891SOL    HW124572   6.331   1.823   4.598
 7891SOL    HW224573   6.212   1.720   4.644
 7892SOL     OW24574   0.968   1.952   5.001
 7892SOL    HW124575   1.035   1.999   4.944
 7892SOL    HW224576   0.879   1.996   4.992
 7893SOL     OW24577   5.957   6.782   0.859
 7893SOL    HW124578   6.003   6.849   0.918
 7893SOL    HW224579   5.971   6.690   0.897
 7894SOL     OW24580   3.159   0.949   0.077
 7894SOL    HW124581   3.110   1.035   0.089
 7894SOL    HW224582   3.128   0.905   7.016
 7895SOL     OW24583   6.467   6.304   2.794
 7895SOL    HW124584   6.541   6.268   2.736
 7895SOL    HW224585   6.446   6.237   2.865
 7896SOL     OW24586   2.316   1.439   0.466
 7896SOL    HW124587   2.242   1.420   0.402
 7896SOL    HW224588   2.289   1.515   0.526
 7897SOL     OW24589   3.761   2.124   0.855
 7897SOL    HW124590   3.729   2.128   0.760
 7897SOL    HW224591   3.814   2.040   0.868
 7898SOL     OW24592   5.281   6.700   3.320
 7898SOL    HW124593   5.232   6.755   3.387
 7898SOL    HW224594   5.280   6.604   3.349
 7899SOL     OW24595   6.024   4.104   3.784
 7899SOL    HW124596   6.039   4.118   3.882
 7899SOL    HW224597   5.943   4.047   3.771
 7900SOL     OW24598   0.565   3.628   0.241
 7900SOL    HW124599   0.663   3.644   0.233
 7900SOL    HW224600   0.548   3.561   0.314
 7901SOL     OW24601   0.536   2.215   0.327
 7901SOL    HW124602   0.522   2.292   0.264
 7901SOL    HW224603   0.461   2.213   0.393
 7902SOL     OW24604   1.895   6.259   1.476
 7902SOL    HW124605   1.814   6.203   1.489
 7902SOL    HW224606   1.930   6.289   1.565
 7903SOL     OW24607   2.776   2.309   5.624
 7903SOL    HW124608   2.842   2.374   5.588
 7903SOL    HW224609   2.689   2.318   5.575
 7904SOL     OW24610   4.509   2.345   2.734
 7904SOL    HW124611   4.588   2.284   2.730
 7904SOL    HW224612   4.533   2.427   2.786
 7905SOL     OW24613   6.129   2.429   0.936
 7905SOL    HW124614   6.186   2.380   1.002
 7905SOL    HW224615   6.033   2.406   0.951
 7906SOL     OW24616   0.849   5.323   6.704
 7906SOL    HW124617   0.917   5.380   6.749
 7906SOL    HW224618   0.895   5.250   6.654
 7907SOL     OW24619   6.194   6.200   2.573
 7907SOL    HW124620   6.138   6.150   2.507
 7907SOL    HW224621   6.276   6.235   2.528
 7908SOL     OW24622   1.794   6.491   6.544
 7908SOL    HW124623   1.735   6.550   6.599
 7908SOL    HW224624   1.738   6.426   6.493
 7909SOL     OW24625   6.549   3.617   0.957
 7909SOL    HW124626   6.504   3.558   1.024
 7909SOL    HW224627   6.605   3.685   1.004
 7910SOL     OW24628   1.483   4.258   5.684
 7910SOL    HW124629   1.427   4.297   5.611
 7910SOL    HW224630   1.432   4.184   5.729
 7911SOL     OW24631   5.721   4.261   5.961
 7911SOL    HW124632   5.754   4.187   6.019
 7911SOL    HW224633   5.632   4.292   5.994
 7912SOL     OW24634   5.800   5.802   0.841
 7912SOL    HW124635   5.857   5.866   0.893
 7912SOL    HW224636   5.822   5.808   0.744
 7913SOL     OW24637   1.490   4.801   6.725
 7913SOL    HW124638   1.525   4.721   6.774
 7913SOL    HW224639   1.442   4.771   6.642
 7914SOL     OW24640   0.758   6.685   4.831
 7914SOL    HW124641   0.684   6.751   4.814
 7914SOL    HW224642   0.825   6.691   4.757
 7915SOL     OW24643   2.819   5.016   2.379
 7915SOL    HW124644   2.778   4.961   2.306
 7915SOL    HW224645   2.839   5.108   2.344
 7916SOL     OW24646   1.269   0.141   3.896
 7916SOL    HW124647   1.364   0.127   3.868
 7916SOL    HW224648   1.221   0.053   3.899
 7917SOL     OW24649   4.862   2.100   1.996
 7917SOL    HW124650   4.793   2.127   2.063
 7917SOL    HW224651   4.821   2.039   1.928
 7918SOL     OW24652   2.212   2.762   3.165
 7918SOL    HW124653   2.262   2.783   3.249
 7918SOL    HW224654   2.169   2.845   3.129
 7919SOL     OW24655   1.130   6.741   4.648
 7919SOL    HW124656   1.157   6.808   4.717
 7919SOL    HW224657   1.044   6.770   4.606
 7920SOL     OW24658   4.669   0.462   1.103
 7920SOL    HW124659   4.761   0.493   1.079
 7920SOL    HW224660   4.625   0.529   1.163
 7921SOL     OW24661   5.436   2.359   1.045
 7921SOL    HW124662   5.519   2.396   1.085
 7921SOL    HW224663   5.457   2.318   0.956
 7922SOL     OW24664   2.909   0.180   2.356
 7922SOL    HW124665   3.004   0.185   2.324
 7922SOL    HW224666   2.854   0.248   2.307
 7923SOL     OW24667   3.996   1.192   0.105
 7923SOL    HW124668   3.956   1.155   0.020
 7923SOL    HW224669   4.007   1.118   0.171
 7924SOL     OW24670   5.664   5.549   0.146
 7924SOL    HW124671   5.752   5.503   0.130
 7924SOL    HW224672   5.591   5.480   0.152
 7925SOL     OW24673   1.333   5.504   6.401
 7925SOL    HW124674   1.430   5.486   6.418
 7925SOL    HW224675   1.303   5.581   6.457
 7926SOL     OW24676   5.634   5.980   6.239
 7926SOL    HW124677   5.566   5.943   6.175
 7926SOL    HW224678   5.716   6.008   6.189
 7927SOL     OW24679   4.236   0.061   3.418
 7927SOL    HW124680   4.298   0.132   3.385
 7927SOL    HW224681   4.242   7.004   3.358
 7928SOL     OW24682   5.646   1.976   3.541
 7928SOL    HW124683   5.572   1.909   3.549
 7928SOL    HW224684   5.695   1.962   3.455
 7929SOL     OW24685   4.731   4.512   5.853
 7929SOL    HW124686   4.818   4.491   5.898
 7929SOL    HW224687   4.723   4.611   5.840
 7930SOL     OW24688   4.338   6.180   6.203
 7930SOL    HW124689   4.250   6.221   6.178
 7930SOL    HW224690   4.412   6.231   6.160
 7931SOL     OW24691   4.194   1.490   1.400
 7931SOL    HW124692   4.258   1.555   1.441
 7931SOL    HW224693   4.116   1.540   1.362
 7932SOL     OW24694   1.456   3.899   1.825
 7932SOL    HW124695   1.400   3.818   1.813
 7932SOL    HW224696   1.427   3.948   1.907
 7933SOL     OW24697   1.102   1.898   0.077
 7933SOL    HW124698   1.067   1.911   7.008
 7933SOL    HW224699   1.029   1.865   0.137
 7934SOL     OW24700   0.626   5.255   1.101
 7934SOL    HW124701   0.528   5.261   1.080
 7934SOL    HW224702   0.678   5.263   1.016
 7935SOL     OW24703   6.471   2.837   3.126
 7935SOL    HW124704   6.526   2.754   3.118
 7935SOL    HW224705   6.382   2.823   3.084
 7936SOL     OW24706   2.151   5.555   3.141
 7936SOL    HW124707   2.103   5.468   3.130
 7936SOL    HW224708   2.102   5.626   3.091
 7937SOL     OW24709   4.307   1.133   0.895
 7937SOL    HW124710   4.303   1.051   0.952
 7937SOL    HW224711   4.222   1.184   0.902
 7938SOL     OW24712   2.551   6.950   3.225
 7938SOL    HW124713   2.589   0.015   3.198
 7938SOL    HW224714   2.604   6.876   3.183
 7939SOL     OW24715   0.551   0.791   2.732
 7939SOL    HW124716   0.646   0.788   2.761
 7939SOL    HW224717   0.491   0.795   2.812
 7940SOL     OW24718   5.745   1.823   4.561
 7940SOL    HW124719   5.810   1.763   4.607
 7940SOL    HW224720   5.668   1.843   4.622
 7941SOL     OW24721   3.440   6.949   0.847
 7941SOL    HW124722   3.493   6.975   0.928
 7941SOL    HW224723   3.352   6.912   0.875
 7942SOL     OW24724   1.418   4.114   0.718
 7942SOL    HW124725   1.503   4.129   0.767
 7942SOL    HW224726   1.389   4.019   0.729
 7943SOL     OW24727   1.417   6.204   6.161
 7943SOL    HW124728   1.353   6.218   6.236
 7943SOL    HW224729   1.372   6.225   6.074
 7944SOL     OW24730   1.108   2.012   1.418
 7944SOL    HW124731   1.189   2.055   1.457
 7944SOL    HW224732   1.048   2.082   1.380
 7945SOL     OW24733   6.531   3.765   2.610
 7945SOL    HW124734   6.475   3.781   2.528
 7945SOL    HW224735   6.471   3.752   2.689
 7946SOL     OW24736   4.725   2.126   6.688
 7946SOL    HW124737   4.642   2.069   6.684
 7946SOL    HW224738   4.748   2.144   6.784
 7947SOL     OW24739   6.845   3.745   5.924
 7947SOL    HW124740   6.928   3.780   5.881
 7947SOL    HW224741   6.767   3.760   5.864
 7948SOL     OW24742   1.071   5.689   1.310
 7948SOL    HW124743   1.039   5.643   1.393
 7948SOL    HW224744   1.076   5.788   1.327
 7949SOL     OW24745   2.541   5.438   5.729
 7949SOL    HW124746   2.577   5.433   5.823
 7949SOL    HW224747   2.472   5.368   5.716
 7950SOL     OW24748   6.815   4.524   5.650
 7950SOL    HW124749   6.871   4.495   5.573
 7950SOL    HW224750   6.719   4.503   5.632
 7951SOL     OW24751   4.255   6.748   2.947
 7951SOL    HW124752   4.330   6.786   2.892
 7951SOL    HW224753   4.169   6.789   2.917
 7952SOL     OW24754   6.868   3.911   5.256
 7952SOL    HW124755   6.922   3.896   5.173
 7952SOL    HW224756   6.779   3.867   5.247
 7953SOL     OW24757   1.630   0.051   0.071
 7953SOL    HW124758   1.665   0.064   7.001
 7953SOL    HW224759   1.581   6.988   0.076
 7954SOL     OW24760   3.870   3.542   0.007
 7954SOL    HW124761   3.798   3.608   0.028
 7954SOL    HW224762   3.934   3.582   6.964
 7955SOL     OW24763   0.748   1.256   6.381
 7955SOL    HW124764   0.744   1.222   6.475
 7955SOL    HW224765   0.826   1.215   6.334
 7956SOL     OW24766   0.487   6.387   0.417
 7956SOL    HW124767   0.451   6.479   0.408
 7956SOL    HW224768   0.577   6.382   0.374
 7957SOL     OW24769   5.347   1.626   5.924
 7957SOL    HW124770   5.351   1.610   5.826
 7957SOL    HW224771   5.392   1.712   5.946
 7958SOL     OW24772   4.375   2.324   7.017
 7958SOL    HW124773   4.372   2.301   0.091
 7958SOL    HW224774   4.295   2.284   6.971
 7959SOL     OW24775   5.735   2.480   0.205
 7959SOL    HW124776   5.719   2.409   0.274
 7959SOL    HW224777   5.686   2.455   0.121
 7960SOL     OW24778   0.843   1.580   5.086
 7960SOL    HW124779   0.772   1.517   5.118
 7960SOL    HW224780   0.925   1.570   5.143
 7961SOL     OW24781   6.054   0.108   0.355
 7961SOL    HW124782   6.106   0.193   0.353
 7961SOL    HW224783   5.959   0.127   0.382
 7962SOL     OW24784   5.900   6.906   5.143
 7962SOL    HW124785   5.977   6.953   5.186
 7962SOL    HW224786   5.895   6.930   5.047
 7963SOL     OW24787   6.196   5.987   3.435
 7963SOL    HW124788   6.195   6.079   3.474
 7963SOL    HW224789   6.280   5.974   3.382
 7964SOL     OW24790   6.016   3.657   1.291
 7964SOL    HW124791   5.990   3.665   1.195
 7964SOL    HW224792   6.112   3.682   1.302
 7965SOL     OW24793   5.260   2.081   6.049
 7965SOL    HW124794   5.166   2.073   6.082
 7965SOL    HW224795   5.312   2.140   6.110
 7966SOL     OW24796   5.525   3.638   5.174
 7966SOL    HW124797   5.463   3.716   5.184
 7966SOL    HW224798   5.613   3.660   5.216
 7967SOL     OW24799   1.220   4.614   0.122
 7967SOL    HW124800   1.242   4.519   0.145
 7967SOL    HW224801   1.163   4.616   0.040
 7968SOL     OW24802   1.947   2.350   4.007
 7968SOL    HW124803   1.937   2.266   3.952
 7968SOL    HW224804   1.942   2.326   4.104
 7969SOL     OW24805   3.390   4.531   6.744
 7969SOL    HW124806   3.450   4.600   6.785
 7969SOL    HW224807   3.397   4.446   6.796
 7970SOL     OW24808   6.006   2.654   4.211
 7970SOL    HW124809   6.031   2.558   4.197
 7970SOL    HW224810   6.082   2.712   4.181
 7971SOL     OW24811   2.713   1.174   6.932
 7971SOL    HW124812   2.756   1.188   7.022
 7971SOL    HW224813   2.766   1.223   6.863
 7972SOL     OW24814   3.442   4.078   4.287
 7972SOL    HW124815   3.432   4.114   4.379
 7972SOL    HW224816   3.352   4.065   4.246
 7973SOL     OW24817   6.172   5.012   1.979
 7973SOL    HW124818   6.183   5.091   2.040
 7973SOL    HW224819   6.082   4.970   1.995
 7974SOL     OW24820   0.829   3.045   4.559
 7974SOL    HW124821   0.752   2.985   4.581
 7974SOL    HW224822   0.895   3.044   4.635
 7975SOL     OW24823   4.668   0.458   0.349
 7975SOL    HW124824   4.621   0.545   0.364
 7975SOL    HW224825   4.743   0.471   0.284
 7976SOL     OW24826   0.682   0.533   0.257
 7976SOL    HW124827   0.684   0.433   0.255
 7976SOL    HW224828   0.600   0.564   0.306
 7977SOL     OW24829   5.409   5.527   3.427
 7977SOL    HW124830   5.408   5.444   3.483
 7977SOL    HW224831   5.319   5.541   3.386
 7978SOL     OW24832   0.672   4.007   1.430
 7978SOL    HW124833   0.666   3.920   1.479
 7978SOL    HW224834   0.644   3.993   1.335
 7979SOL     OW24835   2.652   2.281   5.165
 7979SOL    HW124836   2.605   2.336   5.234
 7979SOL    HW224837   2.604   2.287   5.078
 7980SOL     OW24838   3.705   5.521   1.622
 7980SOL    HW124839   3.652   5.517   1.706
 7980SOL    HW224840   3.791   5.472   1.634
 7981SOL     OW24841   1.738   3.935   4.351
 7981SOL    HW124842   1.818   3.922   4.409
 7981SOL    HW224843   1.748   4.019   4.297
 7982SOL     OW24844   6.904   1.351   5.974
 7982SOL    HW124845   6.905   1.298   6.058
 7982SOL    HW224846   6.945   1.441   5.990
 7983SOL     OW24847   3.881   0.508   1.822
 7983SOL    HW124848   3.837   0.473   1.905
 7983SOL    HW224849   3.813   0.519   1.750
 7984SOL     OW24850   6.490   2.939   2.815
 7984SOL    HW124851   6.532   3.023   2.849
 7984SOL    HW224852   6.412   2.961   2.758
 7985SOL     OW24853   2.939   2.930   5.342
 7985SOL    HW124854   3.012   2.977   5.293
 7985SOL    HW224855   2.854   2.983   5.334
 7986SOL     OW24856   3.963   0.799   3.991
 7986SOL    HW124857   3.982   0.897   3.981
 7986SOL    HW224858   3.952   0.758   3.901
 7987SOL     OW24859   1.019   3.488   6.312
 7987SOL    HW124860   1.074   3.560   6.269
 7987SOL    HW224861   0.978   3.524   6.395
 7988SOL     OW24862   6.767   0.685   1.041
 7988SOL    HW124863   6.842   0.748   1.061
 7988SOL    HW224864   6.682   0.722   1.078
 7989SOL     OW24865   0.747   4.462   0.939
 7989SOL    HW124866   0.772   4.435   0.846
 7989SOL    HW224867   0.649   4.482   0.943
 7990SOL     OW24868   4.746   5.152   4.943
 7990SOL    HW124869   4.677   5.097   4.897
 7990SOL    HW224870   4.786   5.217   4.878
 7991SOL     OW24871   5.705   0.877   4.617
 7991SOL    HW124872   5.783   0.871   4.679
 7991SOL    HW224873   5.732   0.927   4.534
 7992SOL     OW24874   1.991   0.065   6.839
 7992SOL    HW124875   1.930   0.006   6.892
 7992SOL    HW224876   1.951   0.156   6.832
 7993SOL     OW24877   6.206   5.854   0.437
 7993SOL    HW124878   6.217   5.900   0.349
 7993SOL    HW224879   6.255   5.767   0.435
 7994SOL     OW24880   6.671   0.643   4.435
 7994SOL    HW124881   6.573   0.666   4.432
 7994SOL    HW224882   6.694   0.605   4.524
 7995SOL     OW24883   0.341   5.680   1.362
 7995SOL    HW124884   0.375   5.587   1.367
 7995SOL    HW224885   0.296   5.704   1.449
 7996SOL     OW24886   2.319   6.905   3.023
 7996SOL    HW124887   2.369   6.829   3.065
 7996SOL    HW224888   2.383   6.976   2.995
 7997SOL     OW24889   2.409   2.183   5.676
 7997SOL    HW124890   2.487   2.130   5.709
 7997SOL    HW224891   2.345   2.199   5.751
 7998SOL     OW24892   2.218   0.892   1.147
 7998SOL    HW124893   2.177   0.804   1.123
 7998SOL    HW224894   2.313   0.878   1.174
 7999SOL     OW24895   0.802   6.911   3.539
 7999SOL    HW124896   0.877   6.853   3.572
 7999SOL    HW224897   0.831   7.006   3.542
 8000SOL     OW24898   4.147   5.696   1.259
 8000SOL    HW124899   4.167   5.600   1.240
 8000SOL    HW224900   4.075   5.728   1.198
 8001SOL     OW24901   4.594   4.423   1.509
 8001SOL    HW124902   4.499   4.420   1.541
 8001SOL    HW224903   4.599   4.390   1.415
 8002SOL     OW24904   1.061   0.262   4.581
 8002SOL    HW124905   1.095   0.199   4.511
 8002SOL    HW224906   0.963   0.247   4.596
 8003SOL     OW24907   3.049   5.940   2.746
 8003SOL    HW124908   3.085   6.032   2.731
 8003SOL    HW224909   3.010   5.934   2.838
 8004SOL     OW24910   1.621   3.708   4.148
 8004SOL    HW124911   1.648   3.687   4.242
 8004SOL    HW224912   1.534   3.756   4.149
 8005SOL     OW24913   2.208   0.395   3.580
 8005SOL    HW124914   2.121   0.441   3.592
 8005SOL    HW224915   2.195   0.313   3.524
 8006SOL     OW24916   4.639   5.414   6.014
 8006SOL    HW124917   4.564   5.392   5.952
 8006SOL    HW224918   4.602   5.439   6.104
 8007SOL     OW24919   0.685   0.851   0.776
 8007SOL    HW124920   0.671   0.920   0.847
 8007SOL    HW224921   0.627   0.873   0.697
 8008SOL     OW24922   4.642   5.286   0.714
 8008SOL    HW124923   4.739   5.307   0.727
 8008SOL    HW224924   4.598   5.362   0.667
 8009SOL     OW24925   6.424   1.317   0.562
 8009SOL    HW124926   6.352   1.387   0.558
 8009SOL    HW224927   6.497   1.348   0.622
 8010SOL     OW24928   3.501   0.716   5.854
 8010SOL    HW124929   3.492   0.620   5.878
 8010SOL    HW224930   3.503   0.726   5.755
 8011SOL     OW24931   3.983   2.097   2.556
 8011SOL    HW124932   3.909   2.116   2.491
 8011SOL    HW224933   4.063   2.065   2.507
 8012SOL     OW24934   6.493   1.180   4.370
 8012SOL    HW124935   6.571   1.217   4.420
 8012SOL    HW224936   6.524   1.105   4.312
 8013SOL     OW24937   3.574   0.863   3.003
 8013SOL    HW124938   3.559   0.947   2.952
 8013SOL    HW224939   3.486   0.819   3.022
 8014SOL     OW24940   2.656   2.366   2.826
 8014SOL    HW124941   2.607   2.413   2.753
 8014SOL    HW224942   2.753   2.361   2.804
 8015SOL     OW24943   3.633   6.927   4.389
 8015SOL    HW124944   3.702   6.888   4.450
 8015SOL    HW224945   3.667   7.011   4.349
 8016SOL     OW24946   3.619   2.525   5.336
 8016SOL    HW124947   3.566   2.443   5.357
 8016SOL    HW224948   3.716   2.502   5.333
 8017SOL     OW24949   6.082   5.653   1.191
 8017SOL    HW124950   6.030   5.569   1.176
 8017SOL    HW224951   6.178   5.636   1.171
 8018SOL     OW24952   3.377   3.356   0.634
 8018SOL    HW124953   3.474   3.336   0.615
 8018SOL    HW224954   3.351   3.313   0.720
 8019SOL     OW24955   2.728   3.410   0.252
 8019SOL    HW124956   2.749   3.354   0.333
 8019SOL    HW224957   2.812   3.424   0.199
 8020SOL     OW24958   0.084   0.393   6.348
 8020SOL    HW124959   0.015   0.348   6.405
 8020SOL    HW224960   0.042   0.471   6.302
 8021SOL     OW24961   0.885   3.164   0.547
 8021SOL    HW124962   0.817   3.118   0.490
 8021SOL    HW224963   0.904   3.107   0.628
 8022SOL     OW24964   4.177   6.935   2.310
 8022SOL    HW124965   4.146   0.006   2.295
 8022SOL    HW224966   4.264   6.936   2.359
 8023SOL     OW24967   3.951   5.424   2.268
 8023SOL    HW124968   3.868   5.476   2.288
 8023SOL    HW224969   4.007   5.416   2.351
 8024SOL     OW24970   3.029   0.850   6.900
 8024SOL    HW124971   3.065   0.769   6.853
 8024SOL    HW224972   2.934   0.833   6.928
 8025SOL     OW24973   0.818   6.432   1.953
 8025SOL    HW124974   0.849   6.339   1.975
 8025SOL    HW224975   0.751   6.462   2.021
 8026SOL     OW24976   0.808   6.758   6.498
 8026SOL    HW124977   0.816   6.835   6.435
 8026SOL    HW224978   0.899   6.718   6.514
 8027SOL     OW24979   3.624   0.522   6.644
 8027SOL    HW124980   3.647   0.462   6.721
 8027SOL    HW224981   3.661   0.483   6.560
 8028SOL     OW24982   3.542   6.065   5.985
 8028SOL    HW124983   3.501   6.150   6.018
 8028SOL    HW224984   3.623   6.087   5.929
 8029SOL     OW24985   1.074   0.701   1.582
 8029SOL    HW124986   1.058   0.620   1.526
 8029SOL    HW224987   1.054   0.783   1.527
 8030SOL     OW24988   1.139   4.397   1.146
 8030SOL    HW124989   1.214   4.456   1.117
 8030SOL    HW224990   1.101   4.350   1.067
 8031SOL     OW24991   6.583   0.366   2.242
 8031SOL    HW124992   6.539   0.425   2.174
 8031SOL    HW224993   6.682   0.380   2.240
 8032SOL     OW24994   0.246   2.559   0.364
 8032SOL    HW124995   0.252   2.479   0.304
 8032SOL    HW224996   0.154   2.564   0.404
 8033SOL     OW24997   3.720   4.233   1.665
 8033SOL    HW124998   3.820   4.233   1.671
 8033SOL    HW224999   3.682   4.195   1.749
 8034SOL     OW25000   0.346   0.357   5.548
 8034SOL    HW125001   0.384   0.338   5.639
 8034SOL    HW225002   0.420   0.388   5.488
 8035SOL     OW25003   6.386   6.917   4.236
 8035SOL    HW125004   6.302   6.870   4.210
 8035SOL    HW225005   6.400   6.996   4.176
 8036SOL     OW25006   5.155   2.961   4.215
 8036SOL    HW125007   5.075   3.021   4.215
 8036SOL    HW225008   5.170   2.925   4.307
 8037SOL     OW25009   2.660   0.851   6.100
 8037SOL    HW125010   2.745   0.812   6.134
 8037SOL    HW225011   2.594   0.778   6.080
 8038SOL     OW25012   6.608   5.511   1.943
 8038SOL    HW125013   6.623   5.516   1.845
 8038SOL    HW225014   6.697   5.509   1.990
 8039SOL     OW25015   2.416   2.303   5.018
 8039SOL    HW125016   2.342   2.298   5.085
 8039SOL    HW225017   2.418   2.395   4.978
 8040SOL     OW25018   0.790   5.999   6.321
 8040SOL    HW125019   0.844   5.930   6.273
 8040SOL    HW225020   0.725   6.040   6.257
 8041SOL     OW25021   3.360   1.589   3.239
 8041SOL    HW125022   3.382   1.496   3.267
 8041SOL    HW225023   3.290   1.587   3.168
 8042SOL     OW25024   3.695   4.076   5.903
 8042SOL    HW125025   3.737   4.083   5.993
 8042SOL    HW225026   3.595   4.077   5.913
 8043SOL     OW25027   4.873   5.589   0.382
 8043SOL    HW125028   4.892   5.533   0.463
 8043SOL    HW225029   4.854   5.530   0.304
 8044SOL     OW25030   1.838   2.915   1.348
 8044SOL    HW125031   1.751   2.959   1.368
 8044SOL    HW225032   1.912   2.982   1.359
 8045SOL     OW25033   6.371   3.573   4.378
 8045SOL    HW125034   6.423   3.620   4.306
 8045SOL    HW225035   6.420   3.579   4.465
 8046SOL     OW25036   0.490   4.292   1.378
 8046SOL    HW125037   0.554   4.251   1.442
 8046SOL    HW225038   0.399   4.296   1.420
 8047SOL     OW25039   3.097   6.026   6.772
 8047SOL    HW125040   3.072   6.026   6.676
 8047SOL    HW225041   3.023   5.986   6.826
 8048SOL     OW25042   4.063   2.466   5.990
 8048SOL    HW125043   4.153   2.424   5.998
 8048SOL    HW225044   3.994   2.396   5.975
 8049SOL     OW25045   1.593   1.461   0.351
 8049SOL    HW125046   1.551   1.387   0.298
 8049SOL    HW225047   1.523   1.510   0.402
 8050SOL     OW25048   0.485   4.901   6.165
 8050SOL    HW125049   0.491   4.801   6.172
 8050SOL    HW225050   0.547   4.933   6.093
 8051SOL     OW25051   4.931   6.735   3.124
 8051SOL    HW125052   4.941   6.764   3.219
 8051SOL    HW225053   4.838   6.755   3.093
 8052SOL     OW25054   2.898   1.736   2.312
 8052SOL    HW125055   2.807   1.717   2.350
 8052SOL    HW225056   2.927   1.827   2.339
 8053SOL     OW25057   1.621   2.486   6.788
 8053SOL    HW125058   1.681   2.475   6.868
 8053SOL    HW225059   1.572   2.400   6.771
 8054SOL     OW25060   4.964   3.474   4.813
 8054SOL    HW125061   4.895   3.510   4.875
 8054SOL    HW225062   4.950   3.377   4.799
 8055SOL     OW25063   6.461   0.178   6.839
 8055SOL    HW125064   6.556   0.204   6.857
 8055SOL    HW225065   6.434   0.105   6.901
 8056SOL     OW25066   2.111   1.092   3.929
 8056SOL    HW125067   2.095   1.019   3.863
 8056SOL    HW225068   2.158   1.168   3.884
 8057SOL     OW25069   2.803   2.220   2.294
 8057SOL    HW125070   2.828   2.276   2.215
 8057SOL    HW225071   2.703   2.218   2.302
 8058SOL     OW25072   3.837   6.121   2.049
 8058SOL    HW125073   3.805   6.032   2.082
 8058SOL    HW225074   3.767   6.190   2.068
 8059SOL     OW25075   2.992   2.958   5.701
 8059SOL    HW125076   2.893   2.968   5.711
 8059SOL    HW225077   3.011   2.881   5.640
 8060SOL     OW25078   6.928   1.212   6.203
 8060SOL    HW125079   7.021   1.246   6.218
 8060SOL    HW225080   6.890   1.181   6.290
 8061SOL     OW25081   6.883   1.046   1.884
 8061SOL    HW125082   6.862   0.975   1.817
 8061SOL    HW225083   6.798   1.079   1.926
 8062SOL     OW25084   4.366   4.919   5.616
 8062SOL    HW125085   4.460   4.951   5.618
 8062SOL    HW225086   4.325   4.939   5.527
 8063SOL     OW25087   2.638   4.640   2.976
 8063SOL    HW125088   2.683   4.657   3.064
 8063SOL    HW225089   2.678   4.701   2.907
 8064SOL     OW25090   6.793   1.882   0.421
 8064SOL    HW125091   6.755   1.882   0.513
 8064SOL    HW225092   6.884   1.840   0.422
 8065SOL     OW25093   4.610   6.941   6.939
 8065SOL    HW125094   4.644   6.952   6.846
 8065SOL    HW225095   4.603   6.843   6.960
 8066SOL     OW25096   0.328   0.029   6.022
 8066SOL    HW125097   0.299   0.095   6.091
 8066SOL    HW225098   0.344   6.963   6.066
 8067SOL     OW25099   5.516   0.682   4.284
 8067SOL    HW125100   5.558   0.604   4.238
 8067SOL    HW225101   5.417   0.666   4.294
 8068SOL     OW25102   6.841   3.484   1.742
 8068SOL    HW125103   6.868   3.404   1.796
 8068SOL    HW225104   6.876   3.567   1.786
 8069SOL     OW25105   1.322   2.942   2.360
 8069SOL    HW125106   1.259   2.998   2.413
 8069SOL    HW225107   1.283   2.851   2.347
 8070SOL     OW25108   5.025   3.808   0.846
 8070SOL    HW125109   5.113   3.856   0.845
 8070SOL    HW225110   5.041   3.710   0.851
 8071SOL     OW25111   2.710   0.280   5.933
 8071SOL    HW125112   2.679   0.325   5.849
 8071SOL    HW225113   2.639   0.217   5.965
 8072SOL     OW25114   2.278   1.983   4.842
 8072SOL    HW125115   2.189   2.028   4.836
 8072SOL    HW225116   2.339   2.019   4.773
 8073SOL     OW25117   5.032   0.240   7.001
 8073SOL    HW125118   5.116   0.278   6.963
 8073SOL    HW225119   4.970   0.214   6.927
 8074SOL     OW25120   6.743   0.757   6.948
 8074SOL    HW125121   6.685   0.683   6.915
 8074SOL    HW225122   6.688   0.822   7.000
 8075SOL     OW25123   0.161   0.260   1.331
 8075SOL    HW125124   0.253   0.298   1.339
 8075SOL    HW225125   0.137   0.211   1.414
 8076SOL     OW25126   6.604   6.086   0.709
 8076SOL    HW125127   6.680   6.022   0.703
 8076SOL    HW225128   6.520   6.041   0.678
 8077SOL     OW25129   5.793   4.411   1.113
 8077SOL    HW125130   5.877   4.367   1.142
 8077SOL    HW225131   5.775   4.491   1.170
 8078SOL     OW25132   6.380   0.705   1.570
 8078SOL    HW125133   6.369   0.781   1.507
 8078SOL    HW225134   6.472   0.708   1.610
 8079SOL     OW25135   0.681   1.020   6.835
 8079SOL    HW125136   0.764   1.045   6.885
 8079SOL    HW225137   0.627   0.956   6.889
 8080SOL     OW25138   1.456   3.431   3.305
 8080SOL    HW125139   1.362   3.405   3.326
 8080SOL    HW225140   1.498   3.362   3.246
 8081SOL     OW25141   6.674   6.857   5.162
 8081SOL    HW125142   6.629   6.808   5.088
 8081SOL    HW225143   6.764   6.817   5.179
 8082SOL     OW25144   3.731   2.054   4.514
 8082SOL    HW125145   3.644   2.014   4.484
 8082SOL    HW225146   3.756   2.018   4.604
 8083SOL     OW25147   6.802   2.261   4.551
 8083SOL    HW125148   6.823   2.354   4.583
 8083SOL    HW225149   6.878   2.201   4.573
 8084SOL     OW25150   4.089   1.877   5.827
 8084SOL    HW125151   4.183   1.848   5.846
 8084SOL    HW225152   4.054   1.827   5.748
 8085SOL     OW25153   1.907   5.807   4.426
 8085SOL    HW125154   1.813   5.778   4.443
 8085SOL    HW225155   1.909   5.904   4.404
 8086SOL     OW25156   6.452   1.722   2.643
 8086SOL    HW125157   6.424   1.628   2.620
 8086SOL    HW225158   6.500   1.762   2.565
 8087SOL     OW25159   6.834   1.097   6.854
 8087SOL    HW125160   6.828   1.182   6.801
 8087SOL    HW225161   6.912   1.043   6.821
 8088SOL     OW25162   6.690   0.333   5.004
 8088SOL    HW125163   6.658   0.339   5.099
 8088SOL    HW225164   6.732   0.243   4.989
 8089SOL     OW25165   6.193   1.982   6.898
 8089SOL    HW125166   6.247   2.019   6.823
 8089SOL    HW225167   6.242   1.993   6.984
 8090SOL     OW25168   4.507   2.604   5.291
 8090SOL    HW125169   4.524   2.699   5.267
 8090SOL    HW225170   4.566   2.577   5.367
 8091SOL     OW25171   1.110   3.968   4.187
 8091SOL    HW125172   1.156   3.881   4.203
 8091SOL    HW225173   1.137   4.034   4.257
 8092SOL     OW25174   4.770   0.910   5.640
 8092SOL    HW125175   4.712   0.917   5.722
 8092SOL    HW225176   4.864   0.933   5.665
 8093SOL     OW25177   3.452   6.367   3.030
 8093SOL    HW125178   3.473   6.455   3.072
 8093SOL    HW225179   3.477   6.293   3.094
 8094SOL     OW25180   1.958   3.878   4.034
 8094SOL    HW125181   1.862   3.883   4.008
 8094SOL    HW225182   1.976   3.790   4.078
 8095SOL     OW25183   1.468   4.640   5.004
 8095SOL    HW125184   1.405   4.565   5.026
 8095SOL    HW225185   1.561   4.613   5.030
 8096SOL     OW25186   1.084   4.641   0.361
 8096SOL    HW125187   1.155   4.657   0.292
 8096SOL    HW225188   1.122   4.586   0.436
 8097SOL     OW25189   4.628   6.593   0.269
 8097SOL    HW125190   4.726   6.590   0.290
 8097SOL    HW225191   4.579   6.632   0.347
 8098SOL     OW25192   2.248   5.777   4.981
 8098SOL    HW125193   2.306   5.824   4.914
 8098SOL    HW225194   2.182   5.842   5.019
 8099SOL     OW25195   1.820   3.931   2.432
 8099SOL    HW125196   1.901   3.986   2.412
 8099SOL    HW225197   1.829   3.841   2.389
 8100SOL     OW25198   6.425   0.312   6.582
 8100SOL    HW125199   6.429   0.244   6.655
 8100SOL    HW225200   6.358   0.284   6.514
 8101SOL     OW25201   2.790   5.418   1.187
 8101SOL    HW125202   2.797   5.515   1.208
 8101SOL    HW225203   2.707   5.401   1.133
 8102SOL     OW25204   0.604   3.907   3.647
 8102SOL    HW125205   0.666   3.982   3.623
 8102SOL    HW225206   0.634   3.823   3.602
 8103SOL     OW25207   3.942   0.909   1.506
 8103SOL    HW125208   3.973   0.883   1.414
 8103SOL    HW225209   3.868   0.976   1.499
 8104SOL     OW25210   1.920   5.118   6.825
 8104SOL    HW125211   1.849   5.048   6.818
 8104SOL    HW225212   1.930   5.164   6.736
 8105SOL     OW25213   6.531   6.891   3.882
 8105SOL    HW125214   6.469   6.818   3.909
 8105SOL    HW225215   6.623   6.854   3.869
 8106SOL     OW25216   2.682   6.452   6.134
 8106SOL    HW125217   2.683   6.506   6.217
 8106SOL    HW225218   2.625   6.371   6.147
 8107SOL     OW25219   1.463   6.504   6.906
 8107SOL    HW125220   1.450   6.418   6.856
 8107SOL    HW225221   1.410   6.503   6.990
 8108SOL     OW25222   1.280   1.468   6.859
 8108SOL    HW125223   1.378   1.467   6.842
 8108SOL    HW225224   1.244   1.375   6.849
 8109SOL     OW25225   6.214   3.191   1.755
 8109SOL    HW125226   6.162   3.276   1.759
 8109SOL    HW225227   6.151   3.114   1.764
 8110SOL     OW25228   3.837   4.592   0.904
 8110SOL    HW125229   3.878   4.547   0.984
 8110SOL    HW225230   3.904   4.653   0.862
 8111SOL     OW25231   6.369   0.887   2.610
 8111SOL    HW125232   6.450   0.860   2.662
 8111SOL    HW225233   6.293   0.906   2.672
 8112SOL     OW25234   1.727   4.929   6.822
 8112SOL    HW125235   1.677   4.979   6.893
 8112SOL    HW225236   1.667   4.859   6.782
 8113SOL     OW25237   4.949   4.926   6.439
 8113SOL    HW125238   4.942   4.881   6.350
 8113SOL    HW225239   5.001   5.011   6.428
 8114SOL     OW25240   1.920   3.866   3.053
 8114SOL    HW125241   2.018   3.846   3.044
 8114SOL    HW225242   1.892   3.928   2.980
 8115SOL     OW25243   2.459   1.117   5.898
 8115SOL    HW125244   2.373   1.076   5.929
 8115SOL    HW225245   2.493   1.180   5.968
 8116SOL     OW25246   4.185   3.190   1.698
 8116SOL    HW125247   4.142   3.268   1.744
 8116SOL    HW225248   4.139   3.105   1.726
 8117SOL     OW25249   2.475   6.727   4.177
 8117SOL    HW125250   2.487   6.793   4.103
 8117SOL    HW225251   2.397   6.754   4.233
 8118SOL     OW25252   6.975   3.158   6.874
 8118SOL    HW125253   6.993   3.254   6.856
 8118SOL    HW225254   6.914   3.121   6.805
 8119SOL     OW25255   5.313   6.432   6.479
 8119SOL    HW125256   5.409   6.409   6.492
 8119SOL    HW225257   5.264   6.353   6.442
 8120SOL     OW25258   1.781   6.679   2.309
 8120SOL    HW125259   1.877   6.657   2.327
 8120SOL    HW225260   1.763   6.672   2.211
 8121SOL     OW25261   1.418   2.584   2.172
 8121SOL    HW125262   1.337   2.629   2.210
 8121SOL    HW225263   1.390   2.525   2.096
 8122SOL     OW25264   0.620   4.543   1.411
 8122SOL    HW125265   0.608   4.595   1.326
 8122SOL    HW225266   0.577   4.453   1.401
 8123SOL     OW25267   6.678   2.049   0.242
 8123SOL    HW125268   6.598   2.006   0.199
 8123SOL    HW225269   6.711   1.990   0.315
 8124SOL     OW25270   5.986   5.908   5.645
 8124SOL    HW125271   5.953   5.818   5.619
 8124SOL    HW225272   5.915   5.976   5.628
 8125SOL     OW25273   1.113   5.465   2.265
 8125SOL    HW125274   1.198   5.517   2.279
 8125SOL    HW225275   1.105   5.441   2.168
 8126SOL     OW25276   3.810   5.726   5.084
 8126SOL    HW125277   3.789   5.824   5.094
 8126SOL    HW225278   3.887   5.715   5.021
 8127SOL     OW25279   3.612   1.744   6.331
 8127SOL    HW125280   3.637   1.648   6.316
 8127SOL    HW225281   3.514   1.749   6.353
 8128SOL     OW25282   3.075   2.642   1.157
 8128SOL    HW125283   3.040   2.568   1.100
 8128SOL    HW225284   3.116   2.604   1.240
 8129SOL     OW25285   0.611   2.252   2.681
 8129SOL    HW125286   0.525   2.204   2.695
 8129SOL    HW225287   0.593   2.341   2.639
 8130SOL     OW25288   0.099   6.152   6.721
 8130SOL    HW125289   0.182   6.101   6.700
 8130SOL    HW225290   0.076   6.139   6.817
 8131SOL     OW25291   1.737   2.532   0.204
 8131SOL    HW125292   1.794   2.468   0.256
 8131SOL    HW225293   1.645   2.534   0.242
 8132SOL     OW25294   6.597   1.585   5.233
 8132SOL    HW125295   6.519   1.621   5.284
 8132SOL    HW225296   6.572   1.498   5.191
 8133SOL     OW25297   3.015   4.748   1.418
 8133SOL    HW125298   3.079   4.821   1.440
 8133SOL    HW225299   2.923   4.774   1.445
 8134SOL     OW25300   5.344   2.006   5.590
 8134SOL    HW125301   5.430   1.960   5.614
 8134SOL    HW225302   5.336   2.091   5.643
 8135SOL     OW25303   2.571   6.725   2.082
 8135SOL    HW125304   2.538   6.631   2.078
 8135SOL    HW225305   2.641   6.739   2.013
 8136SOL     OW25306   5.017   4.377   2.019
 8136SOL    HW125307   4.980   4.417   2.103
 8136SOL    HW225308   5.089   4.312   2.042
 8137SOL     OW25309   4.621   2.169   6.039
 8137SOL    HW125310   4.703   2.131   5.996
 8137SOL    HW225311   4.619   2.144   6.136
 8138SOL     OW25312   5.120   1.192   2.156
 8138SOL    HW125313   5.045   1.172   2.220
 8138SOL    HW225314   5.207   1.179   2.203
 8139SOL     OW25315   0.050   1.784   3.294
 8139SOL    HW125316   0.030   1.718   3.222
 8139SOL    HW225317   0.142   1.822   3.280
 8140SOL     OW25318   4.824   2.435   3.124
 8140SOL    HW125319   4.759   2.502   3.162
 8140SOL    HW225320   4.839   2.455   3.027
 8141SOL     OW25321   5.454   4.218   4.340
 8141SOL    HW125322   5.369   4.215   4.288
 8141SOL    HW225323   5.528   4.179   4.285
 8142SOL     OW25324   0.412   6.147   6.693
 8142SOL    HW125325   0.501   6.103   6.680
 8142SOL    HW225326   0.383   6.135   6.788
 8143SOL     OW25327   6.139   3.479   5.537
 8143SOL    HW125328   6.085   3.443   5.613
 8143SOL    HW225329   6.233   3.496   5.567
 8144SOL     OW25330   5.097   6.788   0.010
 8144SOL    HW125331   5.140   6.785   0.100
 8144SOL    HW225332   5.167   6.796   6.963
 8145SOL     OW25333   4.768   6.209   3.076
 8145SOL    HW125334   4.752   6.275   3.149
 8145SOL    HW225335   4.834   6.247   3.010
 8146SOL     OW25336   3.664   1.249   4.480
 8146SOL    HW125337   3.601   1.318   4.444
 8146SOL    HW225338   3.697   1.191   4.405
 8147SOL     OW25339   4.997   0.880   2.826
 8147SOL    HW125340   5.025   0.935   2.905
 8147SOL    HW225341   5.053   0.797   2.821
 8148SOL     OW25342   6.030   4.246   3.359
 8148SOL    HW125343   5.984   4.232   3.447
 8148SOL    HW225344   6.019   4.341   3.330
 8149SOL     OW25345   3.741   5.244   3.005
 8149SOL    HW125346   3.706   5.189   2.929
 8149SOL    HW225347   3.714   5.339   2.993
 8150SOL     OW25348   1.073   5.963   1.398
 8150SOL    HW125349   1.168   5.995   1.400
 8150SOL    HW225350   1.013   6.041   1.381
 8151SOL     OW25351   0.473   1.771   4.568
 8151SOL    HW125352   0.529   1.790   4.487
 8151SOL    HW225353   0.533   1.755   4.646
 8152SOL     OW25354   1.510   0.490   3.431
 8152SOL    HW125355   1.597   0.514   3.475
 8152SOL    HW225356   1.471   0.571   3.387
 8153SOL     OW25357   1.823   6.624   0.428
 8153SOL    HW125358   1.817   6.632   0.527
 8153SOL    HW225359   1.911   6.585   0.403
 8154SOL     OW25360   2.217   6.669   3.340
 8154SOL    HW125361   2.177   6.743   3.284
 8154SOL    HW225362   2.230   6.702   3.433
 8155SOL     OW25363   3.319   3.826   4.775
 8155SOL    HW125364   3.373   3.789   4.699
 8155SOL    HW225365   3.285   3.750   4.831
 8156SOL     OW25366   0.261   0.624   5.707
 8156SOL    HW125367   0.194   0.632   5.781
 8156SOL    HW225368   0.311   0.538   5.716
 8157SOL     OW25369   6.177   2.295   6.860
 8157SOL    HW125370   6.092   2.242   6.857
 8157SOL    HW225371   6.161   2.380   6.910
 8158SOL     OW25372   1.773   5.125   2.179
 8158SOL    HW125373   1.758   5.046   2.120
 8158SOL    HW225374   1.869   5.152   2.176
 8159SOL     OW25375   0.570   5.397   1.789
 8159SOL    HW125376   0.498   5.465   1.802
 8159SOL    HW225377   0.567   5.331   1.864
 8160SOL     OW25378   4.817   1.943   1.792
 8160SOL    HW125379   4.873   2.009   1.744
 8160SOL    HW225380   4.747   1.906   1.730
 8161SOL     OW25381   4.471   2.303   1.826
 8161SOL    HW125382   4.498   2.240   1.899
 8161SOL    HW225383   4.497   2.396   1.850
 8162SOL     OW25384   5.832   0.609   1.977
 8162SOL    HW125385   5.773   0.680   1.937
 8162SOL    HW225386   5.928   0.629   1.954
 8163SOL     OW25387   1.908   3.331   4.848
 8163SOL    HW125388   1.982   3.359   4.788
 8163SOL    HW225389   1.945   3.305   4.937
 8164SOL     OW25390   4.926   2.442   2.609
 8164SOL    HW125391   4.913   2.497   2.526
 8164SOL    HW225392   4.958   2.351   2.584
 8165SOL     OW25393   2.312   5.011   1.712
 8165SOL    HW125394   2.352   5.016   1.804
 8165SOL    HW225395   2.363   5.070   1.650
 8166SOL     OW25396   3.526   6.845   1.288
 8166SOL    HW125397   3.544   6.751   1.259
 8166SOL    HW225398   3.553   6.909   1.216
 8167SOL     OW25399   5.726   3.027   4.348
 8167SOL    HW125400   5.734   2.944   4.294
 8167SOL    HW225401   5.634   3.033   4.387
 8168SOL     OW25402   3.076   1.632   2.111
 8168SOL    HW125403   3.162   1.680   2.129
 8168SOL    HW225404   3.012   1.649   2.185
 8169SOL     OW25405   5.468   3.992   5.004
 8169SOL    HW125406   5.529   4.071   4.999
 8169SOL    HW225407   5.442   3.964   4.911
 8170SOL     OW25408   1.361   4.754   4.559
 8170SOL    HW125409   1.357   4.658   4.587
 8170SOL    HW225410   1.427   4.764   4.484
 8171SOL     OW25411   1.460   1.134   6.199
 8171SOL    HW125412   1.428   1.226   6.220
 8171SOL    HW225413   1.431   1.109   6.106
 8172SOL     OW25414   0.030   6.485   1.179
 8172SOL    HW125415   0.070   6.409   1.128
 8172SOL    HW225416   7.022   6.453   1.268
 8173SOL     OW25417   5.726   2.775   6.952
 8173SOL    HW125418   5.773   2.715   6.888
 8173SOL    HW225419   5.734   2.870   6.921
 8174SOL     OW25420   5.260   6.585   2.012
 8174SOL    HW125421   5.335   6.634   2.055
 8174SOL    HW225422   5.287   6.490   1.993
 8175SOL     OW25423   1.505   2.596   4.572
 8175SOL    HW125424   1.502   2.686   4.616
 8175SOL    HW225425   1.545   2.530   4.635
 8176SOL     OW25426   3.948   5.490   3.489
 8176SOL    HW125427   3.952   5.493   3.390
 8176SOL    HW225428   3.989   5.572   3.528
 8177SOL     OW25429   0.813   6.800   5.401
 8177SOL    HW125430   0.842   6.892   5.379
 8177SOL    HW225431   0.881   6.734   5.370
 8178SOL     OW25432   2.003   6.855   5.951
 8178SOL    HW125433   1.986   6.785   5.881
 8178SOL    HW225434   2.099   6.880   5.950
 8179SOL     OW25435   3.288   0.342   0.172
 8179SOL    HW125436   3.301   0.420   0.112
 8179SOL    HW225437   3.220   0.280   0.132
 8180SOL     OW25438   4.525   4.792   6.031
 8180SOL    HW125439   4.442   4.763   5.983
 8180SOL    HW225440   4.603   4.791   5.967
 8181SOL     OW25441   2.251   2.094   2.062
 8181SOL    HW125442   2.238   2.184   2.105
 8181SOL    HW225443   2.346   2.085   2.032
 8182SOL     OW25444   5.437   2.762   6.069
 8182SOL    HW125445   5.387   2.820   6.005
 8182SOL    HW225446   5.386   2.677   6.084
 8183SOL     OW25447   1.923   2.772   3.597
 8183SOL    HW125448   1.944   2.867   3.574
 8183SOL    HW225449   1.995   2.735   3.655
 8184SOL     OW25450   5.877   6.360   4.784
 8184SOL    HW125451   5.884   6.453   4.748
 8184SOL    HW225452   5.947   6.346   4.854
 8185SOL     OW25453   1.822   2.145   3.283
 8185SOL    HW125454   1.876   2.061   3.289
 8185SOL    HW225455   1.859   2.203   3.211
 8186SOL     OW25456   4.239   4.083   6.640
 8186SOL    HW125457   4.206   4.085   6.546
 8186SOL    HW225458   4.254   4.177   6.672
 8187SOL     OW25459   1.930   1.071   5.723
 8187SOL    HW125460   1.991   0.999   5.755
 8187SOL    HW225461   1.844   1.066   5.774
 8188SOL     OW25462   5.385   3.128   2.535
 8188SOL    HW125463   5.350   3.059   2.473
 8188SOL    HW225464   5.358   3.219   2.504
 8189SOL     OW25465   6.890   4.946   2.924
 8189SOL    HW125466   6.882   4.853   2.960
 8189SOL    HW225467   6.852   5.011   2.991
 8190SOL     OW25468   5.935   3.917   2.287
 8190SOL    HW125469   6.014   3.908   2.347
 8190SOL    HW225470   5.852   3.927   2.342
 8191SOL     OW25471   6.910   5.013   2.059
 8191SOL    HW125472   6.877   5.003   1.966
 8191SOL    HW225473   6.971   4.936   2.082
 8192SOL     OW25474   1.374   3.177   0.562
 8192SOL    HW125475   1.393   3.229   0.480
 8192SOL    HW225476   1.372   3.079   0.541
 8193SOL     OW25477   4.067   0.158   5.368
 8193SOL    HW125478   3.979   0.198   5.344
 8193SOL    HW225479   4.084   0.169   5.466
 8194SOL     OW25480   1.734   0.291   1.864
 8194SOL    HW125481   1.680   0.272   1.781
 8194SOL    HW225482   1.770   0.205   1.900
 8195SOL     OW25483   5.337   1.520   1.169
 8195SOL    HW125484   5.345   1.479   1.259
 8195SOL    HW225485   5.260   1.585   1.169
 8196SOL     OW25486   2.115   0.678   6.929
 8196SOL    HW125487   2.061   0.641   7.005
 8196SOL    HW225488   2.059   0.742   6.877
 8197SOL     OW25489   0.451   0.313   1.280
 8197SOL    HW125490   0.483   0.264   1.361
 8197SOL    HW225491   0.466   0.256   1.199
 8198SOL     OW25492   3.188   0.025   2.522
 8198SOL    HW125493   3.122   0.060   2.588
 8198SOL    HW225494   3.145   6.978   2.465
 8199SOL     OW25495   5.961   4.903   0.883
 8199SOL    HW125496   5.922   4.833   0.823
 8199SOL    HW225497   6.015   4.967   0.828
 8200SOL     OW25498   4.161   3.691   1.874
 8200SOL    HW125499   4.234   3.758   1.867
 8200SOL    HW225500   4.092   3.709   1.804
 8201SOL     OW25501   6.578   0.659   4.963
 8201SOL    HW125502   6.529   0.630   5.045
 8201SOL    HW225503   6.530   0.737   4.921
 8202SOL     OW25504   1.501   3.957   4.452
 8202SOL    HW125505   1.585   3.969   4.399
 8202SOL    HW225506   1.441   3.892   4.404
 8203SOL     OW25507   6.277   4.329   6.972
 8203SOL    HW125508   6.282   4.348   0.048
 8203SOL    HW225509   6.266   4.415   6.923
 8204SOL     OW25510   3.201   0.404   1.000
 8204SOL    HW125511   3.260   0.388   0.921
 8204SOL    HW225512   3.115   0.446   0.970
 8205SOL     OW25513   5.244   6.274   3.061
 8205SOL    HW125514   5.234   6.193   3.003
 8205SOL    HW225515   5.340   6.285   3.086
 8206SOL     OW25516   3.948   1.879   4.131
 8206SOL    HW125517   3.934   1.909   4.226
 8206SOL    HW225518   3.860   1.851   4.092
 8207SOL     OW25519   2.851   5.768   6.917
 8207SOL    HW125520   2.854   5.759   6.818
 8207SOL    HW225521   2.829   5.863   6.940
 8208SOL     OW25522   1.756   5.872   0.031
 8208SOL    HW125523   1.849   5.854   0.064
 8208SOL    HW225524   1.744   5.971   0.019
 8209SOL     OW25525   1.283   5.434   4.937
 8209SOL    HW125526   1.305   5.368   5.009
 8209SOL    HW225527   1.197   5.409   4.894
 8210SOL     OW25528   2.198   1.346   0.226
 8210SOL    HW125529   2.211   1.249   0.245
 8210SOL    HW225530   2.100   1.365   0.215
 8211SOL     OW25531   3.514   3.674   3.330
 8211SOL    HW125532   3.426   3.719   3.312
 8211SOL    HW225533   3.567   3.729   3.394
 8212SOL     OW25534   3.937   5.417   6.972
 8212SOL    HW125535   3.903   5.375   6.888
 8212SOL    HW225536   3.868   5.481   7.006
 8213SOL     OW25537   4.339   4.369   1.632
 8213SOL    HW125538   4.242   4.377   1.655
 8213SOL    HW225539   4.386   4.314   1.701
 8214SOL     OW25540   3.898   5.246   3.239
 8214SOL    HW125541   3.838   5.213   3.166
 8214SOL    HW225542   3.910   5.345   3.229
 8215SOL     OW25543   2.202   6.077   6.538
 8215SOL    HW125544   2.253   5.996   6.567
 8215SOL    HW225545   2.119   6.086   6.593
 8216SOL     OW25546   5.107   5.832   1.316
 8216SOL    HW125547   5.059   5.746   1.327
 8216SOL    HW225548   5.042   5.908   1.323
 8217SOL     OW25549   3.487   6.738   4.087
 8217SOL    HW125550   3.402   6.710   4.132
 8217SOL    HW225551   3.506   6.834   4.110
 8218SOL     OW25552   2.177   6.466   4.702
 8218SOL    HW125553   2.207   6.424   4.617
 8218SOL    HW225554   2.248   6.528   4.735
 8219SOL     OW25555   3.907   3.005   3.016
 8219SOL    HW125556   3.984   3.047   3.062
 8219SOL    HW225557   3.928   2.995   2.918
 8220SOL     OW25558   3.965   3.929   5.692
 8220SOL    HW125559   3.926   3.865   5.759
 8220SOL    HW225560   3.891   3.977   5.645
 8221SOL     OW25561   6.570   3.694   4.201
 8221SOL    HW125562   6.647   3.680   4.262
 8221SOL    HW225563   6.602   3.741   4.118
 8222SOL     OW25564   6.087   2.982   6.861
 8222SOL    HW125565   6.136   3.023   6.784
 8222SOL    HW225566   5.989   2.982   6.843
 8223SOL     OW25567   1.556   6.194   5.577
 8223SOL    HW125568   1.462   6.219   5.554
 8223SOL    HW225569   1.609   6.276   5.598
 8224SOL     OW25570   5.730   1.397   6.464
 8224SOL    HW125571   5.630   1.399   6.467
 8224SOL    HW225572   5.763   1.461   6.394
 8225SOL     OW25573   5.767   3.257   0.109
 8225SOL    HW125574   5.757   3.277   0.206
 8225SOL    HW225575   5.771   3.158   0.095
 8226SOL     OW25576   3.421   1.492   6.701
 8226SOL    HW125577   3.499   1.537   6.743
 8226SOL    HW225578   3.444   1.466   6.607
 8227SOL     OW25579   4.538   2.567   2.881
 8227SOL    HW125580   4.533   2.604   2.974
 8227SOL    HW225581   4.600   2.623   2.827
 8228SOL     OW25582   3.164   0.778   4.770
 8228SOL    HW125583   3.149   0.733   4.858
 8228SOL    HW225584   3.097   0.851   4.758
 8229SOL     OW25585   4.544   4.952   1.000
 8229SOL    HW125586   4.584   4.881   1.058
 8229SOL    HW225587   4.545   5.039   1.050
 8230SOL     OW25588   5.893   1.352   6.167
 8230SOL    HW125589   5.805   1.330   6.125
 8230SOL    HW225590   5.884   1.436   6.222
 8231SOL     OW25591   3.061   1.291   2.058
 8231SOL    HW125592   3.045   1.285   2.156
 8231SOL    HW225593   3.021   1.211   2.013
 8232SOL     OW25594   3.848   6.097   3.088
 8232SOL    HW125595   3.833   6.057   2.998
 8232SOL    HW225596   3.910   6.176   3.080
 8233SOL     OW25597   1.789   1.200   6.848
 8233SOL    HW125598   1.710   1.148   6.816
 8233SOL    HW225599   1.841   1.233   6.769
 8234SOL     OW25600   1.329   2.717   0.009
 8234SOL    HW125601   1.348   2.619   0.016
 8234SOL    HW225602   1.390   2.759   6.966
 8235SOL     OW25603   0.362   0.556   1.222
 8235SOL    HW125604   0.267   0.562   1.193
 8235SOL    HW225605   0.389   0.461   1.230
 8236SOL     OW25606   0.709   6.965   1.080
 8236SOL    HW125607   0.670   6.934   0.993
 8236SOL    HW225608   0.643   6.950   1.153
 8237SOL     OW25609   4.011   5.053   5.401
 8237SOL    HW125610   4.051   5.113   5.471
 8237SOL    HW225611   4.003   4.960   5.437
 8238SOL     OW25612   0.266   5.696   0.326
 8238SOL    HW125613   0.329   5.619   0.315
 8238SOL    HW225614   0.203   5.698   0.248
 8239SOL     OW25615   3.704   1.708   5.554
 8239SOL    HW125616   3.608   1.706   5.529
 8239SOL    HW225617   3.750   1.626   5.519
 8240SOL     OW25618   3.616   4.064   5.097
 8240SOL    HW125619   3.592   4.029   5.006
 8240SOL    HW225620   3.539   4.118   5.133
 8241SOL     OW25621   1.107   3.653   5.297
 8241SOL    HW125622   1.189   3.596   5.295
 8241SOL    HW225623   1.134   3.749   5.296
 8242SOL     OW25624   0.291   2.662   2.365
 8242SOL    HW125625   0.342   2.576   2.364
 8242SOL    HW225626   0.218   2.656   2.434
 8243SOL     OW25627   1.498   6.862   3.760
 8243SOL    HW125628   1.538   6.806   3.833
 8243SOL    HW225629   1.505   6.959   3.785
 8244SOL     OW25630   6.089   0.189   4.191
 8244SOL    HW125631   6.137   0.104   4.170
 8244SOL    HW225632   6.145   0.267   4.163
 8245SOL     OW25633   4.804   3.026   2.452
 8245SOL    HW125634   4.736   2.956   2.433
 8245SOL    HW225635   4.860   2.998   2.531
 8246SOL     OW25636   1.891   4.278   6.634
 8246SOL    HW125637   1.800   4.316   6.648
 8246SOL    HW225638   1.913   4.276   6.537
 8247SOL     OW25639   2.742   4.718   3.232
 8247SOL    HW125640   2.727   4.761   3.322
 8247SOL    HW225641   2.818   4.762   3.186
 8248SOL     OW25642   6.919   5.566   3.359
 8248SOL    HW125643   6.996   5.620   3.392
 8248SOL    HW225644   6.927   5.472   3.392
 8249SOL     OW25645   2.858   1.189   6.582
 8249SOL    HW125646   2.863   1.260   6.652
 8249SOL    HW225647   2.829   1.229   6.495
 8250SOL     OW25648   1.554   2.030   0.014
 8250SOL    HW125649   1.622   2.096   7.006
 8250SOL    HW225650   1.594   1.938   0.013
 8251SOL     OW25651   0.892   1.771   5.516
 8251SOL    HW125652   0.960   1.792   5.587
 8251SOL    HW225653   0.913   1.823   5.433
 8252SOL     OW25654   0.813   2.070   6.792
 8252SOL    HW125655   0.795   2.064   6.694
 8252SOL    HW225656   0.879   1.999   6.818
 8253SOL     OW25657   5.768   4.473   6.303
 8253SOL    HW125658   5.714   4.443   6.382
 8253SOL    HW225659   5.813   4.394   6.262
 8254SOL     OW25660   6.269   5.927   0.186
 8254SOL    HW125661   6.314   6.016   0.193
 8254SOL    HW225662   6.186   5.937   0.132
 8255SOL     OW25663   1.034   0.199   5.309
 8255SOL    HW125664   1.046   0.191   5.210
 8255SOL    HW225665   1.051   0.294   5.337
 8256SOL     OW25666   1.475   6.047   3.950
 8256SOL    HW125667   1.451   6.119   3.885
 8256SOL    HW225668   1.570   6.018   3.934
 8257SOL     OW25669   4.926   3.427   3.835
 8257SOL    HW125670   5.021   3.396   3.834
 8257SOL    HW225671   4.917   3.508   3.777
 8258SOL     OW25672   0.279   2.705   3.169
 8258SOL    HW125673   0.201   2.754   3.131
 8258SOL    HW225674   0.247   2.629   3.226
 8259SOL     OW25675   5.770   2.016   4.306
 8259SOL    HW125676   5.741   2.109   4.328
 8259SOL    HW225677   5.693   1.953   4.316
 8260SOL     OW25678   5.082   2.807   6.602
 8260SOL    HW125679   5.016   2.771   6.536
 8260SOL    HW225680   5.035   2.826   6.688
 8261SOL     OW25681   6.096   1.516   2.992
 8261SOL    HW125682   6.054   1.603   3.019
 8261SOL    HW225683   6.100   1.512   2.892
 8262SOL     OW25684   5.167   4.172   2.108
 8262SOL    HW125685   5.198   4.165   2.203
 8262SOL    HW225686   5.151   4.080   2.071
 8263SOL     OW25687   6.262   1.862   6.239
 8263SOL    HW125688   6.205   1.929   6.192
 8263SOL    HW225689   6.358   1.879   6.217
 8264SOL     OW25690   2.950   0.838   1.345
 8264SOL    HW125691   3.000   0.915   1.304
 8264SOL    HW225692   3.007   0.795   1.416
 8265SOL     OW25693   4.507   5.759   0.218
 8265SOL    HW125694   4.510   5.859   0.209
 8265SOL    HW225695   4.420   5.732   0.259
 8266SOL     OW25696   3.286   1.406   2.917
 8266SOL    HW125697   3.213   1.411   2.985
 8266SOL    HW225698   3.324   1.497   2.901
 8267SOL     OW25699   1.797   2.589   3.369
 8267SOL    HW125700   1.793   2.521   3.296
 8267SOL    HW225701   1.861   2.661   3.343
 8268SOL     OW25702   3.046   4.582   0.686
 8268SOL    HW125703   3.003   4.493   0.702
 8268SOL    HW225704   3.144   4.576   0.702
 8269SOL     OW25705   6.491   2.249   4.914
 8269SOL    HW125706   6.574   2.292   4.950
 8269SOL    HW225707   6.508   2.152   4.898
 8270SOL     OW25708   3.555   4.712   6.885
 8270SOL    HW125709   3.645   4.690   6.847
 8270SOL    HW225710   3.565   4.785   6.953
 8271SOL     OW25711   3.537   7.007   6.006
 8271SOL    HW125712   3.554   6.924   6.061
 8271SOL    HW225713   3.462   0.035   6.047
 8272SOL     OW25714   0.166   0.645   1.977
 8272SOL    HW125715   0.102   0.715   2.010
 8272SOL    HW225716   0.255   0.658   2.021
 8273SOL     OW25717   4.033   0.399   6.499
 8273SOL    HW125718   4.086   0.317   6.482
 8273SOL    HW225719   4.026   0.415   6.598
 8274SOL     OW25720   5.353   6.024   5.053
 8274SOL    HW125721   5.299   6.089   4.999
 8274SOL    HW225722   5.341   5.932   5.016
 8275SOL     OW25723   4.389   1.492   5.410
 8275SOL    HW125724   4.367   1.495   5.507
 8275SOL    HW225725   4.322   1.436   5.361
 8276SOL     OW25726   5.817   2.869   0.500
 8276SOL    HW125727   5.725   2.846   0.531
 8276SOL    HW225728   5.883   2.807   0.543
 8277SOL     OW25729   1.173   6.545   1.358
 8277SOL    HW125730   1.271   6.532   1.340
 8277SOL    HW225731   1.160   6.571   1.454
 8278SOL     OW25732   1.334   0.619   1.067
 8278SOL    HW125733   1.359   0.526   1.042
 8278SOL    HW225734   1.273   0.657   0.997
 8279SOL     OW25735   4.727   5.736   5.977
 8279SOL    HW125736   4.645   5.683   5.954
 8279SOL    HW225737   4.710   5.789   6.060
 8280SOL     OW25738   5.534   4.688   6.764
 8280SOL    HW125739   5.442   4.683   6.725
 8280SOL    HW225740   5.589   4.754   6.713
 8281SOL     OW25741   3.325   5.319   6.169
 8281SOL    HW125742   3.287   5.408   6.143
 8281SOL    HW225743   3.351   5.268   6.087
 8282SOL     OW25744   4.263   2.931   0.980
 8282SOL    HW125745   4.251   2.837   0.948
 8282SOL    HW225746   4.280   2.930   1.078
 8283SOL     OW25747   0.561   0.174   3.035
 8283SOL    HW125748   0.611   0.114   3.098
 8283SOL    HW225749   0.548   0.264   3.078
 8284SOL     OW25750   5.466   1.994   2.244
 8284SOL    HW125751   5.507   2.045   2.169
 8284SOL    HW225752   5.483   1.896   2.231
 8285SOL     OW25753   1.079   4.454   0.590
 8285SOL    HW125754   1.014   4.496   0.653
 8285SOL    HW225755   1.050   4.361   0.568
 8286SOL     OW25756   6.457   2.609   6.778
 8286SOL    HW125757   6.381   2.673   6.768
 8286SOL    HW225758   6.469   2.587   6.875
 8287SOL     OW25759   1.254   1.019   3.105
 8287SOL    HW125760   1.190   0.942   3.092
 8287SOL    HW225761   1.255   1.075   3.022
 8288SOL     OW25762   2.154   0.061   2.135
 8288SOL    HW125763   2.223   0.031   2.201
 8288SOL    HW225764   2.133   7.010   2.071
 8289SOL     OW25765   5.943   6.996   0.124
 8289SOL    HW125766   5.853   6.999   0.168
 8289SOL    HW225767   6.014   7.003   0.193
 8290SOL     OW25768   5.204   2.826   1.961
 8290SOL    HW125769   5.126   2.877   1.925
 8290SOL    HW225770   5.184   2.796   2.055
 8291SOL     OW25771   4.995   5.887   6.506
 8291SOL    HW125772   5.081   5.908   6.460
 8291SOL    HW225773   4.997   5.924   6.599
 8292SOL     OW25774   0.173   3.796   5.408
 8292SOL    HW125775   0.200   3.716   5.461
 8292SOL    HW225776   0.211   3.789   5.315
 8293SOL     OW25777   3.195   4.867   3.749
 8293SOL    HW125778   3.226   4.879   3.655
 8293SOL    HW225779   3.274   4.862   3.810
 8294SOL     OW25780   6.401   3.525   5.576
 8294SOL    HW125781   6.397   3.578   5.661
 8294SOL    HW225782   6.492   3.534   5.535
 8295SOL     OW25783   4.751   5.353   2.681
 8295SOL    HW125784   4.654   5.331   2.698
 8295SOL    HW225785   4.807   5.272   2.699
 8296SOL     OW25786   3.610   0.388   2.423
 8296SOL    HW125787   3.642   0.433   2.506
 8296SOL    HW225788   3.630   0.290   2.428
 8297SOL     OW25789   5.617   4.398   1.919
 8297SOL    HW125790   5.664   4.318   1.955
 8297SOL    HW225791   5.542   4.424   1.980
 8298SOL     OW25792   6.545   6.343   0.797
 8298SOL    HW125793   6.630   6.389   0.821
 8298SOL    HW225794   6.566   6.253   0.759
 8299SOL     OW25795   1.234   3.004   6.348
 8299SOL    HW125796   1.196   2.969   6.262
 8299SOL    HW225797   1.195   2.952   6.424
 8300SOL     OW25798   5.834   5.438   4.657
 8300SOL    HW125799   5.749   5.440   4.709
 8300SOL    HW225800   5.837   5.517   4.596
 8301SOL     OW25801   0.021   5.259   0.428
 8301SOL    HW125802   0.040   5.163   0.448
 8301SOL    HW225803   0.086   5.318   0.475
 8302SOL     OW25804   3.861   6.688   5.699
 8302SOL    HW125805   3.839   6.757   5.630
 8302SOL    HW225806   3.805   6.704   5.781
 8303SOL     OW25807   1.140   4.945   4.506
 8303SOL    HW125808   1.169   4.915   4.415
 8303SOL    HW225809   1.205   4.912   4.575
 8304SOL     OW25810   6.822   2.935   4.114
 8304SOL    HW125811   6.894   2.894   4.058
 8304SOL    HW225812   6.863   2.991   4.186
 8305SOL     OW25813   4.792   0.044   5.432
 8305SOL    HW125814   4.832   0.019   5.344
 8305SOL    HW225815   4.801   6.991   5.495
 8306SOL     OW25816   5.799   0.204   4.106
 8306SOL    HW125817   5.828   0.161   4.021
 8306SOL    HW225818   5.870   0.194   4.175
 8307SOL     OW25819   0.673   4.947   4.025
 8307SOL    HW125820   0.731   4.916   3.950
 8307SOL    HW225821   0.707   4.909   4.112
 8308SOL     OW25822   1.356   5.317   0.518
 8308SOL    HW125823   1.416   5.303   0.597
 8308SOL    HW225824   1.306   5.232   0.500
 8309SOL     OW25825   6.480   4.770   3.176
 8309SOL    HW125826   6.506   4.851   3.124
 8309SOL    HW225827   6.544   4.756   3.252
 8310SOL     OW25828   2.478   6.540   3.054
 8310SOL    HW125829   2.533   6.462   3.026
 8310SOL    HW225830   2.459   6.598   2.974
 8311SOL     OW25831   4.283   6.131   2.073
 8311SOL    HW125832   4.221   6.208   2.079
 8311SOL    HW225833   4.345   6.131   2.152
 8312SOL     OW25834   6.713   1.906   0.728
 8312SOL    HW125835   6.635   1.843   0.739
 8312SOL    HW225836   6.683   1.999   0.748
 8313SOL     OW25837   5.492   3.153   6.012
 8313SOL    HW125838   5.491   3.117   6.105
 8313SOL    HW225839   5.559   3.228   6.006
 8314SOL     OW25840   4.411   5.551   3.757
 8314SOL    HW125841   4.482   5.524   3.821
 8314SOL    HW225842   4.348   5.475   3.742
 8315SOL     OW25843   3.274   2.891   6.652
 8315SOL    HW125844   3.192   2.939   6.619
 8315SOL    HW225845   3.263   2.793   6.639
 8316SOL     OW25846   1.409   1.964   5.099
 8316SOL    HW125847   1.324   1.914   5.119
 8316SOL    HW225848   1.470   1.905   5.047
 8317SOL     OW25849   1.355   2.217   4.953
 8317SOL    HW125850   1.431   2.248   4.896
 8317SOL    HW225851   1.391   2.165   5.031
 8318SOL     OW25852   4.586   6.648   5.972
 8318SOL    HW125853   4.525   6.713   6.017
 8318SOL    HW225854   4.667   6.695   5.938
 8319SOL     OW25855   2.325   5.664   0.096
 8319SOL    HW125856   2.297   5.702   0.008
 8319SOL    HW225857   2.313   5.733   0.167
 8320SOL     OW25858   3.744   4.158   5.634
 8320SOL    HW125859   3.663   4.185   5.583
 8320SOL    HW225860   3.718   4.134   5.727
 8321SOL     OW25861   0.206   0.292   0.737
 8321SOL    HW125862   0.293   0.309   0.691
 8321SOL    HW225863   0.146   0.371   0.725
 8322SOL     OW25864   1.577   0.918   0.807
 8322SOL    HW125865   1.526   0.859   0.744
 8322SOL    HW225866   1.659   0.952   0.760
 8323SOL     OW25867   5.960   4.744   0.059
 8323SOL    HW125868   5.883   4.807   0.076
 8323SOL    HW225869   6.044   4.797   0.050
 8324SOL     OW25870   5.060   6.457   6.611
 8324SOL    HW125871   5.066   6.480   6.708
 8324SOL    HW225872   5.150   6.468   6.569
 8325SOL     OW25873   1.335   6.210   4.894
 8325SOL    HW125874   1.305   6.143   4.825
 8325SOL    HW225875   1.268   6.284   4.900
 8326SOL     OW25876   2.260   1.948   6.633
 8326SOL    HW125877   2.319   2.012   6.585
 8326SOL    HW225878   2.316   1.878   6.677
 8327SOL     OW25879   0.847   6.437   4.994
 8327SOL    HW125880   0.770   6.383   5.028
 8327SOL    HW225881   0.819   6.532   4.983
 8328SOL     OW25882   0.868   6.272   1.057
 8328SOL    HW125883   0.908   6.242   0.971
 8328SOL    HW225884   0.939   6.283   1.126
 8329SOL     OW25885   1.557   2.511   5.470
 8329SOL    HW125886   1.484   2.444   5.455
 8329SOL    HW225887   1.603   2.530   5.384
 8330SOL     OW25888   2.742   6.541   0.215
 8330SOL    HW125889   2.716   6.534   0.119
 8330SOL    HW225890   2.734   6.636   0.245
 8331SOL     OW25891   2.268   2.464   5.691
 8331SOL    HW125892   2.267   2.367   5.670
 8331SOL    HW225893   2.260   2.517   5.606
 8332SOL     OW25894   5.699   3.989   1.097
 8332SOL    HW125895   5.677   3.998   1.195
 8332SOL    HW225896   5.797   3.996   1.085
 8333SOL     OW25897   2.908   4.335   6.626
 8333SOL    HW125898   2.939   4.261   6.567
 8333SOL    HW225899   2.928   4.423   6.583
 8334SOL     OW25900   3.398   2.324   5.361
 8334SOL    HW125901   3.344   2.316   5.445
 8334SOL    HW225902   3.338   2.325   5.282
 8335SOL     OW25903   5.168   4.271   5.808
 8335SOL    HW125904   5.238   4.303   5.873
 8335SOL    HW225905   5.176   4.323   5.723
 8336SOL     OW25906   1.306   4.038   3.630
 8336SOL    HW125907   1.262   3.958   3.588
 8336SOL    HW225908   1.237   4.109   3.645
 8337SOL     OW25909   6.759   1.446   4.134
 8337SOL    HW125910   6.814   1.468   4.215
 8337SOL    HW225911   6.819   1.433   4.055
 8338SOL     OW25912   2.464   5.698   1.116
 8338SOL    HW125913   2.519   5.659   1.042
 8338SOL    HW225914   2.367   5.687   1.094
 8339SOL     OW25915   5.980   0.447   1.522
 8339SOL    HW125916   6.065   0.480   1.481
 8339SOL    HW225917   5.994   0.353   1.554
 8340SOL     OW25918   6.063   2.694   6.502
 8340SOL    HW125919   6.050   2.595   6.513
 8340SOL    HW225920   5.974   2.739   6.498
 8341SOL     OW25921   4.199   0.454   0.962
 8341SOL    HW125922   4.166   0.410   0.878
 8341SOL    HW225923   4.127   0.454   1.031
 8342SOL     OW25924   3.947   1.177   0.510
 8342SOL    HW125925   3.849   1.188   0.490
 8342SOL    HW225926   3.961   1.096   0.567
 8343SOL     OW25927   5.679   5.600   3.291
 8343SOL    HW125928   5.585   5.580   3.320
 8343SOL    HW225929   5.680   5.617   3.192
 8344SOL     OW25930   2.331   4.789   6.156
 8344SOL    HW125931   2.367   4.789   6.249
 8344SOL    HW225932   2.406   4.786   6.091
 8345SOL     OW25933   5.886   0.076   3.866
 8345SOL    HW125934   5.976   0.053   3.904
 8345SOL    HW225935   5.882   0.045   3.771
 8346SOL     OW25936   5.890   3.802   4.025
 8346SOL    HW125937   5.989   3.815   4.030
 8346SOL    HW225938   5.869   3.733   3.956
 8347SOL     OW25939   1.679   1.418   5.956
 8347SOL    HW125940   1.774   1.408   5.986
 8347SOL    HW225941   1.670   1.387   5.862
 8348SOL     OW25942   3.303   5.622   1.499
 8348SOL    HW125943   3.299   5.721   1.485
 8348SOL    HW225944   3.391   5.588   1.465
 8349SOL     OW25945   4.511   6.267   1.720
 8349SOL    HW125946   4.570   6.204   1.771
 8349SOL    HW225947   4.545   6.275   1.626
 8350SOL     OW25948   0.913   0.226   0.079
 8350SOL    HW125949   0.893   0.262   0.170
 8350SOL    HW225950   0.989   0.277   0.039
 8351SOL     OW25951   0.184   2.342   2.797
 8351SOL    HW125952   0.100   2.394   2.811
 8351SOL    HW225953   0.256   2.379   2.856
 8352SOL     OW25954   3.092   6.646   6.354
 8352SOL    HW125955   3.081   6.743   6.375
 8352SOL    HW225956   3.163   6.636   6.285
 8353SOL     OW25957   0.509   6.116   2.583
 8353SOL    HW125958   0.416   6.148   2.565
 8353SOL    HW225959   0.575   6.179   2.541
 8354SOL     OW25960   4.399   2.014   3.142
 8354SOL    HW125961   4.481   2.066   3.163
 8354SOL    HW225962   4.320   2.056   3.188
 8355SOL     OW25963   2.930   5.225   6.171
 8355SOL    HW125964   2.894   5.208   6.080
 8355SOL    HW225965   2.915   5.320   6.196
 8356SOL     OW25966   2.953   4.256   1.183
 8356SOL    HW125967   2.958   4.336   1.243
 8356SOL    HW225968   2.859   4.221   1.182
 8357SOL     OW25969   3.790   6.711   4.537
 8357SOL    HW125970   3.813   6.634   4.596
 8357SOL    HW225971   3.871   6.766   4.519
 8358SOL     OW25972   0.426   1.220   4.559
 8358SOL    HW125973   0.442   1.226   4.658
 8358SOL    HW225974   0.334   1.254   4.538
 8359SOL     OW25975   4.415   2.407   5.674
 8359SOL    HW125976   4.323   2.433   5.645
 8359SOL    HW225977   4.444   2.325   5.624
 8360SOL     OW25978   3.580   6.726   1.531
 8360SOL    HW125979   3.504   6.668   1.560
 8360SOL    HW225980   3.551   6.782   1.454
 8361SOL     OW25981   4.712   1.616   0.445
 8361SOL    HW125982   4.803   1.626   0.403
 8361SOL    HW225983   4.719   1.558   0.526
 8362SOL     OW25984   0.041   3.297   1.283
 8362SOL    HW125985   0.111   3.358   1.247
 8362SOL    HW225986   0.084   3.222   1.333
 8363SOL     OW25987   1.039   2.872   1.315
 8363SOL    HW125988   0.987   2.811   1.375
 8363SOL    HW225989   1.077   2.819   1.239
 8364SOL     OW25990   0.513   2.346   4.028
 8364SOL    HW125991   0.589   2.283   4.010
 8364SOL    HW225992   0.549   2.434   4.059
 8365SOL     OW25993   1.267   2.744   1.441
 8365SOL    HW125994   1.174   2.782   1.447
 8365SOL    HW225995   1.307   2.770   1.353
 8366SOL     OW25996   5.000   5.832   2.032
 8366SOL    HW125997   4.948   5.775   2.096
 8366SOL    HW225998   5.050   5.773   1.968
 8367SOL     OW25999   2.191   4.757   3.168
 8367SOL    HW126000   2.256   4.701   3.117
 8367SOL    HW226001   2.128   4.698   3.219
 8368SOL     OW26002   6.467   4.516   5.589
 8368SOL    HW126003   6.425   4.537   5.677
 8368SOL    HW226004   6.439   4.584   5.521
 8369SOL     OW26005   1.850   6.883   6.990
 8369SOL    HW126006   1.802   6.852   6.907
 8369SOL    HW226007   1.876   6.803   0.022
 8370SOL     OW26008   3.009   2.855   0.627
 8370SOL    HW126009   3.044   2.940   0.667
 8370SOL    HW226010   3.031   2.853   0.529
 8371SOL     OW26011   3.268   4.081   6.176
 8371SOL    HW126012   3.318   4.101   6.260
 8371SOL    HW226013   3.176   4.048   6.198
 8372SOL     OW26014   1.492   6.791   1.523
 8372SOL    HW126015   1.536   6.858   1.582
 8372SOL    HW226016   1.544   6.706   1.523
 8373SOL     OW26017   6.189   0.456   4.216
 8373SOL    HW126018   6.092   0.465   4.238
 8373SOL    HW226019   6.243   0.456   4.300
 8374SOL     OW26020   0.785   1.478   3.263
 8374SOL    HW126021   0.873   1.471   3.310
 8374SOL    HW226022   0.711   1.460   3.328
 8375SOL     OW26023   1.698   2.103   5.408
 8375SOL    HW126024   1.762   2.175   5.435
 8375SOL    HW226025   1.728   2.016   5.446
 8376SOL     OW26026   1.171   1.772   3.738
 8376SOL    HW126027   1.130   1.774   3.830
 8376SOL    HW226028   1.241   1.842   3.731
 8377SOL     OW26029   3.462   5.269   0.787
 8377SOL    HW126030   3.561   5.253   0.780
 8377SOL    HW226031   3.446   5.360   0.826
 8378SOL     OW26032   4.466   5.455   4.661
 8378SOL    HW126033   4.450   5.418   4.753
 8378SOL    HW226034   4.481   5.553   4.667
 8379SOL     OW26035   6.143   1.976   1.665
 8379SOL    HW126036   6.227   1.951   1.617
 8379SOL    HW226037   6.152   1.951   1.762
 8380SOL     OW26038   0.707   6.246   2.176
 8380SOL    HW126039   0.698   6.330   2.231
 8380SOL    HW226040   0.738   6.171   2.235
 8381SOL     OW26041   1.196   1.987   2.342
 8381SOL    HW126042   1.216   2.078   2.377
 8381SOL    HW226043   1.280   1.944   2.310
 8382SOL     OW26044   0.556   6.914   1.608
 8382SOL    HW126045   0.517   7.004   1.628
 8382SOL    HW226046   0.624   6.923   1.535
 8383SOL     OW26047   2.738   6.732   5.672
 8383SOL    HW126048   2.689   6.660   5.622
 8383SOL    HW226049   2.814   6.765   5.616
 8384SOL     OW26050   0.461   3.366   2.890
 8384SOL    HW126051   0.471   3.464   2.905
 8384SOL    HW226052   0.534   3.334   2.830
 8385SOL     OW26053   4.714   2.245   2.167
 8385SOL    HW126054   4.709   2.217   2.263
 8385SOL    HW226055   4.656   2.325   2.152
 8386SOL     OW26056   0.877   5.299   1.373
 8386SOL    HW126057   0.793   5.257   1.406
 8386SOL    HW226058   0.907   5.370   1.438
 8387SOL     OW26059   0.800   1.582   3.015
 8387SOL    HW126060   0.707   1.593   2.980
 8387SOL    HW226061   0.798   1.529   3.100
 8388SOL     OW26062   4.000   5.008   1.553
 8388SOL    HW126063   3.966   4.940   1.617
 8388SOL    HW226064   4.046   4.962   1.477
 8389SOL     OW26065   1.195   2.977   3.738
 8389SOL    HW126066   1.186   3.053   3.673
 8389SOL    HW226067   1.281   2.985   3.787
 8390SOL     OW26068   2.644   0.478   6.359
 8390SOL    HW126069   2.703   0.515   6.430
 8390SOL    HW226070   2.642   0.378   6.365
 8391SOL     OW26071   4.909   6.072   0.637
 8391SOL    HW126072   4.950   6.064   0.547
 8391SOL    HW226073   4.979   6.061   0.707
 8392SOL     OW26074   4.716   6.156   0.299
 8392SOL    HW126075   4.628   6.172   0.255
 8392SOL    HW226076   4.705   6.154   0.398
 8393SOL     OW26077   0.779   5.108   2.102
 8393SOL    HW126078   0.864   5.064   2.076
 8393SOL    HW226079   0.796   5.175   2.174
 8394SOL     OW26080   1.426   1.849   3.607
 8394SOL    HW126081   1.507   1.867   3.553
 8394SOL    HW226082   1.418   1.751   3.626
 8395SOL     OW26083   1.241   6.479   6.005
 8395SOL    HW126084   1.215   6.396   6.054
 8395SOL    HW226085   1.256   6.457   5.909
 8396SOL     OW26086   4.761   2.284   1.220
 8396SOL    HW126087   4.824   2.331   1.158
 8396SOL    HW226088   4.705   2.351   1.268
 8397SOL     OW26089   1.937   5.196   3.480
 8397SOL    HW126090   2.010   5.263   3.467
 8397SOL    HW226091   1.977   5.105   3.493
 8398SOL     OW26092   6.081   1.782   0.072
 8398SOL    HW126093   5.986   1.753   0.060
 8398SOL    HW226094   6.106   1.845   7.021
 8399SOL     OW26095   5.648   5.669   6.678
 8399SOL    HW126096   5.660   5.684   6.580
 8399SOL    HW226097   5.585   5.593   6.692
 8400SOL     OW26098   6.817   6.345   4.034
 8400SOL    HW126099   6.870   6.392   4.104
 8400SOL    HW226100   6.720   6.346   4.058
 8401SOL     OW26101   2.908   3.639   5.714
 8401SOL    HW126102   2.912   3.718   5.653
 8401SOL    HW226103   2.923   3.669   5.808
 8402SOL     OW26104   4.835   0.498   5.376
 8402SOL    HW126105   4.816   0.521   5.471
 8402SOL    HW226106   4.756   0.520   5.319
 8403SOL     OW26107   0.900   2.921   5.457
 8403SOL    HW126108   0.936   3.013   5.446
 8403SOL    HW226109   0.801   2.922   5.439
 8404SOL     OW26110   4.288   4.935   5.366
 8404SOL    HW126111   4.272   5.031   5.341
 8404SOL    HW226112   4.214   4.878   5.330
 8405SOL     OW26113   2.083   2.413   4.899
 8405SOL    HW126114   2.126   2.411   4.989
 8405SOL    HW226115   2.011   2.483   4.899
 8406SOL     OW26116   5.249   3.840   1.983
 8406SOL    HW126117   5.216   3.907   1.917
 8406SOL    HW226118   5.193   3.846   2.067
 8407SOL     OW26119   5.023   3.643   3.099
 8407SOL    HW126120   5.021   3.599   3.009
 8407SOL    HW226121   5.085   3.722   3.096
 8408SOL     OW26122   5.203   3.833   3.877
 8408SOL    HW126123   5.197   3.913   3.818
 8408SOL    HW226124   5.113   3.810   3.912
 8409SOL     OW26125   0.826   1.597   3.841
 8409SOL    HW126126   0.828   1.683   3.791
 8409SOL    HW226127   0.855   1.612   3.936
 8410SOL     OW26128   2.294   5.960   2.263
 8410SOL    HW126129   2.361   5.921   2.326
 8410SOL    HW226130   2.223   6.007   2.315
 8411SOL     OW26131   1.892   3.172   3.092
 8411SOL    HW126132   1.989   3.146   3.094
 8411SOL    HW226133   1.879   3.245   3.025
 8412SOL     OW26134   6.619   2.106   2.599
 8412SOL    HW126135   6.673   2.023   2.596
 8412SOL    HW226136   6.679   2.186   2.596
 8413SOL     OW26137   2.012   4.953   1.205
 8413SOL    HW126138   2.000   4.872   1.263
 8413SOL    HW226139   2.109   4.979   1.204
 8414SOL     OW26140   6.289   0.420   3.274
 8414SOL    HW126141   6.213   0.451   3.331
 8414SOL    HW226142   6.372   0.417   3.328
 8415SOL     OW26143   6.884   4.158   1.636
 8415SOL    HW126144   6.841   4.092   1.574
 8415SOL    HW226145   6.852   4.250   1.613
 8416SOL     OW26146   4.878   4.422   2.282
 8416SOL    HW126147   4.944   4.391   2.350
 8416SOL    HW226148   4.790   4.378   2.298
 8417SOL     OW26149   1.858   5.887   6.623
 8417SOL    HW126150   1.888   5.974   6.583
 8417SOL    HW226151   1.807   5.835   6.554
 8418SOL     OW26152   6.553   5.679   2.742
 8418SOL    HW126153   6.527   5.699   2.837
 8418SOL    HW226154   6.652   5.689   2.731
 8419SOL     OW26155   5.120   6.903   4.044
 8419SOL    HW126156   5.095   6.960   3.966
 8419SOL    HW226157   5.047   6.837   4.063
 8420SOL     OW26158   4.159   2.556   5.742
 8420SOL    HW126159   4.203   2.635   5.786
 8420SOL    HW226160   4.116   2.499   5.812
 8421SOL     OW26161   0.386   1.064   1.054
 8421SOL    HW126162   0.409   0.983   1.107
 8421SOL    HW226163   0.291   1.059   1.024
 8422SOL     OW26164   3.648   0.127   2.174
 8422SOL    HW126165   3.592   0.045   2.183
 8422SOL    HW226166   3.694   0.145   2.261
 8423SOL     OW26167   2.170   3.820   1.447
 8423SOL    HW126168   2.128   3.910   1.446
 8423SOL    HW226169   2.100   3.750   1.460
 8424SOL     OW26170   2.689   2.655   1.702
 8424SOL    HW126171   2.784   2.670   1.677
 8424SOL    HW226172   2.632   2.653   1.620
 8425SOL     OW26173   6.362   5.067   6.223
 8425SOL    HW126174   6.332   5.135   6.290
 8425SOL    HW226175   6.308   5.075   6.140
 8426SOL     OW26176   3.402   3.536   2.514
 8426SOL    HW126177   3.387   3.608   2.446
 8426SOL    HW226178   3.404   3.447   2.469
 8427SOL     OW26179   2.241   2.134   7.012
 8427SOL    HW126180   2.317   2.081   6.975
 8427SOL    HW226181   2.252   2.230   6.987
 8428SOL     OW26182   6.561   4.080   1.062
 8428SOL    HW126183   6.593   4.135   1.139
 8428SOL    HW226184   6.598   4.117   0.977
 8429SOL     OW26185   1.528   6.711   3.045
 8429SOL    HW126186   1.515   6.614   3.062
 8429SOL    HW226187   1.625   6.732   3.039
 8430SOL     OW26188   5.479   4.036   2.868
 8430SOL    HW126189   5.458   4.067   2.961
 8430SOL    HW226190   5.401   3.986   2.830
 8431SOL     OW26191   3.034   3.508   2.217
 8431SOL    HW126192   2.989   3.537   2.302
 8431SOL    HW226193   2.971   3.452   2.164
 8432SOL     OW26194   4.850   6.051   0.084
 8432SOL    HW126195   4.886   6.126   0.029
 8432SOL    HW226196   4.814   6.088   0.170
 8433SOL     OW26197   0.544   1.451   4.218
 8433SOL    HW126198   0.461   1.400   4.193
 8433SOL    HW226199   0.597   1.470   4.136
 8434SOL     OW26200   5.500   6.067   6.461
 8434SOL    HW126201   5.549   6.017   6.391
 8434SOL    HW226202   5.544   6.155   6.477
 8435SOL     OW26203   5.053   2.027   1.562
 8435SOL    HW126204   5.045   2.104   1.499
 8435SOL    HW226205   5.014   1.945   1.520
 8436SOL     OW26206   3.080   4.362   1.682
 8436SOL    HW126207   3.066   4.264   1.666
 8436SOL    HW226208   3.024   4.392   1.759
 8437SOL     OW26209   0.341   1.788   0.652
 8437SOL    HW126210   0.313   1.842   0.731
 8437SOL    HW226211   0.312   1.693   0.665
 8438SOL     OW26212   1.873   5.798   0.920
 8438SOL    HW126213   1.801   5.840   0.865
 8438SOL    HW226214   1.881   5.846   1.007
 8439SOL     OW26215   5.851   0.343   1.952
 8439SOL    HW126216   5.832   0.441   1.956
 8439SOL    HW226217   5.795   0.301   1.881
 8440SOL     OW26218   1.106   3.156   4.189
 8440SOL    HW126219   1.171   3.126   4.259
 8440SOL    HW226220   1.015   3.122   4.211
 8441SOL     OW26221   4.632   5.579   2.625
 8441SOL    HW126222   4.703   5.510   2.634
 8441SOL    HW226223   4.618   5.625   2.713
 8442SOL     OW26224   2.456   3.026   0.347
 8442SOL    HW126225   2.381   3.091   0.336
 8442SOL    HW226226   2.521   3.062   0.415
 8443SOL     OW26227   0.433   1.504   1.332
 8443SOL    HW126228   0.383   1.428   1.291
 8443SOL    HW226229   0.480   1.556   1.260
 8444SOL     OW26230   3.940   1.413   3.289
 8444SOL    HW126231   3.935   1.452   3.197
 8444SOL    HW226232   4.015   1.456   3.340
 8445SOL     OW26233   4.319   5.561   2.212
 8445SOL    HW126234   4.390   5.627   2.236
 8445SOL    HW226235   4.351   5.469   2.234
 8446SOL     OW26236   0.289   3.144   2.880
 8446SOL    HW126237   0.346   3.226   2.874
 8446SOL    HW226238   0.205   3.158   2.829
 8447SOL     OW26239   4.481   3.538   1.173
 8447SOL    HW126240   4.489   3.635   1.196
 8447SOL    HW226241   4.569   3.493   1.188
 8448SOL     OW26242   1.802   3.353   5.569
 8448SOL    HW126243   1.861   3.273   5.559
 8448SOL    HW226244   1.811   3.391   5.661
 8449SOL     OW26245   0.973   1.430   4.241
 8449SOL    HW126246   0.974   1.472   4.150
 8449SOL    HW226247   1.056   1.375   4.253
 8450SOL     OW26248   1.605   5.466   1.370
 8450SOL    HW126249   1.703   5.455   1.351
 8450SOL    HW226250   1.552   5.438   1.291
 8451SOL     OW26251   3.741   2.913   0.733
 8451SOL    HW126252   3.763   2.856   0.812
 8451SOL    HW226253   3.667   2.871   0.681
 8452SOL     OW26254   0.286   5.412   1.505
 8452SOL    HW126255   0.192   5.378   1.499
 8452SOL    HW226256   0.348   5.335   1.514
 8453SOL     OW26257   6.363   5.248   5.425
 8453SOL    HW126258   6.440   5.311   5.434
 8453SOL    HW226259   6.392   5.156   5.450
 8454SOL     OW26260   2.370   6.615   4.833
 8454SOL    HW126261   2.390   6.639   4.928
 8454SOL    HW226262   2.455   6.609   4.782
 8455SOL     OW26263   6.108   2.866   0.741
 8455SOL    HW126264   6.149   2.958   0.742
 8455SOL    HW226265   6.136   2.816   0.823
 8456SOL     OW26266   5.070   5.008   3.693
 8456SOL    HW126267   4.981   4.989   3.651
 8456SOL    HW226268   5.076   5.105   3.718
 8457SOL     OW26269   6.778   6.044   6.157
 8457SOL    HW126270   6.818   5.954   6.143
 8457SOL    HW226271   6.798   6.103   6.079
 8458SOL     OW26272   1.687   2.294   1.093
 8458SOL    HW126273   1.738   2.230   1.036
 8458SOL    HW226274   1.686   2.261   1.187
 8459SOL     OW26275   2.341   5.423   3.285
 8459SOL    HW126276   2.267   5.437   3.352
 8459SOL    HW226277   2.305   5.437   3.193
 8460SOL     OW26278   3.964   1.626   0.868
 8460SOL    HW126279   4.055   1.611   0.904
 8460SOL    HW226280   3.898   1.633   0.943
 8461SOL     OW26281   5.379   4.110   3.127
 8461SOL    HW126282   5.303   4.064   3.173
 8461SOL    HW226283   5.358   4.207   3.118
 8462SOL     OW26284   1.996   3.847   0.943
 8462SOL    HW126285   1.926   3.918   0.952
 8462SOL    HW226286   1.999   3.815   0.848
 8463SOL     OW26287   6.931   0.391   0.775
 8463SOL    HW126288   6.967   0.358   0.862
 8463SOL    HW226289   6.851   0.336   0.749
 8464SOL     OW26290   6.196   3.663   6.336
 8464SOL    HW126291   6.096   3.654   6.343
 8464SOL    HW226292   6.239   3.613   6.410
 8465SOL     OW26293   4.987   3.524   0.766
 8465SOL    HW126294   4.891   3.501   0.753
 8465SOL    HW226295   5.038   3.505   0.682
 8466SOL     OW26296   0.501   1.623   5.096
 8466SOL    HW126297   0.539   1.531   5.087
 8466SOL    HW226298   0.426   1.635   5.031
 8467SOL     OW26299   2.867   1.288   0.575
 8467SOL    HW126300   2.871   1.194   0.540
 8467SOL    HW226301   2.959   1.319   0.598
 8468SOL     OW26302   5.551   4.295   0.470
 8468SOL    HW126303   5.516   4.232   0.401
 8468SOL    HW226304   5.474   4.336   0.519
 8469SOL     OW26305   3.605   2.997   5.470
 8469SOL    HW126306   3.555   3.067   5.419
 8469SOL    HW226307   3.677   3.040   5.525
 8470SOL     OW26308   1.169   5.633   1.648
 8470SOL    HW126309   1.201   5.623   1.743
 8470SOL    HW226310   1.241   5.603   1.586
 8471SOL     OW26311   4.378   2.302   4.934
 8471SOL    HW126312   4.342   2.292   4.841
 8471SOL    HW226313   4.323   2.367   4.984
 8472SOL     OW26314   5.534   1.996   6.794
 8472SOL    HW126315   5.444   2.037   6.812
 8472SOL    HW226316   5.606   2.063   6.814
 8473SOL     OW26317   5.040   5.239   5.929
 8473SOL    HW126318   5.060   5.336   5.944
 8473SOL    HW226319   5.118   5.184   5.959
 8474SOL     OW26320   2.902   4.120   5.283
 8474SOL    HW126321   2.906   4.216   5.311
 8474SOL    HW226322   2.816   4.080   5.316
 8475SOL     OW26323   6.555   1.487   3.110
 8475SOL    HW126324   6.469   1.472   3.158
 8475SOL    HW226325   6.594   1.399   3.083
 8476SOL     OW26326   6.177   1.476   1.798
 8476SOL    HW126327   6.242   1.516   1.733
 8476SOL    HW226328   6.182   1.376   1.792
 8477SOL     OW26329   5.601   0.652   1.526
 8477SOL    HW126330   5.579   0.565   1.570
 8477SOL    HW226331   5.563   0.653   1.434
 8478SOL     OW26332   0.338   6.658   5.523
 8478SOL    HW126333   0.371   6.645   5.617
 8478SOL    HW226334   0.355   6.575   5.470
 8479SOL     OW26335   0.938   2.929   0.293
 8479SOL    HW126336   0.996   2.865   0.242
 8479SOL    HW226337   0.963   2.927   0.390
 8480SOL     OW26338   3.481   4.229   0.810
 8480SOL    HW126339   3.572   4.190   0.795
 8480SOL    HW226340   3.422   4.163   0.855
 8481SOL     OW26341   4.200   2.186   2.336
 8481SOL    HW126342   4.234   2.183   2.430
 8481SOL    HW226343   4.176   2.281   2.313
 8482SOL     OW26344   4.387   0.818   6.565
 8482SOL    HW126345   4.319   0.885   6.537
 8482SOL    HW226346   4.458   0.811   6.495
 8483SOL     OW26347   3.877   4.857   3.247
 8483SOL    HW126348   3.844   4.862   3.153
 8483SOL    HW226349   3.975   4.835   3.247
 8484SOL     OW26350   5.966   6.264   5.371
 8484SOL    HW126351   5.897   6.222   5.430
 8484SOL    HW226352   6.022   6.326   5.425
 8485SOL     OW26353   4.145   1.225   6.327
 8485SOL    HW126354   4.081   1.286   6.375
 8485SOL    HW226355   4.220   1.280   6.289
 8486SOL     OW26356   5.935   2.415   5.014
 8486SOL    HW126357   5.909   2.493   5.070
 8486SOL    HW226358   5.976   2.447   4.928
 8487SOL     OW26359   6.669   2.466   5.894
 8487SOL    HW126360   6.706   2.416   5.972
 8487SOL    HW226361   6.744   2.511   5.845
 8488SOL     OW26362   4.639   4.304   2.877
 8488SOL    HW126363   4.658   4.244   2.799
 8488SOL    HW226364   4.692   4.274   2.956
 8489SOL     OW26365   6.112   1.800   2.197
 8489SOL    HW126366   6.146   1.719   2.148
 8489SOL    HW226367   6.167   1.879   2.173
 8490SOL     OW26368   2.999   6.609   0.228
 8490SOL    HW126369   3.025   6.614   0.324
 8490SOL    HW226370   2.911   6.562   0.219
 8491SOL     OW26371   3.227   5.217   2.362
 8491SOL    HW126372   3.135   5.179   2.353
 8491SOL    HW226373   3.283   5.185   2.285
 8492SOL     OW26374   6.453   5.712   4.423
 8492SOL    HW126375   6.546   5.742   4.404
 8492SOL    HW226376   6.396   5.727   4.342
 8493SOL     OW26377   4.798   1.025   5.999
 8493SOL    HW126378   4.782   1.120   5.974
 8493SOL    HW226379   4.719   0.969   5.974
 8494SOL     OW26380   6.799   3.161   2.356
 8494SOL    HW126381   6.765   3.238   2.302
 8494SOL    HW226382   6.722   3.120   2.405
 8495SOL     OW26383   5.923   5.617   6.502
 8495SOL    HW126384   5.929   5.715   6.516
 8495SOL    HW226385   5.912   5.571   6.590
 8496SOL     OW26386   5.444   2.525   2.622
 8496SOL    HW126387   5.346   2.508   2.635
 8496SOL    HW226388   5.456   2.603   2.562
 8497SOL     OW26389   0.220   0.451   2.805
 8497SOL    HW126390   0.235   0.361   2.763
 8497SOL    HW226391   0.123   0.465   2.821
 8498SOL     OW26392   4.744   6.507   4.141
 8498SOL    HW126393   4.721   6.414   4.170
 8498SOL    HW226394   4.674   6.539   4.077
 8499SOL     OW26395   5.704   6.835   5.505
 8499SOL    HW126396   5.713   6.736   5.515
 8499SOL    HW226397   5.626   6.855   5.445
 8500SOL     OW26398   0.825   0.516   0.013
 8500SOL    HW126399   0.825   0.418   0.035
 8500SOL    HW226400   0.772   0.565   0.083
 8501SOL     OW26401   2.546   1.103   6.180
 8501SOL    HW126402   2.534   1.093   6.279
 8501SOL    HW226403   2.560   1.013   6.139
 8502SOL     OW26404   6.157   3.368   6.928
 8502SOL    HW126405   6.208   3.452   6.905
 8502SOL    HW226406   6.117   3.378   7.019
 8503SOL     OW26407   4.658   2.596   5.512
 8503SOL    HW126408   4.752   2.630   5.509
 8503SOL    HW226409   4.620   2.608   5.603
 8504SOL     OW26410   0.937   0.035   2.463
 8504SOL    HW126411   0.865   0.087   2.508
 8504SOL    HW226412   1.018   0.094   2.451
 8505SOL     OW26413   5.590   2.393   2.811
 8505SOL    HW126414   5.542   2.446   2.741
 8505SOL    HW226415   5.563   2.297   2.805
 8506SOL     OW26416   1.060   6.644   6.218
 8506SOL    HW126417   1.085   6.602   6.131
 8506SOL    HW226418   0.969   6.685   6.210
 8507SOL     OW26419   3.668   5.149   5.636
 8507SOL    HW126420   3.739   5.202   5.682
 8507SOL    HW226421   3.602   5.211   5.594
 8508SOL     OW26422   3.163   1.033   6.363
 8508SOL    HW126423   3.226   1.089   6.309
 8508SOL    HW226424   3.173   0.937   6.338
 8509SOL     OW26425   5.344   2.202   2.467
 8509SOL    HW126426   5.283   2.131   2.432
 8509SOL    HW226427   5.352   2.275   2.399
 8510SOL     OW26428   0.599   2.216   4.464
 8510SOL    HW126429   0.592   2.315   4.478
 8510SOL    HW226430   0.593   2.170   4.553
 8511SOL     OW26431   6.245   1.877   3.841
 8511SOL    HW126432   6.285   1.933   3.913
 8511SOL    HW226433   6.147   1.869   3.855
 8512SOL     OW26434   2.076   5.943   5.688
 8512SOL    HW126435   1.980   5.914   5.678
 8512SOL    HW226436   2.094   5.966   5.783
 8513SOL     OW26437   4.804   5.863   6.925
 8513SOL    HW126438   4.720   5.810   6.922
 8513SOL    HW226439   4.815   5.903   7.017
 8514SOL     OW26440   3.695   5.452   4.195
 8514SOL    HW126441   3.603   5.492   4.193
 8514SOL    HW226442   3.702   5.387   4.271
 8515SOL     OW26443   6.221   2.336   1.812
 8515SOL    HW126444   6.309   2.307   1.851
 8515SOL    HW226445   6.149   2.275   1.843
 8516SOL     OW26446   6.777   1.886   2.552
 8516SOL    HW126447   6.861   1.898   2.500
 8516SOL    HW226448   6.703   1.859   2.491
 8517SOL     OW26449   1.351   3.419   5.603
 8517SOL    HW126450   1.299   3.502   5.624
 8517SOL    HW226451   1.376   3.373   5.688
 8518SOL     OW26452   2.641   5.634   0.919
 8518SOL    HW126453   2.626   5.663   0.824
 8518SOL    HW226454   2.727   5.673   0.952
 8519SOL     OW26455   2.718   5.792   3.686
 8519SOL    HW126456   2.682   5.699   3.693
 8519SOL    HW226457   2.812   5.790   3.653
 8520SOL     OW26458   3.393   6.449   6.724
 8520SOL    HW126459   3.439   6.535   6.703
 8520SOL    HW226460   3.435   6.408   6.805
 8521SOL     OW26461   1.844   0.071   1.996
 8521SOL    HW126462   1.825   0.010   2.073
 8521SOL    HW226463   1.877   0.017   1.919
 8522SOL     OW26464   2.714   6.306   4.750
 8522SOL    HW126465   2.682   6.279   4.659
 8522SOL    HW226466   2.760   6.229   4.794
 8523SOL     OW26467   1.664   6.672   6.773
 8523SOL    HW126468   1.627   6.760   6.744
 8523SOL    HW226469   1.592   6.616   6.813
 8524SOL     OW26470   1.834   1.535   6.921
 8524SOL    HW126471   1.903   1.503   6.985
 8524SOL    HW226472   1.877   1.560   6.835
 8525SOL     OW26473   6.055   3.545   4.117
 8525SOL    HW126474   6.018   3.478   4.054
 8525SOL    HW226475   5.988   3.564   4.189
 8526SOL     OW26476   2.076   3.229   2.130
 8526SOL    HW126477   1.988   3.247   2.085
 8526SOL    HW226478   2.149   3.273   2.078
 8527SOL     OW26479   4.417   0.389   4.149
 8527SOL    HW126480   4.471   0.316   4.189
 8527SOL    HW226481   4.469   0.432   4.074
 8528SOL     OW26482   5.448   1.647   6.615
 8528SOL    HW126483   5.369   1.709   6.611
 8528SOL    HW226484   5.513   1.681   6.682
 8529SOL     OW26485   6.591   6.304   5.487
 8529SOL    HW126486   6.547   6.373   5.430
 8529SOL    HW226487   6.648   6.245   5.430
 8530SOL     OW26488   1.841   4.814   6.318
 8530SOL    HW126489   1.742   4.797   6.328
 8530SOL    HW226490   1.881   4.830   6.408
 8531SOL     OW26491   4.375   4.842   1.978
 8531SOL    HW126492   4.351   4.747   1.962
 8531SOL    HW226493   4.293   4.894   2.004
 8532SOL     OW26494   1.551   3.890   0.911
 8532SOL    HW126495   1.643   3.866   0.883
 8532SOL    HW226496   1.553   3.974   0.966
 8533SOL     OW26497   3.895   6.424   5.669
 8533SOL    HW126498   3.867   6.517   5.693
 8533SOL    HW226499   3.887   6.411   5.570
 8534SOL     OW26500   1.767   2.549   1.068
 8534SOL    HW126501   1.743   2.453   1.081
 8534SOL    HW226502   1.817   2.560   0.982
 8535SOL     OW26503   0.597   3.262   5.339
 8535SOL    HW126504   0.514   3.292   5.386
 8535SOL    HW226505   0.574   3.236   5.245
 8536SOL     OW26506   5.713   1.058   5.927
 8536SOL    HW126507   5.722   0.966   5.964
 8536SOL    HW226508   5.682   1.120   5.999
 8537SOL     OW26509   4.537   6.520   3.181
 8537SOL    HW126510   4.461   6.585   3.174
 8537SOL    HW226511   4.507   6.430   3.150
 8538SOL     OW26512   4.891   0.265   4.995
 8538SOL    HW126513   4.801   0.247   5.034
 8538SOL    HW226514   4.924   0.353   5.028
 8539SOL     OW26515   1.091   3.061   2.433
 8539SOL    HW126516   1.087   3.161   2.426
 8539SOL    HW226517   1.007   3.027   2.475
 8540SOL     OW26518   4.016   0.417   6.765
 8540SOL    HW126519   4.041   0.328   6.803
 8540SOL    HW226520   4.094   0.479   6.774
 8541SOL     OW26521   2.687   6.466   5.158
 8541SOL    HW126522   2.698   6.472   5.257
 8541SOL    HW226523   2.640   6.380   5.135
 8542SOL     OW26524   0.951   5.407   5.461
 8542SOL    HW126525   0.986   5.380   5.551
 8542SOL    HW226526   0.909   5.328   5.416
 8543SOL     OW26527   2.950   2.349   5.338
 8543SOL    HW126528   3.038   2.350   5.291
 8543SOL    HW226529   2.956   2.402   5.422
 8544SOL     OW26530   5.165   4.412   5.566
 8544SOL    HW126531   5.074   4.435   5.530
 8544SOL    HW226532   5.218   4.368   5.494
 8545SOL     OW26533   2.062   6.880   6.243
 8545SOL    HW126534   2.144   6.934   6.263
 8545SOL    HW226535   2.030   6.902   6.150
 8546SOL     OW26536   3.859   1.647   3.806
 8546SOL    HW126537   3.894   1.738   3.781
 8546SOL    HW226538   3.931   1.579   3.795
 8547SOL     OW26539   5.293   6.292   5.813
 8547SOL    HW126540   5.312   6.351   5.734
 8547SOL    HW226541   5.326   6.200   5.793
 8548SOL     OW26542   1.067   4.603   4.375
 8548SOL    HW126543   1.139   4.632   4.312
 8548SOL    HW226544   0.991   4.563   4.324
 8549SOL     OW26545   2.191   0.410   4.031
 8549SOL    HW126546   2.237   0.465   3.962
 8549SOL    HW226547   2.200   0.454   4.121
 8550SOL     OW26548   0.224   5.021   5.322
 8550SOL    HW126549   0.217   4.922   5.308
 8550SOL    HW226550   0.269   5.039   5.410
 8551SOL     OW26551   3.876   1.030   4.612
 8551SOL    HW126552   3.879   1.044   4.513
 8551SOL    HW226553   3.791   1.069   4.648
 8552SOL     OW26554   3.547   1.588   2.000
 8552SOL    HW126555   3.448   1.575   1.987
 8552SOL    HW226556   3.592   1.499   2.000
 8553SOL     OW26557   4.839   4.035   0.773
 8553SOL    HW126558   4.918   4.088   0.742
 8553SOL    HW226559   4.867   3.975   0.848
 8554SOL     OW26560   1.261   1.060   6.531
 8554SOL    HW126561   1.257   1.155   6.500
 8554SOL    HW226562   1.218   1.001   6.463
 8555SOL     OW26563   3.064   2.153   3.276
 8555SOL    HW126564   3.084   2.191   3.366
 8555SOL    HW226565   3.149   2.126   3.231
 8556SOL     OW26566   0.205   5.474   5.266
 8556SOL    HW126567   0.216   5.559   5.317
 8556SOL    HW226568   0.146   5.412   5.316
 8557SOL     OW26569   6.360   1.034   6.914
 8557SOL    HW126570   6.313   1.017   6.828
 8557SOL    HW226571   6.457   1.012   6.905
 8558SOL     OW26572   3.019   6.416   3.808
 8558SOL    HW126573   2.937   6.461   3.842
 8558SOL    HW226574   3.018   6.416   3.708
 8559SOL     OW26575   1.847   3.551   2.447
 8559SOL    HW126576   1.868   3.575   2.353
 8559SOL    HW226577   1.784   3.473   2.448
 8560SOL     OW26578   3.654   3.781   1.218
 8560SOL    HW126579   3.577   3.767   1.155
 8560SOL    HW226580   3.620   3.780   1.312
 8561SOL     OW26581   3.955   0.874   2.821
 8561SOL    HW126582   3.978   0.820   2.902
 8561SOL    HW226583   3.875   0.931   2.841
 8562SOL     OW26584   5.516   2.491   6.552
 8562SOL    HW126585   5.557   2.543   6.477
 8562SOL    HW226586   5.421   2.470   6.530
 8563SOL     OW26587   2.289   5.344   2.625
 8563SOL    HW126588   2.204   5.301   2.595
 8563SOL    HW226589   2.326   5.293   2.703
 8564SOL     OW26590   3.688   6.066   0.477
 8564SOL    HW126591   3.655   6.038   0.567
 8564SOL    HW226592   3.723   6.160   0.481
 8565SOL     OW26593   1.237   5.186   0.851
 8565SOL    HW126594   1.232   5.090   0.823
 8565SOL    HW226595   1.157   5.235   0.816
 8566SOL     OW26596   3.818   0.916   3.130
 8566SOL    HW126597   3.869   0.831   3.120
 8566SOL    HW226598   3.728   0.907   3.089
 8567SOL     OW26599   1.824   2.512   1.618
 8567SOL    HW126600   1.828   2.417   1.648
 8567SOL    HW226601   1.758   2.562   1.674
 8568SOL     OW26602   6.048   0.549   5.680
 8568SOL    HW126603   5.994   0.634   5.679
 8568SOL    HW226604   6.099   0.542   5.594
 8569SOL     OW26605   5.303   1.867   0.335
 8569SOL    HW126606   5.243   1.874   0.255
 8569SOL    HW226607   5.255   1.903   0.415
 8570SOL     OW26608   2.221   1.486   3.048
 8570SOL    HW126609   2.202   1.526   2.958
 8570SOL    HW226610   2.152   1.518   3.114
 8571SOL     OW26611   1.341   0.549   3.638
 8571SOL    HW126612   1.381   0.634   3.671
 8571SOL    HW226613   1.397   0.513   3.563
 8572SOL     OW26614   3.237   4.001   5.561
 8572SOL    HW126615   3.163   3.961   5.506
 8572SOL    HW226616   3.222   4.099   5.571
 8573SOL     OW26617   2.094   6.009   6.277
 8573SOL    HW126618   2.146   6.051   6.352
 8573SOL    HW226619   2.038   5.935   6.313
 8574SOL     OW26620   5.190   1.595   5.438
 8574SOL    HW126621   5.264   1.594   5.370
 8574SOL    HW226622   5.143   1.683   5.435
 8575SOL     OW26623   3.385   6.384   4.364
 8575SOL    HW126624   3.379   6.388   4.264
 8575SOL    HW226625   3.455   6.449   4.395
 8576SOL     OW26626   1.409   4.448   4.340
 8576SOL    HW126627   1.350   4.368   4.323
 8576SOL    HW226628   1.378   4.524   4.283
 8577SOL     OW26629   2.265   0.360   0.165
 8577SOL    HW126630   2.361   0.385   0.177
 8577SOL    HW226631   2.211   0.396   0.242
 8578SOL     OW26632   0.836   0.133   5.972
 8578SOL    HW126633   0.792   0.223   5.974
 8578SOL    HW226634   0.824   0.089   6.061
 8579SOL     OW26635   3.510   0.236   1.946
 8579SOL    HW126636   3.559   0.190   2.020
 8579SOL    HW226637   3.503   0.175   1.867
 8580SOL     OW26638   1.922   0.462   1.598
 8580SOL    HW126639   1.833   0.505   1.582
 8580SOL    HW226640   1.921   0.417   1.687
 8581SOL     OW26641   3.730   3.878   2.095
 8581SOL    HW126642   3.665   3.953   2.098
 8581SOL    HW226643   3.815   3.909   2.052
 8582SOL     OW26644   4.434   5.617   6.114
 8582SOL    HW126645   4.377   5.535   6.110
 8582SOL    HW226646   4.432   5.655   6.206
 8583SOL     OW26647   2.881   6.910   2.820
 8583SOL    HW126648   2.807   6.854   2.785
 8583SOL    HW226649   2.902   6.983   2.755
 8584SOL     OW26650   6.200   1.558   5.001
 8584SOL    HW126651   6.117   1.511   5.033
 8584SOL    HW226652   6.181   1.655   4.989
 8585SOL     OW26653   4.905   2.530   2.354
 8585SOL    HW126654   4.972   2.497   2.288
 8585SOL    HW226655   4.819   2.550   2.306
 8586SOL     OW26656   5.924   5.655   5.615
 8586SOL    HW126657   5.920   5.585   5.686
 8586SOL    HW226658   5.973   5.619   5.535
 8587SOL     OW26659   6.411   1.694   0.119
 8587SOL    HW126660   6.496   1.663   0.163
 8587SOL    HW226661   6.333   1.659   0.170
 8588SOL     OW26662   1.868   0.647   5.093
 8588SOL    HW126663   1.868   0.615   5.187
 8588SOL    HW226664   1.786   0.614   5.046
 8589SOL     OW26665   5.325   2.938   0.007
 8589SOL    HW126666   5.364   2.986   0.086
 8589SOL    HW226667   5.358   2.981   6.945
 8590SOL     OW26668   1.011   1.578   3.584
 8590SOL    HW126669   0.916   1.607   3.566
 8590SOL    HW226670   1.061   1.653   3.627
 8591SOL     OW26671   0.324   4.397   5.338
 8591SOL    HW126672   0.394   4.375   5.269
 8591SOL    HW226673   0.348   4.354   5.425
 8592SOL     OW26674   6.854   1.732   4.035
 8592SOL    HW126675   6.836   1.652   4.092
 8592SOL    HW226676   6.901   1.801   4.090
 8593SOL     OW26677   6.359   1.007   0.176
 8593SOL    HW126678   6.264   1.036   0.172
 8593SOL    HW226679   6.395   0.997   0.083
 8594SOL     OW26680   5.940   4.283   6.272
 8594SOL    HW126681   6.020   4.243   6.229
 8594SOL    HW226682   5.903   4.220   6.341
 8595SOL     OW26683   4.983   6.331   2.926
 8595SOL    HW126684   5.075   6.328   2.967
 8595SOL    HW226685   4.952   6.426   2.922
 8596SOL     OW26686   1.360   2.659   5.155
 8596SOL    HW126687   1.284   2.595   5.168
 8596SOL    HW226688   1.352   2.733   5.222
 8597SOL     OW26689   5.983   2.434   6.541
 8597SOL    HW126690   5.899   2.392   6.576
 8597SOL    HW226691   6.040   2.363   6.499
 8598SOL     OW26692   6.893   0.561   5.476
 8598SOL    HW126693   6.947   0.518   5.403
 8598SOL    HW226694   6.798   0.534   5.467
 8599SOL     OW26695   6.319   4.270   4.947
 8599SOL    HW126696   6.345   4.216   4.867
 8599SOL    HW226697   6.241   4.227   4.992
 8600SOL     OW26698   4.664   2.802   1.762
 8600SOL    HW126699   4.667   2.800   1.662
 8600SOL    HW226700   4.649   2.895   1.794
 8601SOL     OW26701   5.769   5.925   2.874
 8601SOL    HW126702   5.809   5.998   2.819
 8601SOL    HW226703   5.818   5.840   2.859
 8602SOL     OW26704   1.586   0.139   5.393
 8602SOL    HW126705   1.511   0.176   5.339
 8602SOL    HW226706   1.560   0.139   5.490
 8603SOL     OW26707   0.674   1.113   6.570
 8603SOL    HW126708   0.681   1.062   6.656
 8603SOL    HW226709   0.626   1.058   6.502
 8604SOL     OW26710   2.144   5.251   5.887
 8604SOL    HW126711   2.096   5.170   5.924
 8604SOL    HW226712   2.162   5.315   5.962
 8605SOL     OW26713   0.134   4.604   3.991
 8605SOL    HW126714   0.093   4.516   4.017
 8605SOL    HW226715   0.064   4.663   3.951
 8606SOL     OW26716   1.423   0.793   6.813
 8606SOL    HW126717   1.381   0.769   6.900
 8606SOL    HW226718   1.373   0.748   6.738
 8607SOL     OW26719   3.017   3.150   1.279
 8607SOL    HW126720   3.004   3.062   1.233
 8607SOL    HW226721   3.094   3.199   1.238
 8608SOL     OW26722   1.626   5.369   2.201
 8608SOL    HW126723   1.653   5.274   2.190
 8608SOL    HW226724   1.553   5.376   2.269
 8609SOL     OW26725   4.921   1.741   4.532
 8609SOL    HW126726   4.976   1.766   4.452
 8609SOL    HW226727   4.863   1.662   4.509
 8610SOL     OW26728   0.063   5.453   2.970
 8610SOL    HW126729   0.013   5.385   2.916
 8610SOL    HW226730   0.159   5.425   2.978
 8611SOL     OW26731   2.018   1.183   4.936
 8611SOL    HW126732   1.984   1.277   4.939
 8611SOL    HW226733   2.011   1.142   5.026
 8612SOL     OW26734   3.552   3.353   4.912
 8612SOL    HW126735   3.597   3.422   4.855
 8612SOL    HW226736   3.454   3.372   4.916
 8613SOL     OW26737   4.094   3.200   3.392
 8613SOL    HW126738   4.184   3.161   3.411
 8613SOL    HW226739   4.091   3.232   3.297
 8614SOL     OW26740   0.772   2.109   3.641
 8614SOL    HW126741   0.869   2.094   3.623
 8614SOL    HW226742   0.750   2.206   3.629
 8615SOL     OW26743   3.278   1.829   5.545
 8615SOL    HW126744   3.185   1.845   5.513
 8615SOL    HW226745   3.344   1.856   5.474
 8616SOL     OW26746   5.899   4.656   5.124
 8616SOL    HW126747   5.952   4.692   5.047
 8616SOL    HW226748   5.802   4.659   5.101
 8617SOL     OW26749   1.364   6.916   2.958
 8617SOL    HW126750   1.303   6.947   3.031
 8617SOL    HW226751   1.413   6.834   2.987
 8618SOL     OW26752   6.010   4.106   0.832
 8618SOL    HW126753   6.079   4.178   0.836
 8618SOL    HW226754   5.929   4.140   0.785
 8619SOL     OW26755   5.461   6.081   0.683
 8619SOL    HW126756   5.435   5.987   0.660
 8619SOL    HW226757   5.477   6.133   0.599
 8620SOL     OW26758   1.966   6.466   3.713
 8620SOL    HW126759   1.955   6.451   3.614
 8620SOL    HW226760   1.879   6.499   3.750
 8621SOL     OW26761   5.622   3.694   2.276
 8621SOL    HW126762   5.595   3.754   2.201
 8621SOL    HW226763   5.673   3.616   2.240
 8622SOL     OW26764   0.321   5.391   2.993
 8622SOL    HW126765   0.393   5.441   2.946
 8622SOL    HW226766   0.357   5.303   3.026
 8623SOL     OW26767   2.270   2.214   3.693
 8623SOL    HW126768   2.300   2.247   3.783
 8623SOL    HW226769   2.219   2.129   3.704
 8624SOL     OW26770   3.410   4.082   5.313
 8624SOL    HW126771   3.450   3.993   5.335
 8624SOL    HW226772   3.422   4.144   5.391
 8625SOL     OW26773   4.446   3.107   6.176
 8625SOL    HW126774   4.370   3.140   6.119
 8625SOL    HW226775   4.445   3.156   6.263
 8626SOL     OW26776   5.026   1.798   1.341
 8626SOL    HW126777   5.046   1.731   1.270
 8626SOL    HW226778   5.053   1.889   1.311
 8627SOL     OW26779   1.551   0.182   2.693
 8627SOL    HW126780   1.531   0.264   2.747
 8627SOL    HW226781   1.650   0.165   2.694
 8628SOL     OW26782   0.958   7.018   1.011
 8628SOL    HW126783   0.872   6.982   1.047
 8628SOL    HW226784   1.035   6.965   1.047
 8629SOL     OW26785   0.600   6.882   4.513
 8629SOL    HW126786   0.527   6.825   4.475
 8629SOL    HW226787   0.594   6.974   4.476
 8630SOL     OW26788   5.041   2.502   1.885
 8630SOL    HW126789   5.013   2.583   1.936
 8630SOL    HW226790   4.969   2.432   1.890
 8631SOL     OW26791   2.327   5.921   6.140
 8631SOL    HW126792   2.247   5.947   6.193
 8631SOL    HW226793   2.314   5.828   6.104
 8632SOL     OW26794   5.977   5.395   4.250
 8632SOL    HW126795   5.991   5.358   4.158
 8632SOL    HW226796   6.028   5.480   4.259
 8633SOL     OW26797   6.063   4.080   5.325
 8633SOL    HW126798   5.991   4.102   5.391
 8633SOL    HW226799   6.135   4.028   5.371
 8634SOL     OW26800   5.061   4.819   6.681
 8634SOL    HW126801   5.030   4.855   6.593
 8634SOL    HW226802   4.985   4.815   6.745
 8635SOL     OW26803   4.920   2.697   6.861
 8635SOL    HW126804   4.948   2.786   6.896
 8635SOL    HW226805   4.858   2.653   6.926
 8636SOL     OW26806   4.295   5.909   1.949
 8636SOL    HW126807   4.204   5.891   1.912
 8636SOL    HW226808   4.294   5.995   2.000
 8637SOL     OW26809   1.697   2.205   6.883
 8637SOL    HW126810   1.693   2.144   6.804
 8637SOL    HW226811   1.791   2.235   6.897
 8638SOL     OW26812   4.908   3.062   4.118
 8638SOL    HW126813   4.909   3.157   4.151
 8638SOL    HW226814   4.899   3.062   4.018
 8639SOL     OW26815   3.272   4.482   0.433
 8639SOL    HW126816   3.348   4.546   0.429
 8639SOL    HW226817   3.189   4.530   0.462
 8640SOL     OW26818   3.956   2.596   0.623
 8640SOL    HW126819   3.978   2.499   0.618
 8640SOL    HW226820   4.025   2.644   0.676
 8641SOL     OW26821   3.607   5.099   2.806
 8641SOL    HW126822   3.687   5.070   2.754
 8641SOL    HW226823   3.538   5.136   2.744
 8642SOL     OW26824   1.975   5.771   3.041
 8642SOL    HW126825   2.041   5.803   2.973
 8642SOL    HW226826   1.932   5.850   3.084
 8643SOL     OW26827   3.484   6.294   1.351
 8643SOL    HW126828   3.544   6.224   1.391
 8643SOL    HW226829   3.539   6.357   1.295
 8644SOL     OW26830   5.836   2.539   5.945
 8644SOL    HW126831   5.793   2.624   5.973
 8644SOL    HW226832   5.910   2.558   5.881
 8645SOL     OW26833   5.396   5.706   2.931
 8645SOL    HW126834   5.332   5.739   3.000
 8645SOL    HW226835   5.423   5.782   2.871
 8646SOL     OW26836   0.216   2.876   5.110
 8646SOL    HW126837   0.233   2.877   5.208
 8646SOL    HW226838   0.238   2.786   5.073
 8647SOL     OW26839   1.566   5.049   1.673
 8647SOL    HW126840   1.650   5.101   1.686
 8647SOL    HW226841   1.493   5.110   1.643
 8648SOL     OW26842   4.531   5.420   0.413
 8648SOL    HW126843   4.503   5.509   0.450
 8648SOL    HW226844   4.452   5.375   0.371
 8649SOL     OW26845   5.670   1.440   0.945
 8649SOL    HW126846   5.602   1.384   0.993
 8649SOL    HW226847   5.627   1.526   0.916
 8650SOL     OW26848   2.070   6.979   5.573
 8650SOL    HW126849   2.081   0.040   5.626
 8650SOL    HW226850   1.976   6.972   5.540
 8651SOL     OW26851   3.991   1.948   1.810
 8651SOL    HW126852   3.999   1.854   1.777
 8651SOL    HW226853   3.897   1.980   1.799
 8652SOL     OW26854   1.003   2.804   3.724
 8652SOL    HW126855   0.912   2.845   3.731
 8652SOL    HW226856   1.073   2.875   3.731
 8653SOL     OW26857   6.003   1.278   6.883
 8653SOL    HW126858   6.068   1.204   6.897
 8653SOL    HW226859   6.001   1.304   6.787
 8654SOL     OW26860   6.859   4.729   3.138
 8654SOL    HW126861   6.925   4.667   3.094
 8654SOL    HW226862   6.776   4.678   3.161
 8655SOL     OW26863   0.734   0.121   4.781
 8655SOL    HW126864   0.744   0.138   4.879
 8655SOL    HW226865   0.639   0.136   4.754
 8656SOL     OW26866   4.235   6.578   1.019
 8656SOL    HW126867   4.245   6.480   1.035
 8656SOL    HW226868   4.203   6.622   1.102
 8657SOL     OW26869   2.846   1.849   2.749
 8657SOL    HW126870   2.899   1.765   2.738
 8657SOL    HW226871   2.753   1.835   2.714
 8658SOL     OW26872   6.483   4.467   1.255
 8658SOL    HW126873   6.481   4.498   1.160
 8658SOL    HW226874   6.479   4.546   1.316
 8659SOL     OW26875   3.852   0.766   2.589
 8659SOL    HW126876   3.878   0.792   2.681
 8659SOL    HW226877   3.858   0.845   2.528
 8660SOL     OW26878   0.558   4.126   1.901
 8660SOL    HW126879   0.638   4.097   1.954
 8660SOL    HW226880   0.513   4.045   1.864
 8661SOL     OW26881   6.688   3.666   2.014
 8661SOL    HW126882   6.757   3.691   1.945
 8661SOL    HW226883   6.602   3.711   1.992
 8662SOL     OW26884   1.287   2.182   2.773
 8662SOL    HW126885   1.232   2.122   2.831
 8662SOL    HW226886   1.321   2.259   2.828
 8663SOL     OW26887   4.235   4.798   2.628
 8663SOL    HW126888   4.305   4.864   2.604
 8663SOL    HW226889   4.185   4.770   2.546
 8664SOL     OW26890   3.438   6.377   4.103
 8664SOL    HW126891   3.524   6.421   4.077
 8664SOL    HW226892   3.449   6.277   4.100
 8665SOL     OW26893   5.742   3.918   6.882
 8665SOL    HW126894   5.700   3.834   6.848
 8665SOL    HW226895   5.739   3.988   6.811
 8666SOL     OW26896   4.786   0.634   2.906
 8666SOL    HW126897   4.728   0.695   2.852
 8666SOL    HW226898   4.881   0.664   2.899
 8667SOL     OW26899   5.395   2.406   2.266
 8667SOL    HW126900   5.365   2.416   2.172
 8667SOL    HW226901   5.400   2.496   2.309
 8668SOL     OW26902   4.543   1.997   4.592
 8668SOL    HW126903   4.469   2.025   4.531
 8668SOL    HW226904   4.615   1.952   4.539
 8669SOL     OW26905   6.766   6.149   6.708
 8669SOL    HW126906   6.818   6.227   6.675
 8669SOL    HW226907   6.820   6.065   6.697
 8670SOL     OW26908   0.062   5.252   5.371
 8670SOL    HW126909   7.002   5.200   5.351
 8670SOL    HW226910   0.141   5.191   5.371
 8671SOL     OW26911   0.369   2.830   2.934
 8671SOL    HW126912   0.328   2.919   2.912
 8671SOL    HW226913   0.339   2.801   3.025
 8672SOL     OW26914   6.921   1.494   2.652
 8672SOL    HW126915   6.862   1.566   2.691
 8672SOL    HW226916   6.988   1.466   2.721
 8673SOL     OW26917   0.960   1.613   1.151
 8673SOL    HW126918   1.046   1.617   1.202
 8673SOL    HW226919   0.894   1.677   1.192
 8674SOL     OW26920   6.939   4.275   3.402
 8674SOL    HW126921   6.915   4.197   3.459
 8674SOL    HW226922   6.961   4.353   3.461
 8675SOL     OW26923   4.567   2.458   5.052
 8675SOL    HW126924   4.507   2.401   4.995
 8675SOL    HW226925   4.525   2.471   5.142
 8676SOL     OW26926   4.732   2.050   1.472
 8676SOL    HW126927   4.762   2.076   1.380
 8676SOL    HW226928   4.715   2.132   1.526
 8677SOL     OW26929   2.622   0.197   6.314
 8677SOL    HW126930   2.593   0.229   6.224
 8677SOL    HW226931   2.546   0.151   6.360
 8678SOL     OW26932   2.927   2.205   0.177
 8678SOL    HW126933   2.848   2.237   0.230
 8678SOL    HW226934   2.943   2.108   0.196
 8679SOL     OW26935   1.700   1.768   6.628
 8679SOL    HW126936   1.697   1.721   6.716
 8679SOL    HW226937   1.794   1.792   6.606
 8680SOL     OW26938   0.071   0.157   0.544
 8680SOL    HW126939   7.007   0.192   0.510
 8680SOL    HW226940   0.093   0.201   0.632
 8681SOL     OW26941   5.468   5.193   1.704
 8681SOL    HW126942   5.530   5.218   1.630
 8681SOL    HW226943   5.513   5.208   1.792
 8682SOL     OW26944   2.567   0.562   2.584
 8682SOL    HW126945   2.495   0.550   2.651
 8682SOL    HW226946   2.535   0.619   2.509
 8683SOL     OW26947   2.475   4.503   4.096
 8683SOL    HW126948   2.462   4.404   4.100
 8683SOL    HW226949   2.532   4.533   4.172
 8684SOL     OW26950   2.295   4.439   3.383
 8684SOL    HW126951   2.383   4.486   3.385
 8684SOL    HW226952   2.232   4.482   3.448
 8685SOL     OW26953   4.866   3.182   4.768
 8685SOL    HW126954   4.857   3.134   4.855
 8685SOL    HW226955   4.776   3.216   4.739
 8686SOL     OW26956   1.463   4.889   2.973
 8686SOL    HW126957   1.448   4.896   3.072
 8686SOL    HW226958   1.557   4.915   2.952
 8687SOL     OW26959   5.673   4.428   5.356
 8687SOL    HW126960   5.674   4.437   5.456
 8687SOL    HW226961   5.686   4.332   5.331
 8688SOL     OW26962   1.156   3.821   4.789
 8688SOL    HW126963   1.109   3.844   4.703
 8688SOL    HW226964   1.254   3.817   4.772
 8689SOL     OW26965   4.712   3.484   0.726
 8689SOL    HW126966   4.657   3.406   0.758
 8689SOL    HW226967   4.681   3.567   0.771
 8690SOL     OW26968   1.179   1.621   2.350
 8690SOL    HW126969   1.233   1.609   2.267
 8690SOL    HW226970   1.236   1.662   2.422
 8691SOL     OW26971   3.489   2.083   6.428
 8691SOL    HW126972   3.492   2.090   6.328
 8691SOL    HW226973   3.449   2.167   6.465
 8692SOL     OW26974   5.463   2.987   4.434
 8692SOL    HW126975   5.392   3.057   4.433
 8692SOL    HW226976   5.426   2.900   4.401
 8693SOL     OW26977   6.953   6.890   5.456
 8693SOL    HW126978   0.006   6.851   5.509
 8693SOL    HW226979   6.870   6.836   5.472
 8694SOL     OW26980   4.397   3.684   5.827
 8694SOL    HW126981   4.359   3.693   5.735
 8694SOL    HW226982   4.338   3.732   5.893
 8695SOL     OW26983   2.986   5.021   1.237
 8695SOL    HW126984   2.909   5.041   1.297
 8695SOL    HW226985   2.964   5.051   1.144
 8696SOL     OW26986   2.306   5.809   6.568
 8696SOL    HW126987   2.341   5.773   6.482
 8696SOL    HW226988   2.375   5.798   6.640
 8697SOL     OW26989   1.250   3.467   5.037
 8697SOL    HW126990   1.287   3.491   5.126
 8697SOL    HW226991   1.222   3.550   4.989
 8698SOL     OW26992   4.128   4.608   6.608
 8698SOL    HW126993   4.139   4.610   6.708
 8698SOL    HW226994   4.184   4.680   6.567
 8699SOL     OW26995   2.512   2.319   0.592
 8699SOL    HW126996   2.573   2.376   0.536
 8699SOL    HW226997   2.509   2.227   0.553
 8700SOL     OW26998   0.696   1.766   4.732
 8700SOL    HW126999   0.721   1.676   4.696
 8700SOL    HW227000   0.700   1.765   4.832
 8701SOL     OW27001   1.658   3.537   6.640
 8701SOL    HW127002   1.699   3.534   6.549
 8701SOL    HW227003   1.642   3.444   6.673
 8702SOL     OW27004   5.731   4.429   1.445
 8702SOL    HW127005   5.697   4.381   1.364
 8702SOL    HW227006   5.676   4.510   1.461
 8703SOL     OW27007   2.248   5.618   1.886
 8703SOL    HW127008   2.260   5.670   1.970
 8703SOL    HW227009   2.151   5.597   1.874
 8704SOL     OW27010   6.865   1.654   4.598
 8704SOL    HW127011   6.880   1.716   4.675
 8704SOL    HW227012   6.779   1.606   4.610
 8705SOL     OW27013   3.376   2.092   0.422
 8705SOL    HW127014   3.392   1.996   0.447
 8705SOL    HW227015   3.312   2.133   0.486
 8706SOL     OW27016   4.782   2.583   6.310
 8706SOL    HW127017   4.749   2.600   6.217
 8706SOL    HW227018   4.738   2.646   6.374
 8707SOL     OW27019   1.068   0.841   4.264
 8707SOL    HW127020   1.049   0.831   4.166
 8707SOL    HW227021   1.031   0.928   4.297
 8708SOL     OW27022   6.094   2.748   1.162
 8708SOL    HW127023   6.140   2.700   1.237
 8708SOL    HW227024   6.043   2.826   1.198
 8709SOL     OW27025   6.748   6.087   4.179
 8709SOL    HW127026   6.760   6.090   4.080
 8709SOL    HW227027   6.828   6.127   4.224
 8710SOL     OW27028   2.487   1.734   3.569
 8710SOL    HW127029   2.440   1.651   3.539
 8710SOL    HW227030   2.504   1.793   3.490
 8711SOL     OW27031   1.531   1.197   2.234
 8711SOL    HW127032   1.560   1.292   2.229
 8711SOL    HW227033   1.463   1.186   2.306
 8712SOL     OW27034   0.842   4.437   4.255
 8712SOL    HW127035   0.788   4.471   4.179
 8712SOL    HW227036   0.859   4.339   4.243
 8713SOL     OW27037   0.376   3.617   2.214
 8713SOL    HW127038   0.367   3.648   2.119
 8713SOL    HW227039   0.404   3.694   2.272
 8714SOL     OW27040   6.201   4.664   6.508
 8714SOL    HW127041   6.104   4.644   6.521
 8714SOL    HW227042   6.212   4.737   6.441
 8715SOL     OW27043   2.347   4.954   1.258
 8715SOL    HW127044   2.435   4.952   1.210
 8715SOL    HW227045   2.361   4.925   1.353
 8716SOL     OW27046   6.121   0.512   1.826
 8716SOL    HW127047   6.043   0.491   1.766
 8716SOL    HW227048   6.206   0.483   1.782
 8717SOL     OW27049   3.197   2.214   0.618
 8717SOL    HW127050   3.188   2.312   0.635
 8717SOL    HW227051   3.132   2.187   0.547
 8718SOL     OW27052   2.832   5.689   6.562
 8718SOL    HW127053   2.766   5.614   6.553
 8718SOL    HW227054   2.914   5.656   6.608
 8719SOL     OW27055   3.011   1.194   5.145
 8719SOL    HW127056   3.081   1.201   5.074
 8719SOL    HW227057   2.925   1.162   5.106
 8720SOL     OW27058   1.135   6.192   4.367
 8720SOL    HW127059   1.081   6.209   4.285
 8720SOL    HW227060   1.230   6.174   4.341
 8721SOL     OW27061   1.171   0.281   1.038
 8721SOL    HW127062   1.166   0.196   0.986
 8721SOL    HW227063   1.083   0.298   1.082
 8722SOL     OW27064   3.167   1.627   0.640
 8722SOL    HW127065   3.080   1.673   0.658
 8722SOL    HW227066   3.154   1.528   0.638
 8723SOL     OW27067   3.826   6.505   2.204
 8723SOL    HW127068   3.923   6.489   2.188
 8723SOL    HW227069   3.815   6.565   2.284
 8724SOL     OW27070   3.498   1.390   4.993
 8724SOL    HW127071   3.431   1.460   4.970
 8724SOL    HW227072   3.560   1.377   4.916
 8725SOL     OW27073   6.874   0.663   2.380
 8725SOL    HW127074   6.957   0.715   2.358
 8725SOL    HW227075   6.883   0.570   2.345
 8726SOL     OW27076   6.241   0.686   0.421
 8726SOL    HW127077   6.174   0.706   0.493
 8726SOL    HW227078   6.325   0.652   0.463
 8727SOL     OW27079   5.368   5.733   6.370
 8727SOL    HW127080   5.372   5.765   6.464
 8727SOL    HW227081   5.273   5.737   6.338
 8728SOL     OW27082   6.039   6.285   4.546
 8728SOL    HW127083   5.962   6.279   4.609
 8728SOL    HW227084   6.007   6.322   4.459
 8729SOL     OW27085   5.852   5.901   6.094
 8729SOL    HW127086   5.774   5.838   6.085
 8729SOL    HW227087   5.926   5.855   6.144
 8730SOL     OW27088   3.919   4.839   1.758
 8730SOL    HW127089   3.994   4.774   1.772
 8730SOL    HW227090   3.886   4.871   1.847
 8731SOL     OW27091   6.917   1.756   3.678
 8731SOL    HW127092   6.841   1.757   3.614
 8731SOL    HW227093   6.898   1.691   3.752
 8732SOL     OW27094   5.025   6.332   5.930
 8732SOL    HW127095   5.013   6.246   5.980
 8732SOL    HW227096   5.117   6.336   5.892
 8733SOL     OW27097   6.708   4.532   2.198
 8733SOL    HW127098   6.762   4.480   2.133
 8733SOL    HW227099   6.759   4.614   2.226
 8734SOL     OW27100   1.283   5.091   0.413
 8734SOL    HW127101   1.342   5.043   0.348
 8734SOL    HW227102   1.237   5.023   0.471
 8735SOL     OW27103   1.326   2.706   5.994
 8735SOL    HW127104   1.261   2.780   6.012
 8735SOL    HW227105   1.316   2.674   5.899
 8736SOL     OW27106   1.710   5.853   3.255
 8736SOL    HW127107   1.627   5.819   3.211
 8736SOL    HW227108   1.765   5.776   3.287
 8737SOL     OW27109   0.394   5.531   6.948
 8737SOL    HW127110   0.313   5.580   6.981
 8737SOL    HW227111   0.365   5.457   6.888
 8738SOL     OW27112   1.810   2.525   2.057
 8738SOL    HW127113   1.796   2.435   2.017
 8738SOL    HW227114   1.908   2.546   2.059
 8739SOL     OW27115   5.568   4.508   3.329
 8739SOL    HW127116   5.538   4.538   3.420
 8739SOL    HW227117   5.490   4.471   3.279
 8740SOL     OW27118   3.047   1.872   3.397
 8740SOL    HW127119   3.055   1.959   3.347
 8740SOL    HW227120   2.962   1.827   3.370
 8741SOL     OW27121   1.071   1.782   2.601
 8741SOL    HW127122   1.049   1.779   2.504
 8741SOL    HW227123   1.164   1.817   2.613
 8742SOL     OW27124   2.516   2.897   1.685
 8742SOL    HW127125   2.423   2.888   1.649
 8742SOL    HW227126   2.556   2.807   1.697
 8743SOL     OW27127   0.786   3.408   0.299
 8743SOL    HW127128   0.732   3.329   0.327
 8743SOL    HW227129   0.883   3.390   0.316
 8744SOL     OW27130   3.430   4.100   5.961
 8744SOL    HW127131   3.366   4.094   6.037
 8744SOL    HW227132   3.410   4.027   5.895
 8745SOL     OW27133   5.841   1.967   6.405
 8745SOL    HW127134   5.782   1.953   6.484
 8745SOL    HW227135   5.935   1.946   6.430
 8746SOL     OW27136   4.129   4.954   5.045
 8746SOL    HW127137   4.054   4.961   4.980
 8746SOL    HW227138   4.105   4.888   5.116
 8747SOL     OW27139   0.987   0.427   2.236
 8747SOL    HW127140   0.905   0.485   2.236
 8747SOL    HW227141   0.965   0.338   2.195
 8748SOL     OW27142   5.439   1.971   4.260
 8748SOL    HW127143   5.465   1.879   4.290
 8748SOL    HW227144   5.347   1.968   4.220
 8749SOL     OW27145   2.572   1.165   4.238
 8749SOL    HW127146   2.579   1.078   4.189
 8749SOL    HW227147   2.658   1.183   4.287
 8750SOL     OW27148   4.626   3.534   1.702
 8750SOL    HW127149   4.532   3.501   1.715
 8750SOL    HW227150   4.625   3.631   1.678
 8751SOL     OW27151   2.478   6.976   0.363
 8751SOL    HW127152   2.390   7.021   0.382
 8751SOL    HW227153   2.480   6.947   0.267
 8752SOL     OW27154   6.947   3.509   5.825
 8752SOL    HW127155   6.847   3.497   5.827
 8752SOL    HW227156   6.973   3.575   5.896
 8753SOL     OW27157   1.926   1.872   0.928
 8753SOL    HW127158   1.874   1.793   0.959
 8753SOL    HW227159   1.894   1.900   0.837
 8754SOL     OW27160   0.981   6.109   6.483
 8754SOL    HW127161   0.922   6.096   6.403
 8754SOL    HW227162   0.950   6.188   6.536
 8755SOL     OW27163   0.174   2.817   1.459
 8755SOL    HW127164   0.235   2.895   1.473
 8755SOL    HW227165   0.201   2.767   1.376
 8756SOL     OW27166   1.638   1.700   1.916
 8756SOL    HW127167   1.567   1.633   1.936
 8756SOL    HW227168   1.658   1.753   1.999
 8757SOL     OW27169   5.549   6.111   4.861
 8757SOL    HW127170   5.492   6.084   4.940
 8757SOL    HW227171   5.645   6.112   4.889
 8758SOL     OW27172   3.570   5.779   6.099
 8758SOL    HW127173   3.585   5.878   6.100
 8758SOL    HW227174   3.525   5.751   6.183
 8759SOL     OW27175   6.171   1.195   1.765
 8759SOL    HW127176   6.122   1.131   1.706
 8759SOL    HW227177   6.250   1.149   1.806
 8760SOL     OW27178   2.476   2.252   4.275
 8760SOL    HW127179   2.518   2.162   4.266
 8760SOL    HW227180   2.377   2.242   4.284
 8761SOL     OW27181   4.859   2.509   2.861
 8761SOL    HW127182   4.817   2.599   2.860
 8761SOL    HW227183   4.906   2.493   2.773
 8762SOL     OW27184   4.308   6.466   2.894
 8762SOL    HW127185   4.302   6.562   2.920
 8762SOL    HW227186   4.373   6.419   2.953
 8763SOL     OW27187   6.816   1.707   4.976
 8763SOL    HW127188   6.807   1.703   5.076
 8763SOL    HW227189   6.726   1.702   4.934
 8764SOL     OW27190   3.441   4.711   6.503
 8764SOL    HW127191   3.380   4.726   6.425
 8764SOL    HW227192   3.394   4.657   6.573
 8765SOL     OW27193   4.559   6.611   3.997
 8765SOL    HW127194   4.492   6.679   4.025
 8765SOL    HW227195   4.511   6.526   3.972
 8766SOL     OW27196   5.547   6.910   4.904
 8766SOL    HW127197   5.476   6.935   4.970
 8766SOL    HW227198   5.546   6.975   4.828
 8767SOL     OW27199   1.757   0.942   4.263
 8767SOL    HW127200   1.825   0.993   4.316
 8767SOL    HW227201   1.745   0.851   4.304
 8768SOL     OW27202   6.500   1.782   0.915
 8768SOL    HW127203   6.475   1.699   0.966
 8768SOL    HW227204   6.420   1.840   0.904
 8769SOL     OW27205   5.872   0.002   6.254
 8769SOL    HW127206   5.950   6.965   6.270
 8769SOL    HW227207   5.894   0.066   6.180
 8770SOL     OW27208   4.964   2.009   0.057
 8770SOL    HW127209   4.911   1.958   0.125
 8770SOL    HW227210   4.901   2.055   7.017
 8771SOL     OW27211   0.938   2.113   6.144
 8771SOL    HW127212   0.970   2.158   6.061
 8771SOL    HW227213   0.914   2.181   6.213
 8772SOL     OW27214   0.579   6.834   3.441
 8772SOL    HW127215   0.669   6.856   3.477
 8772SOL    HW227216   0.583   6.826   3.342
 8773SOL     OW27217   0.260   1.659   3.767
 8773SOL    HW127218   0.303   1.580   3.810
 8773SOL    HW227219   0.242   1.638   3.670
 8774SOL     OW27220   1.333   1.885   6.900
 8774SOL    HW127221   1.401   1.929   6.960
 8774SOL    HW227222   1.251   1.864   6.953
 8775SOL     OW27223   5.230   2.254   2.874
 8775SOL    HW127224   5.174   2.233   2.955
 8775SOL    HW227225   5.191   2.333   2.826
 8776SOL     OW27226   5.167   2.787   1.608
 8776SOL    HW127227   5.067   2.779   1.606
 8776SOL    HW227228   5.206   2.706   1.651
 8777SOL     OW27229   6.669   2.268   3.591
 8777SOL    HW127230   6.590   2.220   3.629
 8777SOL    HW227231   6.648   2.365   3.583
 8778SOL     OW27232   2.610   3.806   0.087
 8778SOL    HW127233   2.631   3.828   7.015
 8778SOL    HW227234   2.619   3.707   0.101
 8779SOL     OW27235   3.971   5.507   3.210
 8779SOL    HW127236   3.972   5.606   3.195
 8779SOL    HW227237   4.029   5.463   3.142
 8780SOL     OW27238   0.625   4.307   3.813
 8780SOL    HW127239   0.543   4.259   3.783
 8780SOL    HW227240   0.644   4.382   3.750
 8781SOL     OW27241   2.727   1.202   1.434
 8781SOL    HW127242   2.734   1.209   1.533
 8781SOL    HW227243   2.810   1.238   1.392
 8782SOL     OW27244   6.626   2.524   0.725
 8782SOL    HW127245   6.528   2.535   0.708
 8782SOL    HW227246   6.676   2.598   0.680
 8783SOL     OW27247   4.238   4.114   5.371
 8783SOL    HW127248   4.262   4.057   5.450
 8783SOL    HW227249   4.256   4.210   5.393
 8784SOL     OW27250   4.215   0.700   6.946
 8784SOL    HW127251   4.247   0.653   6.863
 8784SOL    HW227252   4.263   0.662   0.002
 8785SOL     OW27253   6.979   5.826   5.515
 8785SOL    HW127254   7.019   5.851   5.427
 8785SOL    HW227255   0.005   5.748   5.553
 8786SOL     OW27256   5.788   1.388   3.484
 8786SOL    HW127257   5.779   1.378   3.385
 8786SOL    HW227258   5.852   1.319   3.519
 8787SOL     OW27259   3.407   5.170   2.150
 8787SOL    HW127260   3.472   5.212   2.214
 8787SOL    HW227261   3.453   5.099   2.097
 8788SOL     OW27262   0.189   5.924   4.504
 8788SOL    HW127263   0.254   5.969   4.565
 8788SOL    HW227264   0.223   5.927   4.410
 8789SOL     OW27265   1.439   2.646   6.633
 8789SOL    HW127266   1.455   2.745   6.638
 8789SOL    HW227267   1.520   2.598   6.666
 8790SOL     OW27268   4.796   2.579   5.140
 8790SOL    HW127269   4.705   2.554   5.108
 8790SOL    HW227270   4.798   2.677   5.161
 8791SOL     OW27271   3.857   6.055   4.962
 8791SOL    HW127272   3.833   6.040   5.058
 8791SOL    HW227273   3.777   6.038   4.905
 8792SOL     OW27274   5.754   5.329   1.782
 8792SOL    HW127275   5.809   5.369   1.709
 8792SOL    HW227276   5.746   5.231   1.768
 8793SOL     OW27277   6.185   6.074   5.352
 8793SOL    HW127278   6.206   6.157   5.301
 8793SOL    HW227279   6.097   6.083   5.397
 8794SOL     OW27280   0.006   1.592   3.066
 8794SOL    HW127281   6.937   1.629   3.056
 8794SOL    HW227282   0.033   1.546   2.982
 8795SOL     OW27283   1.010   6.603   6.606
 8795SOL    HW127284   1.041   6.592   6.700
 8795SOL    HW227285   1.069   6.669   6.559
 8796SOL     OW27286   5.713   4.278   5.048
 8796SOL    HW127287   5.715   4.228   5.134
 8796SOL    HW227288   5.746   4.371   5.063
 8797SOL     OW27289   5.215   6.305   4.323
 8797SOL    HW127290   5.169   6.333   4.408
 8797SOL    HW227291   5.252   6.386   4.278
 8798SOL     OW27292   2.038   6.017   5.975
 8798SOL    HW127293   2.005   6.080   6.044
 8798SOL    HW227294   2.038   5.924   6.012
 8799SOL     OW27295   1.073   5.876   1.644
 8799SOL    HW127296   1.089   5.777   1.640
 8799SOL    HW227297   1.054   5.910   1.551
 8800SOL     OW27298   0.080   5.974   3.875
 8800SOL    HW127299   0.112   5.978   3.781
 8800SOL    HW227300   7.011   6.012   3.881
 8801SOL     OW27301   5.054   3.351   5.510
 8801SOL    HW127302   5.033   3.333   5.606
 8801SOL    HW227303   5.126   3.288   5.479
 8802SOL     OW27304   1.179   6.328   6.698
 8802SOL    HW127305   1.136   6.401   6.751
 8802SOL    HW227306   1.248   6.282   6.754
 8803SOL     OW27307   5.471   5.541   5.398
 8803SOL    HW127308   5.511   5.480   5.466
 8803SOL    HW227309   5.535   5.614   5.376
 8804SOL     OW27310   1.430   6.102   2.003
 8804SOL    HW127311   1.413   6.163   2.080
 8804SOL    HW227312   1.343   6.070   1.966
 8805SOL     OW27313   5.340   4.853   2.940
 8805SOL    HW127314   5.420   4.913   2.948
 8805SOL    HW227315   5.318   4.839   2.844
 8806SOL     OW27316   1.097   0.732   2.382
 8806SOL    HW127317   1.021   0.797   2.392
 8806SOL    HW227318   1.165   0.751   2.452
 8807SOL     OW27319   5.731   2.168   1.466
 8807SOL    HW127320   5.772   2.258   1.482
 8807SOL    HW227321   5.798   2.108   1.423
 8808SOL     OW27322   2.008   1.965   6.988
 8808SOL    HW127323   2.076   2.037   6.995
 8808SOL    HW227324   1.971   1.945   0.056
 8809SOL     OW27325   0.719   3.421   3.047
 8809SOL    HW127326   0.640   3.431   3.107
 8809SOL    HW227327   0.752   3.511   3.020
 8810SOL     OW27328   0.417   2.423   4.806
 8810SOL    HW127329   0.349   2.355   4.776
 8810SOL    HW227330   0.455   2.469   4.725
 8811SOL     OW27331   4.497   4.510   2.397
 8811SOL    HW127332   4.522   4.447   2.323
 8811SOL    HW227333   4.439   4.583   2.360
 8812SOL     OW27334   5.793   1.026   0.212
 8812SOL    HW127335   5.799   1.004   0.114
 8812SOL    HW227336   5.832   0.952   0.266
 8813SOL     OW27337   1.881   3.021   2.284
 8813SOL    HW127338   1.826   2.982   2.210
 8813SOL    HW227339   1.933   3.099   2.249
 8814SOL     OW27340   6.154   6.719   4.834
 8814SOL    HW127341   6.098   6.764   4.765
 8814SOL    HW227342   6.200   6.640   4.792
 8815SOL     OW27343   5.263   1.087   1.249
 8815SOL    HW127344   5.186   1.043   1.295
 8815SOL    HW227345   5.229   1.165   1.196
 8816SOL     OW27346   0.210   0.222   3.858
 8816SOL    HW127347   0.158   0.151   3.906
 8816SOL    HW227348   0.308   0.202   3.866
 8817SOL     OW27349   1.362   2.840   3.173
 8817SOL    HW127350   1.368   2.912   3.242
 8817SOL    HW227351   1.296   2.771   3.201
 8818SOL     OW27352   1.022   6.320   6.120
 8818SOL    HW127353   1.041   6.222   6.109
 8818SOL    HW227354   0.951   6.332   6.190
 8819SOL     OW27355   4.862   6.041   6.340
 8819SOL    HW127356   4.908   5.961   6.379
 8819SOL    HW227357   4.877   6.120   6.401
 8820SOL     OW27358   4.262   6.626   5.401
 8820SOL    HW127359   4.206   6.678   5.465
 8820SOL    HW227360   4.301   6.546   5.448
 8821SOL     OW27361   0.707   4.901   5.967
 8821SOL    HW127362   0.706   4.931   5.871
 8821SOL    HW227363   0.798   4.867   5.990
 8822SOL     OW27364   6.017   0.242   4.810
 8822SOL    HW127365   6.035   0.282   4.721
 8822SOL    HW227366   6.020   0.313   4.880
 8823SOL     OW27367   4.006   1.783   3.032
 8823SOL    HW127368   4.060   1.771   3.116
 8823SOL    HW227369   4.041   1.861   2.981
 8824SOL     OW27370   1.857   0.715   3.840
 8824SOL    HW127371   1.761   0.721   3.867
 8824SOL    HW227372   1.876   0.784   3.770
 8825SOL     OW27373   0.434   6.646   0.349
 8825SOL    HW127374   0.458   6.688   0.262
 8825SOL    HW227375   0.370   6.704   0.399
 8826SOL     OW27376   0.609   4.110   0.128
 8826SOL    HW127377   0.636   4.137   0.220
 8826SOL    HW227378   0.531   4.165   0.098
 8827SOL     OW27379   4.898   6.391   3.709
 8827SOL    HW127380   4.919   6.422   3.802
 8827SOL    HW227381   4.917   6.294   3.702
 8828SOL     OW27382   5.327   2.205   5.797
 8828SOL    HW127383   5.251   2.267   5.783
 8828SOL    HW227384   5.304   2.138   5.868
 8829SOL     OW27385   6.840   1.007   2.484
 8829SOL    HW127386   6.839   1.101   2.449
 8829SOL    HW227387   6.747   0.979   2.509
 8830SOL     OW27388   3.386   0.468   3.158
 8830SOL    HW127389   3.441   0.497   3.080
 8830SOL    HW227390   3.289   0.474   3.134
 8831SOL     OW27391   0.031   2.913   2.641
 8831SOL    HW127392   7.021   2.901   2.735
 8831SOL    HW227393   0.049   2.824   2.600
 8832SOL     OW27394   5.183   0.721   5.713
 8832SOL    HW127395   5.090   0.707   5.678
 8832SOL    HW227396   5.192   0.813   5.750
 8833SOL     OW27397   4.701   2.862   0.731
 8833SOL    HW127398   4.701   2.941   0.792
 8833SOL    HW227399   4.704   2.778   0.786
 8834SOL     OW27400   5.499   4.788   6.467
 8834SOL    HW127401   5.416   4.741   6.499
 8834SOL    HW227402   5.505   4.878   6.511
 8835SOL     OW27403   6.377   0.995   5.378
 8835SOL    HW127404   6.415   1.086   5.364
 8835SOL    HW227405   6.306   0.998   5.448
 8836SOL     OW27406   4.083   1.277   0.972
 8836SOL    HW127407   3.988   1.295   0.950
 8836SOL    HW227408   4.092   1.260   1.070
 8837SOL     OW27409   4.627   6.008   0.609
 8837SOL    HW127410   4.723   6.031   0.621
 8837SOL    HW227411   4.617   5.948   0.530
 8838SOL     OW27412   2.198   3.215   3.376
 8838SOL    HW127413   2.192   3.180   3.469
 8838SOL    HW227414   2.180   3.314   3.376
 8839SOL     OW27415   4.793   4.930   1.525
 8839SOL    HW127416   4.722   4.873   1.484
 8839SOL    HW227417   4.756   4.978   1.605
 8840SOL     OW27418   6.883   1.112   1.037
 8840SOL    HW127419   6.789   1.136   1.057
 8840SOL    HW227420   6.887   1.058   0.953
 8841SOL     OW27421   3.421   1.185   0.988
 8841SOL    HW127422   3.425   1.198   1.087
 8841SOL    HW227423   3.486   1.114   0.961
 8842SOL     OW27424   3.651   2.909   4.156
 8842SOL    HW127425   3.739   2.904   4.109
 8842SOL    HW227426   3.580   2.936   4.091
 8843SOL     OW27427   2.421   5.356   5.299
 8843SOL    HW127428   2.410   5.439   5.244
 8843SOL    HW227429   2.508   5.312   5.274
 8844SOL     OW27430   3.206   2.994   6.097
 8844SOL    HW127431   3.187   2.950   6.010
 8844SOL    HW227432   3.265   3.073   6.083
 8845SOL     OW27433   0.506   3.381   2.302
 8845SOL    HW127434   0.504   3.465   2.248
 8845SOL    HW227435   0.422   3.375   2.357
 8846SOL     OW27436   5.462   5.221   4.547
 8846SOL    HW127437   5.542   5.185   4.500
 8846SOL    HW227438   5.470   5.320   4.556
 8847SOL     OW27439   1.002   2.117   3.886
 8847SOL    HW127440   1.001   2.017   3.878
 8847SOL    HW227441   1.083   2.153   3.839
 8848SOL     OW27442   6.565   2.166   0.749
 8848SOL    HW127443   6.594   2.224   0.673
 8848SOL    HW227444   6.469   2.144   0.739
 8849SOL     OW27445   3.440   5.635   4.199
 8849SOL    HW127446   3.507   5.707   4.218
 8849SOL    HW227447   3.378   5.626   4.276
 8850SOL     OW27448   2.524   1.873   1.120
 8850SOL    HW127449   2.531   1.789   1.066
 8850SOL    HW227450   2.492   1.948   1.062
 8851SOL     OW27451   0.127   5.243   2.658
 8851SOL    HW127452   0.125   5.339   2.630
 8851SOL    HW227453   0.186   5.191   2.596
 8852SOL     OW27454   5.229   3.574   4.821
 8852SOL    HW127455   5.208   3.672   4.826
 8852SOL    HW227456   5.144   3.521   4.832
 8853SOL     OW27457   4.519   2.180   5.536
 8853SOL    HW127458   4.535   2.157   5.632
 8853SOL    HW227459   4.575   2.120   5.478
 8854SOL     OW27460   2.195   1.037   6.009
 8854SOL    HW127461   2.186   1.104   6.083
 8854SOL    HW227462   2.248   0.959   6.041
 8855SOL     OW27463   6.101   5.023   6.054
 8855SOL    HW127464   6.069   5.101   6.107
 8855SOL    HW227465   6.024   4.983   6.004
 8856SOL     OW27466   5.566   0.901   5.403
 8856SOL    HW127467   5.488   0.953   5.367
 8856SOL    HW227468   5.547   0.803   5.394
 8857SOL     OW27469   1.394   3.499   4.637
 8857SOL    HW127470   1.487   3.465   4.651
 8857SOL    HW227471   1.334   3.422   4.613
 8858SOL     OW27472   0.240   3.594   5.871
 8858SOL    HW127473   0.293   3.664   5.920
 8858SOL    HW227474   0.161   3.636   5.828
 8859SOL     OW27475   2.723   6.200   5.316
 8859SOL    HW127476   2.794   6.269   5.328
 8859SOL    HW227477   2.725   6.165   5.222
 8860SOL     OW27478   1.897   2.041   0.626
 8860SOL    HW127479   1.855   2.124   0.590
 8860SOL    HW227480   1.954   2.065   0.705
 8861SOL     OW27481   2.533   2.413   1.325
 8861SOL    HW127482   2.624   2.452   1.318
 8861SOL    HW227483   2.500   2.422   1.420
 8862SOL     OW27484   6.302   2.346   5.125
 8862SOL    HW127485   6.367   2.337   5.049
 8862SOL    HW227486   6.330   2.423   5.183
 8863SOL     OW27487   1.253   5.813   5.554
 8863SOL    HW127488   1.237   5.721   5.591
 8863SOL    HW227489   1.173   5.840   5.499
 8864SOL     OW27490   1.499   3.772   6.141
 8864SOL    HW127491   1.503   3.684   6.189
 8864SOL    HW227492   1.500   3.756   6.042
 8865SOL     OW27493   3.046   2.127   5.875
 8865SOL    HW127494   3.053   2.051   5.940
 8865SOL    HW227495   3.127   2.127   5.816
 8866SOL     OW27496   5.093   6.484   5.007
 8866SOL    HW127497   5.117   6.406   5.064
 8866SOL    HW227498   5.173   6.543   4.995
 8867SOL     OW27499   6.527   0.955   4.219
 8867SOL    HW127500   6.585   0.955   4.137
 8867SOL    HW227501   6.437   0.991   4.195
 8868SOL     OW27502   5.134   3.431   0.554
 8868SOL    HW127503   5.228   3.455   0.575
 8868SOL    HW227504   5.098   3.495   0.485
 8869SOL     OW27505   3.434   2.118   2.804
 8869SOL    HW127506   3.360   2.128   2.870
 8869SOL    HW227507   3.492   2.041   2.831
 8870SOL     OW27508   4.710   1.273   2.319
 8870SOL    HW127509   4.653   1.258   2.238
 8870SOL    HW227510   4.703   1.368   2.349
 8871SOL     OW27511   1.867   2.137   3.806
 8871SOL    HW127512   1.793   2.196   3.838
 8871SOL    HW227513   1.830   2.061   3.753
 8872SOL     OW27514   1.495   2.379   1.726
 8872SOL    HW127515   1.473   2.458   1.670
 8872SOL    HW227516   1.452   2.388   1.815
 8873SOL     OW27517   6.726   5.892   4.999
 8873SOL    HW127518   6.716   5.877   5.097
 8873SOL    HW227519   6.814   5.854   4.969
 8874SOL     OW27520   0.725   1.655   6.221
 8874SOL    HW127521   0.714   1.676   6.318
 8874SOL    HW227522   0.751   1.739   6.172
 8875SOL     OW27523   1.366   1.436   4.783
 8875SOL    HW127524   1.416   1.373   4.725
 8875SOL    HW227525   1.388   1.530   4.757
 8876SOL     OW27526   2.740   0.618   4.347
 8876SOL    HW127527   2.752   0.677   4.267
 8876SOL    HW227528   2.826   0.571   4.366
 8877SOL     OW27529   3.147   6.799   4.491
 8877SOL    HW127530   3.116   6.705   4.503
 8877SOL    HW227531   3.246   6.800   4.477
 8878SOL     OW27532   5.542   4.879   5.575
 8878SOL    HW127533   5.473   4.917   5.637
 8878SOL    HW227534   5.497   4.828   5.502
 8879SOL     OW27535   4.879   5.470   4.524
 8879SOL    HW127536   4.881   5.554   4.579
 8879SOL    HW227537   4.973   5.444   4.500
 8880SOL     OW27538   0.080   6.227   5.241
 8880SOL    HW127539   0.151   6.177   5.191
 8880SOL    HW227540   0.063   6.182   5.329
 8881SOL     OW27541   6.628   1.565   1.539
 8881SOL    HW127542   6.691   1.587   1.465
 8881SOL    HW227543   6.638   1.469   1.564
 8882SOL     OW27544   5.517   2.692   0.292
 8882SOL    HW127545   5.542   2.785   0.267
 8882SOL    HW227546   5.563   2.627   0.231
 8883SOL     OW27547   6.481   1.699   5.472
 8883SOL    HW127548   6.577   1.699   5.498
 8883SOL    HW227549   6.430   1.640   5.534
 8884SOL     OW27550   6.742   1.189   5.773
 8884SOL    HW127551   6.706   1.249   5.701
 8884SOL    HW227552   6.822   1.231   5.815
 8885SOL     OW27553   5.510   3.815   2.045
 8885SOL    HW127554   5.548   3.819   1.952
 8885SOL    HW227555   5.411   3.822   2.041
 8886SOL     OW27556   3.252   5.572   6.115
 8886SOL    HW127557   3.183   5.600   6.182
 8886SOL    HW227558   3.214   5.580   6.023
 8887SOL     OW27559   1.745   0.837   1.029
 8887SOL    HW127560   1.752   0.899   1.107
 8887SOL    HW227561   1.676   0.872   0.965
 8888SOL     OW27562   3.016   2.056   2.624
 8888SOL    HW127563   3.110   2.085   2.643
 8888SOL    HW227564   3.007   1.959   2.646
 8889SOL     OW27565   3.552   0.300   4.486
 8889SOL    HW127566   3.561   0.390   4.444
 8889SOL    HW227567   3.485   0.303   4.559
 8890SOL     OW27568   0.509   3.767   3.219
 8890SOL    HW127569   0.598   3.721   3.213
 8890SOL    HW227570   0.517   3.847   3.279
 8891SOL     OW27571   2.853   1.765   5.979
 8891SOL    HW127572   2.787   1.732   6.047
 8891SOL    HW227573   2.892   1.686   5.931
 8892SOL     OW27574   1.160   6.732   2.409
 8892SOL    HW127575   1.187   6.811   2.465
 8892SOL    HW227576   1.155   6.651   2.467
 8893SOL     OW27577   0.415   0.670   0.138
 8893SOL    HW127578   0.424   0.638   0.233
 8893SOL    HW227579   0.441   0.597   0.075
 8894SOL     OW27580   4.237   2.861   6.302
 8894SOL    HW127581   4.252   2.817   6.214
 8894SOL    HW227582   4.161   2.817   6.350
 8895SOL     OW27583   2.120   0.906   2.473
 8895SOL    HW127584   2.020   0.901   2.483
 8895SOL    HW227585   2.162   0.911   2.563
 8896SOL     OW27586   2.155   4.222   5.091
 8896SOL    HW127587   2.183   4.233   5.186
 8896SOL    HW227588   2.207   4.147   5.049
 8897SOL     OW27589   1.231   2.392   0.860
 8897SOL    HW127590   1.276   2.335   0.791
 8897SOL    HW227591   1.299   2.422   0.927
 8898SOL     OW27592   6.847   3.053   4.793
 8898SOL    HW127593   6.806   3.144   4.783
 8898SOL    HW227594   6.922   3.057   4.859
 8899SOL     OW27595   2.951   5.352   1.459
 8899SOL    HW127596   2.857   5.380   1.440
 8899SOL    HW227597   3.010   5.379   1.383
 8900SOL     OW27598   0.175   1.396   3.575
 8900SOL    HW127599   0.129   1.483   3.561
 8900SOL    HW227600   0.187   1.349   3.488
 8901SOL     OW27601   1.672   6.378   1.677
 8901SOL    HW127602   1.725   6.293   1.670
 8901SOL    HW227603   1.605   6.370   1.751
 8902SOL     OW27604   3.062   5.938   5.118
 8902SOL    HW127605   3.066   6.037   5.122
 8902SOL    HW227606   2.967   5.908   5.124
 8903SOL     OW27607   0.512   0.436   2.826
 8903SOL    HW127608   0.527   0.513   2.887
 8903SOL    HW227609   0.416   0.410   2.828
 8904SOL     OW27610   1.419   4.916   3.246
 8904SOL    HW127611   1.345   4.873   3.296
 8904SOL    HW227612   1.502   4.914   3.301
 8905SOL     OW27613   2.275   4.175   4.780
 8905SOL    HW127614   2.175   4.177   4.780
 8905SOL    HW227615   2.307   4.112   4.852
 8906SOL     OW27616   1.620   5.058   4.415
 8906SOL    HW127617   1.637   5.021   4.506
 8906SOL    HW227618   1.583   5.150   4.422
 8907SOL     OW27619   3.908   2.725   6.699
 8907SOL    HW127620   3.870   2.805   6.652
 8907SOL    HW227621   3.996   2.748   6.739
 8908SOL     OW27622   0.641   2.339   2.322
 8908SOL    HW127623   0.651   2.431   2.359
 8908SOL    HW227624   0.727   2.290   2.331
 8909SOL     OW27625   3.531   0.236   5.674
 8909SOL    HW127626   3.515   0.186   5.588
 8909SOL    HW227627   3.608   0.299   5.662
 8910SOL     OW27628   4.026   3.128   0.222
 8910SOL    HW127629   3.992   3.036   0.200
 8910SOL    HW227630   4.125   3.123   0.239
 8911SOL     OW27631   4.356   2.061   3.895
 8911SOL    HW127632   4.316   2.071   3.986
 8911SOL    HW227633   4.452   2.035   3.904
 8912SOL     OW27634   5.288   1.854   6.627
 8912SOL    HW127635   5.217   1.865   6.696
 8912SOL    HW227636   5.304   1.941   6.581
 8913SOL     OW27637   3.995   4.478   1.181
 8913SOL    HW127638   4.080   4.427   1.185
 8913SOL    HW227639   3.930   4.441   1.247
 8914SOL     OW27640   5.004   1.940   3.655
 8914SOL    HW127641   4.994   1.918   3.752
 8914SOL    HW227642   4.946   1.879   3.601
 8915SOL     OW27643   0.868   5.849   2.469
 8915SOL    HW127644   0.900   5.754   2.470
 8915SOL    HW227645   0.769   5.852   2.484
 8916SOL     OW27646   6.112   3.311   2.203
 8916SOL    HW127647   6.179   3.294   2.275
 8916SOL    HW227648   6.096   3.410   2.195
 8917SOL     OW27649   5.497   5.312   5.136
 8917SOL    HW127650   5.457   5.324   5.045
 8917SOL    HW227651   5.436   5.355   5.204
 8918SOL     OW27652   4.779   4.212   6.020
 8918SOL    HW127653   4.767   4.181   5.926
 8918SOL    HW227654   4.829   4.299   6.021
 8919SOL     OW27655   2.531   3.435   1.425
 8919SOL    HW127656   2.594   3.409   1.352
 8919SOL    HW227657   2.450   3.478   1.385
 8920SOL     OW27658   6.891   5.471   5.540
 8920SOL    HW127659   6.830   5.544   5.509
 8920SOL    HW227660   6.971   5.467   5.481
 8921SOL     OW27661   1.362   5.628   3.786
 8921SOL    HW127662   1.321   5.539   3.766
 8921SOL    HW227663   1.399   5.628   3.879
 8922SOL     OW27664   6.628   4.018   6.666
 8922SOL    HW127665   6.703   4.030   6.731
 8922SOL    HW227666   6.662   3.972   6.584
 8923SOL     OW27667   2.257   4.216   4.100
 8923SOL    HW127668   2.304   4.234   4.187
 8923SOL    HW227669   2.180   4.154   4.117
 8924SOL     OW27670   2.425   5.603   5.070
 8924SOL    HW127671   2.461   5.656   5.147
 8924SOL    HW227672   2.338   5.642   5.040
 8925SOL     OW27673   4.664   5.946   1.673
 8925SOL    HW127674   4.636   5.949   1.769
 8925SOL    HW227675   4.738   5.879   1.662
 8926SOL     OW27676   5.317   0.522   6.781
 8926SOL    HW127677   5.228   0.524   6.736
 8926SOL    HW227678   5.383   0.574   6.728
 8927SOL     OW27679   2.706   1.626   4.464
 8927SOL    HW127680   2.753   1.627   4.376
 8927SOL    HW227681   2.630   1.691   4.462
 8928SOL     OW27682   0.563   0.114   4.432
 8928SOL    HW127683   0.470   0.123   4.467
 8928SOL    HW227684   0.566   0.146   4.337
 8929SOL     OW27685   5.375   4.254   3.516
 8929SOL    HW127686   5.342   4.332   3.570
 8929SOL    HW227687   5.473   4.240   3.534
 8930SOL     OW27688   0.851   5.115   5.478
 8930SOL    HW127689   0.950   5.101   5.475
 8930SOL    HW227690   0.805   5.047   5.420
 8931SOL     OW27691   4.897   1.164   1.621
 8931SOL    HW127692   4.929   1.247   1.666
 8931SOL    HW227693   4.955   1.087   1.648
 8932SOL     OW27694   5.926   0.639   0.100
 8932SOL    HW127695   5.960   0.723   0.058
 8932SOL    HW227696   5.923   0.566   0.031
 8933SOL     OW27697   1.086   0.429   5.417
 8933SOL    HW127698   1.131   0.516   5.435
 8933SOL    HW227699   1.000   0.425   5.469
 8934SOL     OW27700   4.333   6.781   3.525
 8934SOL    HW127701   4.293   6.871   3.513
 8934SOL    HW227702   4.414   6.789   3.583
 8935SOL     OW27703   5.691   1.525   2.670
 8935SOL    HW127704   5.621   1.537   2.741
 8935SOL    HW227705   5.745   1.609   2.661
 8936SOL     OW27706   1.726   3.900   2.685
 8936SOL    HW127707   1.745   3.991   2.723
 8936SOL    HW227708   1.750   3.900   2.587
 8937SOL     OW27709   4.321   0.315   5.212
 8937SOL    HW127710   4.225   0.321   5.185
 8937SOL    HW227711   4.363   0.238   5.166
 8938SOL     OW27712   5.801   6.513   1.321
 8938SOL    HW127713   5.830   6.431   1.371
 8938SOL    HW227714   5.712   6.543   1.355
 8939SOL     OW27715   0.835   3.131   4.311
 8939SOL    HW127716   0.743   3.120   4.273
 8939SOL    HW227717   0.833   3.113   4.409
 8940SOL     OW27718   6.396   3.344   1.892
 8940SOL    HW127719   6.430   3.304   1.977
 8940SOL    HW227720   6.339   3.277   1.844
 8941SOL     OW27721   5.769   1.888   3.323
 8941SOL    HW127722   5.713   1.840   3.255
 8941SOL    HW227723   5.863   1.894   3.289
 8942SOL     OW27724   5.082   4.302   3.420
 8942SOL    HW127725   5.064   4.399   3.438
 8942SOL    HW227726   5.180   4.285   3.422
 8943SOL     OW27727   4.454   2.819   0.598
 8943SOL    HW127728   4.437   2.884   0.524
 8943SOL    HW227729   4.544   2.836   0.638
 8944SOL     OW27730   4.045   5.667   5.525
 8944SOL    HW127731   3.978   5.610   5.573
 8944SOL    HW227732   4.000   5.745   5.483
 8945SOL     OW27733   6.496   4.351   2.153
 8945SOL    HW127734   6.566   4.420   2.170
 8945SOL    HW227735   6.533   4.279   2.095
 8946SOL     OW27736   4.162   1.692   4.847
 8946SOL    HW127737   4.128   1.781   4.817
 8946SOL    HW227738   4.087   1.625   4.843
 8947SOL     OW27739   2.111   4.779   0.873
 8947SOL    HW127740   2.180   4.833   0.921
 8947SOL    HW227741   2.156   4.708   0.818
 8948SOL     OW27742   5.438   0.589   3.191
 8948SOL    HW127743   5.449   0.684   3.221
 8948SOL    HW227744   5.524   0.558   3.149
 8949SOL     OW27745   3.380   6.444   0.988
 8949SOL    HW127746   3.312   6.518   0.981
 8949SOL    HW227747   3.450   6.457   0.918
 8950SOL     OW27748   3.361   3.833   2.643
 8950SOL    HW127749   3.359   3.764   2.715
 8950SOL    HW227750   3.329   3.920   2.680
 8951SOL     OW27751   0.732   0.758   4.080
 8951SOL    HW127752   0.711   0.661   4.078
 8951SOL    HW227753   0.685   0.801   4.157
 8952SOL     OW27754   1.810   4.356   4.493
 8952SOL    HW127755   1.784   4.448   4.464
 8952SOL    HW227756   1.743   4.321   4.558
 8953SOL     OW27757   0.474   5.203   1.491
 8953SOL    HW127758   0.547   5.160   1.439
 8953SOL    HW227759   0.473   5.165   1.584
 8954SOL     OW27760   2.107   3.995   5.435
 8954SOL    HW127761   2.182   4.056   5.411
 8954SOL    HW227762   2.069   4.022   5.523
 8955SOL     OW27763   5.840   2.739   5.417
 8955SOL    HW127764   5.898   2.777   5.489
 8955SOL    HW227765   5.768   2.805   5.394
 8956SOL     OW27766   0.648   5.932   0.822
 8956SOL    HW127767   0.631   5.976   0.910
 8956SOL    HW227768   0.563   5.926   0.770
 8957SOL     OW27769   1.158   6.944   2.653
 8957SOL    HW127770   1.165   0.012   2.611
 8957SOL    HW227771   1.249   6.913   2.680
 8958SOL     OW27772   0.206   4.134   4.567
 8958SOL    HW127773   0.250   4.083   4.493
 8958SOL    HW227774   0.168   4.219   4.531
 8959SOL     OW27775   5.514   2.113   3.984
 8959SOL    HW127776   5.540   2.027   4.028
 8959SOL    HW227777   5.478   2.176   4.053
 8960SOL     OW27778   5.593   4.996   2.923
 8960SOL    HW127779   5.686   4.960   2.924
 8960SOL    HW227780   5.575   5.041   2.836
 8961SOL     OW27781   2.906   1.570   5.044
 8961SOL    HW127782   2.918   1.593   5.140
 8961SOL    HW227783   2.833   1.503   5.033
 8962SOL     OW27784   6.884   6.060   2.272
 8962SOL    HW127785   6.848   6.152   2.283
 8962SOL    HW227786   6.840   6.015   2.194
 8963SOL     OW27787   2.553   6.204   5.937
 8963SOL    HW127788   2.459   6.179   5.914
 8963SOL    HW227789   2.565   6.303   5.927
 8964SOL     OW27790   1.989   3.032   3.534
 8964SOL    HW127791   2.025   3.116   3.574
 8964SOL    HW227792   1.930   3.055   3.457
 8965SOL     OW27793   4.123   5.986   0.587
 8965SOL    HW127794   4.215   6.016   0.609
 8965SOL    HW227795   4.058   6.060   0.604
 8966SOL     OW27796   5.025   6.498   5.405
 8966SOL    HW127797   4.973   6.458   5.481
 8966SOL    HW227798   4.978   6.581   5.373
 8967SOL     OW27799   2.542   0.366   2.887
 8967SOL    HW127800   2.503   0.281   2.922
 8967SOL    HW227801   2.482   0.442   2.909
 8968SOL     OW27802   3.574   4.912   2.571
 8968SOL    HW127803   3.519   4.903   2.654
 8968SOL    HW227804   3.518   4.890   2.491
 8969SOL     OW27805   6.674   1.264   2.791
 8969SOL    HW127806   6.729   1.281   2.709
 8969SOL    HW227807   6.692   1.171   2.825
 8970SOL     OW27808   2.109   1.145   3.203
 8970SOL    HW127809   2.049   1.120   3.279
 8970SOL    HW227810   2.201   1.111   3.220
 8971SOL     OW27811   3.343   4.051   1.029
 8971SOL    HW127812   3.278   4.041   1.104
 8971SOL    HW227813   3.294   4.044   0.942
 8972SOL     OW27814   5.475   4.161   6.667
 8972SOL    HW127815   5.393   4.140   6.614
 8972SOL    HW227816   5.538   4.083   6.664
 8973SOL     OW27817   2.838   1.948   3.005
 8973SOL    HW127818   2.850   1.914   2.912
 8973SOL    HW227819   2.885   2.035   3.015
 8974SOL     OW27820   1.797   4.198   4.260
 8974SOL    HW127821   1.722   4.243   4.211
 8974SOL    HW227822   1.817   4.249   4.344
 8975SOL     OW27823   6.713   3.757   6.163
 8975SOL    HW127824   6.630   3.702   6.146
 8975SOL    HW227825   6.765   3.765   6.078
 8976SOL     OW27826   5.685   0.354   1.573
 8976SOL    HW127827   5.772   0.401   1.560
 8976SOL    HW227828   5.668   0.344   1.671
 8977SOL     OW27829   6.785   4.645   6.401
 8977SOL    HW127830   6.707   4.676   6.455
 8977SOL    HW227831   6.790   4.545   6.405
 8978SOL     OW27832   6.304   5.475   5.683
 8978SOL    HW127833   6.379   5.454   5.747
 8978SOL    HW227834   6.223   5.423   5.708
 8979SOL     OW27835   1.828   5.309   3.709
 8979SOL    HW127836   1.801   5.397   3.669
 8979SOL    HW227837   1.866   5.250   3.638
 8980SOL     OW27838   3.974   0.947   0.674
 8980SOL    HW127839   3.985   0.896   0.759
 8980SOL    HW227840   3.911   0.897   0.614
 8981SOL     OW27841   4.013   2.268   6.984
 8981SOL    HW127842   4.023   2.189   0.022
 8981SOL    HW227843   4.055   2.348   0.004
 8982SOL     OW27844   6.760   1.370   1.812
 8982SOL    HW127845   6.804   1.286   1.778
 8982SOL    HW227846   6.831   1.433   1.845
 8983SOL     OW27847   1.372   7.022   2.353
 8983SOL    HW127848   1.406   6.998   2.444
 8983SOL    HW227849   1.443   7.004   2.285
 8984SOL     OW27850   7.008   2.094   4.710
 8984SOL    HW127851   0.020   2.082   4.617
 8984SOL    HW227852   6.966   2.009   4.740
 8985SOL     OW27853   4.390   1.251   1.899
 8985SOL    HW127854   4.438   1.300   1.972
 8985SOL    HW227855   4.383   1.308   1.818
 8986SOL     OW27856   6.973   6.169   0.230
 8986SOL    HW127857   6.921   6.098   0.278
 8986SOL    HW227858   6.972   6.253   0.284
 8987SOL     OW27859   2.276   6.516   2.046
 8987SOL    HW127860   2.374   6.520   2.027
 8987SOL    HW227861   2.225   6.538   1.963
 8988SOL     OW27862   2.563   0.263   1.306
 8988SOL    HW127863   2.545   0.169   1.337
 8988SOL    HW227864   2.583   0.262   1.208
 8989SOL     OW27865   6.082   1.061   2.638
 8989SOL    HW127866   6.007   1.120   2.606
 8989SOL    HW227867   6.045   0.972   2.664
 8990SOL     OW27868   3.403   1.205   3.073
 8990SOL    HW127869   3.332   1.257   3.026
 8990SOL    HW227870   3.473   1.176   3.008
 8991SOL     OW27871   1.362   2.495   0.317
 8991SOL    HW127872   1.307   2.471   0.398
 8991SOL    HW227873   1.397   2.412   0.275
 8992SOL     OW27874   6.636   4.350   6.194
 8992SOL    HW127875   6.581   4.270   6.219
 8992SOL    HW227876   6.577   4.431   6.189
 8993SOL     OW27877   5.233   4.063   3.738
 8993SOL    HW127878   5.195   4.128   3.672
 8993SOL    HW227879   5.333   4.067   3.735
 8994SOL     OW27880   1.029   6.499   2.876
 8994SOL    HW127881   1.015   6.589   2.916
 8994SOL    HW227882   1.122   6.468   2.896
 8995SOL     OW27883   2.111   3.940   3.791
 8995SOL    HW127884   2.066   3.936   3.880
 8995SOL    HW227885   2.174   4.017   3.789
 8996SOL     OW27886   2.266   3.483   1.111
 8996SOL    HW127887   2.239   3.580   1.108
 8996SOL    HW227888   2.365   3.476   1.111
 8997SOL     OW27889   4.418   0.813   5.052
 8997SOL    HW127890   4.505   0.772   5.025
 8997SOL    HW227891   4.431   0.910   5.071
 8998SOL     OW27892   1.001   1.565   6.515
 8998SOL    HW127893   1.036   1.553   6.608
 8998SOL    HW227894   1.009   1.661   6.488
 8999SOL     OW27895   5.248   2.773   5.832
 8999SOL    HW127896   5.215   2.854   5.783
 8999SOL    HW227897   5.253   2.696   5.768
 9000SOL     OW27898   3.489   4.868   1.278
 9000SOL    HW127899   3.569   4.808   1.281
 9000SOL    HW227900   3.518   4.963   1.280
 9001SOL     OW27901   1.692   4.664   3.172
 9001SOL    HW127902   1.686   4.688   3.075
 9001SOL    HW227903   1.786   4.674   3.203
 9002SOL     OW27904   5.389   3.740   5.473
 9002SOL    HW127905   5.345   3.768   5.388
 9002SOL    HW227906   5.327   3.680   5.525
 9003SOL     OW27907   6.715   3.405   6.760
 9003SOL    HW127908   6.656   3.345   6.814
 9003SOL    HW227909   6.788   3.441   6.817
 9004SOL     OW27910   4.671   5.868   1.183
 9004SOL    HW127911   4.769   5.882   1.171
 9004SOL    HW227912   4.630   5.845   1.094
 9005SOL     OW27913   5.138   2.870   3.791
 9005SOL    HW127914   5.173   2.947   3.844
 9005SOL    HW227915   5.130   2.897   3.695
 9006SOL     OW27916   1.885   6.810   0.978
 9006SOL    HW127917   1.867   6.729   1.034
 9006SOL    HW227918   1.980   6.839   0.990
 9007SOL     OW27919   1.860   6.045   5.263
 9007SOL    HW127920   1.845   6.119   5.198
 9007SOL    HW227921   1.840   6.077   5.356
 9008SOL     OW27922   0.375   4.454   2.360
 9008SOL    HW127923   0.317   4.521   2.406
 9008SOL    HW227924   0.317   4.387   2.312
 9009SOL     OW27925   3.811   5.798   0.081
 9009SOL    HW127926   3.734   5.851   0.115
 9009SOL    HW227927   3.895   5.854   0.086
 9010SOL     OW27928   0.002   5.422   4.662
 9010SOL    HW127929   0.009   5.333   4.618
 9010SOL    HW227930   0.001   5.494   4.592
 9011SOL     OW27931   4.452   2.515   2.507
 9011SOL    HW127932   4.362   2.499   2.548
 9011SOL    HW227933   4.523   2.477   2.566
 9012SOL     OW27934   5.606   5.150   2.675
 9012SOL    HW127935   5.523   5.197   2.704
 9012SOL    HW227936   5.623   5.167   2.578
 9013SOL     OW27937   4.549   6.211   2.867
 9013SOL    HW127938   4.483   6.221   2.793
 9013SOL    HW227939   4.641   6.235   2.835
 9014SOL     OW27940   2.021   0.386   1.358
 9014SOL    HW127941   1.991   0.411   1.449
 9014SOL    HW227942   2.017   0.466   1.298
 9015SOL     OW27943   5.978   1.417   5.124
 9015SOL    HW127944   5.932   1.331   5.147
 9015SOL    HW227945   5.913   1.478   5.079
 9016SOL     OW27946   0.064   5.728   6.538
 9016SOL    HW127947   0.072   5.628   6.529
 9016SOL    HW227948   0.078   5.771   6.449
 9017SOL     OW27949   0.001   3.456   2.868
 9017SOL    HW127950   0.013   3.519   2.791
 9017SOL    HW227951   0.036   3.499   2.951
 9018SOL     OW27952   4.569   1.885   6.308
 9018SOL    HW127953   4.618   1.969   6.330
 9018SOL    HW227954   4.475   1.907   6.283
 9019SOL     OW27955   1.744   5.284   0.231
 9019SOL    HW127956   1.796   5.227   0.167
 9019SOL    HW227957   1.755   5.249   0.324
 9020SOL     OW27958   0.857   5.075   3.841
 9020SOL    HW127959   0.923   5.118   3.779
 9020SOL    HW227960   0.764   5.088   3.805
 9021SOL     OW27961   5.615   5.367   5.620
 9021SOL    HW127962   5.627   5.417   5.706
 9021SOL    HW227963   5.541   5.301   5.630
 9022SOL     OW27964   2.876   6.709   6.842
 9022SOL    HW127965   2.828   6.791   6.813
 9022SOL    HW227966   2.914   6.662   6.762
 9023SOL     OW27967   3.226   3.009   3.851
 9023SOL    HW127968   3.150   2.945   3.855
 9023SOL    HW227969   3.235   3.045   3.757
 9024SOL     OW27970   1.121   0.389   6.457
 9024SOL    HW127971   1.173   0.323   6.403
 9024SOL    HW227972   1.076   0.342   6.533
 9025SOL     OW27973   0.406   3.542   0.034
 9025SOL    HW127974   0.450   3.574   6.974
 9025SOL    HW227975   0.455   3.578   0.114
 9026SOL     OW27976   2.803   3.435   5.583
 9026SOL    HW127977   2.841   3.520   5.620
 9026SOL    HW227978   2.843   3.357   5.631
 9027SOL     OW27979   2.238   2.545   2.560
 9027SOL    HW127980   2.307   2.545   2.488
 9027SOL    HW227981   2.284   2.541   2.649
 9028SOL     OW27982   2.582   4.675   4.281
 9028SOL    HW127983   2.681   4.667   4.297
 9028SOL    HW227984   2.534   4.665   4.368
 9029SOL     OW27985   5.902   5.565   2.482
 9029SOL    HW127986   5.890   5.491   2.549
 9029SOL    HW227987   5.819   5.574   2.428
 9030SOL     OW27988   3.814   1.959   2.144
 9030SOL    HW127989   3.820   2.035   2.078
 9030SOL    HW227990   3.720   1.924   2.145
 9031SOL     OW27991   2.000   1.493   1.234
 9031SOL    HW127992   2.086   1.485   1.285
 9031SOL    HW227993   1.942   1.414   1.254
 9032SOL     OW27994   0.504   2.811   1.706
 9032SOL    HW127995   0.521   2.899   1.663
 9032SOL    HW227996   0.502   2.822   1.805
 9033SOL     OW27997   1.149   3.921   2.359
 9033SOL    HW127998   1.230   3.880   2.401
 9033SOL    HW227999   1.168   4.016   2.335
 9034SOL     OW28000   1.966   6.689   6.765
 9034SOL    HW128001   1.979   6.692   6.666
 9034SOL    HW228002   1.877   6.649   6.786
 9035SOL     OW28003   6.786   1.124   4.748
 9035SOL    HW128004   6.836   1.058   4.692
 9035SOL    HW228005   6.832   1.213   4.743
 9036SOL     OW28006   0.956   1.091   4.385
 9036SOL    HW128007   0.946   1.170   4.446
 9036SOL    HW228008   0.883   1.093   4.317
 9037SOL     OW28009   2.800   3.888   6.098
 9037SOL    HW128010   2.736   3.849   6.032
 9037SOL    HW228011   2.885   3.834   6.099
 9038SOL     OW28012   4.506   5.353   5.300
 9038SOL    HW128013   4.428   5.292   5.287
 9038SOL    HW228014   4.497   5.400   5.388
 9039SOL     OW28015   2.561   4.447   6.759
 9039SOL    HW128016   2.474   4.445   6.709
 9039SOL    HW228017   2.585   4.355   6.789
 9040SOL     OW28018   2.489   2.037   1.920
 9040SOL    HW128019   2.435   2.011   1.840
 9040SOL    HW228020   2.579   2.070   1.891
 9041SOL     OW28021   1.840   2.765   5.934
 9041SOL    HW128022   1.893   2.844   5.903
 9041SOL    HW228023   1.863   2.744   6.029
 9042SOL     OW28024   1.654   5.200   3.121
 9042SOL    HW128025   1.670   5.195   3.022
 9042SOL    HW228026   1.567   5.155   3.143
 9043SOL     OW28027   0.128   2.161   6.978
 9043SOL    HW128028   0.224   2.132   6.982
 9043SOL    HW228029   0.122   2.258   7.003
 9044SOL     OW28030   0.220   4.013   0.002
 9044SOL    HW128031   0.213   4.112   7.014
 9044SOL    HW228032   0.314   3.989   0.030
 9045SOL     OW28033   2.438   4.805   4.076
 9045SOL    HW128034   2.498   4.858   4.015
 9045SOL    HW228035   2.488   4.780   4.158
 9046SOL     OW28036   3.624   4.634   6.095
 9046SOL    HW128037   3.710   4.685   6.098
 9046SOL    HW228038   3.640   4.546   6.051
 9047SOL     OW28039   1.019   4.364   4.520
 9047SOL    HW128040   1.059   4.444   4.475
 9047SOL    HW228041   0.927   4.348   4.483
 9048SOL     OW28042   1.727   1.811   5.477
 9048SOL    HW128043   1.757   1.716   5.467
 9048SOL    HW228044   1.627   1.813   5.484
 9049SOL     OW28045   4.891   6.456   6.201
 9049SOL    HW128046   4.899   6.459   6.101
 9049SOL    HW228047   4.948   6.527   6.241
 9050SOL     OW28048   0.026   5.610   5.733
 9050SOL    HW128049   0.085   5.537   5.767
 9050SOL    HW228050   6.981   5.571   5.671
 9051SOL     OW28051   5.397   6.745   6.318
 9051SOL    HW128052   5.370   6.802   6.241
 9051SOL    HW228053   5.439   6.660   6.283
 9052SOL     OW28054   2.914   4.829   4.725
 9052SOL    HW128055   2.912   4.919   4.767
 9052SOL    HW228056   2.939   4.760   4.793
 9053SOL     OW28057   2.496   1.352   2.288
 9053SOL    HW128058   2.532   1.427   2.343
 9053SOL    HW228059   2.557   1.333   2.211
 9054SOL     OW28060   1.847   6.846   1.404
 9054SOL    HW128061   1.783   6.815   1.334
 9054SOL    HW228062   1.930   6.791   1.401
 9055SOL     OW28063   0.931   2.447   4.518
 9055SOL    HW128064   0.854   2.469   4.459
 9055SOL    HW228065   0.963   2.530   4.564
 9056SOL     OW28066   4.833   2.691   2.000
 9056SOL    HW128067   4.865   2.768   2.054
 9056SOL    HW228068   4.812   2.721   1.907
 9057SOL     OW28069   3.860   6.293   0.125
 9057SOL    HW128070   3.765   6.312   0.099
 9057SOL    HW228071   3.898   6.371   0.175
 9058SOL     OW28072   2.493   2.343   4.560
 9058SOL    HW128073   2.396   2.362   4.570
 9058SOL    HW228074   2.520   2.271   4.624
 9059SOL     OW28075   0.027   1.444   2.035
 9059SOL    HW128076   6.995   1.380   2.088
 9059SOL    HW228077   0.081   1.501   2.097
 9060SOL     OW28078   0.013   5.131   1.315
 9060SOL    HW128079   0.060   5.044   1.300
 9060SOL    HW228080   0.059   5.182   1.388
 9061SOL     OW28081   4.901   3.727   2.020
 9061SOL    HW128082   4.906   3.736   2.120
 9061SOL    HW228083   4.895   3.630   1.995
 9062SOL     OW28084   1.120   5.884   2.879
 9062SOL    HW128085   1.172   5.924   2.955
 9062SOL    HW228086   1.025   5.915   2.883
 9063SOL     OW28087   4.955   0.997   1.120
 9063SOL    HW128088   4.972   0.906   1.156
 9063SOL    HW228089   4.935   1.060   1.196
 9064SOL     OW28090   1.412   5.448   3.278
 9064SOL    HW128091   1.335   5.512   3.273
 9064SOL    HW228092   1.460   5.446   3.191
 9065SOL     OW28093   3.818   4.283   6.891
 9065SOL    HW128094   3.764   4.206   6.923
 9065SOL    HW228095   3.768   4.331   6.818
 9066SOL     OW28096   4.643   4.905   3.859
 9066SOL    HW128097   4.644   4.805   3.853
 9066SOL    HW228098   4.637   4.932   3.955
 9067SOL     OW28099   2.265   6.723   4.358
 9067SOL    HW128100   2.166   6.730   4.356
 9067SOL    HW228101   2.297   6.731   4.453
 9068SOL     OW28102   4.416   6.862   5.997
 9068SOL    HW128103   4.365   6.867   6.083
 9068SOL    HW228104   4.357   6.824   5.926
 9069SOL     OW28105   5.088   2.443   2.203
 9069SOL    HW128106   5.128   2.416   2.116
 9069SOL    HW228107   5.081   2.364   2.263
 9070SOL     OW28108   1.553   0.678   5.963
 9070SOL    HW128109   1.651   0.672   5.941
 9070SOL    HW228110   1.508   0.593   5.936
 9071SOL     OW28111   5.124   2.516   6.805
 9071SOL    HW128112   5.111   2.453   6.881
 9071SOL    HW228113   5.061   2.593   6.814
 9072SOL     OW28114   5.852   6.899   2.126
 9072SOL    HW128115   5.850   6.973   2.059
 9072SOL    HW228116   5.940   6.900   2.174
 9073SOL     OW28117   4.464   3.166   5.453
 9073SOL    HW128118   4.438   3.247   5.400
 9073SOL    HW228119   4.560   3.173   5.479
 9074SOL     OW28120   1.795   0.518   3.106
 9074SOL    HW128121   1.812   0.577   3.185
 9074SOL    HW228122   1.734   0.565   3.042
 9075SOL     OW28123   5.410   5.829   0.573
 9075SOL    HW128124   5.460   5.765   0.516
 9075SOL    HW228125   5.313   5.826   0.551
 9076SOL     OW28126   0.771   6.235   2.634
 9076SOL    HW128127   0.837   6.309   2.638
 9076SOL    HW228128   0.718   6.231   2.718
 9077SOL     OW28129   6.304   2.016   6.652
 9077SOL    HW128130   6.368   2.093   6.659
 9077SOL    HW228131   6.352   1.931   6.672
 9078SOL     OW28132   5.224   6.782   0.255
 9078SOL    HW128133   5.278   6.851   0.305
 9078SOL    HW228134   5.273   6.695   0.258
 9079SOL     OW28135   1.369   1.342   5.766
 9079SOL    HW128136   1.346   1.420   5.825
 9079SOL    HW228137   1.417   1.374   5.685
 9080SOL     OW28138   6.476   4.180   2.544
 9080SOL    HW128139   6.424   4.194   2.460
 9080SOL    HW228140   6.554   4.120   2.525
 9081SOL     OW28141   5.240   1.525   0.799
 9081SOL    HW128142   5.219   1.438   0.843
 9081SOL    HW228143   5.164   1.589   0.814
 9082SOL     OW28144   3.529   5.012   6.589
 9082SOL    HW128145   3.446   5.064   6.609
 9082SOL    HW228146   3.508   4.942   6.520
 9083SOL     OW28147   3.419   0.270   0.584
 9083SOL    HW128148   3.365   0.279   0.500
 9083SOL    HW228149   3.490   0.340   0.585
 9084SOL     OW28150   6.972   3.932   4.996
 9084SOL    HW128151   0.004   3.866   4.944
 9084SOL    HW228152   6.984   4.023   4.957
 9085SOL     OW28153   3.014   4.846   0.572
 9085SOL    HW128154   2.947   4.876   0.640
 9085SOL    HW228155   3.061   4.765   0.606
 9086SOL     OW28156   0.212   2.948   0.350
 9086SOL    HW128157   0.177   3.041   0.361
 9086SOL    HW228158   0.228   2.907   0.440
 9087SOL     OW28159   5.135   1.736   2.056
 9087SOL    HW128160   5.092   1.714   1.968
 9087SOL    HW228161   5.188   1.658   2.088
 9088SOL     OW28162   6.064   5.640   0.056
 9088SOL    HW128163   6.139   5.677   0.002
 9088SOL    HW228164   5.979   5.689   0.033
 9089SOL     OW28165   5.170   5.293   3.720
 9089SOL    HW128166   5.262   5.309   3.683
 9089SOL    HW228167   5.113   5.374   3.701
 9090SOL     OW28168   5.097   6.047   6.030
 9090SOL    HW128169   5.178   6.097   6.061
 9090SOL    HW228170   5.040   6.024   6.108
 9091SOL     OW28171   2.807   2.116   1.924
 9091SOL    HW128172   2.802   2.204   1.971
 9091SOL    HW228173   2.823   2.043   1.991
 9092SOL     OW28174   2.185   1.426   5.108
 9092SOL    HW128175   2.165   1.513   5.154
 9092SOL    HW228176   2.099   1.383   5.079
 9093SOL     OW28177   2.133   3.366   0.909
 9093SOL    HW128178   2.121   3.266   0.911
 9093SOL    HW228179   2.186   3.395   0.988
 9094SOL     OW28180   6.313   3.711   0.828
 9094SOL    HW128181   6.277   3.658   0.751
 9094SOL    HW228182   6.403   3.677   0.853
 9095SOL     OW28183   2.110   2.991   0.107
 9095SOL    HW128184   2.199   2.946   0.096
 9095SOL    HW228185   2.040   2.938   0.060
 9096SOL     OW28186   6.354   3.365   3.236
 9096SOL    HW128187   6.367   3.403   3.328
 9096SOL    HW228188   6.427   3.299   3.217
 9097SOL     OW28189   6.363   6.015   5.960
 9097SOL    HW128190   6.280   6.002   5.906
 9097SOL    HW228191   6.443   5.991   5.905
 9098SOL     OW28192   3.323   4.120   4.558
 9098SOL    HW128193   3.302   4.142   4.653
 9098SOL    HW228194   3.258   4.052   4.525
 9099SOL     OW28195   1.896   1.913   0.199
 9099SOL    HW128196   1.803   1.941   0.222
 9099SOL    HW228197   1.953   1.917   0.281
 9100SOL     OW28198   1.521   2.847   6.871
 9100SOL    HW128199   1.610   2.815   6.838
 9100SOL    HW228200   1.472   2.893   6.797
 9101SOL     OW28201   2.110   1.789   6.810
 9101SOL    HW128202   2.068   1.830   6.891
 9101SOL    HW228203   2.129   1.859   6.742
 9102SOL     OW28204   5.599   6.401   2.727
 9102SOL    HW128205   5.535   6.335   2.767
 9102SOL    HW228206   5.567   6.494   2.744
 9103SOL     OW28207   0.555   4.611   6.119
 9103SOL    HW128208   0.512   4.524   6.143
 9103SOL    HW228209   0.653   4.607   6.139
 9104SOL     OW28210   5.242   0.010   2.622
 9104SOL    HW128211   5.248   6.934   2.615
 9104SOL    HW228212   5.152   0.041   2.593
 9105SOL     OW28213   2.744   1.181   5.534
 9105SOL    HW128214   2.655   1.204   5.495
 9105SOL    HW228215   2.733   1.107   5.601
 9106SOL     OW28216   6.371   4.836   1.940
 9106SOL    HW128217   6.290   4.894   1.936
 9106SOL    HW228218   6.346   4.747   1.978
 9107SOL     OW28219   4.707   0.366   0.599
 9107SOL    HW128220   4.695   0.414   0.512
 9107SOL    HW228221   4.676   0.425   0.673
 9108SOL     OW28222   4.197   6.097   6.878
 9108SOL    HW128223   4.155   6.185   6.899
 9108SOL    HW228224   4.297   6.105   6.884
 9109SOL     OW28225   3.081   1.236   4.745
 9109SOL    HW128226   3.062   1.140   4.725
 9109SOL    HW228227   3.179   1.254   4.734
 9110SOL     OW28228   1.404   2.734   2.928
 9110SOL    HW128229   1.365   2.766   3.015
 9110SOL    HW228230   1.447   2.811   2.880
 9111SOL     OW28231   4.233   4.070   1.725
 9111SOL    HW128232   4.245   3.978   1.762
 9111SOL    HW228233   4.300   4.131   1.767
 9112SOL     OW28234   0.786   5.090   1.696
 9112SOL    HW128235   0.690   5.062   1.701
 9112SOL    HW228236   0.796   5.184   1.729
 9113SOL     OW28237   3.109   6.028   0.125
 9113SOL    HW128238   3.016   6.064   0.117
 9113SOL    HW228239   3.173   6.104   0.133
 9114SOL     OW28240   2.806   4.237   1.508
 9114SOL    HW128241   2.729   4.211   1.566
 9114SOL    HW228242   2.777   4.308   1.444
 9115SOL     OW28243   1.825   4.420   4.021
 9115SOL    HW128244   1.855   4.326   4.011
 9115SOL    HW228245   1.901   4.478   4.049
 9116SOL     OW28246   2.313   1.455   5.703
 9116SOL    HW128247   2.340   1.530   5.643
 9116SOL    HW228248   2.293   1.491   5.795
 9117SOL     OW28249   6.809   2.976   6.719
 9117SOL    HW128250   6.770   2.910   6.784
 9117SOL    HW228251   6.873   2.929   6.659
 9118SOL     OW28252   6.830   5.347   1.414
 9118SOL    HW128253   6.899   5.279   1.389
 9118SOL    HW228254   6.876   5.428   1.451
 9119SOL     OW28255   6.032   7.002   1.001
 9119SOL    HW128256   5.987   0.045   0.941
 9119SOL    HW228257   6.124   6.982   0.967
 9120SOL     OW28258   5.770   1.131   6.479
 9120SOL    HW128259   5.760   1.230   6.468
 9120SOL    HW228260   5.858   1.102   6.442
 9121SOL     OW28261   1.456   1.207   6.930
 9121SOL    HW128262   1.482   1.111   6.924
 9121SOL    HW228263   1.368   1.221   6.886
 9122SOL     OW28264   0.629   2.704   0.884
 9122SOL    HW128265   0.549   2.760   0.858
 9122SOL    HW228266   0.598   2.627   0.939
 9123SOL     OW28267   2.770   6.034   6.926
 9123SOL    HW128268   2.671   6.023   6.933
 9123SOL    HW228269   2.793   6.132   6.933
 9124SOL     OW28270   6.081   4.696   5.944
 9124SOL    HW128271   6.088   4.749   6.029
 9124SOL    HW228272   6.051   4.603   5.965
 9125SOL     OW28273   4.796   6.004   2.177
 9125SOL    HW128274   4.821   5.908   2.171
 9125SOL    HW228275   4.823   6.040   2.267
 9126SOL     OW28276   5.778   0.342   2.239
 9126SOL    HW128277   5.802   0.388   2.325
 9126SOL    HW228278   5.840   0.371   2.167
 9127SOL     OW28279   5.298   6.502   6.862
 9127SOL    HW128280   5.340   6.565   6.928
 9127SOL    HW228281   5.345   6.510   6.774
 9128SOL     OW28282   5.037   2.731   4.851
 9128SOL    HW128283   5.038   2.657   4.918
 9128SOL    HW228284   4.972   2.709   4.778
 9129SOL     OW28285   2.011   1.477   6.439
 9129SOL    HW128286   2.107   1.473   6.413
 9129SOL    HW228287   1.960   1.533   6.373
 9130SOL     OW28288   6.070   5.564   0.895
 9130SOL    HW128289   6.077   5.543   0.797
 9130SOL    HW228290   6.118   5.650   0.913
 9131SOL     OW28291   0.293   4.346   4.090
 9131SOL    HW128292   0.195   4.340   4.073
 9131SOL    HW228293   0.309   4.396   4.175
 9132SOL     OW28294   1.557   3.137   4.563
 9132SOL    HW128295   1.532   3.072   4.635
 9132SOL    HW228296   1.591   3.222   4.604
 9133SOL     OW28297   1.738   4.488   0.811
 9133SOL    HW128298   1.725   4.541   0.895
 9133SOL    HW228299   1.675   4.521   0.741
 9134SOL     OW28300   2.705   4.883   6.147
 9134SOL    HW128301   2.751   4.823   6.212
 9134SOL    HW228302   2.772   4.940   6.101
 9135SOL     OW28303   0.289   5.899   4.254
 9135SOL    HW128304   0.386   5.878   4.254
 9135SOL    HW228305   0.238   5.823   4.213
 9136SOL     OW28306   4.320   5.333   6.138
 9136SOL    HW128307   4.228   5.299   6.116
 9136SOL    HW228308   4.388   5.269   6.104
 9137SOL     OW28309   4.064   1.202   2.650
 9137SOL    HW128310   4.076   1.235   2.556
 9137SOL    HW228311   4.131   1.130   2.669
 9138SOL     OW28312   3.714   4.849   1.011
 9138SOL    HW128313   3.740   4.764   0.965
 9138SOL    HW228314   3.616   4.863   1.002
 9139SOL     OW28315   3.583   1.052   5.362
 9139SOL    HW128316   3.547   1.085   5.275
 9139SOL    HW228317   3.614   1.130   5.416
 9140SOL     OW28318   0.138   2.528   3.343
 9140SOL    HW128319   0.097   2.500   3.256
 9140SOL    HW228320   0.169   2.447   3.393
 9141SOL     OW28321   5.410   0.577   5.764
 9141SOL    HW128322   5.319   0.617   5.764
 9141SOL    HW228323   5.469   0.628   5.827
 9142SOL     OW28324   0.865   3.850   6.269
 9142SOL    HW128325   0.857   3.765   6.321
 9142SOL    HW228326   0.911   3.919   6.325
 9143SOL     OW28327   5.376   4.232   1.208
 9143SOL    HW128328   5.293   4.176   1.200
 9143SOL    HW228329   5.352   4.328   1.199
 9144SOL     OW28330   1.795   4.640   5.096
 9144SOL    HW128331   1.818   4.648   4.999
 9144SOL    HW228332   1.771   4.545   5.117
 9145SOL     OW28333   0.322   4.028   6.717
 9145SOL    HW128334   0.334   4.042   6.619
 9145SOL    HW228335   0.297   3.933   6.735
 9146SOL     OW28336   6.956   1.787   1.494
 9146SOL    HW128337   6.911   1.774   1.582
 9146SOL    HW228338   6.964   1.885   1.475
 9147SOL     OW28339   4.053   6.226   6.129
 9147SOL    HW128340   4.037   6.322   6.105
 9147SOL    HW228341   4.104   6.181   6.055
 9148SOL     OW28342   4.128   5.995   3.236
 9148SOL    HW128343   4.108   6.039   3.148
 9148SOL    HW228344   4.202   6.045   3.281
 9149SOL     OW28345   5.849   3.397   3.703
 9149SOL    HW128346   5.769   3.456   3.691
 9149SOL    HW228347   5.921   3.447   3.751
 9150SOL     OW28348   4.393   1.436   3.473
 9150SOL    HW128349   4.446   1.372   3.417
 9150SOL    HW228350   4.444   1.521   3.485
 9151SOL     OW28351   1.514   3.611   2.437
 9151SOL    HW128352   1.471   3.524   2.458
 9151SOL    HW228353   1.564   3.604   2.351
 9152SOL     OW28354   2.399   5.877   2.523
 9152SOL    HW128355   2.484   5.829   2.545
 9152SOL    HW228356   2.332   5.860   2.595
 9153SOL     OW28357   1.440   3.303   5.826
 9153SOL    HW128358   1.428   3.206   5.802
 9153SOL    HW228359   1.431   3.315   5.924
 9154SOL     OW28360   2.075   5.935   0.755
 9154SOL    HW128361   1.994   5.900   0.802
 9154SOL    HW228362   2.156   5.914   0.808
 9155SOL     OW28363   1.663   4.296   0.343
 9155SOL    HW128364   1.576   4.279   0.389
 9155SOL    HW228365   1.663   4.252   0.254
 9156SOL     OW28366   5.445   2.750   1.919
 9156SOL    HW128367   5.353   2.789   1.915
 9156SOL    HW228368   5.452   2.674   1.854
 9157SOL     OW28369   5.009   3.802   5.598
 9157SOL    HW128370   4.940   3.825   5.667
 9157SOL    HW228371   5.056   3.886   5.568
 9158SOL     OW28372   0.781   3.777   3.276
 9158SOL    HW128373   0.792   3.761   3.374
 9158SOL    HW228374   0.864   3.746   3.228
 9159SOL     OW28375   0.041   3.995   3.143
 9159SOL    HW128376   0.102   3.921   3.173
 9159SOL    HW228377   7.000   3.959   3.075
 9160SOL     OW28378   6.829   0.008   0.031
 9160SOL    HW128379   6.867   6.945   0.065
 9160SOL    HW228380   6.747   0.032   0.083
 9161SOL     OW28381   5.403   3.775   4.071
 9161SOL    HW128382   5.397   3.677   4.089
 9161SOL    HW228383   5.338   3.800   4.000
 9162SOL     OW28384   5.209   1.993   2.397
 9162SOL    HW128385   5.123   1.989   2.348
 9162SOL    HW228386   5.285   1.984   2.333
 9163SOL     OW28387   3.305   1.892   3.882
 9163SOL    HW128388   3.379   1.883   3.815
 9163SOL    HW228389   3.333   1.956   3.953
 9164SOL     OW28390   3.047   0.051   0.346
 9164SOL    HW128391   3.103   7.002   0.305
 9164SOL    HW228392   2.971   0.010   0.396
 9165SOL     OW28393   5.382   6.540   0.284
 9165SOL    HW128394   5.360   6.451   0.243
 9165SOL    HW228395   5.440   6.525   0.365
 9166SOL     OW28396   3.082   5.511   1.634
 9166SOL    HW128397   3.149   5.560   1.578
 9166SOL    HW228398   3.039   5.439   1.580
 9167SOL     OW28399   1.016   4.168   4.701
 9167SOL    HW128400   1.041   4.243   4.641
 9167SOL    HW228401   1.040   4.081   4.659
 9168SOL     OW28402   2.233   0.198   6.476
 9168SOL    HW128403   2.174   0.133   6.523
 9168SOL    HW228404   2.261   0.271   6.539
 9169SOL     OW28405   6.746   6.536   3.399
 9169SOL    HW128406   6.648   6.525   3.416
 9169SOL    HW228407   6.789   6.446   3.395
 9170SOL     OW28408   6.606   6.257   6.915
 9170SOL    HW128409   6.665   6.292   6.988
 9170SOL    HW228410   6.661   6.213   6.845
 9171SOL     OW28411   2.630   5.866   6.174
 9171SOL    HW128412   2.533   5.850   6.195
 9171SOL    HW228413   2.638   5.898   6.080
 9172SOL     OW28414   2.869   1.897   4.147
 9172SOL    HW128415   2.870   1.861   4.053
 9172SOL    HW228416   2.785   1.949   4.162
 9173SOL     OW28417   0.629   4.958   4.849
 9173SOL    HW128418   0.655   5.054   4.851
 9173SOL    HW228419   0.687   4.906   4.912
 9174SOL     OW28420   0.272   4.887   0.268
 9174SOL    HW128421   0.330   4.930   0.199
 9174SOL    HW228422   0.221   4.958   0.317
 9175SOL     OW28423   1.377   0.026   5.040
 9175SOL    HW128424   1.390   0.107   5.097
 9175SOL    HW228425   1.466   7.017   5.005
 9176SOL     OW28426   1.925   0.738   5.635
 9176SOL    HW128427   1.908   0.639   5.640
 9176SOL    HW228428   1.974   0.768   5.717
 9177SOL     OW28429   1.211   5.127   3.905
 9177SOL    HW128430   1.221   5.206   3.965
 9177SOL    HW228431   1.125   5.135   3.854
 9178SOL     OW28432   2.237   4.594   0.640
 9178SOL    HW128433   2.258   4.512   0.693
 9178SOL    HW228434   2.322   4.639   0.614
 9179SOL     OW28435   3.131   4.900   4.545
 9179SOL    HW128436   3.053   4.845   4.576
 9179SOL    HW228437   3.206   4.892   4.611
 9180SOL     OW28438   4.801   1.942   3.046
 9180SOL    HW128439   4.874   1.977   2.988
 9180SOL    HW228440   4.803   1.842   3.045
 9181SOL     OW28441   4.098   1.282   2.397
 9181SOL    HW128442   4.063   1.375   2.410
 9181SOL    HW228443   4.067   1.248   2.308
 9182SOL     OW28444   1.299   6.956   1.706
 9182SOL    HW128445   1.207   6.917   1.714
 9182SOL    HW228446   1.352   6.901   1.641
 9183SOL     OW28447   5.385   5.732   7.011
 9183SOL    HW128448   5.337   5.697   6.931
 9183SOL    HW228449   5.346   5.691   0.071
 9184SOL     OW28450   4.779   6.917   0.422
 9184SOL    HW128451   4.868   6.963   0.417
 9184SOL    HW228452   4.768   6.878   0.513
 9185SOL     OW28453   3.877   1.510   5.449
 9185SOL    HW128454   3.926   1.431   5.412
 9185SOL    HW228455   3.926   1.594   5.426
 9186SOL     OW28456   5.405   0.048   6.341
 9186SOL    HW128457   5.327   0.037   6.278
 9186SOL    HW228458   5.371   0.061   6.434
 9187SOL     OW28459   2.503   6.266   2.111
 9187SOL    HW128460   2.515   6.180   2.061
 9187SOL    HW228461   2.484   6.247   2.207
 9188SOL     OW28462   2.584   6.009   1.439
 9188SOL    HW128463   2.510   6.000   1.372
 9188SOL    HW228464   2.573   5.941   1.510
 9189SOL     OW28465   5.484   5.229   1.983
 9189SOL    HW128466   5.469   5.282   2.067
 9189SOL    HW228467   5.467   5.132   2.002
 9190SOL     OW28468   1.658   5.023   0.729
 9190SOL    HW128469   1.592   5.090   0.763
 9190SOL    HW228470   1.749   5.046   0.763
 9191SOL     OW28471   6.961   0.588   6.218
 9191SOL    HW128472   6.956   0.687   6.227
 9191SOL    HW228473   6.887   0.546   6.270
 9192SOL     OW28474   6.988   3.760   3.898
 9192SOL    HW128475   6.996   3.854   3.865
 9192SOL    HW228476   0.055   3.727   3.928
 9193SOL     OW28477   3.079   3.219   6.715
 9193SOL    HW128478   3.082   3.312   6.753
 9193SOL    HW228479   3.163   3.202   6.664
 9194SOL     OW28480   3.691   0.183   4.278
 9194SOL    HW128481   3.789   0.199   4.272
 9194SOL    HW228482   3.652   0.234   4.354
 9195SOL     OW28483   1.509   1.343   3.488
 9195SOL    HW128484   1.474   1.383   3.572
 9195SOL    HW228485   1.462   1.257   3.470
 9196SOL     OW28486   5.078   2.308   5.567
 9196SOL    HW128487   5.134   2.281   5.489
 9196SOL    HW228488   4.981   2.296   5.545
 9197SOL     OW28489   2.389   3.658   1.375
 9197SOL    HW128490   2.302   3.680   1.420
 9197SOL    HW228491   2.409   3.728   1.306
 9198SOL     OW28492   0.392   5.121   4.239
 9198SOL    HW128493   0.412   5.088   4.330
 9198SOL    HW228494   0.397   5.046   4.173
 9199SOL     OW28495   6.390   4.827   4.856
 9199SOL    HW128496   6.429   4.759   4.918
 9199SOL    HW228497   6.301   4.857   4.891
 9200SOL     OW28498   2.704   0.222   0.351
 9200SOL    HW128499   2.684   0.126   0.333
 9200SOL    HW228500   2.779   0.252   0.292
 9201SOL     OW28501   1.809   4.144   0.522
 9201SOL    HW128502   1.907   4.135   0.506
 9201SOL    HW228503   1.773   4.220   0.468
 9202SOL     OW28504   2.382   0.573   3.680
 9202SOL    HW128505   2.409   0.576   3.776
 9202SOL    HW228506   2.316   0.499   3.666
 9203SOL     OW28507   6.882   0.006   0.685
 9203SOL    HW128508   6.902   6.982   0.599
 9203SOL    HW228509   6.816   0.079   0.668
 9204SOL     OW28510   4.980   0.741   5.492
 9204SOL    HW128511   4.925   0.667   5.452
 9204SOL    HW228512   4.934   0.829   5.475
 9205SOL     OW28513   0.151   4.330   1.800
 9205SOL    HW128514   0.199   4.357   1.883
 9205SOL    HW228515   0.068   4.385   1.789
 9206SOL     OW28516   3.549   5.961   0.689
 9206SOL    HW128517   3.531   5.865   0.665
 9206SOL    HW228518   3.514   5.979   0.781
 9207SOL     OW28519   5.131   5.486   6.575
 9207SOL    HW128520   5.136   5.393   6.539
 9207SOL    HW228521   5.048   5.530   6.540
 9208SOL     OW28522   1.705   3.721   3.132
 9208SOL    HW128523   1.681   3.655   3.060
 9208SOL    HW228524   1.795   3.759   3.113
 9209SOL     OW28525   3.094   0.310   6.318
 9209SOL    HW128526   3.044   0.279   6.237
 9209SOL    HW228527   3.068   0.253   6.397
 9210SOL     OW28528   6.999   0.126   3.608
 9210SOL    HW128529   6.976   0.173   3.523
 9210SOL    HW228530   6.957   0.036   3.608
 9211SOL     OW28531   0.781   1.593   2.380
 9211SOL    HW128532   0.797   1.687   2.348
 9211SOL    HW228533   0.751   1.536   2.304
 9212SOL     OW28534   3.272   5.086   4.228
 9212SOL    HW128535   3.311   5.155   4.167
 9212SOL    HW228536   3.262   5.124   4.320
 9213SOL     OW28537   5.761   4.542   6.702
 9213SOL    HW128538   5.810   4.532   6.788
 9213SOL    HW228539   5.664   4.558   6.720
 9214SOL     OW28540   0.599   4.696   0.808
 9214SOL    HW128541   0.653   4.714   0.725
 9214SOL    HW228542   0.535   4.621   0.790
 9215SOL     OW28543   0.950   0.997   0.849
 9215SOL    HW128544   0.937   0.916   0.791
 9215SOL    HW228545   1.034   0.987   0.902
 9216SOL     OW28546   1.774   6.733   3.125
 9216SOL    HW128547   1.862   6.693   3.100
 9216SOL    HW228548   1.789   6.803   3.195
 9217SOL     OW28549   1.008   2.234   6.934
 9217SOL    HW128550   0.947   2.157   6.917
 9217SOL    HW228551   1.028   2.281   6.848
 9218SOL     OW28552   2.645   0.815   0.588
 9218SOL    HW128553   2.646   0.883   0.661
 9218SOL    HW228554   2.576   0.839   0.520
 9219SOL     OW28555   0.346   2.021   0.538
 9219SOL    HW128556   0.381   2.080   0.611
 9219SOL    HW228557   0.324   1.931   0.575
 9220SOL     OW28558   2.787   6.281   1.769
 9220SOL    HW128559   2.887   6.288   1.779
 9220SOL    HW228560   2.757   6.192   1.804
 9221SOL     OW28561   3.072   5.657   4.530
 9221SOL    HW128562   3.056   5.599   4.611
 9221SOL    HW228563   3.000   5.639   4.463
 9222SOL     OW28564   2.662   2.273   5.905
 9222SOL    HW128565   2.612   2.359   5.896
 9222SOL    HW228566   2.715   2.257   5.821
 9223SOL     OW28567   2.708   3.053   5.282
 9223SOL    HW128568   2.713   3.152   5.292
 9223SOL    HW228569   2.617   3.027   5.250
 9224SOL     OW28570   2.211   5.101   4.988
 9224SOL    HW128571   2.236   5.127   4.894
 9224SOL    HW228572   2.291   5.063   5.034
 9225SOL     OW28573   2.113   6.465   0.093
 9225SOL    HW128574   2.192   6.405   0.102
 9225SOL    HW228575   2.039   6.417   0.045
 9226SOL     OW28576   3.524   6.556   1.216
 9226SOL    HW128577   3.437   6.521   1.182
 9226SOL    HW228578   3.584   6.577   1.139
 9227SOL     OW28579   1.637   5.956   1.892
 9227SOL    HW128580   1.568   6.020   1.927
 9227SOL    HW228581   1.595   5.868   1.872
 9228SOL     OW28582   0.846   0.014   6.636
 9228SOL    HW128583   0.783   6.961   6.621
 9228SOL    HW228584   0.932   7.020   6.588
 9229SOL     OW28585   0.500   5.702   5.469
 9229SOL    HW128586   0.544   5.617   5.500
 9229SOL    HW228587   0.553   5.742   5.396
 9230SOL     OW28588   5.626   0.412   4.141
 9230SOL    HW128589   5.564   0.379   4.212
 9230SOL    HW228590   5.698   0.343   4.126
 9231SOL     OW28591   1.908   2.798   3.232
 9231SOL    HW128592   1.863   2.883   3.260
 9231SOL    HW228593   2.002   2.797   3.265
 9232SOL     OW28594   4.124   4.734   1.376
 9232SOL    HW128595   4.182   4.714   1.298
 9232SOL    HW228596   4.062   4.657   1.392
 9233SOL     OW28597   4.855   4.905   1.114
 9233SOL    HW128598   4.767   4.874   1.149
 9233SOL    HW228599   4.908   4.947   1.188
 9234SOL     OW28600   2.462   5.984   3.579
 9234SOL    HW128601   2.419   5.993   3.669
 9234SOL    HW228602   2.549   5.935   3.589
 9235SOL     OW28603   0.561   2.104   3.154
 9235SOL    HW128604   0.601   2.022   3.195
 9235SOL    HW228605   0.625   2.180   3.163
 9236SOL     OW28606   3.572   2.789   5.854
 9236SOL    HW128607   3.532   2.726   5.788
 9236SOL    HW228608   3.549   2.759   5.947
 9237SOL     OW28609   1.513   3.495   3.989
 9237SOL    HW128610   1.545   3.480   3.896
 9237SOL    HW228611   1.573   3.560   4.036
 9238SOL     OW28612   4.446   3.238   6.441
 9238SOL    HW128613   4.387   3.272   6.515
 9238SOL    HW228614   4.538   3.275   6.452
 9239SOL     OW28615   1.771   3.843   0.313
 9239SOL    HW128616   1.870   3.831   0.306
 9239SOL    HW228617   1.751   3.941   0.322
 9240SOL     OW28618   4.352   0.659   2.486
 9240SOL    HW128619   4.285   0.724   2.521
 9240SOL    HW228620   4.353   0.662   2.386
 9241SOL     OW28621   0.520   5.912   6.962
 9241SOL    HW128622   0.586   5.975   6.920
 9241SOL    HW228623   0.554   5.818   6.953
 9242SOL     OW28624   6.671   6.121   1.861
 9242SOL    HW128625   6.576   6.146   1.881
 9242SOL    HW228626   6.676   6.085   1.768
 9243SOL     OW28627   6.480   6.346   4.367
 9243SOL    HW128628   6.450   6.288   4.291
 9243SOL    HW228629   6.436   6.316   4.452
 9244SOL     OW28630   3.258   5.287   6.782
 9244SOL    HW128631   3.302   5.329   6.860
 9244SOL    HW228632   3.159   5.300   6.788
 9245SOL     OW28633   0.855   5.917   1.072
 9245SOL    HW128634   0.798   5.902   1.153
 9245SOL    HW228635   0.802   5.967   1.003
 9246SOL     OW28636   0.100   4.846   4.404
 9246SOL    HW128637   0.011   4.806   4.380
 9246SOL    HW228638   0.169   4.814   4.339
 9247SOL     OW28639   1.588   6.549   2.065
 9247SOL    HW128640   1.498   6.521   2.030
 9247SOL    HW228641   1.653   6.551   1.989
 9248SOL     OW28642   3.194   1.496   6.488
 9248SOL    HW128643   3.171   1.412   6.537
 9248SOL    HW228644   3.116   1.523   6.431
 9249SOL     OW28645   4.731   6.842   3.733
 9249SOL    HW128646   4.632   6.856   3.730
 9249SOL    HW228647   4.777   6.930   3.718
 9250SOL     OW28648   5.288   3.408   4.109
 9250SOL    HW128649   5.220   3.349   4.064
 9250SOL    HW228650   5.377   3.396   4.064
 9251SOL     OW28651   3.310   1.869   2.538
 9251SOL    HW128652   3.278   1.777   2.563
 9251SOL    HW228653   3.410   1.872   2.544
 9252SOL     OW28654   1.749   6.844   4.332
 9252SOL    HW128655   1.669   6.817   4.386
 9252SOL    HW228656   1.831   6.807   4.375
 9253SOL     OW28657   1.159   0.031   5.474
 9253SOL    HW128658   1.221   0.089   5.527
 9253SOL    HW228659   1.104   0.087   5.413
 9254SOL     OW28660   5.597   3.832   1.783
 9254SOL    HW128661   5.675   3.774   1.760
 9254SOL    HW228662   5.538   3.843   1.703
 9255SOL     OW28663   6.737   4.376   0.353
 9255SOL    HW128664   6.679   4.322   0.292
 9255SOL    HW228665   6.833   4.363   0.328
 9256SOL     OW28666   4.478   4.708   1.751
 9256SOL    HW128667   4.398   4.733   1.697
 9256SOL    HW228668   4.483   4.767   1.832
 9257SOL     OW28669   0.907   3.865   1.136
 9257SOL    HW128670   0.980   3.802   1.110
 9257SOL    HW228671   0.913   3.948   1.080
 9258SOL     OW28672   3.817   4.030   3.622
 9258SOL    HW128673   3.883   4.025   3.697
 9258SOL    HW228674   3.724   4.029   3.660
 9259SOL     OW28675   0.981   2.843   6.773
 9259SOL    HW128676   1.048   2.799   6.832
 9259SOL    HW228677   0.890   2.834   6.814
 9260SOL     OW28678   5.575   3.650   6.643
 9260SOL    HW128679   5.579   3.687   6.550
 9260SOL    HW228680   5.663   3.607   6.665
 9261SOL     OW28681   4.403   0.287   0.235
 9261SOL    HW128682   4.313   0.259   0.269
 9261SOL    HW228683   4.474   0.259   0.300
 9262SOL     OW28684   4.767   1.085   5.369
 9262SOL    HW128685   4.694   1.129   5.422
 9262SOL    HW228686   4.841   1.057   5.430
 9263SOL     OW28687   5.686   4.106   1.962
 9263SOL    HW128688   5.596   4.062   1.952
 9263SOL    HW228689   5.700   4.130   2.058
 9264SOL     OW28690   6.409   3.271   0.100
 9264SOL    HW128691   6.339   3.207   0.069
 9264SOL    HW228692   6.366   3.348   0.147
 9265SOL     OW28693   1.854   0.919   5.425
 9265SOL    HW128694   1.872   0.881   5.516
 9265SOL    HW228695   1.860   1.019   5.429
 9266SOL     OW28696   1.754   6.330   2.250
 9266SOL    HW128697   1.762   6.426   2.221
 9266SOL    HW228698   1.845   6.289   2.251
 9267SOL     OW28699   2.734   5.084   5.204
 9267SOL    HW128700   2.722   5.137   5.120
 9267SOL    HW228701   2.756   4.989   5.182
 9268SOL     OW28702   0.271   1.273   2.705
 9268SOL    HW128703   0.280   1.296   2.609
 9268SOL    HW228704   0.303   1.179   2.720
 9269SOL     OW28705   3.764   1.406   5.757
 9269SOL    HW128706   3.790   1.328   5.815
 9269SOL    HW228707   3.776   1.491   5.808
 9270SOL     OW28708   0.627   6.837   5.889
 9270SOL    HW128709   0.545   6.786   5.861
 9270SOL    HW228710   0.658   6.893   5.812
 9271SOL     OW28711   1.079   4.946   0.046
 9271SOL    HW128712   1.062   5.011   6.994
 9271SOL    HW228713   1.148   4.880   0.017
 9272SOL     OW28714   2.692   4.657   6.691
 9272SOL    HW128715   2.633   4.579   6.706
 9272SOL    HW228716   2.769   4.654   6.755
 9273SOL     OW28717   3.967   5.921   5.442
 9273SOL    HW128718   3.912   5.937   5.360
 9273SOL    HW228719   3.912   5.939   5.523
 9274SOL     OW28720   5.684   2.415   1.168
 9274SOL    HW128721   5.771   2.385   1.129
 9274SOL    HW228722   5.673   2.513   1.153
 9275SOL     OW28723   0.856   0.408   6.218
 9275SOL    HW128724   0.955   0.423   6.218
 9275SOL    HW228725   0.832   0.346   6.292
 9276SOL     OW28726   4.334   6.187   5.061
 9276SOL    HW128727   4.274   6.138   4.997
 9276SOL    HW228728   4.301   6.280   5.074
 9277SOL     OW28729   3.403   2.617   0.478
 9277SOL    HW128730   3.360   2.622   0.388
 9277SOL    HW228731   3.446   2.527   0.490
 9278SOL     OW28732   1.228   2.398   1.456
 9278SOL    HW128733   1.284   2.319   1.482
 9278SOL    HW228734   1.281   2.482   1.470
 9279SOL     OW28735   3.362   0.012   1.427
 9279SOL    HW128736   3.438   0.036   1.488
 9279SOL    HW228737   3.389   6.958   1.369
 9280SOL     OW28738   1.953   0.202   2.882
 9280SOL    HW128739   1.902   0.144   2.945
 9280SOL    HW228740   1.908   0.202   2.792
 9281SOL     OW28741   2.113   2.827   0.439
 9281SOL    HW128742   2.132   2.920   0.469
 9281SOL    HW228743   2.165   2.807   0.355
 9282SOL     OW28744   4.659   2.139   6.369
 9282SOL    HW128745   4.653   2.157   6.467
 9282SOL    HW228746   4.727   2.200   6.328
 9283SOL     OW28747   5.672   2.027   2.810
 9283SOL    HW128748   5.578   2.057   2.794
 9283SOL    HW228749   5.735   2.091   2.765
 9284SOL     OW28750   2.989   3.617   1.695
 9284SOL    HW128751   3.087   3.615   1.713
 9284SOL    HW228752   2.970   3.567   1.610
 9285SOL     OW28753   6.286   2.768   6.408
 9285SOL    HW128754   6.193   2.745   6.438
 9285SOL    HW228755   6.282   2.835   6.334
 9286SOL     OW28756   5.071   6.297   5.226
 9286SOL    HW128757   5.040   6.364   5.294
 9286SOL    HW228758   4.993   6.267   5.171
 9287SOL     OW28759   2.865   6.526   2.010
 9287SOL    HW128760   2.845   6.534   2.108
 9287SOL    HW228761   2.784   6.556   1.958
 9288SOL     OW28762   4.672   2.634   6.063
 9288SOL    HW128763   4.660   2.542   6.025
 9288SOL    HW228764   4.664   2.702   5.989
 9289SOL     OW28765   4.928   2.938   2.882
 9289SOL    HW128766   4.961   2.929   2.976
 9289SOL    HW228767   4.888   3.028   2.868
 9290SOL     OW28768   4.657   2.182   5.099
 9290SOL    HW128769   4.583   2.224   5.152
 9290SOL    HW228770   4.625   2.159   5.008
 9291SOL     OW28771   0.723   2.218   4.958
 9291SOL    HW128772   0.780   2.259   5.028
 9291SOL    HW228773   0.638   2.185   4.999
 9292SOL     OW28774   6.604   3.623   6.582
 9292SOL    HW128775   6.644   3.550   6.637
 9292SOL    HW228776   6.647   3.711   6.606
 9293SOL     OW28777   5.488   4.319   6.885
 9293SOL    HW128778   5.489   4.247   6.816
 9293SOL    HW228779   5.583   4.343   6.909
 9294SOL     OW28780   5.714   6.004   0.231
 9294SOL    HW128781   5.749   6.033   0.142
 9294SOL    HW228782   5.706   6.084   0.291
 9295SOL     OW28783   4.805   1.778   3.566
 9295SOL    HW128784   4.854   1.742   3.487
 9295SOL    HW228785   4.717   1.816   3.537
 9296SOL     OW28786   6.175   0.036   5.807
 9296SOL    HW128787   6.179   0.106   5.736
 9296SOL    HW228788   6.194   6.969   5.768
 9297SOL     OW28789   0.790   0.663   0.456
 9297SOL    HW128790   0.842   0.747   0.441
 9297SOL    HW228791   0.774   0.617   0.369
 9298SOL     OW28792   1.125   6.376   4.912
 9298SOL    HW128793   1.028   6.393   4.928
 9298SOL    HW228794   1.149   6.398   4.818
 9299SOL     OW28795   2.335   2.561   4.295
 9299SOL    HW128796   2.384   2.625   4.236
 9299SOL    HW228797   2.401   2.506   4.346
 9300SOL     OW28798   5.437   4.491   4.244
 9300SOL    HW128799   5.474   4.456   4.331
 9300SOL    HW228800   5.450   4.421   4.173
 9301SOL     OW28801   5.641   4.263   2.815
 9301SOL    HW128802   5.600   4.173   2.830
 9301SOL    HW228803   5.716   4.256   2.750
 9302SOL     OW28804   2.180   1.812   2.306
 9302SOL    HW128805   2.176   1.861   2.219
 9302SOL    HW228806   2.162   1.875   2.381
 9303SOL     OW28807   3.480   5.004   0.988
 9303SOL    HW128808   3.538   5.038   1.063
 9303SOL    HW228809   3.410   5.073   0.967
 9304SOL     OW28810   4.470   3.320   0.766
 9304SOL    HW128811   4.452   3.225   0.790
 9304SOL    HW228812   4.438   3.379   0.840
 9305SOL     OW28813   5.235   2.828   2.468
 9305SOL    HW128814   5.185   2.768   2.405
 9305SOL    HW228815   5.333   2.811   2.460
 9306SOL     OW28816   6.665   4.135   3.877
 9306SOL    HW128817   6.675   4.131   3.778
 9306SOL    HW228818   6.594   4.071   3.906
 9307SOL     OW28819   1.941   1.259   6.600
 9307SOL    HW128820   1.967   1.177   6.550
 9307SOL    HW228821   1.941   1.338   6.538
 9308SOL     OW28822   6.636   3.103   0.995
 9308SOL    HW128823   6.612   3.115   1.091
 9308SOL    HW228824   6.565   3.143   0.938
 9309SOL     OW28825   4.862   3.675   6.468
 9309SOL    HW128826   4.793   3.727   6.417
 9309SOL    HW228827   4.849   3.577   6.453
 9310SOL     OW28828   3.876   6.161   0.872
 9310SOL    HW128829   3.781   6.192   0.865
 9310SOL    HW228830   3.926   6.189   0.791
 9311SOL     OW28831   6.036   3.124   0.905
 9311SOL    HW128832   6.107   3.098   0.970
 9311SOL    HW228833   6.055   3.215   0.869
 9312SOL     OW28834   1.648   4.672   5.551
 9312SOL    HW128835   1.607   4.761   5.531
 9312SOL    HW228836   1.620   4.642   5.642
 9313SOL     OW28837   5.922   6.687   2.425
 9313SOL    HW128838   5.857   6.700   2.351
 9313SOL    HW228839   5.924   6.769   2.483
 9314SOL     OW28840   5.290   4.705   0.581
 9314SOL    HW128841   5.250   4.779   0.636
 9314SOL    HW228842   5.232   4.688   0.502
 9315SOL     OW28843   6.475   6.567   6.370
 9315SOL    HW128844   6.450   6.631   6.442
 9315SOL    HW228845   6.574   6.551   6.372
 9316SOL     OW28846   3.931   5.920   4.111
 9316SOL    HW128847   3.886   5.830   4.105
 9316SOL    HW228848   4.000   5.928   4.039
 9317SOL     OW28849   5.917   4.415   4.773
 9317SOL    HW128850   5.989   4.461   4.826
 9317SOL    HW228851   5.925   4.440   4.677
 9318SOL     OW28852   6.416   0.147   6.221
 9318SOL    HW128853   6.496   0.117   6.169
 9318SOL    HW228854   6.345   0.177   6.158
 9319SOL     OW28855   0.029   3.395   4.893
 9319SOL    HW128856   0.052   3.474   4.950
 9319SOL    HW228857   0.014   3.315   4.951
 9320SOL     OW28858   4.606   2.899   6.645
 9320SOL    HW128859   4.514   2.903   6.606
 9320SOL    HW228860   4.645   2.809   6.629
 9321SOL     OW28861   6.307   5.924   3.147
 9321SOL    HW128862   6.327   5.837   3.191
 9321SOL    HW228863   6.365   5.996   3.186
 9322SOL     OW28864   0.651   6.584   6.979
 9322SOL    HW128865   0.725   6.603   0.020
 9322SOL    HW228866   0.640   6.485   6.969
 9323SOL     OW28867   6.985   1.596   6.046
 9323SOL    HW128868   0.044   1.579   6.102
 9323SOL    HW228869   6.908   1.620   6.106
 9324SOL     OW28870   2.003   5.977   6.851
 9324SOL    HW128871   1.971   6.067   6.881
 9324SOL    HW228872   1.960   5.953   6.764
 9325SOL     OW28873   0.148   2.710   0.762
 9325SOL    HW128874   0.053   2.741   0.767
 9325SOL    HW228875   0.152   2.615   0.732
 9326SOL     OW28876   2.345   6.180   1.299
 9326SOL    HW128877   2.386   6.263   1.261
 9326SOL    HW228878   2.390   6.100   1.260
 9327SOL     OW28879   4.026   1.182   3.357
 9327SOL    HW128880   3.999   1.274   3.328
 9327SOL    HW228881   3.973   1.156   3.437
 9328SOL     OW28882   3.033   0.815   2.094
 9328SOL    HW128883   3.060   0.750   2.165
 9328SOL    HW228884   2.945   0.787   2.056
 9329SOL     OW28885   1.318   3.657   1.797
 9329SOL    HW128886   1.228   3.690   1.824
 9329SOL    HW228887   1.309   3.593   1.720
 9330SOL     OW28888   5.720   0.398   0.385
 9330SOL    HW128889   5.799   0.427   0.330
 9330SOL    HW228890   5.649   0.468   0.380
 9331SOL     OW28891   0.400   1.129   6.757
 9331SOL    HW128892   0.487   1.082   6.741
 9331SOL    HW228893   0.417   1.213   6.808
 9332SOL     OW28894   3.504   3.730   4.572
 9332SOL    HW128895   3.523   3.826   4.590
 9332SOL    HW228896   3.579   3.691   4.517
 9333SOL     OW28897   5.495   5.175   1.261
 9333SOL    HW128898   5.590   5.202   1.277
 9333SOL    HW228899   5.491   5.114   1.182
 9334SOL     OW28900   3.042   0.105   4.792
 9334SOL    HW128901   3.126   0.107   4.846
 9334SOL    HW228902   3.021   0.011   4.767
 9335SOL     OW28903   0.819   0.870   1.069
 9335SOL    HW128904   0.864   0.879   0.980
 9335SOL    HW228905   0.830   0.776   1.102
 9336SOL     OW28906   3.079   6.729   5.561
 9336SOL    HW128907   3.090   6.826   5.536
 9336SOL    HW228908   3.088   6.719   5.661
 9337SOL     OW28909   4.691   0.020   2.821
 9337SOL    HW128910   4.787   0.040   2.839
 9337SOL    HW228911   4.647   0.100   2.780
 9338SOL     OW28912   4.000   0.292   1.343
 9338SOL    HW128913   4.049   0.354   1.405
 9338SOL    HW228914   4.021   0.197   1.368
 9339SOL     OW28915   4.073   5.856   0.996
 9339SOL    HW128916   3.998   5.920   1.016
 9339SOL    HW228917   4.160   5.901   1.012
 9340SOL     OW28918   5.702   3.195   0.665
 9340SOL    HW128919   5.721   3.187   0.567
 9340SOL    HW228920   5.768   3.138   0.715
 9341SOL     OW28921   6.919   5.353   5.915
 9341SOL    HW128922   6.841   5.352   5.853
 9341SOL    HW228923   6.910   5.430   5.978
 9342SOL     OW28924   1.037   6.021   6.080
 9342SOL    HW128925   1.103   5.982   6.144
 9342SOL    HW228926   1.068   6.004   5.986
 9343SOL     OW28927   6.460   5.340   4.592
 9343SOL    HW128928   6.511   5.402   4.652
 9343SOL    HW228929   6.407   5.276   4.647
 9344SOL     OW28930   4.717   6.611   1.443
 9344SOL    HW128931   4.624   6.629   1.411
 9344SOL    HW228932   4.777   6.685   1.412
 9345SOL     OW28933   6.754   2.929   0.207
 9345SOL    HW128934   6.693   3.002   0.238
 9345SOL    HW228935   6.811   2.899   0.284
 9346SOL     OW28936   6.291   6.991   7.011
 9346SOL    HW128937   6.248   0.058   7.016
 9346SOL    HW228938   6.229   6.926   6.967
 9347SOL     OW28939   1.428   6.318   1.841
 9347SOL    HW128940   1.434   6.244   1.908
 9347SOL    HW228941   1.332   6.336   1.820
 9348SOL     OW28942   2.878   5.161   0.213
 9348SOL    HW128943   2.797   5.103   0.213
 9348SOL    HW228944   2.948   5.120   0.271
 9349SOL     OW28945   1.720   6.088   2.583
 9349SOL    HW128946   1.649   6.140   2.536
 9349SOL    HW228947   1.795   6.070   2.519
 9350SOL     OW28948   0.632   2.800   6.003
 9350SOL    HW128949   0.611   2.862   6.079
 9350SOL    HW228950   0.591   2.836   5.919
 9351SOL     OW28951   2.535   1.089   6.710
 9351SOL    HW128952   2.589   1.118   6.789
 9351SOL    HW228953   2.459   1.032   6.741
 9352SOL     OW28954   2.280   4.880   5.771
 9352SOL    HW128955   2.272   4.864   5.672
 9352SOL    HW228956   2.341   4.958   5.786
 9353SOL     OW28957   6.119   0.501   0.931
 9353SOL    HW128958   6.156   0.466   1.017
 9353SOL    HW228959   6.028   0.464   0.917
 9354SOL     OW28960   0.743   1.682   6.549
 9354SOL    HW128961   0.811   1.608   6.555
 9354SOL    HW228962   0.782   1.766   6.586
 9355SOL     OW28963   0.173   2.058   5.455
 9355SOL    HW128964   0.087   2.007   5.445
 9355SOL    HW228965   0.241   2.023   5.391
 9356SOL     OW28966   5.588   0.182   3.594
 9356SOL    HW128967   5.491   0.200   3.578
 9356SOL    HW228968   5.604   0.083   3.588
 9357SOL     OW28969   0.710   1.718   0.261
 9357SOL    HW128970   0.658   1.734   0.345
 9357SOL    HW228971   0.795   1.671   0.284
 9358SOL     OW28972   0.622   2.814   1.342
 9358SOL    HW128973   0.657   2.724   1.367
 9358SOL    HW228974   0.660   2.841   1.254
 9359SOL     OW28975   0.813   0.190   5.056
 9359SOL    HW128976   0.911   0.182   5.040
 9359SOL    HW228977   0.782   0.115   5.114
 9360SOL     OW28978   0.708   0.177   5.691
 9360SOL    HW128979   0.737   0.206   5.782
 9360SOL    HW228980   0.614   0.143   5.695
 9361SOL     OW28981   2.037   5.928   3.809
 9361SOL    HW128982   2.009   5.919   3.904
 9361SOL    HW228983   2.017   5.843   3.760
 9362SOL     OW28984   2.048   0.373   1.840
 9362SOL    HW128985   2.136   0.339   1.809
 9362SOL    HW228986   2.033   0.346   1.935
 9363SOL     OW28987   1.868   4.825   2.405
 9363SOL    HW128988   1.794   4.872   2.357
 9363SOL    HW228989   1.883   4.735   2.363
 9364SOL     OW28990   1.288   2.911   0.907
 9364SOL    HW128991   1.351   2.857   0.851
 9364SOL    HW228992   1.262   2.994   0.858
 9365SOL     OW28993   3.396   0.980   4.886
 9365SOL    HW128994   3.329   1.053   4.894
 9365SOL    HW228995   3.359   0.906   4.830
 9366SOL     OW28996   4.442   6.015   2.524
 9366SOL    HW128997   4.485   6.015   2.434
 9366SOL    HW228998   4.441   6.108   2.560
 9367SOL     OW28999   6.572   1.029   1.624
 9367SOL    HW129000   6.586   0.949   1.682
 9367SOL    HW229001   6.517   1.003   1.544
 9368SOL     OW29002   2.780   0.353   2.761
 9368SOL    HW129003   2.694   0.374   2.806
 9368SOL    HW229004   2.765   0.283   2.691
 9369SOL     OW29005   3.245   5.135   0.651
 9369SOL    HW129006   3.249   5.193   0.570
 9369SOL    HW229007   3.306   5.171   0.722
 9370SOL     OW29008   4.316   1.807   5.052
 9370SOL    HW129009   4.407   1.809   5.009
 9370SOL    HW229010   4.251   1.764   4.990
 9371SOL     OW29011   4.411   5.133   1.151
 9371SOL    HW129012   4.318   5.107   1.177
 9371SOL    HW229013   4.453   5.186   1.224
 9372SOL     OW29014   4.065   5.947   1.679
 9372SOL    HW129015   4.148   5.919   1.631
 9372SOL    HW229016   4.051   5.888   1.759
 9373SOL     OW29017   0.059   2.996   0.957
 9373SOL    HW129018   7.021   2.967   1.030
 9373SOL    HW229019   0.032   2.951   0.872
 9374SOL     OW29020   0.313   5.760   5.922
 9374SOL    HW129021   0.378   5.831   5.949
 9374SOL    HW229022   0.222   5.800   5.911
 9375SOL     OW29023   0.418   1.364   6.922
 9375SOL    HW129024   0.349   1.434   6.902
 9375SOL    HW229025   0.414   1.340   7.019
 9376SOL     OW29026   2.459   3.901   1.146
 9376SOL    HW129027   2.465   4.001   1.148
 9376SOL    HW229028   2.394   3.873   1.075
 9377SOL     OW29029   1.873   0.741   3.264
 9377SOL    HW129030   1.829   0.829   3.247
 9377SOL    HW229031   1.964   0.740   3.223
 9378SOL     OW29032   3.818   1.314   5.143
 9378SOL    HW129033   3.743   1.353   5.197
 9378SOL    HW229034   3.844   1.379   5.072
 9379SOL     OW29035   4.905   6.724   4.124
 9379SOL    HW129036   4.835   6.658   4.151
 9379SOL    HW229037   4.974   6.731   4.196
 9380SOL     OW29038   5.502   5.336   0.149
 9380SOL    HW129039   5.509   5.288   0.237
 9380SOL    HW229040   5.407   5.337   0.119
 9381SOL     OW29041   5.249   1.259   5.428
 9381SOL    HW129042   5.282   1.173   5.388
 9381SOL    HW229043   5.163   1.286   5.385
 9382SOL     OW29044   2.808   5.198   5.909
 9382SOL    HW129045   2.716   5.173   5.878
 9382SOL    HW229046   2.837   5.282   5.864
 9383SOL     OW29047   5.996   3.944   2.762
 9383SOL    HW129048   6.093   3.955   2.783
 9383SOL    HW229049   5.962   3.860   2.806
 9384SOL     OW29050   3.461   0.371   1.590
 9384SOL    HW129051   3.495   0.464   1.584
 9384SOL    HW229052   3.537   0.309   1.611
 9385SOL     OW29053   4.656   1.509   4.011
 9385SOL    HW129054   4.676   1.600   4.047
 9385SOL    HW229055   4.672   1.509   3.912
 9386SOL     OW29056   4.869   6.611   0.779
 9386SOL    HW129057   4.875   6.517   0.811
 9386SOL    HW229058   4.961   6.648   0.766
 9387SOL     OW29059   2.678   1.346   0.157
 9387SOL    HW129060   2.604   1.342   0.089
 9387SOL    HW229061   2.670   1.268   0.219
 9388SOL     OW29062   2.362   0.255   5.624
 9388SOL    HW129063   2.273   0.231   5.663
 9388SOL    HW229064   2.433   0.199   5.666
 9389SOL     OW29065   1.916   3.971   1.720
 9389SOL    HW129066   1.949   3.884   1.756
 9389SOL    HW229067   1.888   4.030   1.796
 9390SOL     OW29068   4.783   4.655   4.375
 9390SOL    HW129069   4.853   4.684   4.440
 9390SOL    HW229070   4.784   4.555   4.368
 9391SOL     OW29071   1.347   4.181   4.507
 9391SOL    HW129072   1.413   4.107   4.495
 9391SOL    HW229073   1.353   4.217   4.600
 9392SOL     OW29074   5.172   4.526   2.658
 9392SOL    HW129075   5.227   4.608   2.648
 9392SOL    HW229076   5.231   4.447   2.670
 9393SOL     OW29077   1.809   5.827   6.029
 9393SOL    HW129078   1.730   5.872   5.986
 9393SOL    HW229079   1.858   5.774   5.960
 9394SOL     OW29080   4.220   0.557   0.535
 9394SOL    HW129081   4.285   0.481   0.544
 9394SOL    HW229082   4.261   0.630   0.479
 9395SOL     OW29083   1.226   1.476   1.241
 9395SOL    HW129084   1.276   1.496   1.326
 9395SOL    HW229085   1.286   1.488   1.163
 9396SOL     OW29086   0.767   0.410   5.977
 9396SOL    HW129087   0.747   0.506   5.957
 9396SOL    HW229088   0.796   0.400   6.072
 9397SOL     OW29089   3.763   0.885   4.967
 9397SOL    HW129090   3.799   0.921   5.053
 9397SOL    HW229091   3.729   0.960   4.911
 9398SOL     OW29092   0.737   1.902   0.068
 9398SOL    HW129093   0.746   1.823   0.129
 9398SOL    HW229094   0.700   1.871   7.002
 9399SOL     OW29095   1.297   2.077   4.277
 9399SOL    HW129096   1.221   2.107   4.335
 9399SOL    HW229097   1.284   2.110   4.184
 9400SOL     OW29098   5.931   1.495   0.997
 9400SOL    HW129099   5.943   1.594   0.992
 9400SOL    HW229100   5.838   1.471   0.969
 9401SOL     OW29101   0.253   2.293   3.431
 9401SOL    HW129102   0.257   2.294   3.331
 9401SOL    HW229103   0.194   2.218   3.461
 9402SOL     OW29104   2.620   6.922   4.368
 9402SOL    HW129105   2.614   6.866   4.285
 9402SOL    HW229106   2.537   6.909   4.423
 9403SOL     OW29107   5.358   2.086   1.115
 9403SOL    HW129108   5.345   2.184   1.100
 9403SOL    HW229109   5.456   2.067   1.126
 9404SOL     OW29110   2.356   2.418   1.121
 9404SOL    HW129111   2.419   2.402   1.197
 9404SOL    HW229112   2.287   2.486   1.149
 9405SOL     OW29113   6.207   5.594   5.454
 9405SOL    HW129114   6.266   5.542   5.516
 9405SOL    HW229115   6.256   5.613   5.369
 9406SOL     OW29116   1.173   2.373   0.507
 9406SOL    HW129117   1.078   2.348   0.527
 9406SOL    HW229118   1.234   2.301   0.541
 9407SOL     OW29119   1.872   4.825   4.696
 9407SOL    HW129120   1.910   4.895   4.635
 9407SOL    HW229121   1.920   4.829   4.784
 9408SOL     OW29122   6.226   4.418   4.579
 9408SOL    HW129123   6.267   4.342   4.529
 9408SOL    HW229124   6.140   4.444   4.535
 9409SOL     OW29125   6.168   5.451   1.908
 9409SOL    HW129126   6.074   5.435   1.879
 9409SOL    HW229127   6.184   5.549   1.918
 9410SOL     OW29128   4.027   0.744   0.849
 9410SOL    HW129129   4.024   0.666   0.786
 9410SOL    HW229130   4.111   0.740   0.903
 9411SOL     OW29131   3.434   4.084   3.101
 9411SOL    HW129132   3.427   4.100   3.200
 9411SOL    HW229133   3.344   4.096   3.059
 9412SOL     OW29134   4.590   6.872   1.922
 9412SOL    HW129135   4.542   6.789   1.951
 9412SOL    HW229136   4.575   6.886   1.824
 9413SOL     OW29137   4.959   3.975   3.097
 9413SOL    HW129138   4.888   3.913   3.128
 9413SOL    HW229139   4.933   4.014   3.008
 9414SOL     OW29140   2.419   2.020   2.783
 9414SOL    HW129141   2.511   2.054   2.766
 9414SOL    HW229142   2.414   1.924   2.758
 9415SOL     OW29143   5.450   0.496   2.195
 9415SOL    HW129144   5.468   0.398   2.197
 9415SOL    HW229145   5.441   0.527   2.101
 9416SOL     OW29146   5.683   5.453   5.887
 9416SOL    HW129147   5.592   5.472   5.925
 9416SOL    HW229148   5.745   5.528   5.912
 9417SOL     OW29149   3.331   5.136   2.633
 9417SOL    HW129150   3.339   5.235   2.638
 9417SOL    HW229151   3.279   5.110   2.551
 9418SOL     OW29152   3.228   1.808   4.980
 9418SOL    HW129153   3.130   1.821   4.964
 9418SOL    HW229154   3.276   1.895   4.965
 9419SOL     OW29155   2.257   2.670   6.676
 9419SOL    HW129156   2.171   2.622   6.656
 9419SOL    HW229157   2.318   2.664   6.597
 9420SOL     OW29158   5.514   4.051   5.505
 9420SOL    HW129159   5.540   4.074   5.599
 9420SOL    HW229160   5.475   3.959   5.503
 9421SOL     OW29161   3.562   6.344   6.932
 9421SOL    HW129162   3.554   6.246   6.952
 9421SOL    HW229163   3.634   6.357   6.863
 9422SOL     OW29164   2.336   6.270   5.688
 9422SOL    HW129165   2.254   6.279   5.632
 9422SOL    HW229166   2.333   6.183   5.737
 9423SOL     OW29167   4.527   4.897   2.208
 9423SOL    HW129168   4.446   4.921   2.153
 9423SOL    HW229169   4.585   4.834   2.156
 9424SOL     OW29170   6.492   0.305   4.283
 9424SOL    HW129171   6.472   0.361   4.203
 9424SOL    HW229172   6.545   0.225   4.255
 9425SOL     OW29173   0.097   4.131   0.763
 9425SOL    HW129174   0.197   4.126   0.760
 9425SOL    HW229175   0.059   4.039   0.759
 9426SOL     OW29176   5.254   3.299   5.978
 9426SOL    HW129177   5.211   3.259   6.060
 9426SOL    HW229178   5.350   3.271   5.975
 9427SOL     OW29179   4.731   4.192   2.663
 9427SOL    HW129180   4.737   4.288   2.635
 9427SOL    HW229181   4.651   4.150   2.620
 9428SOL     OW29182   0.914   6.379   5.854
 9428SOL    HW129183   0.954   6.469   5.835
 9428SOL    HW229184   0.951   6.344   5.940
 9429SOL     OW29185   2.578   2.405   3.741
 9429SOL    HW129186   2.605   2.311   3.725
 9429SOL    HW229187   2.525   2.411   3.826
 9430SOL     OW29188   1.771   1.088   4.009
 9430SOL    HW129189   1.780   1.177   4.053
 9430SOL    HW229190   1.758   1.017   4.079
 9431SOL     OW29191   0.952   4.637   5.599
 9431SOL    HW129192   0.859   4.607   5.576
 9431SOL    HW229193   0.976   4.604   5.690
 9432SOL     OW29194   6.723   1.278   4.502
 9432SOL    HW129195   6.799   1.247   4.445
 9432SOL    HW229196   6.758   1.341   4.571
 9433SOL     OW29197   4.688   5.492   2.120
 9433SOL    HW129198   4.610   5.440   2.157
 9433SOL    HW229199   4.717   5.450   2.034
 9434SOL     OW29200   4.130   5.582   3.885
 9434SOL    HW129201   4.067   5.656   3.863
 9434SOL    HW229202   4.120   5.507   3.819
 9435SOL     OW29203   6.061   3.731   1.001
 9435SOL    HW129204   6.158   3.742   1.025
 9435SOL    HW229205   6.054   3.683   0.914
 9436SOL     OW29206   2.897   0.881   3.239
 9436SOL    HW129207   2.886   0.904   3.142
 9436SOL    HW229208   2.960   0.805   3.248
 9437SOL     OW29209   5.526   0.481   4.980
 9437SOL    HW129210   5.579   0.456   5.061
 9437SOL    HW229211   5.447   0.536   5.007
 9438SOL     OW29212   4.701   0.395   2.946
 9438SOL    HW129213   4.747   0.349   3.022
 9438SOL    HW229214   4.721   0.493   2.949
 9439SOL     OW29215   2.181   3.926   0.589
 9439SOL    HW129216   2.207   3.908   0.494
 9439SOL    HW229217   2.258   3.906   0.649
 9440SOL     OW29218   1.503   5.451   3.973
 9440SOL    HW129219   1.406   5.431   3.981
 9440SOL    HW229220   1.555   5.366   3.972
 9441SOL     OW29221   0.503   6.555   4.405
 9441SOL    HW129222   0.566   6.540   4.481
 9441SOL    HW229223   0.409   6.553   4.439
 9442SOL     OW29224   5.962   3.278   1.210
 9442SOL    HW129225   6.029   3.263   1.137
 9442SOL    HW229226   5.877   3.312   1.170
 9443SOL     OW29227   2.161   4.132   1.107
 9443SOL    HW129228   2.191   4.144   1.202
 9443SOL    HW229229   2.226   4.177   1.046
 9444SOL     OW29230   2.089   4.773   6.729
 9444SOL    HW129231   2.075   4.697   6.666
 9444SOL    HW229232   2.050   4.856   6.691
 9445SOL     OW29233   0.279   1.431   4.095
 9445SOL    HW129234   0.220   1.350   4.102
 9445SOL    HW229235   0.308   1.443   4.000
 9446SOL     OW29236   6.211   3.982   4.581
 9446SOL    HW129237   6.167   3.895   4.604
 9446SOL    HW229238   6.256   4.019   4.663
 9447SOL     OW29239   5.128   4.821   2.119
 9447SOL    HW129240   5.042   4.783   2.153
 9447SOL    HW229241   5.117   4.848   2.023
 9448SOL     OW29242   5.759   1.889   6.659
 9448SOL    HW129243   5.680   1.900   6.720
 9448SOL    HW229244   5.843   1.891   6.713
 9449SOL     OW29245   5.460   6.731   2.105
 9449SOL    HW129246   5.479   6.760   2.011
 9449SOL    HW229247   5.391   6.790   2.146
 9450SOL     OW29248   1.000   0.026   3.336
 9450SOL    HW129249   1.014   0.107   3.393
 9450SOL    HW229250   0.941   6.984   3.383
 9451SOL     OW29251   3.921   5.171   0.074
 9451SOL    HW129252   3.949   5.257   0.031
 9451SOL    HW229253   3.851   5.189   0.143
 9452SOL     OW29254   6.181   3.964   6.480
 9452SOL    HW129255   6.213   3.869   6.484
 9452SOL    HW229256   6.205   4.004   6.391
 9453SOL     OW29257   5.835   4.649   1.896
 9453SOL    HW129258   5.818   4.590   1.817
 9453SOL    HW229259   5.869   4.593   1.972
 9454SOL     OW29260   6.175   5.120   0.465
 9454SOL    HW129261   6.220   5.208   0.446
 9454SOL    HW229262   6.170   5.106   0.563
 9455SOL     OW29263   4.144   0.460   1.489
 9455SOL    HW129264   4.219   0.496   1.433
 9455SOL    HW229265   4.182   0.421   1.573
 9456SOL     OW29266   6.201   2.021   3.412
 9456SOL    HW129267   6.283   2.049   3.361
 9456SOL    HW229268   6.225   1.951   3.478
 9457SOL     OW29269   6.986   6.222   4.312
 9457SOL    HW129270   6.973   6.319   4.294
 9457SOL    HW229271   0.032   6.185   4.250
 9458SOL     OW29272   5.828   4.142   0.176
 9458SOL    HW129273   5.886   4.201   0.232
 9458SOL    HW229274   5.733   4.147   0.208
 9459SOL     OW29275   4.738   4.237   4.918
 9459SOL    HW129276   4.706   4.220   5.012
 9459SOL    HW229277   4.679   4.305   4.875
 9460SOL     OW29278   1.020   2.848   2.060
 9460SOL    HW129279   0.920   2.842   2.059
 9460SOL    HW229280   1.055   2.830   1.969
 9461SOL     OW29281   1.693   1.242   1.711
 9461SOL    HW129282   1.628   1.229   1.635
 9461SOL    HW229283   1.777   1.284   1.676
 9462SOL     OW29284   6.617   1.301   5.549
 9462SOL    HW129285   6.666   1.373   5.499
 9462SOL    HW229286   6.532   1.280   5.501
 9463SOL     OW29287   6.397   3.842   0.039
 9463SOL    HW129288   6.417   3.829   6.964
 9463SOL    HW229289   6.479   3.871   0.086
 9464SOL     OW29290   1.369   0.865   1.803
 9464SOL    HW129291   1.281   0.823   1.822
 9464SOL    HW229292   1.392   0.928   1.877
 9465SOL     OW29293   6.838   5.978   0.368
 9465SOL    HW129294   6.740   5.964   0.351
 9465SOL    HW229295   6.879   5.892   0.397
 9466SOL     OW29296   4.514   3.655   5.366
 9466SOL    HW129297   4.539   3.589   5.438
 9466SOL    HW229298   4.562   3.632   5.282
 9467SOL     OW29299   1.319   3.550   0.687
 9467SOL    HW129300   1.275   3.463   0.712
 9467SOL    HW229301   1.356   3.543   0.595
 9468SOL     OW29302   5.981   1.288   0.810
 9468SOL    HW129303   5.963   1.341   0.893
 9468SOL    HW229304   6.062   1.231   0.823
 9469SOL     OW29305   6.541   6.955   1.416
 9469SOL    HW129306   6.543   6.879   1.352
 9469SOL    HW229307   6.600   0.006   1.382
 9470SOL     OW29308   4.273   3.472   0.608
 9470SOL    HW129309   4.358   3.446   0.653
 9470SOL    HW229310   4.213   3.393   0.601
 9471SOL     OW29311   6.385   2.694   4.992
 9471SOL    HW129312   6.323   2.771   4.975
 9471SOL    HW229313   6.415   2.655   4.904
 9472SOL     OW29314   1.348   3.521   5.291
 9472SOL    HW129315   1.407   3.454   5.336
 9472SOL    HW229316   1.404   3.593   5.249
 9473SOL     OW29317   3.176   3.323   1.148
 9473SOL    HW129318   3.254   3.386   1.156
 9473SOL    HW229319   3.093   3.371   1.177
 9474SOL     OW29320   5.849   4.441   0.850
 9474SOL    HW129321   5.851   4.431   0.950
 9474SOL    HW229322   5.756   4.424   0.817
 9475SOL     OW29323   4.881   3.902   5.823
 9475SOL    HW129324   4.874   4.001   5.805
 9475SOL    HW229325   4.793   3.869   5.859
 9476SOL     OW29326   4.198   4.148   1.405
 9476SOL    HW129327   4.179   4.192   1.317
 9476SOL    HW229328   4.288   4.104   1.401
 9477SOL     OW29329   2.402   4.606   1.054
 9477SOL    HW129330   2.362   4.697   1.046
 9477SOL    HW229331   2.496   4.607   1.018
 9478SOL     OW29332   5.569   4.237   6.296
 9478SOL    HW129333   5.586   4.270   6.390
 9478SOL    HW229334   5.485   4.183   6.294
 9479SOL     OW29335   4.389   0.944   1.810
 9479SOL    HW129336   4.293   0.917   1.810
 9479SOL    HW229337   4.398   1.034   1.852
 9480SOL     OW29338   5.831   0.785   0.308
 9480SOL    HW129339   5.871   0.728   0.380
 9480SOL    HW229340   5.836   0.737   0.221
 9481SOL     OW29341   4.911   0.381   3.367
 9481SOL    HW129342   4.859   0.389   3.452
 9481SOL    HW229343   4.935   0.472   3.334
 9482SOL     OW29344   6.376   5.016   5.564
 9482SOL    HW129345   6.310   4.963   5.616
 9482SOL    HW229346   6.463   5.020   5.614
 9483SOL     OW29347   6.287   6.209   6.788
 9483SOL    HW129348   6.216   6.186   6.855
 9483SOL    HW229349   6.360   6.260   6.832
 9484SOL     OW29350   3.003   5.710   4.905
 9484SOL    HW129351   3.030   5.792   4.855
 9484SOL    HW229352   3.064   5.697   4.984
 9485SOL     OW29353   0.102   1.800   5.371
 9485SOL    HW129354   0.199   1.791   5.349
 9485SOL    HW229355   0.091   1.813   5.469
 9486SOL     OW29356   6.508   5.645   6.631
 9486SOL    HW129357   6.584   5.586   6.602
 9486SOL    HW229358   6.456   5.674   6.550
 9487SOL     OW29359   3.304   3.659   3.563
 9487SOL    HW129360   3.298   3.759   3.558
 9487SOL    HW229361   3.334   3.623   3.475
 9488SOL     OW29362   1.732   1.025   1.237
 9488SOL    HW129363   1.734   0.954   1.307
 9488SOL    HW229364   1.824   1.061   1.223
 9489SOL     OW29365   5.895   3.898   0.081
 9489SOL    HW129366   5.844   3.896   7.018
 9489SOL    HW229367   5.898   3.992   0.116
 9490SOL     OW29368   6.087   3.366   4.919
 9490SOL    HW129369   6.103   3.329   4.827
 9490SOL    HW229370   6.140   3.312   4.985
 9491SOL     OW29371   5.744   0.031   2.674
 9491SOL    HW129372   5.652   0.053   2.642
 9491SOL    HW229373   5.790   0.115   2.704
 9492SOL     OW29374   4.867   2.497   3.859
 9492SOL    HW129375   4.843   2.465   3.951
 9492SOL    HW229376   4.958   2.539   3.861
 9493SOL     OW29377   3.554   6.142   2.186
 9493SOL    HW129378   3.465   6.129   2.230
 9493SOL    HW229379   3.573   6.065   2.125
 9494SOL     OW29380   5.268   2.367   1.999
 9494SOL    HW129381   5.280   2.441   1.933
 9494SOL    HW229382   5.251   2.282   1.951
 9495SOL     OW29383   5.502   3.132   1.146
 9495SOL    HW129384   5.445   3.196   1.095
 9495SOL    HW229385   5.566   3.087   1.084
 9496SOL     OW29386   5.754   2.866   1.130
 9496SOL    HW129387   5.825   2.916   1.179
 9496SOL    HW229388   5.702   2.928   1.072
 9497SOL     OW29389   4.928   5.255   5.121
 9497SOL    HW129390   4.860   5.185   5.102
 9497SOL    HW229391   4.892   5.320   5.188
 9498SOL     OW29392   0.817   5.894   5.015
 9498SOL    HW129393   0.851   5.816   4.962
 9498SOL    HW229394   0.719   5.905   4.999
 9499SOL     OW29395   5.777   6.259   4.286
 9499SOL    HW129396   5.705   6.243   4.353
 9499SOL    HW229397   5.814   6.172   4.255
 9500SOL     OW29398   2.910   1.765   0.634
 9500SOL    HW129399   2.884   1.830   0.706
 9500SOL    HW229400   2.842   1.693   0.629
 9501SOL     OW29401   2.111   3.880   5.176
 9501SOL    HW129402   2.112   3.919   5.269
 9501SOL    HW229403   2.186   3.920   5.123
 9502SOL     OW29404   5.849   4.905   4.006
 9502SOL    HW129405   5.875   4.810   3.988
 9502SOL    HW229406   5.922   4.966   3.976
 9503SOL     OW29407   6.090   0.822   0.012
 9503SOL    HW129408   6.103   0.834   6.937
 9503SOL    HW229409   6.157   0.756   0.047
 9504SOL     OW29410   6.306   5.719   1.935
 9504SOL    HW129411   6.388   5.716   1.992
 9504SOL    HW229412   6.312   5.794   1.870
 9505SOL     OW29413   4.380   4.338   6.319
 9505SOL    HW129414   4.431   4.343   6.233
 9505SOL    HW229415   4.312   4.411   6.322
 9506SOL     OW29416   2.551   1.043   0.984
 9506SOL    HW129417   2.617   1.026   0.911
 9506SOL    HW229418   2.599   1.041   1.072
 9507SOL     OW29419   6.292   0.077   1.473
 9507SOL    HW129420   6.367   0.011   1.468
 9507SOL    HW229421   6.242   0.077   1.386
 9508SOL     OW29422   4.218   0.959   2.626
 9508SOL    HW129423   4.166   0.942   2.709
 9508SOL    HW229424   4.301   1.011   2.649
 9509SOL     OW29425   5.406   1.343   3.631
 9509SOL    HW129426   5.316   1.351   3.675
 9509SOL    HW229427   5.408   1.400   3.549
 9510SOL     OW29428   1.957   2.590   2.580
 9510SOL    HW129429   1.927   2.675   2.538
 9510SOL    HW229430   2.050   2.569   2.549
 9511SOL     OW29431   0.555   1.695   1.174
 9511SOL    HW129432   0.646   1.724   1.201
 9511SOL    HW229433   0.508   1.770   1.127
 9512SOL     OW29434   6.459   1.881   1.923
 9512SOL    HW129435   6.489   1.918   2.011
 9512SOL    HW229436   6.531   1.824   1.884
 9513SOL     OW29437   4.627   3.927   5.337
 9513SOL    HW129438   4.620   3.965   5.429
 9513SOL    HW229439   4.590   3.834   5.336
 9514SOL     OW29440   3.575   2.810   0.549
 9514SOL    HW129441   3.500   2.754   0.516
 9514SOL    HW229442   3.552   2.907   0.538
 9515SOL     OW29443   0.667   5.581   3.236
 9515SOL    HW129444   0.610   5.644   3.182
 9515SOL    HW229445   0.610   5.508   3.274
 9516SOL     OW29446   0.098   3.908   6.067
 9516SOL    HW129447   0.051   3.995   6.082
 9516SOL    HW229448   0.130   3.902   5.973
 9517SOL     OW29449   0.268   6.970   1.133
 9517SOL    HW129450   0.171   6.983   1.112
 9517SOL    HW229451   0.280   6.966   1.232
 9518SOL     OW29452   0.745   0.980   1.364
 9518SOL    HW129453   0.844   0.985   1.378
 9518SOL    HW229454   0.726   0.946   1.272
 9519SOL     OW29455   1.030   2.762   5.271
 9519SOL    HW129456   0.975   2.795   5.347
 9519SOL    HW229457   0.971   2.741   5.193
 9520SOL     OW29458   3.677   6.701   2.044
 9520SOL    HW129459   3.705   6.628   2.106
 9520SOL    HW229460   3.611   6.665   1.978
 9521SOL     OW29461   5.332   5.007   3.489
 9521SOL    HW129462   5.401   4.970   3.553
 9521SOL    HW229463   5.262   4.937   3.473
 9522SOL     OW29464   2.763   5.212   6.628
 9522SOL    HW129465   2.791   5.195   6.723
 9522SOL    HW229466   2.725   5.304   6.622
 9523SOL     OW29467   2.135   6.560   5.309
 9523SOL    HW129468   2.152   6.639   5.368
 9523SOL    HW229469   2.217   6.540   5.255
 9524SOL     OW29470   5.007   2.704   0.793
 9524SOL    HW129471   5.022   2.770   0.867
 9524SOL    HW229472   4.924   2.651   0.813
 9525SOL     OW29473   4.016   0.153   4.549
 9525SOL    HW129474   4.114   0.173   4.550
 9525SOL    HW229475   4.001   0.065   4.504
 9526SOL     OW29476   4.848   6.210   1.658
 9526SOL    HW129477   4.838   6.148   1.736
 9526SOL    HW229478   4.834   6.304   1.688
 9527SOL     OW29479   7.021   2.261   0.882
 9527SOL    HW129480   7.008   2.347   0.832
 9527SOL    HW229481   0.042   2.194   0.822
 9528SOL     OW29482   6.930   1.204   1.620
 9528SOL    HW129483   6.996   1.132   1.598
 9528SOL    HW229484   6.979   1.283   1.656
 9529SOL     OW29485   1.448   3.261   4.965
 9529SOL    HW129486   1.407   3.347   4.995
 9529SOL    HW229487   1.426   3.245   4.869
 9530SOL     OW29488   1.835   1.629   3.941
 9530SOL    HW129489   1.838   1.668   4.033
 9530SOL    HW229490   1.926   1.595   3.917
 9531SOL     OW29491   2.939   6.444   3.541
 9531SOL    HW129492   2.888   6.358   3.550
 9531SOL    HW229493   2.876   6.521   3.550
 9532SOL     OW29494   3.293   1.474   1.997
 9532SOL    HW129495   3.200   1.494   2.026
 9532SOL    HW229496   3.297   1.382   1.958
 9533SOL     OW29497   0.701   1.803   5.015
 9533SOL    HW129498   0.620   1.757   5.053
 9533SOL    HW229499   0.782   1.746   5.031
 9534SOL     OW29500   5.706   1.568   4.444
 9534SOL    HW129501   5.693   1.651   4.498
 9534SOL    HW229502   5.803   1.556   4.424
 9535SOL     OW29503   3.459   1.946   4.578
 9535SOL    HW129504   3.421   1.917   4.490
 9535SOL    HW229505   3.386   1.953   4.646
 9536SOL     OW29506   2.695   6.642   6.575
 9536SOL    HW129507   2.615   6.648   6.635
 9536SOL    HW229508   2.748   6.560   6.598
 9537SOL     OW29509   2.861   6.976   0.529
 9537SOL    HW129510   2.773   6.932   0.548
 9537SOL    HW229511   2.887   0.010   0.607
 9538SOL     OW29512   6.232   3.956   2.877
 9538SOL    HW129513   6.317   3.999   2.848
 9538SOL    HW229514   6.252   3.885   2.945
 9539SOL     OW29515   0.244   3.776   6.854
 9539SOL    HW129516   0.210   3.701   6.910
 9539SOL    HW229517   0.212   3.863   6.891
 9540SOL     OW29518   5.178   3.002   5.709
 9540SOL    HW129519   5.278   3.010   5.704
 9540SOL    HW229520   5.140   3.087   5.745
 9541SOL     OW29521   6.690   1.783   3.548
 9541SOL    HW129522   6.608   1.727   3.539
 9541SOL    HW229523   6.720   1.813   3.458
 9542SOL     OW29524   4.700   4.380   4.234
 9542SOL    HW129525   4.650   4.384   4.321
 9542SOL    HW229526   4.643   4.417   4.161
 9543SOL     OW29527   5.235   2.364   1.719
 9543SOL    HW129528   5.164   2.417   1.766
 9543SOL    HW229529   5.222   2.266   1.738
 9544SOL     OW29530   4.359   1.257   1.162
 9544SOL    HW129531   4.275   1.228   1.208
 9544SOL    HW229532   4.352   1.236   1.064
 9545SOL     OW29533   1.253   0.017   4.519
 9545SOL    HW129534   1.180   7.019   4.585
 9545SOL    HW229535   1.325   0.069   4.565
 9546SOL     OW29536   2.130   4.752   1.803
 9546SOL    HW129537   2.225   4.730   1.826
 9546SOL    HW229538   2.083   4.669   1.775
 9547SOL     OW29539   5.797   5.296   3.575
 9547SOL    HW129540   5.725   5.261   3.514
 9547SOL    HW229541   5.779   5.391   3.598
 9548SOL     OW29542   5.484   0.124   2.587
 9548SOL    HW129543   5.475   0.222   2.606
 9548SOL    HW229544   5.398   0.077   2.607
 9549SOL     OW29545   2.350   5.840   0.347
 9549SOL    HW129546   2.437   5.874   0.312
 9549SOL    HW229547   2.353   5.837   0.447
 9550SOL     OW29548   1.704   1.268   0.060
 9550SOL    HW129549   1.619   1.319   0.051
 9550SOL    HW229550   1.743   1.252   6.992
 9551SOL     OW29551   2.004   5.667   5.067
 9551SOL    HW129552   2.044   5.665   4.975
 9551SOL    HW229553   2.007   5.760   5.103
 9552SOL     OW29554   0.651   5.096   3.657
 9552SOL    HW129555   0.619   5.004   3.634
 9552SOL    HW229556   0.573   5.154   3.680
 9553SOL     OW29557   5.669   4.748   6.275
 9553SOL    HW129558   5.692   4.652   6.263
 9553SOL    HW229559   5.609   4.759   6.354
 9554SOL     OW29560   1.687   1.662   1.477
 9554SOL    HW129561   1.785   1.675   1.488
 9554SOL    HW229562   1.669   1.576   1.428
 9555SOL     OW29563   0.309   2.840   6.167
 9555SOL    HW129564   0.293   2.777   6.242
 9555SOL    HW229565   0.241   2.824   6.095
 9556SOL     OW29566   6.473   1.201   1.232
 9556SOL    HW129567   6.446   1.272   1.298
 9556SOL    HW229568   6.518   1.244   1.154
 9557SOL     OW29569   4.743   1.541   2.303
 9557SOL    HW129570   4.777   1.517   2.212
 9557SOL    HW229571   4.765   1.636   2.323
 9558SOL     OW29572   6.669   3.834   1.070
 9558SOL    HW129573   6.621   3.922   1.073
 9558SOL    HW229574   6.768   3.850   1.068
 9559SOL     OW29575   0.448   3.930   2.678
 9559SOL    HW129576   0.400   3.982   2.749
 9559SOL    HW229577   0.530   3.979   2.650
 9560SOL     OW29578   3.905   2.515   5.363
 9560SOL    HW129579   3.915   2.549   5.456
 9560SOL    HW229580   3.989   2.533   5.311
 9561SOL     OW29581   3.041   5.821   6.130
 9561SOL    HW129582   2.985   5.896   6.164
 9561SOL    HW229583   3.089   5.851   6.047
 9562SOL     OW29584   5.723   5.118   4.486
 9562SOL    HW129585   5.783   5.158   4.555
 9562SOL    HW229586   5.772   5.108   4.400
 9563SOL     OW29587   0.706   6.562   6.662
 9563SOL    HW129588   0.677   6.580   6.756
 9563SOL    HW229589   0.724   6.649   6.616
 9564SOL     OW29590   1.129   0.602   5.916
 9564SOL    HW129591   1.227   0.584   5.920
 9564SOL    HW229592   1.081   0.518   5.890
 9565SOL     OW29593   3.307   5.836   5.036
 9565SOL    HW129594   3.231   5.887   5.077
 9565SOL    HW229595   3.292   5.738   5.050
 9566SOL     OW29596   2.975   4.812   6.238
 9566SOL    HW129597   3.057   4.853   6.198
 9566SOL    HW229598   2.979   4.713   6.228
 9567SOL     OW29599   6.036   5.204   4.962
 9567SOL    HW129600   5.939   5.195   4.981
 9567SOL    HW229601   6.084   5.234   5.045
 9568SOL     OW29602   5.370   3.799   5.828
 9568SOL    HW129603   5.312   3.874   5.797
 9568SOL    HW229604   5.313   3.725   5.864
 9569SOL     OW29605   5.928   0.088   1.446
 9569SOL    HW129606   5.956   0.106   1.540
 9569SOL    HW229607   5.832   0.058   1.445
 9570SOL     OW29608   1.088   1.653   6.780
 9570SOL    HW129609   1.134   1.691   6.700
 9570SOL    HW229610   1.142   1.577   6.816
 9571SOL     OW29611   2.901   2.219   0.661
 9571SOL    HW129612   2.867   2.151   0.725
 9571SOL    HW229613   2.933   2.174   0.578
 9572SOL     OW29614   0.353   3.991   0.748
 9572SOL    HW129615   0.418   4.016   0.676
 9572SOL    HW229616   0.312   3.903   0.727
 9573SOL     OW29617   4.868   1.266   3.132
 9573SOL    HW129618   4.831   1.176   3.109
 9573SOL    HW229619   4.794   1.333   3.132
 9574SOL     OW29620   2.767   2.399   3.361
 9574SOL    HW129621   2.744   2.401   3.264
 9574SOL    HW229622   2.744   2.487   3.403
 9575SOL     OW29623   4.323   1.641   3.098
 9575SOL    HW129624   4.262   1.682   3.166
 9575SOL    HW229625   4.269   1.605   3.022
 9576SOL     OW29626   3.845   3.407   5.684
 9576SOL    HW129627   3.792   3.442   5.761
 9576SOL    HW229628   3.786   3.350   5.627
 9577SOL     OW29629   0.839   6.077   3.528
 9577SOL    HW129630   0.791   6.141   3.588
 9577SOL    HW229631   0.779   6.000   3.507
 9578SOL     OW29632   6.947   3.910   1.002
 9578SOL    HW129633   6.980   3.914   0.908
 9578SOL    HW229634   6.996   3.978   1.057
 9579SOL     OW29635   2.006   4.938   2.799
 9579SOL    HW129636   1.911   4.960   2.777
 9579SOL    HW229637   2.058   4.925   2.714
 9580SOL     OW29638   4.183   3.771   6.066
 9580SOL    HW129639   4.168   3.860   6.022
 9580SOL    HW229640   4.138   3.699   6.013
 9581SOL     OW29641   1.110   5.943   5.830
 9581SOL    HW129642   1.091   6.007   5.755
 9581SOL    HW229643   1.082   5.851   5.802
 9582SOL     OW29644   4.601   5.323   3.226
 9582SOL    HW129645   4.520   5.378   3.206
 9582SOL    HW229646   4.668   5.378   3.276
 9583SOL     OW29647   1.760   4.750   1.330
 9583SOL    HW129648   1.764   4.835   1.382
 9583SOL    HW229649   1.671   4.706   1.346
 9584SOL     OW29650   5.023   4.890   0.192
 9584SOL    HW129651   5.110   4.915   0.149
 9584SOL    HW229652   4.991   4.802   0.155
 9585SOL     OW29653   6.802   1.046   2.896
 9585SOL    HW129654   6.855   1.002   2.823
 9585SOL    HW229655   6.845   1.027   2.984
 9586SOL     OW29656   4.870   3.758   2.306
 9586SOL    HW129657   4.844   3.826   2.374
 9586SOL    HW229658   4.899   3.674   2.352
 9587SOL     OW29659   4.525   6.541   1.776
 9587SOL    HW129660   4.468   6.568   1.853
 9587SOL    HW229661   4.512   6.443   1.759
 9588SOL     OW29662   6.465   0.838   3.559
 9588SOL    HW129663   6.443   0.751   3.603
 9588SOL    HW229664   6.463   0.911   3.626
 9589SOL     OW29665   3.190   1.986   4.655
 9589SOL    HW129666   3.141   1.904   4.627
 9589SOL    HW229667   3.126   2.055   4.687
 9590SOL     OW29668   0.315   4.782   4.618
 9590SOL    HW129669   0.332   4.704   4.558
 9590SOL    HW229670   0.223   4.817   4.602
 9591SOL     OW29671   1.098   4.432   2.736
 9591SOL    HW129672   1.160   4.355   2.752
 9591SOL    HW229673   1.048   4.418   2.650
 9592SOL     OW29674   4.431   5.743   0.892
 9592SOL    HW129675   4.386   5.827   0.924
 9592SOL    HW229676   4.362   5.673   0.874
 9593SOL     OW29677   2.176   1.822   3.265
 9593SOL    HW129678   2.208   1.860   3.178
 9593SOL    HW229679   2.093   1.768   3.249
 9594SOL     OW29680   5.867   0.364   1.197
 9594SOL    HW129681   5.814   0.301   1.253
 9594SOL    HW229682   5.897   0.441   1.253
 9595SOL     OW29683   1.331   5.703   5.030
 9595SOL    HW129684   1.336   5.603   5.019
 9595SOL    HW229685   1.344   5.726   5.127
 9596SOL     OW29686   5.279   5.814   2.077
 9596SOL    HW129687   5.274   5.733   2.018
 9596SOL    HW229688   5.188   5.856   2.083
 9597SOL     OW29689   2.435   4.506   1.310
 9597SOL    HW129690   2.426   4.554   1.223
 9597SOL    HW229691   2.465   4.569   1.381
 9598SOL     OW29692   0.336   6.197   6.076
 9598SOL    HW129693   0.238   6.180   6.071
 9598SOL    HW229694   0.358   6.237   6.165
 9599SOL     OW29695   3.802   2.192   5.092
 9599SOL    HW129696   3.762   2.147   5.012
 9599SOL    HW229697   3.897   2.217   5.071
 9600SOL     OW29698   1.579   6.421   6.382
 9600SOL    HW129699   1.599   6.491   6.313
 9600SOL    HW229700   1.488   6.438   6.420
 9601SOL     OW29701   0.997   6.590   5.375
 9601SOL    HW129702   0.983   6.506   5.324
 9601SOL    HW229703   1.060   6.573   5.451
 9602SOL     OW29704   1.263   5.515   6.150
 9602SOL    HW129705   1.268   5.510   6.250
 9602SOL    HW229706   1.346   5.475   6.111
 9603SOL     OW29707   1.029   4.738   2.507
 9603SOL    HW129708   1.012   4.795   2.588
 9603SOL    HW229709   0.959   4.667   2.501
 9604SOL     OW29710   0.275   0.503   6.505
 9604SOL    HW129711   0.246   0.513   6.600
 9604SOL    HW229712   0.207   0.450   6.454
 9605SOL     OW29713   3.114   4.683   1.144
 9605SOL    HW129714   3.042   4.706   1.078
 9605SOL    HW229715   3.073   4.672   1.235
 9606SOL     OW29716   0.139   0.397   5.368
 9606SOL    HW129717   0.203   0.350   5.430
 9606SOL    HW229718   0.152   0.362   5.275
 9607SOL     OW29719   0.116   2.073   2.529
 9607SOL    HW129720   0.040   2.107   2.586
 9607SOL    HW229721   0.201   2.113   2.561
 9608SOL     OW29722   6.338   0.851   2.053
 9608SOL    HW129723   6.339   0.908   1.971
 9608SOL    HW229724   6.274   0.890   2.120
 9609SOL     OW29725   1.423   2.345   3.614
 9609SOL    HW129726   1.370   2.261   3.606
 9609SOL    HW229727   1.499   2.343   3.550
 9610SOL     OW29728   3.960   0.875   5.583
 9610SOL    HW129729   3.861   0.865   5.590
 9610SOL    HW229730   4.005   0.810   5.644
 9611SOL     OW29731   5.089   5.668   0.983
 9611SOL    HW129732   5.050   5.755   1.012
 9611SOL    HW229733   5.066   5.597   1.050
 9612SOL     OW29734   5.460   3.312   3.754
 9612SOL    HW129735   5.373   3.357   3.772
 9612SOL    HW229736   5.488   3.260   3.834
 9613SOL     OW29737   5.555   0.876   4.845
 9613SOL    HW129738   5.626   0.876   4.775
 9613SOL    HW229739   5.518   0.969   4.855
 9614SOL     OW29740   2.639   2.531   0.447
 9614SOL    HW129741   2.732   2.552   0.477
 9614SOL    HW229742   2.582   2.613   0.454
 9615SOL     OW29743   0.684   5.789   3.487
 9615SOL    HW129744   0.682   5.741   3.400
 9615SOL    HW229745   0.592   5.794   3.525
 9616SOL     OW29746   0.952   2.504   1.001
 9616SOL    HW129747   1.040   2.457   0.992
 9616SOL    HW229748   0.968   2.602   1.013
 9617SOL     OW29749   0.394   2.416   2.483
 9617SOL    HW129750   0.329   2.410   2.559
 9617SOL    HW229751   0.376   2.342   2.419
 9618SOL     OW29752   4.883   3.763   1.541
 9618SOL    HW129753   4.921   3.680   1.499
 9618SOL    HW229754   4.918   3.772   1.634
 9619SOL     OW29755   0.596   6.734   1.204
 9619SOL    HW129756   0.685   6.719   1.162
 9619SOL    HW229757   0.532   6.768   1.134
 9620SOL     OW29758   3.773   1.364   0.224
 9620SOL    HW129759   3.850   1.323   0.174
 9620SOL    HW229760   3.802   1.386   0.317
 9621SOL     OW29761   0.230   0.845   1.498
 9621SOL    HW129762   0.208   0.759   1.545
 9621SOL    HW229763   0.241   0.917   1.566
 9622SOL     OW29764   6.692   5.846   5.932
 9622SOL    HW129765   6.640   5.799   5.861
 9622SOL    HW229766   6.789   5.843   5.909
 9623SOL     OW29767   2.840   5.931   5.711
 9623SOL    HW129768   2.917   5.885   5.755
 9623SOL    HW229769   2.835   5.904   5.615
 9624SOL     OW29770   4.480   5.696   5.846
 9624SOL    HW129771   4.475   5.700   5.945
 9624SOL    HW229772   4.406   5.638   5.810
 9625SOL     OW29773   4.596   4.511   6.502
 9625SOL    HW129774   4.586   4.432   6.562
 9625SOL    HW229775   4.664   4.492   6.432
 9626SOL     OW29776   2.501   2.705   6.361
 9626SOL    HW129777   2.519   2.803   6.349
 9626SOL    HW229778   2.548   2.654   6.288
 9627SOL     OW29779   0.213   5.867   0.522
 9627SOL    HW129780   0.235   5.814   0.440
 9627SOL    HW229781   0.211   5.964   0.499
 9628SOL     OW29782   5.726   0.857   6.118
 9628SOL    HW129783   5.639   0.859   6.167
 9628SOL    HW229784   5.801   0.859   6.183
 9629SOL     OW29785   0.638   5.735   3.931
 9629SOL    HW129786   0.680   5.749   3.842
 9629SOL    HW229787   0.544   5.772   3.929
 9630SOL     OW29788   5.279   0.846   6.545
 9630SOL    HW129789   5.233   0.816   6.462
 9630SOL    HW229790   5.337   0.925   6.525
 9631SOL     OW29791   4.512   6.401   0.870
 9631SOL    HW129792   4.518   6.493   0.831
 9631SOL    HW229793   4.551   6.401   0.962
 9632SOL     OW29794   2.609   5.183   3.181
 9632SOL    HW129795   2.513   5.157   3.171
 9632SOL    HW229796   2.664   5.101   3.201
 9633SOL     OW29797   3.552   2.923   5.110
 9633SOL    HW129798   3.602   2.841   5.137
 9633SOL    HW229799   3.561   2.993   5.181
 9634SOL     OW29800   5.848   4.885   2.930
 9634SOL    HW129801   5.829   4.787   2.922
 9634SOL    HW229802   5.935   4.898   2.977
 9635SOL     OW29803   0.762   4.539   4.672
 9635SOL    HW129804   0.854   4.566   4.641
 9635SOL    HW229805   0.719   4.483   4.601
 9636SOL     OW29806   5.944   3.637   3.790
 9636SOL    HW129807   6.031   3.686   3.793
 9636SOL    HW229808   5.889   3.674   3.715
 9637SOL     OW29809   1.494   3.251   6.946
 9637SOL    HW129810   1.457   3.340   6.972
 9637SOL    HW229811   1.582   3.237   6.993
 9638SOL     OW29812   6.299   4.699   5.439
 9638SOL    HW129813   6.230   4.718   5.509
 9638SOL    HW229814   6.254   4.683   5.351
 9639SOL     OW29815   5.010   2.241   1.406
 9639SOL    HW129816   4.943   2.274   1.340
 9639SOL    HW229817   5.008   2.300   1.487
 9640SOL     OW29818   3.614   0.309   2.963
 9640SOL    HW129819   3.696   0.363   2.982
 9640SOL    HW229820   3.621   0.222   3.011
 9641SOL     OW29821   0.522   3.160   4.666
 9641SOL    HW129822   0.531   3.065   4.697
 9641SOL    HW229823   0.451   3.166   4.596
 9642SOL     OW29824   0.618   2.844   4.632
 9642SOL    HW129825   0.520   2.845   4.651
 9642SOL    HW229826   0.663   2.776   4.691
 9643SOL     OW29827   5.503   4.802   4.793
 9643SOL    HW129828   5.596   4.770   4.806
 9643SOL    HW229829   5.475   4.787   4.698
 9644SOL     OW29830   1.043   4.583   3.815
 9644SOL    HW129831   0.978   4.640   3.866
 9644SOL    HW229832   1.136   4.604   3.844
 9645SOL     OW29833   1.053   5.041   6.798
 9645SOL    HW129834   1.109   5.117   6.764
 9645SOL    HW229835   0.981   5.020   6.732
 9646SOL     OW29836   2.989   5.226   0.656
 9646SOL    HW129837   3.082   5.194   0.674
 9646SOL    HW229838   2.992   5.312   0.605
 9647SOL     OW29839   5.540   6.770   3.322
 9647SOL    HW129840   5.440   6.760   3.326
 9647SOL    HW229841   5.577   6.698   3.263
 9648SOL     OW29842   2.897   2.119   1.109
 9648SOL    HW129843   2.851   2.203   1.081
 9648SOL    HW229844   2.991   2.120   1.075
 9649SOL     OW29845   0.039   5.641   1.185
 9649SOL    HW129846   0.087   5.600   1.107
 9649SOL    HW229847   6.965   5.651   1.164
 9650SOL     OW29848   0.794   4.909   5.081
 9650SOL    HW129849   0.860   4.984   5.089
 9650SOL    HW229850   0.843   4.822   5.083
 9651SOL     OW29851   3.843   2.000   6.967
 9651SOL    HW129852   3.854   2.060   6.888
 9651SOL    HW229853   3.808   1.912   6.937
 9652SOL     OW29854   0.451   3.893   0.199
 9652SOL    HW129855   0.506   3.975   0.184
 9652SOL    HW229856   0.511   3.813   0.206
 9653SOL     OW29857   5.303   4.637   5.683
 9653SOL    HW129858   5.270   4.567   5.621
 9653SOL    HW229859   5.232   4.659   5.750
 9654SOL     OW29860   3.705   3.651   3.573
 9654SOL    HW129861   3.789   3.635   3.624
 9654SOL    HW229862   3.632   3.594   3.611
 9655SOL     OW29863   4.685   1.386   1.053
 9655SOL    HW129864   4.619   1.373   0.979
 9655SOL    HW229865   4.654   1.338   1.135
 9656SOL     OW29866   4.564   4.312   6.687
 9656SOL    HW129867   4.468   4.340   6.681
 9656SOL    HW229868   4.586   4.286   6.781
 9657SOL     OW29869   5.073   4.652   2.965
 9657SOL    HW129870   5.160   4.673   2.920
 9657SOL    HW229871   5.042   4.561   2.937
 9658SOL     OW29872   5.393   1.078   2.771
 9658SOL    HW129873   5.412   1.137   2.850
 9658SOL    HW229874   5.301   1.097   2.736
 9659SOL     OW29875   3.391   3.110   6.734
 9659SOL    HW129876   3.324   3.039   6.714
 9659SOL    HW229877   3.483   3.077   6.713
 9660SOL     OW29878   1.840   6.506   1.278
 9660SOL    HW129879   1.919   6.566   1.268
 9660SOL    HW229880   1.866   6.412   1.256
 9661SOL     OW29881   4.075   3.637   2.146
 9661SOL    HW129882   4.120   3.671   2.063
 9661SOL    HW229883   4.070   3.711   2.213
 9662SOL     OW29884   4.584   0.018   5.809
 9662SOL    HW129885   4.547   0.108   5.830
 9662SOL    HW229886   4.508   6.978   5.791
 9663SOL     OW29887   0.979   5.398   3.016
 9663SOL    HW129888   0.905   5.335   3.041
 9663SOL    HW229889   0.969   5.425   2.921
 9664SOL     OW29890   3.032   4.850   2.851
 9664SOL    HW129891   3.043   4.873   2.755
 9664SOL    HW229892   3.116   4.870   2.901
 9665SOL     OW29893   6.680   4.932   6.399
 9665SOL    HW129894   6.674   4.885   6.487
 9665SOL    HW229895   6.776   4.940   6.372
 9666SOL     OW29896   5.062   4.142   0.700
 9666SOL    HW129897   5.083   4.163   0.605
 9666SOL    HW229898   5.140   4.099   0.744
 9667SOL     OW29899   5.560   6.298   6.938
 9667SOL    HW129900   5.620   6.219   6.952
 9667SOL    HW229901   5.470   6.279   6.977
 9668SOL     OW29902   1.535   1.009   6.457
 9668SOL    HW129903   1.516   1.021   6.360
 9668SOL    HW229904   1.472   1.064   6.511
 9669SOL     OW29905   3.061   0.427   6.834
 9669SOL    HW129906   2.986   0.450   6.897
 9669SOL    HW229907   3.114   0.509   6.815
 9670SOL     OW29908   0.527   1.188   1.502
 9670SOL    HW129909   0.472   1.196   1.419
 9670SOL    HW229910   0.615   1.144   1.481
 9671SOL     OW29911   1.118   4.883   6.415
 9671SOL    HW129912   1.044   4.817   6.406
 9671SOL    HW229913   1.130   4.932   6.329
 9672SOL     OW29914   0.675   3.428   4.060
 9672SOL    HW129915   0.657   3.333   4.087
 9672SOL    HW229916   0.614   3.454   3.986
 9673SOL     OW29917   2.352   2.500   6.401
 9673SOL    HW129918   2.405   2.581   6.377
 9673SOL    HW229919   2.390   2.459   6.484
 9674SOL     OW29920   1.824   0.023   3.908
 9674SOL    HW129921   1.894   0.093   3.918
 9674SOL    HW229922   1.741   0.064   3.869
 9675SOL     OW29923   6.524   4.284   5.438
 9675SOL    HW129924   6.452   4.348   5.463
 9675SOL    HW229925   6.610   4.312   5.482
 9676SOL     OW29926   0.764   3.709   5.486
 9676SOL    HW129927   0.699   3.776   5.521
 9676SOL    HW229928   0.754   3.701   5.387
 9677SOL     OW29929   6.952   4.861   2.620
 9677SOL    HW129930   6.894   4.940   2.605
 9677SOL    HW229931   7.002   4.839   2.537
 9678SOL     OW29932   3.493   3.365   5.452
 9678SOL    HW129933   3.483   3.459   5.483
 9678SOL    HW229934   3.509   3.305   5.530
 9679SOL     OW29935   1.245   1.031   3.829
 9679SOL    HW129936   1.169   1.043   3.893
 9679SOL    HW229937   1.327   1.005   3.879
 9680SOL     OW29938   4.391   0.286   2.372
 9680SOL    HW129939   4.391   0.334   2.460
 9680SOL    HW229940   4.436   0.343   2.303
 9681SOL     OW29941   1.348   3.438   1.329
 9681SOL    HW129942   1.445   3.463   1.322
 9681SOL    HW229943   1.340   3.351   1.377
 9682SOL     OW29944   4.812   0.138   5.855
 9682SOL    HW129945   4.724   0.091   5.859
 9682SOL    HW229946   4.885   0.071   5.842
 9683SOL     OW29947   3.900   5.824   4.401
 9683SOL    HW129948   3.936   5.901   4.347
 9683SOL    HW229949   3.954   5.742   4.384
 9684SOL     OW29950   6.910   3.331   5.623
 9684SOL    HW129951   6.946   3.378   5.704
 9684SOL    HW229952   6.938   3.234   5.626
 9685SOL     OW29953   3.242   4.617   1.729
 9685SOL    HW129954   3.340   4.626   1.741
 9685SOL    HW229955   3.219   4.521   1.712
 9686SOL     OW29956   0.393   1.629   5.607
 9686SOL    HW129957   0.484   1.593   5.587
 9686SOL    HW229958   0.377   1.712   5.554
 9687SOL     OW29959   5.628   1.517   3.873
 9687SOL    HW129960   5.637   1.556   3.781
 9687SOL    HW229961   5.545   1.462   3.877
 9688SOL     OW29962   0.142   4.998   1.697
 9688SOL    HW129963   0.146   4.907   1.655
 9688SOL    HW229964   0.187   4.995   1.787
 9689SOL     OW29965   1.431   5.380   1.172
 9689SOL    HW129966   1.373   5.299   1.169
 9689SOL    HW229967   1.384   5.456   1.127
 9690SOL     OW29968   0.227   4.785   5.049
 9690SOL    HW129969   0.249   4.736   4.965
 9690SOL    HW229970   0.128   4.790   5.060
 9691SOL     OW29971   3.973   3.373   2.209
 9691SOL    HW129972   4.004   3.311   2.137
 9691SOL    HW229973   3.989   3.467   2.181
 9692SOL     OW29974   4.934   4.593   0.546
 9692SOL    HW129975   5.015   4.633   0.503
 9692SOL    HW229976   4.868   4.665   0.567
 9693SOL     OW29977   4.697   3.484   6.294
 9693SOL    HW129978   4.641   3.461   6.215
 9693SOL    HW229979   4.735   3.401   6.334
 9694SOL     OW29980   2.615   6.370   0.919
 9694SOL    HW129981   2.526   6.416   0.913
 9694SOL    HW229982   2.684   6.435   0.952
 9695SOL     OW29983   1.506   3.023   3.986
 9695SOL    HW129984   1.583   3.041   3.924
 9695SOL    HW229985   1.488   3.104   4.041
 9696SOL     OW29986   4.887   3.160   3.352
 9696SOL    HW129987   4.850   3.237   3.403
 9696SOL    HW229988   4.871   3.075   3.403
 9697SOL     OW29989   6.963   0.448   1.527
 9697SOL    HW129990   7.016   0.368   1.497
 9697SOL    HW229991   6.892   0.418   1.591
 9698SOL     OW29992   6.959   3.226   1.861
 9698SOL    HW129993   6.900   3.166   1.916
 9698SOL    HW229994   7.005   3.171   1.792
 9699SOL     OW29995   0.798   5.962   2.092
 9699SOL    HW129996   0.727   5.980   2.023
 9699SOL    HW229997   0.873   6.027   2.079
 9700SOL     OW29998   5.721   0.788   6.520
 9700SOL    HW129999   5.652   0.850   6.483
 9700SOL    HW230000   5.765   0.739   6.444
 9701SOL     OW30001   5.515   3.943   0.561
 9701SOL    HW130002   5.513   3.846   0.535
 9701SOL    HW230003   5.421   3.974   0.580
 9702SOL     OW30004   3.387   3.912   1.697
 9702SOL    HW130005   3.477   3.935   1.734
 9702SOL    HW230006   3.325   3.989   1.710
 9703SOL     OW30007   6.261   4.950   3.256
 9703SOL    HW130008   6.289   5.035   3.211
 9703SOL    HW230009   6.336   4.884   3.254
 9704SOL     OW30010   0.863   4.353   2.239
 9704SOL    HW130011   0.906   4.367   2.150
 9704SOL    HW230012   0.785   4.415   2.249
 9705SOL     OW30013   0.546   3.858   5.586
 9705SOL    HW130014   0.557   3.821   5.678
 9705SOL    HW230015   0.495   3.792   5.530
 9706SOL     OW30016   0.616   0.718   2.115
 9706SOL    HW130017   0.655   0.808   2.134
 9706SOL    HW230018   0.669   0.673   2.043
 9707SOL     OW30019   0.801   5.237   2.357
 9707SOL    HW130020   0.760   5.326   2.376
 9707SOL    HW230021   0.901   5.248   2.353
 9708SOL     OW30022   2.777   0.725   1.600
 9708SOL    HW130023   2.793   0.642   1.547
 9708SOL    HW230024   2.683   0.724   1.635
 9709SOL     OW30025   5.043   1.947   2.168
 9709SOL    HW130026   5.082   1.860   2.137
 9709SOL    HW230027   5.007   1.997   2.089
 9710SOL     OW30028   5.020   4.972   4.472
 9710SOL    HW130029   5.107   5.014   4.444
 9710SOL    HW230030   5.004   4.890   4.419
 9711SOL     OW30031   2.702   0.778   6.539
 9711SOL    HW130032   2.775   0.720   6.502
 9711SOL    HW230033   2.743   0.852   6.593
 9712SOL     OW30034   4.958   0.257   5.394
 9712SOL    HW130035   4.897   0.185   5.429
 9712SOL    HW230036   4.914   0.346   5.406
 9713SOL     OW30037   2.020   0.373   2.540
 9713SOL    HW130038   2.063   0.284   2.528
 9713SOL    HW230039   2.075   0.443   2.495
 9714SOL     OW30040   2.000   3.137   4.265
 9714SOL    HW130041   1.916   3.185   4.240
 9714SOL    HW230042   1.982   3.077   4.343
 9715SOL     OW30043   0.409   2.562   6.584
 9715SOL    HW130044   0.495   2.590   6.539
 9715SOL    HW230045   0.368   2.486   6.533
 9716SOL     OW30046   2.581   6.542   0.541
 9716SOL    HW130047   2.556   6.445   0.535
 9716SOL    HW230048   2.680   6.550   0.549
 9717SOL     OW30049   3.935   2.709   6.008
 9717SOL    HW130050   3.971   2.617   6.023
 9717SOL    HW230051   3.923   2.755   6.096
 9718SOL     OW30052   3.820   2.502   0.055
 9718SOL    HW130053   3.916   2.516   0.077
 9718SOL    HW230054   3.811   2.429   7.010
 9719SOL     OW30055   4.531   0.595   5.810
 9719SOL    HW130056   4.536   0.495   5.803
 9719SOL    HW230057   4.436   0.624   5.798
 9720SOL     OW30058   2.155   2.151   2.687
 9720SOL    HW130059   2.246   2.142   2.727
 9720SOL    HW230060   2.089   2.175   2.758
 9721SOL     OW30061   0.803   1.817   1.266
 9721SOL    HW130062   0.787   1.904   1.218
 9721SOL    HW230063   0.836   1.836   1.358
 9722SOL     OW30064   4.268   2.623   5.503
 9722SOL    HW130065   4.315   2.711   5.499
 9722SOL    HW230066   4.216   2.618   5.588
 9723SOL     OW30067   6.043   0.422   5.010
 9723SOL    HW130068   5.954   0.467   5.013
 9723SOL    HW230069   6.115   0.490   5.011
 9724SOL     OW30070   1.538   4.313   1.308
 9724SOL    HW130071   1.552   4.229   1.361
 9724SOL    HW230072   1.622   4.333   1.257
 9725SOL     OW30073   5.503   5.633   3.897
 9725SOL    HW130074   5.584   5.667   3.944
 9725SOL    HW230075   5.429   5.621   3.962
 9726SOL     OW30076   6.646   0.012   3.155
 9726SOL    HW130077   6.693   0.003   3.067
 9726SOL    HW230078   6.673   0.098   3.198
 9727SOL     OW30079   6.061   2.740   1.645
 9727SOL    HW130080   6.128   2.712   1.715
 9727SOL    HW230081   5.975   2.691   1.660
 9728SOL     OW30082   5.205   2.107   4.600
 9728SOL    HW130083   5.133   2.055   4.645
 9728SOL    HW230084   5.164   2.172   4.535
 9729SOL     OW30085   0.393   3.592   2.565
 9729SOL    HW130086   0.350   3.519   2.512
 9729SOL    HW230087   0.457   3.551   2.631
 9730SOL     OW30088   0.921   5.571   3.210
 9730SOL    HW130089   0.822   5.582   3.224
 9730SOL    HW230090   0.937   5.501   3.140
 9731SOL     OW30091   6.222   2.674   1.411
 9731SOL    HW130092   6.158   2.650   1.484
 9731SOL    HW230093   6.255   2.768   1.426
 9732SOL     OW30094   1.544   3.092   2.625
 9732SOL    HW130095   1.593   3.090   2.538
 9732SOL    HW230096   1.608   3.077   2.700
 9733SOL     OW30097   6.124   5.212   2.166
 9733SOL    HW130098   6.030   5.213   2.200
 9733SOL    HW230099   6.172   5.293   2.200
 9734SOL     OW30100   4.153   4.991   6.684
 9734SOL    HW130101   4.116   5.063   6.626
 9734SOL    HW230102   4.165   4.908   6.630
 9735SOL     OW30103   0.443   1.795   0.139
 9735SOL    HW130104   0.436   1.834   0.047
 9735SOL    HW230105   0.536   1.759   0.153
 9736SOL     OW30106   5.304   2.579   5.168
 9736SOL    HW130107   5.206   2.562   5.168
 9736SOL    HW230108   5.354   2.492   5.171
 9737SOL     OW30109   5.501   3.004   4.842
 9737SOL    HW130110   5.483   3.077   4.908
 9737SOL    HW230111   5.432   2.933   4.851
 9738SOL     OW30112   2.428   6.448   1.257
 9738SOL    HW130113   2.479   6.519   1.209
 9738SOL    HW230114   2.467   6.435   1.348
 9739SOL     OW30115   5.685   0.119   0.331
 9739SOL    HW130116   5.637   0.074   0.406
 9739SOL    HW230117   5.693   0.217   0.351
 9740SOL     OW30118   6.343   0.465   1.697
 9740SOL    HW130119   6.381   0.378   1.665
 9740SOL    HW230120   6.379   0.540   1.642
 9741SOL     OW30121   2.688   2.431   3.092
 9741SOL    HW130122   2.693   2.399   2.997
 9741SOL    HW230123   2.617   2.501   3.100
 9742SOL     OW30124   3.939   1.953   6.363
 9742SOL    HW130125   3.904   2.019   6.430
 9742SOL    HW230126   3.864   1.918   6.308
 9743SOL     OW30127   6.780   3.681   4.382
 9743SOL    HW130128   6.788   3.669   4.481
 9743SOL    HW230129   6.835   3.759   4.354
 9744SOL     OW30130   1.734   1.716   2.496
 9744SOL    HW130131   1.700   1.623   2.484
 9744SOL    HW230132   1.696   1.755   2.580
 9745SOL     OW30133   0.453   0.111   5.715
 9745SOL    HW130134   0.395   0.079   5.641
 9745SOL    HW230135   0.418   0.077   5.802
 9746SOL     OW30136   3.214   6.267   5.865
 9746SOL    HW130137   3.234   6.320   5.783
 9746SOL    HW230138   3.116   6.244   5.866
 9747SOL     OW30139   3.645   1.625   3.650
 9747SOL    HW130140   3.657   1.569   3.568
 9747SOL    HW230141   3.721   1.608   3.713
 9748SOL     OW30142   0.204   1.591   2.262
 9748SOL    HW130143   0.196   1.610   2.360
 9748SOL    HW230144   0.294   1.620   2.230
 9749SOL     OW30145   6.912   0.827   1.711
 9749SOL    HW130146   6.948   0.769   1.785
 9749SOL    HW230147   6.934   0.786   1.623
 9750SOL     OW30148   5.564   2.784   5.710
 9750SOL    HW130149   5.515   2.821   5.789
 9750SOL    HW230150   5.609   2.858   5.661
 9751SOL     OW30151   3.069   6.795   1.336
 9751SOL    HW130152   3.034   6.873   1.284
 9751SOL    HW230153   3.004   6.771   1.407
 9752SOL     OW30154   3.144   3.135   0.387
 9752SOL    HW130155   3.216   3.111   0.322
 9752SOL    HW230156   3.138   3.235   0.395
 9753SOL     OW30157   6.708   5.785   3.680
 9753SOL    HW130158   6.671   5.728   3.606
 9753SOL    HW230159   6.710   5.732   3.765
 9754SOL     OW30160   3.202   0.906   1.905
 9754SOL    HW130161   3.136   0.880   1.976
 9754SOL    HW230162   3.278   0.840   1.905
 9755SOL     OW30163   3.665   3.704   0.076
 9755SOL    HW130164   3.599   3.773   0.044
 9755SOL    HW230165   3.629   3.659   0.158
 9756SOL     OW30166   5.738   0.368   6.224
 9756SOL    HW130167   5.776   0.403   6.139
 9756SOL    HW230168   5.662   0.307   6.203
 9757SOL     OW30169   5.617   3.597   4.250
 9757SOL    HW130170   5.545   3.584   4.319
 9757SOL    HW230171   5.680   3.669   4.281
 9758SOL     OW30172   2.583   0.517   2.253
 9758SOL    HW130173   2.515   0.515   2.181
 9758SOL    HW230174   2.564   0.443   2.319
 9759SOL     OW30175   6.495   2.253   1.371
 9759SOL    HW130176   6.526   2.163   1.403
 9759SOL    HW230177   6.541   2.274   1.285
 9760SOL     OW30178   4.916   0.603   6.321
 9760SOL    HW130179   4.895   0.625   6.226
 9760SOL    HW230180   4.987   0.665   6.355
 9761SOL     OW30181   0.807   2.382   1.211
 9761SOL    HW130182   0.835   2.452   1.145
 9761SOL    HW230183   0.751   2.313   1.164
 9762SOL     OW30184   3.193   1.014   5.679
 9762SOL    HW130185   3.238   1.028   5.767
 9762SOL    HW230186   3.125   1.086   5.665
 9763SOL     OW30187   6.475   2.687   1.107
 9763SOL    HW130188   6.445   2.741   1.185
 9763SOL    HW230189   6.402   2.684   1.038
 9764SOL     OW30190   0.900   2.629   2.891
 9764SOL    HW130191   0.949   2.556   2.938
 9764SOL    HW230192   0.958   2.710   2.884
 9765SOL     OW30193   6.771   1.669   1.331
 9765SOL    HW130194   6.849   1.712   1.375
 9765SOL    HW230195   6.735   1.730   1.260
 9766SOL     OW30196   0.622   2.981   2.973
 9766SOL    HW130197   0.644   2.982   3.070
 9766SOL    HW230198   0.544   2.921   2.956
 9767SOL     OW30199   3.308   1.597   5.125
 9767SOL    HW130200   3.245   1.523   5.151
 9767SOL    HW230201   3.259   1.664   5.068
 9768SOL     OW30202   4.954   2.406   0.185
 9768SOL    HW130203   4.940   2.387   0.282
 9768SOL    HW230204   5.004   2.492   0.174
 9769SOL     OW30205   3.398   1.583   5.644
 9769SOL    HW130206   3.339   1.503   5.645
 9769SOL    HW230207   3.349   1.660   5.603
 9770SOL     OW30208   1.816   2.913   5.212
 9770SOL    HW130209   1.744   2.844   5.221
 9770SOL    HW230210   1.775   2.999   5.180
 9771SOL     OW30211   3.746   1.108   1.564
 9771SOL    HW130212   3.651   1.079   1.570
 9771SOL    HW230213   3.750   1.205   1.542
 9772SOL     OW30214   0.872   0.581   1.118
 9772SOL    HW130215   0.831   0.583   1.027
 9772SOL    HW230216   0.807   0.540   1.183
 9773SOL     OW30217   5.920   6.089   2.136
 9773SOL    HW130218   5.988   6.032   2.090
 9773SOL    HW230219   5.828   6.052   2.121
 9774SOL     OW30220   2.244   4.996   4.441
 9774SOL    HW130221   2.297   4.942   4.506
 9774SOL    HW230222   2.147   4.991   4.466
 9775SOL     OW30223   1.332   1.267   2.647
 9775SOL    HW130224   1.406   1.202   2.629
 9775SOL    HW230225   1.371   1.355   2.674
 9776SOL     OW30226   2.076   5.443   1.118
 9776SOL    HW130227   1.999   5.457   1.182
 9776SOL    HW230228   2.053   5.484   1.030
 9777SOL     OW30229   4.429   2.250   5.283
 9777SOL    HW130230   4.423   2.201   5.370
 9777SOL    HW230231   4.396   2.192   5.209
 9778SOL     OW30232   1.562   3.987   3.042
 9778SOL    HW130233   1.580   3.893   3.072
 9778SOL    HW230234   1.564   4.048   3.122
 9779SOL     OW30235   3.149   0.390   3.541
 9779SOL    HW130236   3.153   0.342   3.629
 9779SOL    HW230237   3.144   0.323   3.467
 9780SOL     OW30238   0.449   1.530   0.380
 9780SOL    HW130239   0.398   1.608   0.345
 9780SOL    HW230240   0.546   1.555   0.390
 9781SOL     OW30241   1.109   1.364   2.288
 9781SOL    HW130242   1.157   1.342   2.203
 9781SOL    HW230243   1.105   1.463   2.299
 9782SOL     OW30244   0.511   2.549   0.581
 9782SOL    HW130245   0.454   2.631   0.569
 9782SOL    HW230246   0.581   2.567   0.650
 9783SOL     OW30247   4.428   1.125   2.732
 9783SOL    HW130248   4.404   1.213   2.690
 9783SOL    HW230249   4.527   1.122   2.748
 9784SOL     OW30250   1.572   1.454   6.844
 9784SOL    HW130251   1.578   1.357   6.820
 9784SOL    HW230252   1.662   1.487   6.872
 9785SOL     OW30253   0.818   3.889   4.439
 9785SOL    HW130254   0.776   3.828   4.506
 9785SOL    HW230255   0.753   3.907   4.365
 9786SOL     OW30256   2.383   4.251   6.478
 9786SOL    HW130257   2.290   4.241   6.443
 9786SOL    HW230258   2.419   4.161   6.504
 9787SOL     OW30259   2.821   3.634   1.909
 9787SOL    HW130260   2.884   3.608   1.836
 9787SOL    HW230261   2.868   3.629   1.997
 9788SOL     OW30262   3.176   6.690   2.698
 9788SOL    HW130263   3.261   6.641   2.681
 9788SOL    HW230264   3.156   6.690   2.796
 9789SOL     OW30265   3.468   1.046   0.423
 9789SOL    HW130266   3.519   0.999   0.352
 9789SOL    HW230267   3.378   1.072   0.389
 9790SOL     OW30268   4.400   5.364   4.940
 9790SOL    HW130269   4.387   5.265   4.946
 9790SOL    HW230270   4.482   5.390   4.990
 9791SOL     OW30271   0.431   0.532   0.912
 9791SOL    HW130272   0.426   0.454   0.974
 9791SOL    HW230273   0.362   0.523   0.841
 9792SOL     OW30274   3.661   4.902   0.540
 9792SOL    HW130275   3.718   4.907   0.458
 9792SOL    HW230276   3.568   4.873   0.513
 9793SOL     OW30277   6.072   0.815   3.374
 9793SOL    HW130278   6.066   0.728   3.423
 9793SOL    HW230279   5.980   0.848   3.354
 9794SOL     OW30280   4.020   5.144   4.190
 9794SOL    HW130281   4.093   5.189   4.242
 9794SOL    HW230282   4.038   5.153   4.092
 9795SOL     OW30283   1.076   3.386   3.414
 9795SOL    HW130284   1.138   3.414   3.488
 9795SOL    HW230285   1.092   3.443   3.334
 9796SOL     OW30286   2.899   3.493   4.086
 9796SOL    HW130287   2.987   3.526   4.120
 9796SOL    HW230288   2.843   3.571   4.057
 9797SOL     OW30289   3.282   5.672   6.766
 9797SOL    HW130290   3.364   5.623   6.794
 9797SOL    HW230291   3.276   5.758   6.816
 9798SOL     OW30292   6.736   4.323   6.713
 9798SOL    HW130293   6.754   4.395   6.780
 9798SOL    HW230294   6.698   4.243   6.759
 9799SOL     OW30295   3.421   6.557   0.014
 9799SOL    HW130296   3.456   6.651   0.010
 9799SOL    HW230297   3.498   6.493   0.016
 9800SOL     OW30298   6.419   4.133   4.743
 9800SOL    HW130299   6.439   4.147   4.646
 9800SOL    HW230300   6.442   4.040   4.769
 9801SOL     OW30301   4.457   6.455   1.318
 9801SOL    HW130302   4.518   6.393   1.367
 9801SOL    HW230303   4.362   6.433   1.342
 9802SOL     OW30304   3.871   3.829   0.262
 9802SOL    HW130305   3.931   3.751   0.244
 9802SOL    HW230306   3.813   3.809   0.341
 9803SOL     OW30307   1.169   3.716   6.360
 9803SOL    HW130308   1.086   3.731   6.413
 9803SOL    HW230309   1.206   3.804   6.331
 9804SOL     OW30310   0.870   4.191   3.282
 9804SOL    HW130311   0.945   4.144   3.237
 9804SOL    HW230312   0.904   4.275   3.326
 9805SOL     OW30313   0.100   5.638   4.483
 9805SOL    HW130314   0.159   5.562   4.457
 9805SOL    HW230315   0.154   5.721   4.495
 9806SOL     OW30316   3.682   1.715   0.283
 9806SOL    HW130317   3.648   1.633   0.330
 9806SOL    HW230318   3.774   1.697   0.248
 9807SOL     OW30319   4.091   3.218   3.105
 9807SOL    HW130320   4.150   3.292   3.139
 9807SOL    HW230321   4.083   3.226   3.006
 9808SOL     OW30322   3.524   5.588   2.124
 9808SOL    HW130323   3.537   5.536   2.040
 9808SOL    HW230324   3.441   5.557   2.170
 9809SOL     OW30325   6.333   2.600   0.590
 9809SOL    HW130326   6.363   2.694   0.606
 9809SOL    HW230327   6.352   2.575   0.495
 9810SOL     OW30328   2.444   2.521   0.876
 9810SOL    HW130329   2.429   2.473   0.962
 9810SOL    HW230330   2.385   2.482   0.805
 9811SOL     OW30331   5.812   3.781   4.320
 9811SOL    HW130332   5.870   3.810   4.244
 9811SOL    HW230333   5.773   3.862   4.365
 9812SOL     OW30334   3.309   5.601   5.657
 9812SOL    HW130335   3.315   5.689   5.611
 9812SOL    HW230336   3.365   5.602   5.740
 9813SOL     OW30337   4.758   0.599   2.182
 9813SOL    HW130338   4.749   0.627   2.086
 9813SOL    HW230339   4.765   0.499   2.187
 9814SOL     OW30340   0.171   1.586   6.219
 9814SOL    HW130341   0.253   1.565   6.165
 9814SOL    HW230342   0.195   1.650   6.293
 9815SOL     OW30343   4.246   2.258   4.449
 9815SOL    HW130344   4.274   2.163   4.435
 9815SOL    HW230345   4.250   2.307   4.362
 9816SOL     OW30346   2.770   1.427   1.060
 9816SOL    HW130347   2.742   1.505   1.004
 9816SOL    HW230348   2.691   1.367   1.075
 9817SOL     OW30349   6.069   0.216   1.679
 9817SOL    HW130350   6.077   0.228   1.778
 9817SOL    HW230351   6.148   0.167   1.644
 9818SOL     OW30352   4.121   2.891   5.575
 9818SOL    HW130353   4.098   2.861   5.483
 9818SOL    HW230354   4.048   2.950   5.611
 9819SOL     OW30355   3.563   0.836   1.755
 9819SOL    HW130356   3.516   0.775   1.818
 9819SOL    HW230357   3.533   0.930   1.771
 9820SOL     OW30358   3.759   2.588   0.425
 9820SOL    HW130359   3.848   2.557   0.460
 9820SOL    HW230360   3.734   2.674   0.468
 9821SOL     OW30361   0.179   5.174   0.151
 9821SOL    HW130362   0.102   5.236   0.164
 9821SOL    HW230363   0.255   5.201   0.211
 9822SOL     OW30364   0.668   0.590   2.981
 9822SOL    HW130365   0.765   0.614   2.973
 9822SOL    HW230366   0.652   0.547   3.070
 9823SOL     OW30367   3.368   6.763   1.980
 9823SOL    HW130368   3.272   6.737   1.987
 9823SOL    HW230369   3.420   6.687   1.940
 9824SOL     OW30370   1.527   3.965   6.554
 9824SOL    HW130371   1.585   3.939   6.476
 9824SOL    HW230372   1.467   4.040   6.527
 9825SOL     OW30373   4.115   5.230   5.578
 9825SOL    HW130374   4.037   5.292   5.575
 9825SOL    HW230375   4.161   5.238   5.667
 9826SOL     OW30376   5.285   0.202   5.721
 9826SOL    HW130377   5.296   0.296   5.689
 9826SOL    HW230378   5.222   0.153   5.660
 9827SOL     OW30379   0.880   4.173   4.264
 9827SOL    HW130380   0.953   4.112   4.295
 9827SOL    HW230381   0.797   4.118   4.247
 9828SOL     OW30382   2.991   2.836   6.504
 9828SOL    HW130383   2.933   2.911   6.537
 9828SOL    HW230384   3.000   2.844   6.405
 9829SOL     OW30385   2.721   4.360   0.947
 9829SOL    HW130386   2.772   4.322   0.870
 9829SOL    HW230387   2.693   4.454   0.926
 9830SOL     OW30388   6.682   1.070   0.596
 9830SOL    HW130389   6.718   0.977   0.603
 9830SOL    HW230390   6.618   1.075   0.519
 9831SOL     OW30391   5.588   7.002   0.817
 9831SOL    HW130392   5.587   0.045   0.892
 9831SOL    HW230393   5.617   6.913   0.852
 9832SOL     OW30394   3.930   5.075   1.068
 9832SOL    HW130395   3.856   5.012   1.093
 9832SOL    HW230396   3.895   5.145   1.006
 9833SOL     OW30397   4.588   4.386   5.655
 9833SOL    HW130398   4.489   4.400   5.646
 9833SOL    HW230399   4.619   4.425   5.742
 9834SOL     OW30400   2.245   1.885   3.963
 9834SOL    HW130401   2.301   1.961   3.995
 9834SOL    HW230402   2.290   1.799   3.987
 9835SOL     OW30403   4.508   1.762   4.737
 9835SOL    HW130404   4.479   1.856   4.720
 9835SOL    HW230405   4.442   1.699   4.697
 9836SOL     OW30406   5.341   5.109   2.257
 9836SOL    HW130407   5.318   5.047   2.332
 9836SOL    HW230408   5.329   5.061   2.170
 9837SOL     OW30409   1.431   6.550   4.673
 9837SOL    HW130410   1.475   6.468   4.709
 9837SOL    HW230411   1.379   6.595   4.746
 9838SOL     OW30412   6.632   5.404   5.300
 9838SOL    HW130413   6.678   5.411   5.211
 9838SOL    HW230414   6.638   5.310   5.333
 9839SOL     OW30415   6.985   2.146   2.750
 9839SOL    HW130416   6.949   2.079   2.814
 9839SOL    HW230417   0.040   2.194   2.792
 9840SOL     OW30418   6.411   0.566   1.163
 9840SOL    HW130419   6.435   0.661   1.145
 9840SOL    HW230420   6.347   0.561   1.240
 9841SOL     OW30421   1.619   3.615   4.445
 9841SOL    HW130422   1.629   3.685   4.516
 9841SOL    HW230423   1.696   3.553   4.448
 9842SOL     OW30424   2.926   3.411   3.370
 9842SOL    HW130425   2.910   3.503   3.404
 9842SOL    HW230426   2.910   3.345   3.443
 9843SOL     OW30427   6.151   3.507   3.111
 9843SOL    HW130428   6.225   3.463   3.161
 9843SOL    HW230429   6.078   3.532   3.174
 9844SOL     OW30430   5.487   0.403   2.463
 9844SOL    HW130431   5.537   0.396   2.549
 9844SOL    HW230432   5.514   0.487   2.415
 9845SOL     OW30433   1.037   2.067   3.526
 9845SOL    HW130434   1.039   1.980   3.475
 9845SOL    HW230435   1.126   2.083   3.569
 9846SOL     OW30436   3.177   3.319   3.015
 9846SOL    HW130437   3.185   3.404   3.069
 9846SOL    HW230438   3.136   3.248   3.072
 9847SOL     OW30439   2.337   4.442   4.896
 9847SOL    HW130440   2.315   4.348   4.868
 9847SOL    HW230441   2.345   4.445   4.996
 9848SOL     OW30442   5.483   3.692   0.444
 9848SOL    HW130443   5.530   3.642   0.372
 9848SOL    HW230444   5.388   3.707   0.419
 9849SOL     OW30445   6.955   0.106   5.348
 9849SOL    HW130446   6.938   0.023   5.400
 9849SOL    HW230447   0.020   0.099   5.302
 9850SOL     OW30448   4.447   6.827   2.773
 9850SOL    HW130449   4.546   6.830   2.757
 9850SOL    HW230450   4.407   6.915   2.750
 9851SOL     OW30451   5.461   3.085   5.136
 9851SOL    HW130452   5.388   3.127   5.082
 9851SOL    HW230453   5.532   3.153   5.156
 9852SOL     OW30454   4.655   2.191   4.121
 9852SOL    HW130455   4.653   2.123   4.194
 9852SOL    HW230456   4.586   2.262   4.140
 9853SOL     OW30457   0.372   3.860   1.284
 9853SOL    HW130458   0.447   3.922   1.261
 9853SOL    HW230459   0.386   3.772   1.237
 9854SOL     OW30460   4.487   5.923   3.475
 9854SOL    HW130461   4.566   5.983   3.487
 9854SOL    HW230462   4.442   5.945   3.388
 9855SOL     OW30463   1.746   3.575   0.866
 9855SOL    HW130464   1.697   3.496   0.829
 9855SOL    HW230465   1.682   3.632   0.917
 9856SOL     OW30466   3.961   2.522   1.002
 9856SOL    HW130467   3.927   2.437   1.041
 9856SOL    HW230468   3.888   2.591   1.005
 9857SOL     OW30469   6.407   4.128   3.098
 9857SOL    HW130470   6.308   4.125   3.114
 9857SOL    HW230471   6.424   4.128   3.000
 9858SOL     OW30472   3.992   1.540   1.239
 9858SOL    HW130473   3.911   1.482   1.237
 9858SOL    HW230474   4.022   1.558   1.146
 9859SOL     OW30475   6.374   0.356   1.449
 9859SOL    HW130476   6.469   0.340   1.424
 9859SOL    HW230477   6.335   0.271   1.485
 9860SOL     OW30478   0.253   1.278   2.210
 9860SOL    HW130479   0.202   1.363   2.198
 9860SOL    HW230480   0.212   1.206   2.154
 9861SOL     OW30481   3.532   6.896   5.224
 9861SOL    HW130482   3.596   6.833   5.179
 9861SOL    HW230483   3.553   6.900   5.321
 9862SOL     OW30484   0.789   2.485   0.789
 9862SOL    HW130485   0.704   2.532   0.814
 9862SOL    HW230486   0.859   2.507   0.857
 9863SOL     OW30487   2.969   0.101   0.737
 9863SOL    HW130488   2.994   0.192   0.705
 9863SOL    HW230489   3.011   0.084   0.826
 9864SOL     OW30490   4.357   5.948   2.905
 9864SOL    HW130491   4.274   6.001   2.921
 9864SOL    HW230492   4.431   6.009   2.877
 9865SOL     OW30493   1.228   2.797   4.872
 9865SOL    HW130494   1.156   2.827   4.808
 9865SOL    HW230495   1.203   2.824   4.965
 9866SOL     OW30496   4.124   4.861   2.882
 9866SOL    HW130497   4.183   4.813   2.947
 9866SOL    HW230498   4.135   4.820   2.791
 9867SOL     OW30499   3.927   0.734   6.386
 9867SOL    HW130500   3.909   0.832   6.373
 9867SOL    HW230501   3.975   0.721   6.473
 9868SOL     OW30502   0.194   5.163   6.552
 9868SOL    HW130503   0.098   5.185   6.541
 9868SOL    HW230504   0.224   5.103   6.478
 9869SOL     OW30505   1.618   3.902   3.637
 9869SOL    HW130506   1.591   3.964   3.711
 9869SOL    HW230507   1.717   3.904   3.625
 9870SOL     OW30508   5.067   4.361   2.456
 9870SOL    HW130509   5.118   4.275   2.454
 9870SOL    HW230510   5.093   4.413   2.538
 9871SOL     OW30511   1.338   1.610   5.361
 9871SOL    HW130512   1.370   1.618   5.266
 9871SOL    HW230513   1.366   1.521   5.398
 9872SOL     OW30514   1.361   4.929   3.772
 9872SOL    HW130515   1.283   4.979   3.809
 9872SOL    HW230516   1.429   4.994   3.737
 9873SOL     OW30517   1.141   2.669   0.447
 9873SOL    HW130518   1.104   2.576   0.454
 9873SOL    HW230519   1.126   2.704   0.355
 9874SOL     OW30520   0.743   2.920   3.701
 9874SOL    HW130521   0.789   3.004   3.730
 9874SOL    HW230522   0.667   2.900   3.764
 9875SOL     OW30523   1.084   0.815   3.124
 9875SOL    HW130524   1.042   0.733   3.086
 9875SOL    HW230525   1.057   0.826   3.220
 9876SOL     OW30526   0.066   5.680   2.787
 9876SOL    HW130527   0.090   5.618   2.862
 9876SOL    HW230528   0.148   5.703   2.735
 9877SOL     OW30529   3.618   0.029   1.709
 9877SOL    HW130530   3.663   0.090   1.644
 9877SOL    HW230531   3.678   0.013   1.788
 9878SOL     OW30532   0.569   0.409   5.358
 9878SOL    HW130533   0.666   0.432   5.354
 9878SOL    HW230534   0.521   0.459   5.285
 9879SOL     OW30535   5.396   6.056   5.757
 9879SOL    HW130536   5.302   6.033   5.732
 9879SOL    HW230537   5.458   6.030   5.683
 9880SOL     OW30538   2.031   1.645   4.788
 9880SOL    HW130539   2.127   1.675   4.787
 9880SOL    HW230540   1.971   1.725   4.779
 9881SOL     OW30541   7.004   2.162   6.353
 9881SOL    HW130542   6.983   2.259   6.365
 9881SOL    HW230543   7.022   2.121   6.443
 9882SOL     OW30544   1.384   1.714   2.516
 9882SOL    HW130545   1.388   1.778   2.594
 9882SOL    HW230546   1.416   1.760   2.434
 9883SOL     OW30547   1.987   0.635   1.840
 9883SOL    HW130548   1.987   0.536   1.830
 9883SOL    HW230549   1.955   0.659   1.932
 9884SOL     OW30550   3.803   0.761   4.204
 9884SOL    HW130551   3.767   0.673   4.172
 9884SOL    HW230552   3.872   0.794   4.139
 9885SOL     OW30553   6.122   4.537   3.607
 9885SOL    HW130554   6.037   4.555   3.557
 9885SOL    HW230555   6.103   4.535   3.705
 9886SOL     OW30556   1.258   3.508   2.288
 9886SOL    HW130557   1.337   3.447   2.289
 9886SOL    HW230558   1.268   3.574   2.214
 9887SOL     OW30559   4.273   0.556   6.082
 9887SOL    HW130560   4.224   0.640   6.061
 9887SOL    HW230561   4.333   0.570   6.160
 9888SOL     OW30562   0.012   4.551   0.371
 9888SOL    HW130563   7.021   4.452   0.369
 9888SOL    HW230564   0.081   4.574   0.440
 9889SOL     OW30565   0.666   4.815   0.348
 9889SOL    HW130566   0.763   4.833   0.333
 9889SOL    HW230567   0.653   4.718   0.365
 9890SOL     OW30568   1.158   3.333   0.820
 9890SOL    HW130569   1.203   3.358   0.906
 9890SOL    HW230570   1.142   3.235   0.818
 9891SOL     OW30571   5.009   1.378   1.738
 9891SOL    HW130572   5.090   1.432   1.713
 9891SOL    HW230573   5.005   1.368   1.837
 9892SOL     OW30574   0.166   5.735   6.791
 9892SOL    HW130575   0.122   5.757   6.704
 9892SOL    HW230576   0.234   5.663   6.778
 9893SOL     OW30577   2.269   1.526   1.337
 9893SOL    HW130578   2.271   1.605   1.398
 9893SOL    HW230579   2.316   1.549   1.252
 9894SOL     OW30580   1.384   1.511   1.000
 9894SOL    HW130581   1.438   1.595   1.003
 9894SOL    HW230582   1.306   1.523   0.939
 9895SOL     OW30583   4.636   3.783   5.919
 9895SOL    HW130584   4.701   3.735   5.978
 9895SOL    HW230585   4.552   3.730   5.911
 9896SOL     OW30586   6.154   6.707   6.599
 9896SOL    HW130587   6.251   6.693   6.579
 9896SOL    HW230588   6.138   6.804   6.617
 9897SOL     OW30589   5.602   4.940   3.899
 9897SOL    HW130590   5.693   4.909   3.925
 9897SOL    HW230591   5.534   4.901   3.962
 9898SOL     OW30592   2.996   6.239   5.421
 9898SOL    HW130593   3.028   6.334   5.416
 9898SOL    HW230594   2.916   6.235   5.480
 9899SOL     OW30595   7.020   5.361   0.126
 9899SOL    HW130596   0.011   5.382   0.029
 9899SOL    HW230597   6.927   5.386   0.152
 9900SOL     OW30598   2.138   3.492   3.542
 9900SOL    HW130599   2.120   3.561   3.612
 9900SOL    HW230600   2.137   3.534   3.451
 9901SOL     OW30601   2.119   2.587   5.280
 9901SOL    HW130602   2.101   2.665   5.219
 9901SOL    HW230603   2.188   2.613   5.348
 9902SOL     OW30604   2.481   4.039   6.873
 9902SOL    HW130605   2.438   3.964   6.823
 9902SOL    HW230606   2.567   4.065   6.828
 9903SOL     OW30607   5.869   0.583   3.786
 9903SOL    HW130608   5.797   0.591   3.855
 9903SOL    HW230609   5.890   0.486   3.771
 9904SOL     OW30610   0.106   2.414   0.032
 9904SOL    HW130611   0.069   2.506   0.024
 9904SOL    HW230612   0.097   2.382   0.126
 9905SOL     OW30613   4.574   1.404   0.220
 9905SOL    HW130614   4.593   1.395   0.123
 9905SOL    HW230615   4.651   1.449   0.266
 9906SOL     OW30616   4.115   3.283   4.576
 9906SOL    HW130617   4.072   3.261   4.489
 9906SOL    HW230618   4.157   3.200   4.614
 9907SOL     OW30619   0.754   0.507   1.604
 9907SOL    HW130620   0.842   0.553   1.594
 9907SOL    HW230621   0.682   0.563   1.563
 9908SOL     OW30622   4.989   3.321   3.094
 9908SOL    HW130623   4.968   3.251   3.163
 9908SOL    HW230624   4.991   3.411   3.137
 9909SOL     OW30625   2.056   0.006   5.233
 9909SOL    HW130626   2.123   0.019   5.306
 9909SOL    HW230627   1.966   7.011   5.273
 9910SOL     OW30628   0.590   4.299   3.230
 9910SOL    HW130629   0.547   4.235   3.167
 9910SOL    HW230630   0.690   4.289   3.225
 9911SOL     OW30631   2.615   6.047   2.354
 9911SOL    HW130632   2.695   6.047   2.413
 9911SOL    HW230633   2.553   6.120   2.382
 9912SOL     OW30634   5.072   0.584   6.673
 9912SOL    HW130635   5.111   0.671   6.644
 9912SOL    HW230636   4.977   0.578   6.641
 9913SOL     OW30637   5.120   3.149   6.543
 9913SOL    HW130638   5.084   3.129   6.634
 9913SOL    HW230639   5.101   3.072   6.482
 9914SOL     OW30640   6.737   3.828   4.917
 9914SOL    HW130641   6.823   3.879   4.927
 9914SOL    HW230642   6.732   3.757   4.987
 9915SOL     OW30643   5.613   0.878   3.996
 9915SOL    HW130644   5.559   0.907   4.075
 9915SOL    HW230645   5.630   0.957   3.937
 9916SOL     OW30646   2.222   2.301   1.404
 9916SOL    HW130647   2.168   2.385   1.392
 9916SOL    HW230648   2.288   2.314   1.479
 9917SOL     OW30649   6.250   4.519   4.822
 9917SOL    HW130650   6.298   4.449   4.873
 9917SOL    HW230651   6.223   4.483   4.732
 9918SOL     OW30652   4.329   2.167   2.577
 9918SOL    HW130653   4.356   2.227   2.652
 9918SOL    HW230654   4.394   2.091   2.570
 9919SOL     OW30655   6.724   6.575   0.808
 9919SOL    HW130656   6.804   6.526   0.774
 9919SOL    HW230657   6.690   6.636   0.737
 9920SOL     OW30658   4.815   1.534   2.045
 9920SOL    HW130659   4.793   1.572   1.955
 9920SOL    HW230660   4.909   1.499   2.044
 9921SOL     OW30661   3.469   5.609   5.889
 9921SOL    HW130662   3.506   5.698   5.915
 9921SOL    HW230663   3.427   5.566   5.969
 9922SOL     OW30664   0.512   5.001   0.550
 9922SOL    HW130665   0.530   4.942   0.471
 9922SOL    HW230666   0.571   5.082   0.545
 9923SOL     OW30667   5.245   4.861   0.985
 9923SOL    HW130668   5.296   4.779   0.960
 9923SOL    HW230669   5.194   4.843   1.070
 9924SOL     OW30670   0.497   4.000   4.929
 9924SOL    HW130671   0.527   4.043   5.014
 9924SOL    HW230672   0.503   3.901   4.938
 9925SOL     OW30673   5.472   2.726   3.986
 9925SOL    HW130674   5.441   2.694   3.896
 9925SOL    HW230675   5.513   2.816   3.977
 9926SOL     OW30676   2.414   5.051   0.008
 9926SOL    HW130677   2.356   4.991   0.064
 9926SOL    HW230678   2.445   5.001   6.950
 9927SOL     OW30679   5.995   0.065   2.982
 9927SOL    HW130680   5.952   7.001   2.959
 9927SOL    HW230681   5.966   0.093   3.074
 9928SOL     OW30682   4.927   4.446   1.750
 9928SOL    HW130683   4.970   4.439   1.840
 9928SOL    HW230684   4.831   4.471   1.760
 9929SOL     OW30685   1.557   4.323   2.687
 9929SOL    HW130686   1.604   4.265   2.752
 9929SOL    HW230687   1.463   4.339   2.717
 9930SOL     OW30688   6.936   0.242   3.849
 9930SOL    HW130689   6.985   0.204   3.771
 9930SOL    HW230690   6.852   0.190   3.866
 9931SOL     OW30691   0.610   4.804   5.707
 9931SOL    HW130692   0.526   4.850   5.734
 9931SOL    HW230693   0.684   4.871   5.701
 9932SOL     OW30694   1.201   6.578   5.128
 9932SOL    HW130695   1.175   6.513   5.057
 9932SOL    HW230696   1.132   6.579   5.200
 9933SOL     OW30697   0.050   6.110   1.966
 9933SOL    HW130698   0.086   6.174   1.898
 9933SOL    HW230699   7.003   6.156   2.021
 9934SOL     OW30700   6.653   2.446   6.454
 9934SOL    HW130701   6.659   2.377   6.382
 9934SOL    HW230702   6.557   2.468   6.471
 9935SOL     OW30703   3.166   0.814   6.189
 9935SOL    HW130704   3.250   0.765   6.166
 9935SOL    HW230705   3.145   0.880   6.117
 9936SOL     OW30706   0.828   4.698   4.030
 9936SOL    HW130707   0.918   4.742   4.028
 9936SOL    HW230708   0.790   4.705   4.122
 9937SOL     OW30709   6.620   2.402   6.713
 9937SOL    HW130710   6.644   2.423   6.618
 9937SOL    HW230711   6.544   2.460   6.741
 9938SOL     OW30712   6.729   6.342   2.442
 9938SOL    HW130713   6.645   6.289   2.451
 9938SOL    HW230714   6.708   6.436   2.414
 9939SOL     OW30715   3.423   2.846   2.491
 9939SOL    HW130716   3.391   2.761   2.449
 9939SOL    HW230717   3.482   2.895   2.426
 9940SOL     OW30718   6.925   0.966   0.379
 9940SOL    HW130719   6.933   0.885   0.321
 9940SOL    HW230720   6.866   1.033   0.334
 9941SOL     OW30721   2.852   5.065   5.632
 9941SOL    HW130722   2.882   5.041   5.539
 9941SOL    HW230723   2.805   5.153   5.630
 9942SOL     OW30724   2.871   5.316   3.629
 9942SOL    HW130725   2.890   5.229   3.673
 9942SOL    HW230726   2.942   5.336   3.562
 9943SOL     OW30727   1.183   6.897   4.905
 9943SOL    HW130728   1.094   6.913   4.948
 9943SOL    HW230729   1.255   6.942   4.959
 9944SOL     OW30730   1.200   3.694   0.042
 9944SOL    HW130731   1.190   3.618   0.106
 9944SOL    HW230732   1.130   3.686   6.994
 9945SOL     OW30733   6.518   5.828   6.833
 9945SOL    HW130734   6.501   5.749   6.774
 9945SOL    HW230735   6.607   5.868   6.810
 9946SOL     OW30736   5.087   1.406   4.951
 9946SOL    HW130737   5.111   1.458   4.869
 9946SOL    HW230738   5.079   1.467   5.029
 9947SOL     OW30739   5.867   4.671   3.508
 9947SOL    HW130740   5.833   4.752   3.460
 9947SOL    HW230741   5.802   4.646   3.580
 9948SOL     OW30742   5.221   4.137   4.186
 9948SOL    HW130743   5.170   4.108   4.267
 9948SOL    HW230744   5.163   4.132   4.105
 9949SOL     OW30745   5.831   5.349   2.694
 9949SOL    HW130746   5.742   5.305   2.701
 9949SOL    HW230747   5.903   5.279   2.691
 9950SOL     OW30748   3.369   6.130   5.608
 9950SOL    HW130749   3.327   6.105   5.695
 9950SOL    HW230750   3.378   6.230   5.604
 9951SOL     OW30751   5.940   2.204   3.102
 9951SOL    HW130752   5.866   2.196   3.168
 9951SOL    HW230753   5.966   2.300   3.092
 9952SOL     OW30754   0.392   5.243   0.305
 9952SOL    HW130755   0.490   5.233   0.287
 9952SOL    HW230756   0.377   5.257   0.403
 9953SOL     OW30757   6.587   2.452   3.854
 9953SOL    HW130758   6.571   2.502   3.939
 9953SOL    HW230759   6.616   2.359   3.876
 9954SOL     OW30760   4.445   0.463   5.525
 9954SOL    HW130761   4.410   0.513   5.445
 9954SOL    HW230762   4.450   0.365   5.503
 9955SOL     OW30763   0.661   4.418   4.453
 9955SOL    HW130764   0.711   4.427   4.367
 9955SOL    HW230765   0.653   4.322   4.478
 9956SOL     OW30766   0.775   6.172   0.742
 9956SOL    HW130767   0.859   6.128   0.774
 9956SOL    HW230768   0.696   6.118   0.771
 9957SOL     OW30769   6.464   4.754   2.615
 9957SOL    HW130770   6.467   4.838   2.561
 9957SOL    HW230771   6.440   4.677   2.555
 9958SOL     OW30772   2.135   4.103   0.822
 9958SOL    HW130773   2.198   4.026   0.807
 9958SOL    HW230774   2.171   4.184   0.775
 9959SOL     OW30775   3.634   3.451   1.249
 9959SOL    HW130776   3.733   3.468   1.243
 9959SOL    HW230777   3.618   3.370   1.305
 9960SOL     OW30778   0.722   1.448   2.164
 9960SOL    HW130779   0.628   1.424   2.139
 9960SOL    HW230780   0.786   1.391   2.112
 9961SOL     OW30781   2.256   4.463   4.611
 9961SOL    HW130782   2.245   4.459   4.710
 9961SOL    HW230783   2.232   4.375   4.571
 9962SOL     OW30784   5.335   6.400   4.803
 9962SOL    HW130785   5.346   6.491   4.843
 9962SOL    HW230786   5.424   6.361   4.782
 9963SOL     OW30787   3.259   0.698   0.680
 9963SOL    HW130788   3.311   0.717   0.596
 9963SOL    HW230789   3.323   0.674   0.753
 9964SOL     OW30790   4.976   5.748   5.053
 9964SOL    HW130791   4.889   5.709   5.024
 9964SOL    HW230792   4.959   5.826   5.114
 9965SOL     OW30793   4.003   0.250   0.161
 9965SOL    HW130794   3.920   0.288   0.121
 9965SOL    HW230795   4.029   0.167   0.112
 9966SOL     OW30796   6.995   6.957   3.007
 9966SOL    HW130797   6.945   0.003   2.955
 9966SOL    HW230798   6.988   6.869   2.960
 9967SOL     OW30799   1.117   5.241   0.232
 9967SOL    HW130800   1.170   5.210   0.311
 9967SOL    HW230801   1.122   5.172   0.160
 9968SOL     OW30802   3.182   3.181   2.586
 9968SOL    HW130803   3.117   3.142   2.520
 9968SOL    HW230804   3.131   3.233   2.655
 9969SOL     OW30805   1.485   3.304   1.721
 9969SOL    HW130806   1.404   3.266   1.676
 9969SOL    HW230807   1.534   3.363   1.658
 9970SOL     OW30808   5.952   4.728   1.479
 9970SOL    HW130809   5.983   4.637   1.508
 9970SOL    HW230810   5.983   4.796   1.546
 9971SOL     OW30811   2.406   6.083   0.187
 9971SOL    HW130812   2.308   6.103   0.191
 9971SOL    HW230813   2.458   6.166   0.209
 9972SOL     OW30814   6.996   4.855   1.456
 9972SOL    HW130815   6.923   4.802   1.413
 9972SOL    HW230816   0.034   4.794   1.506
 9973SOL     OW30817   5.493   0.077   4.173
 9973SOL    HW130818   5.571   0.079   4.237
 9973SOL    HW230819   5.521   0.032   4.088
 9974SOL     OW30820   2.288   0.763   4.130
 9974SOL    HW130821   2.320   0.813   4.211
 9974SOL    HW230822   2.199   0.800   4.102
 9975SOL     OW30823   6.845   3.511   0.592
 9975SOL    HW130824   6.779   3.571   0.638
 9975SOL    HW230825   6.867   3.434   0.652
 9976SOL     OW30826   2.237   0.100   5.411
 9976SOL    HW130827   2.320   0.151   5.431
 9976SOL    HW230828   2.216   0.039   5.488
 9977SOL     OW30829   6.420   4.415   4.253
 9977SOL    HW130830   6.465   4.493   4.296
 9977SOL    HW230831   6.465   4.393   4.167
 9978SOL     OW30832   0.176   2.842   4.615
 9978SOL    HW130833   0.084   2.880   4.605
 9978SOL    HW230834   0.171   2.758   4.669
 9979SOL     OW30835   0.910   3.984   5.234
 9979SOL    HW130836   0.979   3.968   5.164
 9979SOL    HW230837   0.954   4.006   5.321
 9980SOL     OW30838   3.259   6.869   5.155
 9980SOL    HW130839   3.220   6.784   5.192
 9980SOL    HW230840   3.357   6.872   5.175
 9981SOL     OW30841   3.385   2.031   4.139
 9981SOL    HW130842   3.320   2.063   4.208
 9981SOL    HW230843   3.422   1.942   4.167
 9982SOL     OW30844   6.401   6.064   2.931
 9982SOL    HW130845   6.376   5.997   3.001
 9982SOL    HW230846   6.410   6.018   2.842
 9983SOL     OW30847   7.003   1.271   1.336
 9983SOL    HW130848   6.923   1.221   1.368
 9983SOL    HW230849   0.050   1.205   1.305
 9984SOL     OW30850   2.716   0.905   0.271
 9984SOL    HW130851   2.675   0.996   0.265
 9984SOL    HW230852   2.644   0.838   0.288
 9985SOL     OW30853   1.225   1.376   2.032
 9985SOL    HW130854   1.248   1.309   1.961
 9985SOL    HW230855   1.267   1.464   2.011
 9986SOL     OW30856   4.993   4.257   4.824
 9986SOL    HW130857   4.903   4.251   4.868
 9986SOL    HW230858   5.051   4.184   4.859
 9987SOL     OW30859   0.091   4.479   5.969
 9987SOL    HW130860   7.014   4.474   5.981
 9987SOL    HW230861   0.133   4.505   6.056
 9988SOL     OW30862   6.588   6.939   4.807
 9988SOL    HW130863   6.597   6.910   4.711
 9988SOL    HW230864   6.492   6.941   4.832
 9989SOL     OW30865   1.036   2.942   4.700
 9989SOL    HW130866   1.043   3.031   4.745
 9989SOL    HW230867   1.114   2.929   4.639
 9990SOL     OW30868   1.281   5.134   1.990
 9990SOL    HW130869   1.320   5.162   2.078
 9990SOL    HW230870   1.238   5.044   2.000
 9991SOL     OW30871   4.172   2.079   3.264
 9991SOL    HW130872   4.129   2.152   3.212
 9991SOL    HW230873   4.188   2.109   3.358
 9992SOL     OW30874   6.719   5.623   6.304
 9992SOL    HW130875   6.681   5.715   6.316
 9992SOL    HW230876   6.812   5.630   6.269
 9993SOL     OW30877   1.015   0.789   1.921
 9993SOL    HW130878   0.957   0.832   1.852
 9993SOL    HW230879   1.055   0.860   1.980
 9994SOL     OW30880   6.028   4.954   3.113
 9994SOL    HW130881   5.956   5.015   3.146
 9994SOL    HW230882   6.092   4.934   3.187
 9995SOL     OW30883   4.814   1.490   4.444
 9995SOL    HW130884   4.841   1.453   4.533
 9995SOL    HW230885   4.729   1.447   4.415
 9996SOL     OW30886   2.553   3.152   6.886
 9996SOL    HW130887   2.623   3.180   6.820
 9996SOL    HW230888   2.470   3.125   6.838
 9997SOL     OW30889   2.779   0.205   4.713
 9997SOL    HW130890   2.873   0.216   4.743
 9997SOL    HW230891   2.773   0.127   4.651
 9998SOL     OW30892   5.767   6.513   5.497
 9998SOL    HW130893   5.818   6.527   5.582
 9998SOL    HW230894   5.705   6.435   5.508
 9999SOL     OW30895   6.877   2.589   4.711
 9999SOL    HW130896   6.830   2.582   4.623
 9999SOL    HW230897   6.826   2.649   4.772
10000SOL     OW30898   6.799   4.334   0.047
10000SOL    HW130899   6.752   4.263   0.098
10000SOL    HW230900   6.889   4.300   0.018
10001SOL     OW30901   3.952   0.211   3.243
10001SOL    HW130902   4.038   0.195   3.291
10001SOL    HW230903   3.893   0.270   3.299
10002SOL     OW30904   1.319   1.655   1.928
10002SOL    HW130905   1.317   1.678   1.831
10002SOL    HW230906   1.237   1.692   1.973
10003SOL     OW30907   5.443   2.736   3.708
10003SOL    HW130908   5.473   2.805   3.643
10003SOL    HW230909   5.350   2.707   3.685
10004SOL     OW30910   0.316   2.120   2.688
10004SOL    HW130911   0.361   2.066   2.760
10004SOL    HW230912   0.252   2.184   2.729
10005SOL     OW30913   5.411   6.953   4.503
10005SOL    HW130914   5.333   7.002   4.463
10005SOL    HW230915   5.378   6.870   4.550
10006SOL     OW30916   4.472   1.367   4.734
10006SOL    HW130917   4.491   1.317   4.650
10006SOL    HW230918   4.426   1.453   4.713
10007SOL     OW30919   6.482   3.567   3.847
10007SOL    HW130920   6.494   3.475   3.884
10007SOL    HW230921   6.569   3.617   3.855
10008SOL     OW30922   3.667   6.546   4.104
10008SOL    HW130923   3.587   6.600   4.131
10008SOL    HW230924   3.748   6.604   4.100
10009SOL     OW30925   1.386   4.332   1.710
10009SOL    HW130926   1.313   4.293   1.654
10009SOL    HW230927   1.362   4.322   1.807
10010SOL     OW30928   6.373   1.677   6.434
10010SOL    HW130929   6.473   1.685   6.430
10010SOL    HW230930   6.333   1.725   6.356
10011SOL     OW30931   6.955   6.849   4.368
10011SOL    HW130932   6.950   6.909   4.448
10011SOL    HW230933   6.996   6.899   4.292
10012SOL     OW30934   5.575   0.626   4.568
10012SOL    HW130935   5.550   0.622   4.471
10012SOL    HW230936   5.632   0.707   4.584
10013SOL     OW30937   1.445   1.015   2.041
10013SOL    HW130938   1.478   1.091   2.097
10013SOL    HW230939   1.450   0.930   2.093
10014SOL     OW30940   1.585   5.000   6.186
10014SOL    HW130941   1.546   4.910   6.169
10014SOL    HW230942   1.681   5.001   6.159
10015SOL     OW30943   2.399   4.691   6.759
10015SOL    HW130944   2.314   4.676   6.810
10015SOL    HW230945   2.411   4.620   6.691
10016SOL     OW30946   2.739   0.506   5.174
10016SOL    HW130947   2.751   0.600   5.142
10016SOL    HW230948   2.672   0.459   5.116
10017SOL     OW30949   0.726   2.197   4.001
10017SOL    HW130950   0.761   2.170   4.091
10017SOL    HW230951   0.796   2.178   3.932
10018SOL     OW30952   5.026   6.708   5.847
10018SOL    HW130953   4.959   6.747   5.911
10018SOL    HW230954   4.980   6.645   5.785
10019SOL     OW30955   1.749   1.018   2.325
10019SOL    HW130956   1.684   1.091   2.300
10019SOL    HW230957   1.808   0.998   2.247
10020SOL     OW30958   0.274   3.018   7.018
10020SOL    HW130959   0.274   3.118   7.018
10020SOL    HW230960   0.194   2.986   0.045
10021SOL     OW30961   5.433   3.325   2.015
10021SOL    HW130962   5.362   3.395   2.021
10021SOL    HW230963   5.391   3.234   2.022
10022SOL     OW30964   1.699   0.556   6.420
10022SOL    HW130965   1.640   0.636   6.406
10022SOL    HW230966   1.790   0.576   6.383
10023SOL     OW30967   0.469   3.221   1.062
10023SOL    HW130968   0.539   3.189   0.997
10023SOL    HW230969   0.414   3.144   1.093
10024SOL     OW30970   1.254   4.550   3.389
10024SOL    HW130971   1.206   4.466   3.414
10024SOL    HW230972   1.224   4.625   3.448
10025SOL     OW30973   1.019   1.064   0.544
10025SOL    HW130974   0.975   1.004   0.477
10025SOL    HW230975   1.059   1.008   0.617
10026SOL     OW30976   6.883   0.478   3.991
10026SOL    HW130977   6.973   0.513   4.014
10026SOL    HW230978   6.893   0.397   3.932
10027SOL     OW30979   5.307   2.493   6.107
10027SOL    HW130980   5.347   2.429   6.041
10027SOL    HW230981   5.228   2.450   6.152
10028SOL     OW30982   1.780   0.820   1.463
10028SOL    HW130983   1.713   0.760   1.421
10028SOL    HW230984   1.764   0.824   1.562
10029SOL     OW30985   4.638   1.352   4.238
10029SOL    HW130986   4.658   1.416   4.164
10029SOL    HW230987   4.656   1.259   4.207
10030SOL     OW30988   1.407   0.726   2.990
10030SOL    HW130989   1.388   0.824   2.993
10030SOL    HW230990   1.342   0.682   2.928
10031SOL     OW30991   6.686   4.598   3.983
10031SOL    HW130992   6.765   4.602   4.045
10031SOL    HW230993   6.625   4.525   4.012
10032SOL     OW30994   3.239   1.212   4.981
10032SOL    HW130995   3.262   1.270   4.903
10032SOL    HW230996   3.317   1.210   5.044
10033SOL     OW30997   5.157   2.899   4.475
10033SOL    HW130998   5.219   2.892   4.553
10033SOL    HW230999   5.063   2.906   4.508
10034SOL     OW31000   4.081   0.181   6.091
10034SOL    HW131001   4.169   0.184   6.139
10034SOL    HW231002   4.094   0.205   5.995
10035SOL     OW31003   0.138   6.319   3.393
10035SOL    HW131004   0.187   6.291   3.476
10035SOL    HW231005   0.203   6.329   3.318
10036SOL     OW31006   6.742   0.290   0.136
10036SOL    HW131007   6.720   0.376   0.182
10036SOL    HW231008   6.839   0.269   0.147
10037SOL     OW31009   6.953   6.854   1.110
10037SOL    HW131010   6.966   6.824   1.205
10037SOL    HW231011   6.856   6.845   1.086
10038SOL     OW31012   6.150   0.263   0.803
10038SOL    HW131013   6.139   0.343   0.862
10038SOL    HW231014   6.065   0.209   0.804
10039SOL     OW31015   3.991   0.692   3.014
10039SOL    HW131016   4.022   0.709   3.108
10039SOL    HW231017   3.950   0.601   3.009
10040SOL     OW31018   0.180   2.237   1.122
10040SOL    HW131019   0.164   2.212   1.027
10040SOL    HW231020   0.233   2.322   1.125
10041SOL     OW31021   1.137   6.196   0.514
10041SOL    HW131022   1.140   6.221   0.611
10041SOL    HW231023   1.183   6.109   0.501
10042SOL     OW31024   5.991   1.772   3.578
10042SOL    HW131025   6.061   1.798   3.511
10042SOL    HW231026   6.014   1.682   3.617
10043SOL     OW31027   0.980   3.380   5.004
10043SOL    HW131028   0.941   3.419   4.921
10043SOL    HW231029   1.057   3.436   5.034
10044SOL     OW31030   4.187   2.046   6.342
10044SOL    HW131031   4.099   2.000   6.354
10044SOL    HW231032   4.227   2.066   6.432
10045SOL     OW31033   2.397   0.858   0.861
10045SOL    HW131034   2.388   0.764   0.893
10045SOL    HW231035   2.462   0.907   0.919
10046SOL     OW31036   0.964   5.075   1.162
10046SOL    HW131037   0.907   5.033   1.232
10046SOL    HW231038   0.938   5.172   1.152
10047SOL     OW31039   1.411   3.312   0.302
10047SOL    HW131040   1.508   3.318   0.280
10047SOL    HW231041   1.371   3.232   0.256
10048SOL     OW31042   5.665   4.861   2.275
10048SOL    HW131043   5.685   4.920   2.197
10048SOL    HW231044   5.595   4.795   2.250
10049SOL     OW31045   5.575   1.545   4.833
10049SOL    HW131046   5.580   1.459   4.782
10049SOL    HW231047   5.479   1.565   4.853
10050SOL     OW31048   6.984   3.055   5.742
10050SOL    HW131049   6.968   3.085   5.836
10050SOL    HW231050   0.057   3.072   5.717
10051SOL     OW31051   2.192   1.351   4.599
10051SOL    HW131052   2.161   1.272   4.651
10051SOL    HW231053   2.216   1.425   4.663
10052SOL     OW31054   1.159   0.350   3.655
10052SOL    HW131055   1.147   0.301   3.742
10052SOL    HW231056   1.235   0.414   3.663
10053SOL     OW31057   5.960   5.336   3.019
10053SOL    HW131058   6.013   5.411   2.981
10053SOL    HW231059   5.956   5.261   2.953
10054SOL     OW31060   6.905   3.836   4.177
10054SOL    HW131061   6.898   3.796   4.085
10054SOL    HW231062   6.821   3.886   4.197
10055SOL     OW31063   1.522   1.771   6.434
10055SOL    HW131064   1.510   1.868   6.413
10055SOL    HW231065   1.582   1.761   6.513
10056SOL     OW31066   6.128   2.362   4.519
10056SOL    HW131067   6.171   2.426   4.454
10056SOL    HW231068   6.199   2.303   4.558
10057SOL     OW31069   5.309   4.977   5.766
10057SOL    HW131070   5.304   4.972   5.866
10057SOL    HW231071   5.223   4.944   5.727
10058SOL     OW31072   0.084   4.219   4.791
10058SOL    HW131073   0.141   4.181   4.865
10058SOL    HW231074   0.109   4.176   4.705
10059SOL     OW31075   5.435   6.731   6.615
10059SOL    HW131076   5.510   6.665   6.624
10059SOL    HW231077   5.412   6.742   6.518
10060SOL     OW31078   2.977   1.805   1.593
10060SOL    HW131079   3.029   1.879   1.551
10060SOL    HW231080   3.025   1.771   1.674
10061SOL     OW31081   3.166   0.187   2.299
10061SOL    HW131082   3.209   0.121   2.237
10061SOL    HW231083   3.182   0.159   2.394
10062SOL     OW31084   6.782   0.086   4.914
10062SOL    HW131085   6.724   0.025   4.861
10062SOL    HW231086   6.803   0.045   5.002
10063SOL     OW31087   2.948   2.214   4.433
10063SOL    HW131088   2.868   2.264   4.400
10063SOL    HW231089   2.966   2.236   4.528
10064SOL     OW31090   2.830   0.364   2.165
10064SOL    HW131091   2.755   0.429   2.148
10064SOL    HW231092   2.825   0.290   2.098
10065SOL     OW31093   0.037   2.099   1.531
10065SOL    HW131094   0.006   2.065   1.442
10065SOL    HW231095   0.124   2.147   1.520
10066SOL     OW31096   6.593   4.670   3.443
10066SOL    HW131097   6.660   4.612   3.397
10066SOL    HW231098   6.506   4.620   3.450
10067SOL     OW31099   6.493   3.861   4.802
10067SOL    HW131100   6.443   3.789   4.850
10067SOL    HW231101   6.590   3.856   4.828
10068SOL     OW31102   1.666   2.664   2.225
10068SOL    HW131103   1.739   2.621   2.171
10068SOL    HW231104   1.577   2.632   2.193
10069SOL     OW31105   3.251   5.015   1.358
10069SOL    HW131106   3.286   4.944   1.296
10069SOL    HW231107   3.167   5.054   1.320
10070SOL     OW31108   5.318   0.273   0.714
10070SOL    HW131109   5.395   0.314   0.762
10070SOL    HW231110   5.326   0.173   0.717
10071SOL     OW31111   5.014   1.033   5.454
10071SOL    HW131112   5.099   1.055   5.406
10071SOL    HW231113   5.031   1.027   5.552
10072SOL     OW31114   6.310   2.901   2.016
10072SOL    HW131115   6.319   2.808   1.980
10072SOL    HW231116   6.214   2.920   2.035
10073SOL     OW31117   5.492   5.742   5.102
10073SOL    HW131118   5.547   5.823   5.125
10073SOL    HW231119   5.543   5.660   5.126
10074SOL     OW31120   2.057   4.885   0.466
10074SOL    HW131121   1.973   4.832   0.480
10074SOL    HW231122   2.097   4.861   0.377
10075SOL     OW31123   1.270   2.926   1.652
10075SOL    HW131124   1.179   2.966   1.654
10075SOL    HW231125   1.281   2.874   1.567
10076SOL     OW31126   5.630   4.186   4.150
10076SOL    HW131127   5.621   4.102   4.097
10076SOL    HW231128   5.718   4.229   4.131
10077SOL     OW31129   4.430   3.656   6.665
10077SOL    HW131130   4.488   3.595   6.719
10077SOL    HW231131   4.450   3.751   6.689
10078SOL     OW31132   6.087   5.429   4.754
10078SOL    HW131133   5.993   5.436   4.720
10078SOL    HW231134   6.093   5.353   4.819
10079SOL     OW31135   5.141   4.560   3.237
10079SOL    HW131136   5.137   4.606   3.326
10079SOL    HW231137   5.067   4.593   3.179
10080SOL     OW31138   5.078   1.926   5.691
10080SOL    HW131139   5.165   1.942   5.645
10080SOL    HW231140   5.011   1.993   5.659
10081SOL     OW31141   1.103   4.627   6.905
10081SOL    HW131142   1.041   4.602   6.831
10081SOL    HW231143   1.149   4.712   6.882
10082SOL     OW31144   1.387   4.538   1.049
10082SOL    HW131145   1.383   4.468   0.978
10082SOL    HW231146   1.476   4.584   1.045
10083SOL     OW31147   2.892   6.134   2.473
10083SOL    HW131148   2.899   6.187   2.388
10083SOL    HW231149   2.843   6.188   2.542
10084SOL     OW31150   1.940   2.740   4.163
10084SOL    HW131151   1.912   2.782   4.249
10084SOL    HW231152   1.880   2.663   4.142
10085SOL     OW31153   4.752   0.081   2.036
10085SOL    HW131154   4.842   0.039   2.023
10085SOL    HW231155   4.684   0.009   2.051
10086SOL     OW31156   3.951   6.848   2.965
10086SOL    HW131157   3.874   6.902   2.929
10086SOL    HW231158   3.916   6.782   3.032
10087SOL     OW31159   1.497   6.106   5.117
10087SOL    HW131160   1.522   6.018   5.076
10087SOL    HW231161   1.437   6.156   5.055
10088SOL     OW31162   6.259   2.675   0.956
10088SOL    HW131163   6.223   2.584   0.933
10088SOL    HW231164   6.195   2.722   1.017
10089SOL     OW31165   4.177   6.880   1.994
10089SOL    HW131166   4.081   6.858   1.978
10089SOL    HW231167   4.186   6.927   2.082
10090SOL     OW31168   1.585   5.956   2.781
10090SOL    HW131169   1.523   6.028   2.811
10090SOL    HW231170   1.656   5.996   2.723
10091SOL     OW31171   5.222   5.136   4.426
10091SOL    HW131172   5.240   5.130   4.328
10091SOL    HW231173   5.308   5.144   4.476
10092SOL     OW31174   0.664   1.607   2.630
10092SOL    HW131175   0.707   1.587   2.542
10092SOL    HW231176   0.644   1.522   2.678
10093SOL     OW31177   4.197   4.113   6.379
10093SOL    HW131178   4.209   4.019   6.346
10093SOL    HW231179   4.287   4.157   6.388
10094SOL     OW31180   3.663   2.103   0.577
10094SOL    HW131181   3.633   2.025   0.523
10094SOL    HW231182   3.671   2.184   0.518
10095SOL     OW31183   4.046   3.529   5.528
10095SOL    HW131184   4.043   3.480   5.441
10095SOL    HW231185   3.986   3.485   5.594
10096SOL     OW31186   6.786   3.997   2.284
10096SOL    HW131187   6.743   3.963   2.368
10096SOL    HW231188   6.855   3.932   2.253
10097SOL     OW31189   1.025   1.449   0.896
10097SOL    HW131190   1.034   1.492   0.986
10097SOL    HW231191   1.109   1.466   0.843
10098SOL     OW31192   3.375   6.145   5.324
10098SOL    HW131193   3.361   6.149   5.423
10098SOL    HW231194   3.352   6.233   5.284
10099SOL     OW31195   0.264   5.383   3.511
10099SOL    HW131196   0.341   5.404   3.451
10099SOL    HW231197   0.210   5.466   3.527
10100SOL     OW31198   4.789   4.623   4.087
10100SOL    HW131199   4.837   4.537   4.068
10100SOL    HW231200   4.768   4.629   4.184
10101SOL     OW31201   7.012   2.502   0.446
10101SOL    HW131202   6.946   2.492   0.520
10101SOL    HW231203   6.963   2.505   0.358
10102SOL     OW31204   6.536   4.935   3.441
10102SOL    HW131205   6.441   4.952   3.464
10102SOL    HW231206   6.556   4.837   3.449
10103SOL     OW31207   0.330   6.645   6.701
10103SOL    HW131208   0.297   6.615   6.612
10103SOL    HW231209   0.380   6.731   6.691
10104SOL     OW31210   3.168   0.694   4.479
10104SOL    HW131211   3.142   0.716   4.573
10104SOL    HW231212   3.106   0.625   4.443
10105SOL     OW31213   3.153   1.389   3.612
10105SOL    HW131214   3.177   1.385   3.709
10105SOL    HW231215   3.177   1.302   3.569
10106SOL     OW31216   5.896   4.121   1.764
10106SOL    HW131217   5.897   4.184   1.687
10106SOL    HW231218   5.806   4.124   1.809
10107SOL     OW31219   5.471   5.487   6.322
10107SOL    HW131220   5.568   5.510   6.309
10107SOL    HW231221   5.422   5.569   6.350
10108SOL     OW31222   2.446   2.560   4.915
10108SOL    HW131223   2.424   2.607   4.830
10108SOL    HW231224   2.434   2.622   4.992
10109SOL     OW31225   1.264   3.448   1.073
10109SOL    HW131226   1.279   3.419   1.167
10109SOL    HW231227   1.296   3.542   1.061
10110SOL     OW31228   6.570   6.190   2.220
10110SOL    HW131229   6.599   6.266   2.162
10110SOL    HW231230   6.622   6.191   2.305
10111SOL     OW31231   6.241   2.605   1.851
10111SOL    HW131232   6.234   2.506   1.837
10111SOL    HW231233   6.333   2.636   1.828
10112SOL     OW31234   6.993   2.824   3.940
10112SOL    HW131235   0.053   2.869   3.906
10112SOL    HW231236   6.926   2.818   3.866
10113SOL     OW31237   6.718   6.403   5.709
10113SOL    HW131238   6.694   6.364   5.620
10113SOL    HW231239   6.635   6.427   5.759
10114SOL     OW31240   5.247   3.539   2.051
10114SOL    HW131241   5.276   3.619   1.999
10114SOL    HW231242   5.148   3.545   2.069
10115SOL     OW31243   3.628   2.894   6.388
10115SOL    HW131244   3.571   2.963   6.342
10115SOL    HW231245   3.598   2.883   6.482
10116SOL     OW31246   0.480   0.207   6.266
10116SOL    HW131247   0.503   0.297   6.304
10116SOL    HW231248   0.412   0.218   6.194
10117SOL     OW31249   0.205   4.612   1.242
10117SOL    HW131250   0.120   4.587   1.197
10117SOL    HW231251   0.279   4.553   1.209
10118SOL     OW31252   4.127   4.752   3.712
10118SOL    HW131253   4.091   4.686   3.779
10118SOL    HW231254   4.095   4.844   3.735
10119SOL     OW31255   5.993   6.139   6.889
10119SOL    HW131256   6.032   6.177   6.973
10119SOL    HW231257   5.949   6.213   6.837
10120SOL     OW31258   2.522   2.372   2.551
10120SOL    HW131259   2.451   2.305   2.530
10120SOL    HW231260   2.612   2.332   2.533
10121SOL     OW31261   6.384   5.467   1.703
10121SOL    HW131262   6.376   5.564   1.725
10121SOL    HW231263   6.310   5.416   1.747
10122SOL     OW31264   2.141   0.196   3.403
10122SOL    HW131265   2.182   0.111   3.435
10122SOL    HW231266   2.117   0.187   3.306
10123SOL     OW31267   6.274   6.203   6.302
10123SOL    HW131268   6.280   6.103   6.306
10123SOL    HW231269   6.366   6.242   6.293
10124SOL     OW31270   2.722   5.288   2.085
10124SOL    HW131271   2.784   5.291   2.164
10124SOL    HW231272   2.646   5.351   2.101
10125SOL     OW31273   1.433   0.894   5.149
10125SOL    HW131274   1.437   0.811   5.093
10125SOL    HW231275   1.520   0.942   5.144
10126SOL     OW31276   6.636   6.277   5.014
10126SOL    HW131277   6.695   6.358   5.012
10126SOL    HW231278   6.545   6.301   4.981
10127SOL     OW31279   2.506   0.012   5.920
10127SOL    HW131280   2.552   6.953   5.953
10127SOL    HW231281   2.533   0.030   5.825
10128SOL     OW31282   2.449   1.970   6.906
10128SOL    HW131283   2.538   1.976   6.949
10128SOL    HW231284   2.458   1.926   6.816
10129SOL     OW31285   6.735   2.371   5.024
10129SOL    HW131286   6.757   2.357   5.120
10129SOL    HW231287   6.813   2.341   4.968
10130SOL     OW31288   1.646   2.310   3.438
10130SOL    HW131289   1.709   2.380   3.473
10130SOL    HW231290   1.698   2.240   3.390
10131SOL     OW31291   1.752   0.306   5.194
10131SOL    HW131292   1.838   0.253   5.192
10131SOL    HW231293   1.678   0.247   5.224
10132SOL     OW31294   5.702   0.699   2.631
10132SOL    HW131295   5.659   0.696   2.721
10132SOL    HW231296   5.634   0.723   2.562
10133SOL     OW31297   4.292   5.797   1.487
10133SOL    HW131298   4.378   5.848   1.490
10133SOL    HW231299   4.260   5.790   1.393
10134SOL     OW31300   0.102   6.007   3.235
10134SOL    HW131301   0.181   6.067   3.218
10134SOL    HW231302   0.046   6.001   3.152
10135SOL     OW31303   6.582   6.334   3.625
10135SOL    HW131304   6.620   6.410   3.676
10135SOL    HW231305   6.639   6.253   3.638
10136SOL     OW31306   4.706   0.888   3.733
10136SOL    HW131307   4.659   0.961   3.783
10136SOL    HW231308   4.720   0.810   3.794
10137SOL     OW31309   6.954   5.821   4.338
10137SOL    HW131310   7.008   5.747   4.378
10137SOL    HW231311   6.996   5.849   4.252
10138SOL     OW31312   0.121   2.398   1.773
10138SOL    HW131313   0.090   2.380   1.866
10138SOL    HW231314   0.201   2.342   1.753
10139SOL     OW31315   4.294   3.033   0.232
10139SOL    HW131316   4.357   3.030   0.310
10139SOL    HW231317   4.345   3.021   0.147
10140SOL     OW31318   6.461   5.948   5.247
10140SOL    HW131319   6.425   5.936   5.340
10140SOL    HW231320   6.540   5.888   5.234
10141SOL     OW31321   1.914   2.036   5.036
10141SOL    HW131322   1.816   2.046   5.056
10141SOL    HW231323   1.956   1.978   5.105
10142SOL     OW31324   4.840   5.714   2.217
10142SOL    HW131325   4.791   5.643   2.166
10142SOL    HW231326   4.801   5.721   2.309
10143SOL     OW31327   5.778   3.364   6.288
10143SOL    HW131328   5.801   3.296   6.218
10143SOL    HW231329   5.705   3.424   6.253
10144SOL     OW31330   3.473   0.591   0.838
10144SOL    HW131331   3.521   0.582   0.751
10144SOL    HW231332   3.428   0.504   0.861
10145SOL     OW31333   6.325   0.170   5.234
10145SOL    HW131334   6.406   0.226   5.250
10145SOL    HW231335   6.303   0.170   5.136
10146SOL     OW31336   1.592   2.693   5.672
10146SOL    HW131337   1.574   2.621   5.605
10146SOL    HW231338   1.649   2.656   5.746
10147SOL     OW31339   3.596   5.260   0.430
10147SOL    HW131340   3.504   5.286   0.400
10147SOL    HW231341   3.590   5.181   0.491
10148SOL     OW31342   0.523   5.297   6.332
10148SOL    HW131343   0.529   5.198   6.323
10148SOL    HW231344   0.534   5.322   6.428
10149SOL     OW31345   3.625   2.905   2.842
10149SOL    HW131346   3.716   2.879   2.810
10149SOL    HW231347   3.567   2.926   2.763
10150SOL     OW31348   4.825   4.264   1.557
10150SOL    HW131349   4.877   4.310   1.629
10150SOL    HW231350   4.728   4.287   1.567
10151SOL     OW31351   0.143   0.953   6.103
10151SOL    HW131352   0.058   0.918   6.143
10151SOL    HW231353   0.128   0.972   6.006
10152SOL     OW31354   4.025   6.318   3.608
10152SOL    HW131355   4.116   6.350   3.581
10152SOL    HW231356   4.005   6.232   3.560
10153SOL     OW31357   5.035   3.480   1.507
10153SOL    HW131358   5.074   3.511   1.594
10153SOL    HW231359   5.104   3.490   1.435
10154SOL     OW31360   4.263   5.201   5.328
10154SOL    HW131361   4.203   5.216   5.250
10154SOL    HW231362   4.216   5.227   5.413
10155SOL     OW31363   4.234   1.996   4.182
10155SOL    HW131364   4.134   2.007   4.183
10155SOL    HW231365   4.259   1.929   4.112
10156SOL     OW31366   3.791   2.168   6.486
10156SOL    HW131367   3.701   2.128   6.502
10156SOL    HW231368   3.786   2.267   6.494
10157SOL     OW31369   0.984   4.640   0.780
10157SOL    HW131370   0.903   4.678   0.734
10157SOL    HW231371   1.006   4.696   0.860
10158SOL     OW31372   5.267   4.965   0.096
10158SOL    HW131373   5.282   5.007   0.006
10158SOL    HW231374   5.298   5.028   0.167
10159SOL     OW31375   3.837   2.808   1.672
10159SOL    HW131376   3.789   2.810   1.584
10159SOL    HW231377   3.850   2.713   1.700
10160SOL     OW31378   0.236   4.073   2.512
10160SOL    HW131379   0.325   4.086   2.556
10160SOL    HW231380   0.235   4.123   2.425
10161SOL     OW31381   6.013   3.258   6.466
10161SOL    HW131382   5.986   3.252   6.562
10161SOL    HW231383   5.936   3.294   6.413
10162SOL     OW31384   1.475   2.140   2.439
10162SOL    HW131385   1.487   2.237   2.416
10162SOL    HW231386   1.508   2.123   2.532
10163SOL     OW31387   3.567   5.006   4.706
10163SOL    HW131388   3.574   4.969   4.799
10163SOL    HW231389   3.598   4.937   4.641
10164SOL     OW31390   0.290   1.079   3.960
10164SOL    HW131391   0.210   1.138   3.951
10164SOL    HW231392   0.361   1.128   4.011
10165SOL     OW31393   1.547   3.425   3.726
10165SOL    HW131394   1.645   3.430   3.742
10165SOL    HW231395   1.516   3.509   3.680
10166SOL     OW31396   3.462   6.192   3.234
10166SOL    HW131397   3.492   6.101   3.208
10166SOL    HW231398   3.518   6.226   3.310
10167SOL     OW31399   3.256   2.027   6.682
10167SOL    HW131400   3.267   2.126   6.665
10167SOL    HW231401   3.320   1.977   6.623
10168SOL     OW31402   1.029   1.374   6.323
10168SOL    HW131403   0.963   1.300   6.336
10168SOL    HW231404   1.024   1.437   6.401
10169SOL     OW31405   4.413   5.504   3.131
10169SOL    HW131406   4.330   5.552   3.160
10169SOL    HW231407   4.485   5.570   3.110
10170SOL     OW31408   4.700   0.059   0.665
10170SOL    HW131409   4.766   0.082   0.736
10170SOL    HW231410   4.679   0.140   0.611
10171SOL     OW31411   1.464   4.482   3.724
10171SOL    HW131412   1.556   4.505   3.756
10171SOL    HW231413   1.467   4.395   3.673
10172SOL     OW31414   0.492   0.744   2.471
10172SOL    HW131415   0.513   0.755   2.568
10172SOL    HW231416   0.484   0.647   2.448
10173SOL     OW31417   3.970   3.399   5.290
10173SOL    HW131418   3.885   3.439   5.254
10173SOL    HW231419   3.958   3.301   5.303
10174SOL     OW31420   5.027   4.569   1.526
10174SOL    HW131421   5.043   4.621   1.610
10174SOL    HW231422   4.965   4.492   1.545
10175SOL     OW31423   6.738   0.063   3.899
10175SOL    HW131424   6.775   0.050   3.990
10175SOL    HW231425   6.651   0.014   3.890
10176SOL     OW31426   0.040   1.249   4.679
10176SOL    HW131427   0.067   1.240   4.775
10176SOL    HW231428   0.062   1.341   4.647
10177SOL     OW31429   3.099   1.443   3.889
10177SOL    HW131430   3.069   1.538   3.878
10177SOL    HW231431   3.135   1.430   3.982
10178SOL     OW31432   0.381   1.459   1.808
10178SOL    HW131433   0.358   1.386   1.744
10178SOL    HW231434   0.362   1.548   1.766
10179SOL     OW31435   0.120   6.003   1.085
10179SOL    HW131436   0.135   5.947   1.003
10179SOL    HW231437   0.096   5.944   1.162
10180SOL     OW31438   3.156   6.835   6.091
10180SOL    HW131439   3.106   6.874   6.167
10180SOL    HW231440   3.209   6.906   6.045
10181SOL     OW31441   7.019   3.352   2.315
10181SOL    HW131442   6.941   3.328   2.256
10181SOL    HW231443   7.011   3.302   2.402
10182SOL     OW31444   4.150   0.246   0.372
10182SOL    HW131445   4.101   0.245   0.285
10182SOL    HW231446   4.085   0.240   0.447
10183SOL     OW31447   3.761   6.210   5.774
10183SOL    HW131448   3.677   6.259   5.798
10183SOL    HW231449   3.820   6.270   5.720
10184SOL     OW31450   5.479   2.765   5.016
10184SOL    HW131451   5.504   2.842   5.075
10184SOL    HW231452   5.417   2.704   5.065
10185SOL     OW31453   2.695   4.680   2.468
10185SOL    HW131454   2.709   4.698   2.371
10185SOL    HW231455   2.784   4.679   2.515
10186SOL     OW31456   3.307   2.868   0.684
10186SOL    HW131457   3.225   2.822   0.651
10186SOL    HW231458   3.377   2.868   0.612
10187SOL     OW31459   2.227   4.047   5.839
10187SOL    HW131460   2.222   4.112   5.914
10187SOL    HW231461   2.155   4.066   5.773
10188SOL     OW31462   2.211   6.717   6.946
10188SOL    HW131463   2.220   6.816   6.942
10188SOL    HW231464   2.121   6.690   6.912
10189SOL     OW31465   2.398   1.766   5.243
10189SOL    HW131466   2.400   1.860   5.207
10189SOL    HW231467   2.473   1.714   5.202
10190SOL     OW31468   4.084   3.757   1.011
10190SOL    HW131469   4.176   3.772   0.975
10190SOL    HW231470   4.058   3.661   0.999
10191SOL     OW31471   5.525   0.549   0.293
10191SOL    HW131472   5.556   0.613   0.223
10191SOL    HW231473   5.434   0.516   0.268
10192SOL     OW31474   2.021   0.835   4.104
10192SOL    HW131475   1.955   0.797   4.040
10192SOL    HW231476   1.973   0.875   4.182
10193SOL     OW31477   3.333   3.805   3.933
10193SOL    HW131478   3.295   3.894   3.959
10193SOL    HW231479   3.259   3.742   3.910
10194SOL     OW31480   3.233   5.989   3.336
10194SOL    HW131481   3.146   6.008   3.380
10194SOL    HW231482   3.276   6.075   3.308
10195SOL     OW31483   5.107   0.622   2.889
10195SOL    HW131484   5.109   0.614   2.988
10195SOL    HW231485   5.189   0.581   2.850
10196SOL     OW31486   5.071   4.158   3.948
10196SOL    HW131487   5.120   4.132   3.865
10196SOL    HW231488   4.973   4.140   3.937
10197SOL     OW31489   4.576   1.723   2.682
10197SOL    HW131490   4.546   1.772   2.764
10197SOL    HW231491   4.655   1.769   2.643
10198SOL     OW31492   3.253   1.530   1.626
10198SOL    HW131493   3.268   1.583   1.710
10198SOL    HW231494   3.176   1.468   1.640
10199SOL     OW31495   1.028   1.921   6.826
10199SOL    HW131496   1.085   1.988   6.779
10199SOL    HW231497   1.054   1.829   6.797
10200SOL     OW31498   5.981   6.443   4.299
10200SOL    HW131499   5.913   6.370   4.284
10200SOL    HW231500   5.939   6.532   4.280
10201SOL     OW31501   1.419   4.555   2.919
10201SOL    HW131502   1.509   4.599   2.917
10201SOL    HW231503   1.354   4.615   2.965
10202SOL     OW31504   0.682   1.860   3.352
10202SOL    HW131505   0.754   1.875   3.285
10202SOL    HW231506   0.716   1.800   3.424
10203SOL     OW31507   0.440   1.911   1.019
10203SOL    HW131508   0.525   1.925   0.968
10203SOL    HW231509   0.362   1.928   0.959
10204SOL     OW31510   2.636   5.904   4.177
10204SOL    HW131511   2.654   5.892   4.080
10204SOL    HW231512   2.631   5.814   4.221
10205SOL     OW31513   3.557   0.273   1.059
10205SOL    HW131514   3.495   0.305   1.130
10205SOL    HW231515   3.620   0.346   1.034
10206SOL     OW31516   5.743   6.494   6.861
10206SOL    HW131517   5.679   6.418   6.870
10206SOL    HW231518   5.834   6.459   6.838
10207SOL     OW31519   4.115   1.554   2.918
10207SOL    HW131520   4.111   1.538   2.820
10207SOL    HW231521   4.081   1.645   2.939
10208SOL     OW31522   6.837   3.466   6.462
10208SOL    HW131523   6.853   3.463   6.363
10208SOL    HW231524   6.749   3.512   6.479
10209SOL     OW31525   3.989   6.045   0.094
10209SOL    HW131526   4.013   6.051   7.020
10209SOL    HW231527   3.947   6.131   0.123
10210SOL     OW31528   5.281   5.169   0.278
10210SOL    HW131529   5.367   5.159   0.328
10210SOL    HW231530   5.211   5.206   0.340
10211SOL     OW31531   3.739   5.700   5.616
10211SOL    HW131532   3.737   5.800   5.618
10211SOL    HW231533   3.645   5.665   5.610
10212SOL     OW31534   6.136   6.581   6.266
10212SOL    HW131535   6.178   6.531   6.341
10212SOL    HW231536   6.203   6.595   6.193
10213SOL     OW31537   4.269   0.269   4.565
10213SOL    HW131538   4.299   0.357   4.600
10213SOL    HW231539   4.343   0.202   4.577
10214SOL     OW31540   0.495   0.525   6.959
10214SOL    HW131541   0.570   0.467   6.991
10214SOL    HW231542   0.532   0.601   6.906
10215SOL     OW31543   4.239   2.661   0.672
10215SOL    HW131544   4.248   2.577   0.620
10215SOL    HW231545   4.300   2.731   0.635
10216SOL     OW31546   4.969   0.081   2.818
10216SOL    HW131547   4.984   0.127   2.731
10216SOL    HW231548   5.022   0.128   2.889
10217SOL     OW31549   3.527   2.354   5.803
10217SOL    HW131550   3.531   2.277   5.740
10217SOL    HW231551   3.461   2.335   5.875
10218SOL     OW31552   3.738   1.478   6.584
10218SOL    HW131553   3.694   1.472   6.495
10218SOL    HW231554   3.759   1.574   6.605
10219SOL     OW31555   1.483   5.386   0.195
10219SOL    HW131556   1.579   5.360   0.205
10219SOL    HW231557   1.438   5.381   0.284
10220SOL     OW31558   4.054   2.251   0.298
10220SOL    HW131559   3.993   2.330   0.288
10220SOL    HW231560   4.003   2.174   0.334
10221SOL     OW31561   2.579   0.915   4.135
10221SOL    HW131562   2.503   0.891   4.196
10221SOL    HW231563   2.642   0.838   4.129
10222SOL     OW31564   1.862   4.201   5.307
10222SOL    HW131565   1.878   4.116   5.358
10222SOL    HW231566   1.888   4.279   5.364
10223SOL     OW31567   0.824   4.534   6.196
10223SOL    HW131568   0.850   4.503   6.104
10223SOL    HW231569   0.818   4.455   6.257
10224SOL     OW31570   2.817   6.723   4.843
10224SOL    HW131571   2.788   6.640   4.796
10224SOL    HW231572   2.899   6.760   4.798
10225SOL     OW31573   5.150   6.017   4.662
10225SOL    HW131574   5.134   6.018   4.563
10225SOL    HW231575   5.132   5.925   4.697
10226SOL     OW31576   6.713   2.728   6.076
10226SOL    HW131577   6.708   2.720   6.175
10226SOL    HW231578   6.626   2.760   6.040
10227SOL     OW31579   4.627   4.985   5.550
10227SOL    HW131580   4.677   5.053   5.604
10227SOL    HW231581   4.668   4.978   5.459
10228SOL     OW31582   0.900   3.134   1.964
10228SOL    HW131583   0.904   3.050   1.909
10228SOL    HW231584   0.972   3.132   2.033
10229SOL     OW31585   2.399   0.423   1.570
10229SOL    HW131586   2.376   0.491   1.500
10229SOL    HW231587   2.491   0.387   1.552
10230SOL     OW31588   5.986   6.512   3.326
10230SOL    HW131589   5.890   6.539   3.324
10230SOL    HW231590   6.039   6.581   3.376
10231SOL     OW31591   4.679   6.449   4.483
10231SOL    HW131592   4.675   6.403   4.572
10231SOL    HW231593   4.679   6.381   4.410
10232SOL     OW31594   3.847   2.097   3.509
10232SOL    HW131595   3.919   2.126   3.446
10232SOL    HW231596   3.810   2.177   3.557
10233SOL     OW31597   4.894   0.015   5.166
10233SOL    HW131598   4.986   7.001   5.173
10233SOL    HW231599   4.897   0.104   5.121
10234SOL     OW31600   4.594   5.363   1.350
10234SOL    HW131601   4.566   5.425   1.277
10234SOL    HW231602   4.515   5.341   1.408
10235SOL     OW31603   5.093   1.152   0.472
10235SOL    HW131604   5.124   1.247   0.467
10235SOL    HW231605   5.039   1.130   0.391
10236SOL     OW31606   1.502   5.756   1.339
10236SOL    HW131607   1.565   5.742   1.416
10236SOL    HW231608   1.438   5.679   1.334
10237SOL     OW31609   5.757   2.461   3.279
10237SOL    HW131610   5.813   2.501   3.352
10237SOL    HW231611   5.764   2.362   3.281
10238SOL     OW31612   4.398   5.992   5.290
10238SOL    HW131613   4.324   5.926   5.305
10238SOL    HW231614   4.380   6.044   5.207
10239SOL     OW31615   5.773   3.056   4.748
10239SOL    HW131616   5.821   3.104   4.820
10239SOL    HW231617   5.684   3.024   4.782
10240SOL     OW31618   4.966   3.638   3.649
10240SOL    HW131619   4.976   3.659   3.552
10240SOL    HW231620   5.041   3.680   3.700
10241SOL     OW31621   1.590   2.079   3.016
10241SOL    HW131622   1.670   2.102   3.072
10241SOL    HW231623   1.575   2.150   2.947
10242SOL     OW31624   1.031   5.346   5.699
10242SOL    HW131625   1.076   5.258   5.710
10242SOL    HW231626   0.986   5.373   5.784
10243SOL     OW31627   0.578   6.343   2.896
10243SOL    HW131628   0.507   6.380   2.835
10243SOL    HW231629   0.658   6.404   2.894
10244SOL     OW31630   1.266   5.739   0.314
10244SOL    HW131631   1.216   5.668   0.264
10244SOL    HW231632   1.267   5.716   0.412
10245SOL     OW31633   2.308   2.550   0.592
10245SOL    HW131634   2.367   2.470   0.606
10245SOL    HW231635   2.296   2.565   0.493
10246SOL     OW31636   2.965   3.394   4.388
10246SOL    HW131637   2.875   3.396   4.346
10246SOL    HW231638   2.957   3.410   4.487
10247SOL     OW31639   0.753   6.056   6.023
10247SOL    HW131640   0.844   6.062   6.065
10247SOL    HW231641   0.718   6.148   6.006
10248SOL     OW31642   6.099   0.757   3.719
10248SOL    HW131643   6.164   0.796   3.783
10248SOL    HW231644   6.026   0.710   3.770
10249SOL     OW31645   5.317   0.669   6.041
10249SOL    HW131646   5.312   0.743   5.973
10249SOL    HW231647   5.413   0.642   6.052
10250SOL     OW31648   5.100   6.338   0.561
10250SOL    HW131649   5.171   6.388   0.511
10250SOL    HW231650   5.050   6.278   0.498
10251SOL     OW31651   3.680   4.662   1.276
10251SOL    HW131652   3.726   4.730   1.220
10251SOL    HW231653   3.629   4.599   1.217
10252SOL     OW31654   0.347   4.106   0.993
10252SOL    HW131655   0.405   4.186   0.979
10252SOL    HW231656   0.345   4.052   0.909
10253SOL     OW31657   3.732   5.131   0.256
10253SOL    HW131658   3.809   5.092   0.305
10253SOL    HW231659   3.667   5.170   0.322
10254SOL     OW31660   2.369   1.371   4.920
10254SOL    HW131661   2.303   1.360   4.995
10254SOL    HW231662   2.392   1.468   4.910
10255SOL     OW31663   3.325   5.759   3.206
10255SOL    HW131664   3.266   5.830   3.244
10255SOL    HW231665   3.361   5.702   3.279
10256SOL     OW31666   5.608   6.762   0.489
10256SOL    HW131667   5.519   6.717   0.482
10256SOL    HW231668   5.673   6.717   0.427
10257SOL     OW31669   1.559   5.525   5.481
10257SOL    HW131670   1.655   5.506   5.465
10257SOL    HW231671   1.542   5.534   5.580
10258SOL     OW31672   4.380   0.781   2.916
10258SOL    HW131673   4.309   0.851   2.921
10258SOL    HW231674   4.409   0.757   3.009
10259SOL     OW31675   0.329   3.300   3.971
10259SOL    HW131676   0.388   3.220   3.971
10259SOL    HW231677   0.241   3.276   3.929
10260SOL     OW31678   0.285   6.004   2.204
10260SOL    HW131679   0.307   6.101   2.204
10260SOL    HW231680   0.202   5.988   2.257
10261SOL     OW31681   2.076   6.896   1.925
10261SOL    HW131682   2.095   6.799   1.910
10261SOL    HW231683   2.085   6.946   1.839
10262SOL     OW31684   1.482   6.677   4.034
10262SOL    HW131685   1.546   6.649   4.106
10262SOL    HW231686   1.464   6.599   3.974
10263SOL     OW31687   6.333   3.211   5.382
10263SOL    HW131688   6.253   3.151   5.390
10263SOL    HW231689   6.322   3.289   5.443
10264SOL     OW31690   0.495   6.755   0.107
10264SOL    HW131691   0.541   6.703   0.035
10264SOL    HW231692   0.467   6.844   0.071
10265SOL     OW31693   4.533   1.771   3.179
10265SOL    HW131694   4.457   1.829   3.149
10265SOL    HW231695   4.539   1.691   3.119
10266SOL     OW31696   3.857   3.832   6.897
10266SOL    HW131697   3.904   3.917   6.872
10266SOL    HW231698   3.814   3.843   6.987
10267SOL     OW31699   6.331   1.208   6.162
10267SOL    HW131700   6.255   1.261   6.125
10267SOL    HW231701   6.416   1.234   6.116
10268SOL     OW31702   6.718   4.236   0.895
10268SOL    HW131703   6.723   4.300   0.818
10268SOL    HW231704   6.750   4.282   0.978
10269SOL     OW31705   3.962   2.030   6.035
10269SOL    HW131706   3.981   1.953   5.974
10269SOL    HW231707   3.896   2.003   6.104
10270SOL     OW31708   2.563   5.718   2.099
10270SOL    HW131709   2.604   5.628   2.082
10270SOL    HW231710   2.633   5.789   2.087
10271SOL     OW31711   2.318   5.299   1.178
10271SOL    HW131712   2.308   5.242   1.260
10271SOL    HW231713   2.233   5.350   1.162
10272SOL     OW31714   1.795   1.980   4.230
10272SOL    HW131715   1.768   1.906   4.292
10272SOL    HW231716   1.721   1.997   4.165
10273SOL     OW31717   4.337   6.792   4.100
10273SOL    HW131718   4.280   6.780   4.181
10273SOL    HW231719   4.279   6.818   4.022
10274SOL     OW31720   2.718   4.673   6.386
10274SOL    HW131721   2.754   4.763   6.412
10274SOL    HW231722   2.730   4.609   6.461
10275SOL     OW31723   0.711   6.470   1.700
10275SOL    HW131724   0.734   6.566   1.688
10275SOL    HW231725   0.683   6.453   1.795
10276SOL     OW31726   0.909   6.730   0.037
10276SOL    HW131727   0.946   6.822   0.048
10276SOL    HW231728   0.960   6.666   0.094
10277SOL     OW31729   0.568   5.804   1.823
10277SOL    HW131730   0.600   5.898   1.829
10277SOL    HW231731   0.483   5.801   1.769
10278SOL     OW31732   6.566   0.303   5.241
10278SOL    HW131733   6.594   0.212   5.271
10278SOL    HW231734   6.580   0.369   5.314
10279SOL     OW31735   3.783   6.020   5.208
10279SOL    HW131736   3.690   5.991   5.185
10279SOL    HW231737   3.779   6.098   5.271
10280SOL     OW31738   3.666   3.026   7.020
10280SOL    HW131739   3.736   2.995   0.062
10280SOL    HW231740   3.584   3.053   0.047
10281SOL     OW31741   5.008   0.251   4.327
10281SOL    HW131742   4.951   0.198   4.390
10281SOL    HW231743   5.101   0.214   4.327
10282SOL     OW31744   1.335   2.847   4.232
10282SOL    HW131745   1.411   2.798   4.191
10282SOL    HW231746   1.261   2.857   4.165
10283SOL     OW31747   1.735   4.132   5.584
10283SOL    HW131748   1.729   4.136   5.484
10283SOL    HW231749   1.659   4.183   5.624
10284SOL     OW31750   4.983   3.426   6.861
10284SOL    HW131751   5.061   3.431   6.799
10284SOL    HW231752   4.913   3.491   6.831
10285SOL     OW31753   5.404   1.331   0.984
10285SOL    HW131754   5.372   1.412   1.033
10285SOL    HW231755   5.343   1.312   0.907
10286SOL     OW31756   3.992   0.477   3.967
10286SOL    HW131757   4.063   0.511   4.028
10286SOL    HW231758   3.905   0.474   4.016
10287SOL     OW31759   1.640   4.635   2.217
10287SOL    HW131760   1.634   4.734   2.229
10287SOL    HW231761   1.715   4.599   2.273
10288SOL     OW31762   4.448   6.245   4.504
10288SOL    HW131763   4.363   6.296   4.517
10288SOL    HW231764   4.511   6.265   4.579
10289SOL     OW31765   3.201   1.653   1.348
10289SOL    HW131766   3.168   1.740   1.384
10289SOL    HW231767   3.236   1.597   1.423
10290SOL     OW31768   3.108   3.032   2.873
10290SOL    HW131769   3.206   3.025   2.853
10290SOL    HW231770   3.092   3.008   2.968
10291SOL     OW31771   3.990   0.877   5.319
10291SOL    HW131772   3.927   0.920   5.256
10291SOL    HW231773   3.955   0.885   5.413
10292SOL     OW31774   0.571   2.475   4.539
10292SOL    HW131775   0.611   2.489   4.448
10292SOL    HW231776   0.563   2.562   4.586
10293SOL     OW31777   3.026   5.184   2.678
10293SOL    HW131778   2.940   5.208   2.723
10293SOL    HW231779   3.070   5.267   2.643
10294SOL     OW31780   6.584   1.093   3.398
10294SOL    HW131781   6.540   1.047   3.476
10294SOL    HW231782   6.515   1.111   3.328
10295SOL     OW31783   1.596   4.327   4.167
10295SOL    HW131784   1.530   4.368   4.231
10295SOL    HW231785   1.657   4.399   4.132
10296SOL     OW31786   6.507   3.130   1.696
10296SOL    HW131787   6.418   3.124   1.740
10296SOL    HW231788   6.529   3.225   1.677
10297SOL     OW31789   3.179   5.270   5.275
10297SOL    HW131790   3.225   5.311   5.196
10297SOL    HW231791   3.082   5.257   5.253
10298SOL     OW31792   5.954   3.233   3.055
10298SOL    HW131793   5.970   3.143   3.016
10298SOL    HW231794   5.900   3.223   3.139
10299SOL     OW31795   4.765   4.106   2.206
10299SOL    HW131796   4.811   4.065   2.284
10299SOL    HW231797   4.825   4.104   2.126
10300SOL     OW31798   0.798   5.641   1.751
10300SOL    HW131799   0.722   5.707   1.755
10300SOL    HW231800   0.862   5.661   1.825
10301SOL     OW31801   4.496   0.962   1.546
10301SOL    HW131802   4.427   0.989   1.478
10301SOL    HW231803   4.458   0.973   1.637
10302SOL     OW31804   2.292   4.149   3.824
10302SOL    HW131805   2.302   4.160   3.923
10302SOL    HW231806   2.358   4.209   3.778
10303SOL     OW31807   4.369   2.761   1.637
10303SOL    HW131808   4.445   2.773   1.701
10303SOL    HW231809   4.397   2.699   1.563
10304SOL     OW31810   6.208   6.254   3.547
10304SOL    HW131811   6.209   6.306   3.461
10304SOL    HW231812   6.227   6.315   3.623
10305SOL     OW31813   1.686   5.295   1.052
10305SOL    HW131814   1.737   5.246   1.123
10305SOL    HW231815   1.594   5.314   1.086
10306SOL     OW31816   3.999   4.258   0.908
10306SOL    HW131817   4.089   4.261   0.865
10306SOL    HW231818   3.933   4.307   0.851
10307SOL     OW31819   2.717   1.736   5.255
10307SOL    HW131820   2.688   1.782   5.339
10307SOL    HW231821   2.684   1.787   5.176
10308SOL     OW31822   2.608   5.203   3.704
10308SOL    HW131823   2.690   5.200   3.761
10308SOL    HW231824   2.634   5.193   3.608
10309SOL     OW31825   0.093   6.021   3.524
10309SOL    HW131826   0.031   5.952   3.560
10309SOL    HW231827   0.127   5.992   3.434
10310SOL     OW31828   3.335   2.977   4.550
10310SOL    HW131829   3.304   2.988   4.644
10310SOL    HW231830   3.429   2.943   4.550
10311SOL     OW31831   0.538   0.369   0.690
10311SOL    HW131832   0.536   0.304   0.614
10311SOL    HW231833   0.544   0.462   0.655
10312SOL     OW31834   2.609   4.590   0.736
10312SOL    HW131835   2.559   4.530   0.675
10312SOL    HW231836   2.574   4.684   0.727
10313SOL     OW31837   6.613   5.596   3.941
10313SOL    HW131838   6.614   5.682   3.993
10313SOL    HW231839   6.554   5.530   3.988
10314SOL     OW31840   6.698   5.616   5.423
10314SOL    HW131841   6.666   5.690   5.364
10314SOL    HW231842   6.678   5.528   5.379
10315SOL     OW31843   4.572   6.681   5.569
10315SOL    HW131844   4.655   6.737   5.561
10315SOL    HW231845   4.554   6.636   5.481
10316SOL     OW31846   0.237   3.614   3.009
10316SOL    HW131847   0.315   3.626   2.948
10316SOL    HW231848   0.247   3.675   3.088
10317SOL     OW31849   4.946   4.594   0.149
10317SOL    HW131850   4.974   4.528   0.079
10317SOL    HW231851   4.848   4.611   0.142
10318SOL     OW31852   5.738   5.519   2.993
10318SOL    HW131853   5.799   5.442   3.009
10318SOL    HW231854   5.787   5.591   2.943
10319SOL     OW31855   5.362   6.679   4.630
10319SOL    HW131856   5.430   6.638   4.568
10319SOL    HW231857   5.279   6.624   4.629
10320SOL     OW31858   4.234   5.925   2.350
10320SOL    HW131859   4.321   5.958   2.385
10320SOL    HW231860   4.250   5.872   2.266
10321SOL     OW31861   4.213   6.984   4.451
10321SOL    HW131862   4.306   7.002   4.483
10321SOL    HW231863   4.197   0.008   4.364
10322SOL     OW31864   0.775   2.353   0.161
10322SOL    HW131865   0.702   2.400   0.211
10322SOL    HW231866   0.734   2.300   0.086
10323SOL     OW31867   0.902   2.523   5.560
10323SOL    HW131868   0.958   2.605   5.570
10323SOL    HW231869   0.856   2.502   5.646
10324SOL     OW31870   3.613   2.929   4.479
10324SOL    HW131871   3.706   2.932   4.514
10324SOL    HW231872   3.616   2.925   4.379
10325SOL     OW31873   6.739   3.403   3.549
10325SOL    HW131874   6.653   3.451   3.534
10325SOL    HW231875   6.768   3.360   3.463
10326SOL     OW31876   5.901   1.952   1.369
10326SOL    HW131877   5.823   1.891   1.352
10326SOL    HW231878   5.966   1.906   1.429
10327SOL     OW31879   5.966   0.982   3.590
10327SOL    HW131880   6.022   0.915   3.638
10327SOL    HW231881   5.870   0.955   3.596
10328SOL     OW31882   6.394   3.767   2.379
10328SOL    HW131883   6.393   3.779   2.280
10328SOL    HW231884   6.303   3.784   2.416
10329SOL     OW31885   3.544   5.918   3.197
10329SOL    HW131886   3.637   5.884   3.181
10329SOL    HW231887   3.479   5.843   3.186
10330SOL     OW31888   3.407   3.765   1.063
10330SOL    HW131889   3.387   3.861   1.083
10330SOL    HW231890   3.331   3.724   1.013
10331SOL     OW31891   5.070   1.260   4.336
10331SOL    HW131892   5.142   1.240   4.403
10331SOL    HW231893   5.017   1.339   4.366
10332SOL     OW31894   1.087   1.765   5.994
10332SOL    HW131895   1.136   1.679   6.011
10332SOL    HW231896   1.109   1.831   6.066
10333SOL     OW31897   6.523   4.817   5.294
10333SOL    HW131898   6.476   4.798   5.380
10333SOL    HW231899   6.503   4.911   5.267
10334SOL     OW31900   0.613   5.009   5.253
10334SOL    HW131901   0.519   5.018   5.219
10334SOL    HW231902   0.676   4.994   5.177
10335SOL     OW31903   3.490   5.403   2.682
10335SOL    HW131904   3.445   5.424   2.769
10335SOL    HW231905   3.557   5.475   2.661
10336SOL     OW31906   4.929   6.850   2.729
10336SOL    HW131907   4.838   6.838   2.691
10336SOL    HW231908   4.938   6.942   2.766
10337SOL     OW31909   0.717   4.081   5.837
10337SOL    HW131910   0.686   4.003   5.782
10337SOL    HW231911   0.694   4.065   5.933
10338SOL     OW31912   2.742   5.254   2.711
10338SOL    HW131913   2.710   5.345   2.736
10338SOL    HW231914   2.686   5.219   2.635
10339SOL     OW31915   2.511   5.421   0.693
10339SOL    HW131916   2.569   5.341   0.676
10339SOL    HW231917   2.415   5.395   0.687
10340SOL     OW31918   1.546   6.580   0.664
10340SOL    HW131919   1.508   6.507   0.608
10340SOL    HW231920   1.479   6.608   0.733
10341SOL     OW31921   0.667   2.342   1.808
10341SOL    HW131922   0.625   2.425   1.773
10341SOL    HW231923   0.719   2.297   1.736
10342SOL     OW31924   3.682   6.176   4.390
10342SOL    HW131925   3.611   6.112   4.359
10342SOL    HW231926   3.659   6.210   4.481
10343SOL     OW31927   2.505   2.643   3.987
10343SOL    HW131928   2.429   2.694   4.026
10343SOL    HW231929   2.469   2.568   3.930
10344SOL     OW31930   4.638   3.820   1.650
10344SOL    HW131931   4.632   3.919   1.664
10344SOL    HW231932   4.733   3.794   1.634
10345SOL     OW31933   3.250   2.415   6.325
10345SOL    HW131934   3.204   2.333   6.360
10345SOL    HW231935   3.204   2.446   6.241
10346SOL     OW31936   6.097   5.520   0.634
10346SOL    HW131937   6.074   5.533   0.537
10346SOL    HW231938   6.050   5.438   0.668
10347SOL     OW31939   4.342   0.019   1.612
10347SOL    HW131940   4.347   6.942   1.613
10347SOL    HW231941   4.434   0.057   1.612
10348SOL     OW31942   6.964   4.998   5.701
10348SOL    HW131943   6.958   4.973   5.604
10348SOL    HW231944   6.955   4.917   5.758
10349SOL     OW31945   6.832   2.394   0.230
10349SOL    HW131946   6.778   2.438   0.302
10349SOL    HW231947   6.870   2.308   0.265
10350SOL     OW31948   2.147   4.667   4.456
10350SOL    HW131949   2.203   4.608   4.515
10350SOL    HW231950   2.051   4.658   4.482
10351SOL     OW31951   3.906   4.978   4.872
10351SOL    HW131952   3.903   5.073   4.902
10351SOL    HW231953   3.825   4.930   4.904
10352SOL     OW31954   6.888   1.006   0.795
10352SOL    HW131955   6.833   1.084   0.765
10352SOL    HW231956   6.842   0.921   0.771
10353SOL     OW31957   6.423   2.499   4.169
10353SOL    HW131958   6.377   2.480   4.082
10353SOL    HW231959   6.354   2.515   4.240
10354SOL     OW31960   6.655   2.834   0.929
10354SOL    HW131961   6.584   2.788   0.984
10354SOL    HW231962   6.658   2.931   0.953
10355SOL     OW31963   0.756   1.990   0.992
10355SOL    HW131964   0.738   2.050   0.914
10355SOL    HW231965   0.804   1.908   0.960
10356SOL     OW31966   5.858   2.611   6.796
10356SOL    HW131967   5.841   2.554   6.715
10356SOL    HW231968   5.937   2.574   6.846
10357SOL     OW31969   1.148   0.343   6.145
10357SOL    HW131970   1.201   0.301   6.072
10357SOL    HW231971   1.200   0.419   6.186
10358SOL     OW31972   0.688   2.519   3.056
10358SOL    HW131973   0.755   2.553   2.990
10358SOL    HW231974   0.716   2.429   3.089
10359SOL     OW31975   0.695   2.177   2.057
10359SOL    HW131976   0.622   2.236   2.023
10359SOL    HW231977   0.727   2.116   1.985
10360SOL     OW31978   5.963   3.977   1.079
10360SOL    HW131979   5.984   4.052   1.016
10360SOL    HW231980   5.992   3.890   1.037
10361SOL     OW31981   6.556   1.805   2.409
10361SOL    HW131982   6.575   1.790   2.312
10361SOL    HW231983   6.469   1.852   2.419
10362SOL     OW31984   1.268   5.524   1.860
10362SOL    HW131985   1.326   5.446   1.838
10362SOL    HW231986   1.190   5.494   1.915
10363SOL     OW31987   5.633   5.043   6.521
10363SOL    HW131988   5.670   4.999   6.602
10363SOL    HW231989   5.685   5.016   6.441
10364SOL     OW31990   5.840   5.890   2.507
10364SOL    HW131991   5.853   5.791   2.495
10364SOL    HW231992   5.742   5.910   2.516
10365SOL     OW31993   5.928   5.395   0.149
10365SOL    HW131994   5.921   5.328   0.075
10365SOL    HW231995   5.995   5.465   0.124
10366SOL     OW31996   2.793   6.563   3.882
10366SOL    HW131997   2.822   6.580   3.976
10366SOL    HW231998   2.711   6.505   3.883
10367SOL     OW31999   5.381   6.605   1.740
10367SOL    HW132000   5.340   6.579   1.827
10367SOL    HW232001   5.416   6.699   1.747
10368SOL     OW32002   0.982   5.778   1.905
10368SOL    HW132003   1.017   5.811   1.818
10368SOL    HW232004   0.934   5.852   1.953
10369SOL     OW32005   2.178   0.468   5.793
10369SOL    HW132006   2.196   0.513   5.881
10369SOL    HW232007   2.226   0.516   5.720
10370SOL     OW32008   2.188   1.769   5.529
10370SOL    HW132009   2.126   1.758   5.606
10370SOL    HW232010   2.256   1.695   5.530
10371SOL     OW32011   4.239   5.712   3.253
10371SOL    HW132012   4.143   5.702   3.227
10371SOL    HW232013   4.251   5.686   3.349
10372SOL     OW32014   2.407   6.541   0.918
10372SOL    HW132015   2.340   6.497   0.858
10372SOL    HW232016   2.362   6.573   1.001
10373SOL     OW32017   6.184   0.590   6.760
10373SOL    HW132018   6.215   0.684   6.775
10373SOL    HW232019   6.233   0.551   6.682
10374SOL     OW32020   2.955   4.848   3.104
10374SOL    HW132021   2.953   4.832   3.006
10374SOL    HW232022   3.045   4.883   3.131
10375SOL     OW32023   2.469   5.316   0.369
10375SOL    HW132024   2.517   5.372   0.301
10375SOL    HW232025   2.496   5.344   0.461
10376SOL     OW32026   2.292   4.890   3.456
10376SOL    HW132027   2.319   4.985   3.441
10376SOL    HW232028   2.370   4.830   3.434
10377SOL     OW32029   2.209   0.925   2.748
10377SOL    HW132030   2.166   0.835   2.754
10377SOL    HW232031   2.165   0.987   2.812
10378SOL     OW32032   0.656   6.406   5.454
10378SOL    HW132033   0.629   6.417   5.358
10378SOL    HW232034   0.714   6.325   5.462
10379SOL     OW32035   2.270   6.725   3.649
10379SOL    HW132036   2.290   6.644   3.705
10379SOL    HW232037   2.178   6.758   3.671
10380SOL     OW32038   3.377   1.214   3.932
10380SOL    HW132039   3.395   1.266   3.848
10380SOL    HW232040   3.306   1.260   3.984
10381SOL     OW32041   4.040   6.373   2.978
10381SOL    HW132042   3.960   6.425   2.949
10381SOL    HW232043   4.120   6.402   2.925
10382SOL     OW32044   4.071   5.616   2.111
10382SOL    HW132045   4.161   5.612   2.154
10382SOL    HW232046   4.006   5.562   2.164
10383SOL     OW32047   0.577   5.356   6.597
10383SOL    HW132048   0.561   5.455   6.590
10383SOL    HW232049   0.672   5.340   6.624
10384SOL     OW32050   4.813   5.713   1.650
10384SOL    HW132051   4.748   5.686   1.721
10384SOL    HW232052   4.817   5.642   1.580
10385SOL     OW32053   4.364   4.837   0.205
10385SOL    HW132054   4.350   4.925   0.252
10385SOL    HW232055   4.353   4.762   0.271
10386SOL     OW32056   0.076   0.723   1.059
10386SOL    HW132057   0.037   0.643   1.105
10386SOL    HW232058   0.139   0.693   0.987
10387SOL     OW32059   4.889   3.239   2.317
10387SOL    HW132060   4.880   3.243   2.218
10387SOL    HW232061   4.868   3.146   2.349
10388SOL     OW32062   1.946   0.211   4.629
10388SOL    HW132063   1.972   0.249   4.540
10388SOL    HW232064   1.894   0.127   4.615
10389SOL     OW32065   0.712   3.819   6.922
10389SOL    HW132066   0.762   3.734   6.934
10389SOL    HW232067   0.644   3.809   6.850
10390SOL     OW32068   1.835   2.287   1.938
10390SOL    HW132069   1.856   2.270   1.841
10390SOL    HW232070   1.866   2.209   1.993
10391SOL     OW32071   6.357   6.691   3.625
10391SOL    HW132072   6.308   6.721   3.707
10391SOL    HW232073   6.352   6.763   3.555
10392SOL     OW32074   6.542   4.366   3.995
10392SOL    HW132075   6.451   4.386   3.960
10392SOL    HW232076   6.576   4.281   3.955
10393SOL     OW32077   2.072   2.385   2.340
10393SOL    HW132078   2.133   2.373   2.262
10393SOL    HW232079   2.122   2.424   2.417
10394SOL     OW32080   3.258   6.637   4.191
10394SOL    HW132081   3.231   6.619   4.097
10394SOL    HW232082   3.179   6.631   4.251
10395SOL     OW32083   0.723   0.585   0.886
10395SOL    HW132084   0.650   0.518   0.900
10395SOL    HW232085   0.686   0.666   0.842
10396SOL     OW32086   3.331   2.078   4.879
10396SOL    HW132087   3.300   2.072   4.784
10396SOL    HW232088   3.281   2.151   4.926
10397SOL     OW32089   5.001   1.922   4.230
10397SOL    HW132090   5.061   1.984   4.179
10397SOL    HW232091   5.055   1.843   4.262
10398SOL     OW32092   5.602   2.131   2.486
10398SOL    HW132093   5.604   2.068   2.408
10398SOL    HW232094   5.515   2.180   2.487
10399SOL     OW32095   0.670   3.750   2.349
10399SOL    HW132096   0.722   3.757   2.434
10399SOL    HW232097   0.576   3.781   2.365
10400SOL     OW32098   2.236   6.330   0.810
10400SOL    HW132099   2.139   6.350   0.818
10400SOL    HW232100   2.249   6.246   0.757
10401SOL     OW32101   0.223   0.898   5.631
10401SOL    HW132102   0.226   0.801   5.657
10401SOL    HW232103   0.312   0.926   5.595
10402SOL     OW32104   6.974   3.468   5.252
10402SOL    HW132105   6.993   3.500   5.345
10402SOL    HW232106   6.953   3.370   5.253
10403SOL     OW32107   3.097   0.027   0.974
10403SOL    HW132108   3.149   0.103   1.012
10403SOL    HW232109   3.150   6.965   0.984
10404SOL     OW32110   6.505   6.791   6.012
10404SOL    HW132111   6.566   6.864   5.979
10404SOL    HW232112   6.424   6.832   6.053
10405SOL     OW32113   0.726   2.760   6.583
10405SOL    HW132114   0.694   2.688   6.521
10405SOL    HW232115   0.767   2.718   6.664
10406SOL     OW32116   1.618   5.013   1.323
10406SOL    HW132117   1.581   5.023   1.415
10406SOL    HW232118   1.552   4.966   1.265
10407SOL     OW32119   2.165   5.649   5.739
10407SOL    HW132120   2.128   5.732   5.696
10407SOL    HW232121   2.246   5.619   5.689
10408SOL     OW32122   4.509   1.130   0.159
10408SOL    HW132123   4.525   1.221   0.200
10408SOL    HW232124   4.460   1.141   0.073
10409SOL     OW32125   6.504   4.595   1.014
10409SOL    HW132126   6.533   4.528   0.945
10409SOL    HW232127   6.413   4.629   0.991
10410SOL     OW32128   4.482   0.233   0.488
10410SOL    HW132129   4.564   0.288   0.500
10410SOL    HW232130   4.409   0.268   0.546
10411SOL     OW32131   2.200   4.659   4.210
10411SOL    HW132132   2.299   4.662   4.198
10411SOL    HW232133   2.176   4.683   4.304
10412SOL     OW32134   5.329   7.015   0.744
10412SOL    HW132135   5.289   6.980   0.828
10412SOL    HW232136   5.427   6.995   0.743
10413SOL     OW32137   6.506   3.205   2.137
10413SOL    HW132138   6.466   3.242   2.221
10413SOL    HW232139   6.517   3.106   2.146
10414SOL     OW32140   4.675   2.667   4.299
10414SOL    HW132141   4.768   2.634   4.316
10414SOL    HW232142   4.672   2.766   4.313
10415SOL     OW32143   0.241   0.874   6.433
10415SOL    HW132144   0.190   0.911   6.355
10415SOL    HW232145   0.216   0.778   6.446
10416SOL     OW32146   5.546   3.236   4.226
10416SOL    HW132147   5.638   3.222   4.261
10416SOL    HW232148   5.485   3.264   4.301
10417SOL     OW32149   2.398   4.298   3.014
10417SOL    HW132150   2.319   4.320   3.070
10417SOL    HW232151   2.457   4.234   3.064
10418SOL     OW32152   1.837   5.803   5.628
10418SOL    HW132153   1.890   5.800   5.543
10418SOL    HW232154   1.772   5.727   5.630
10419SOL     OW32155   1.131   1.309   0.573
10419SOL    HW132156   1.139   1.380   0.503
10419SOL    HW232157   1.064   1.241   0.545
10420SOL     OW32158   0.500   3.128   3.336
10420SOL    HW132159   0.425   3.070   3.367
10420SOL    HW232160   0.572   3.071   3.297
10421SOL     OW32161   0.225   1.255   3.351
10421SOL    HW132162   0.315   1.216   3.370
10421SOL    HW232163   0.187   1.213   3.268
10422SOL     OW32164   5.593   3.763   5.666
10422SOL    HW132165   5.527   3.807   5.727
10422SOL    HW232166   5.548   3.737   5.581
10423SOL     OW32167   5.299   4.282   2.722
10423SOL    HW132168   5.348   4.282   2.635
10423SOL    HW232169   5.347   4.222   2.787
10424SOL     OW32170   5.127   1.451   6.346
10424SOL    HW132171   5.125   1.360   6.387
10424SOL    HW232172   5.035   1.476   6.316
10425SOL     OW32173   2.259   6.418   1.664
10425SOL    HW132174   2.325   6.480   1.705
10425SOL    HW232175   2.283   6.324   1.688
10426SOL     OW32176   6.456   4.045   0.571
10426SOL    HW132177   6.372   4.063   0.621
10426SOL    HW232178   6.515   4.126   0.576
10427SOL     OW32179   4.572   0.954   1.181
10427SOL    HW132180   4.592   1.034   1.237
10427SOL    HW232181   4.629   0.878   1.210
10428SOL     OW32182   4.257   0.902   3.819
10428SOL    HW132183   4.180   0.929   3.876
10428SOL    HW232184   4.232   0.821   3.765
10429SOL     OW32185   6.004   6.430   1.645
10429SOL    HW132186   5.919   6.398   1.603
10429SOL    HW232187   6.024   6.523   1.615
10430SOL     OW32188   4.049   6.367   3.242
10430SOL    HW132189   4.031   6.380   3.145
10430SOL    HW232190   3.966   6.337   3.288
10431SOL     OW32191   2.095   1.071   5.194
10431SOL    HW132192   2.184   1.115   5.186
10431SOL    HW232193   2.107   0.973   5.207
10432SOL     OW32194   4.778   1.590   5.064
10432SOL    HW132195   4.776   1.672   5.007
10432SOL    HW232196   4.752   1.510   5.010
10433SOL     OW32197   2.656   6.863   1.304
10433SOL    HW132198   2.586   6.929   1.331
10433SOL    HW232199   2.745   6.908   1.299
10434SOL     OW32200   2.334   1.978   4.247
10434SOL    HW132201   2.373   1.978   4.339
10434SOL    HW232202   2.277   2.060   4.235
10435SOL     OW32203   5.883   5.641   6.813
10435SOL    HW132204   5.789   5.643   6.779
10435SOL    HW232205   5.929   5.726   6.789
10436SOL     OW32206   0.985   0.138   2.053
10436SOL    HW132207   1.085   0.140   2.064
10436SOL    HW232208   0.962   0.110   1.960
10437SOL     OW32209   6.662   5.093   5.706
10437SOL    HW132210   6.741   5.035   5.726
10437SOL    HW232211   6.604   5.099   5.787
10438SOL     OW32212   3.780   6.861   6.345
10438SOL    HW132213   3.706   6.860   6.278
10438SOL    HW232214   3.842   6.937   6.326
10439SOL     OW32215   4.074   0.742   5.830
10439SOL    HW132216   4.137   0.687   5.775
10439SOL    HW232217   4.126   0.795   5.898
10440SOL     OW32218   2.261   6.112   0.610
10440SOL    HW132219   2.213   6.034   0.649
10440SOL    HW232220   2.200   6.163   0.550
10441SOL     OW32221   3.827   0.717   6.850
10441SOL    HW132222   3.849   0.649   6.921
10441SOL    HW232223   3.810   0.670   6.764
10442SOL     OW32224   4.421   6.022   5.558
10442SOL    HW132225   4.448   5.929   5.585
10442SOL    HW232226   4.419   6.029   5.459
10443SOL     OW32227   6.127   2.779   5.034
10443SOL    HW132228   6.037   2.755   4.999
10443SOL    HW232229   6.144   2.730   5.120
10444SOL     OW32230   3.504   4.910   4.227
10444SOL    HW132231   3.569   4.964   4.175
10444SOL    HW232232   3.418   4.960   4.237
10445SOL     OW32233   6.009   5.870   3.210
10445SOL    HW132234   5.935   5.857   3.277
10445SOL    HW232235   6.084   5.920   3.252
10446SOL     OW32236   0.865   6.356   6.548
10446SOL    HW132237   0.959   6.388   6.533
10446SOL    HW232238   0.809   6.431   6.583
10447SOL     OW32239   6.257   2.117   0.718
10447SOL    HW132240   6.240   2.032   0.668
10447SOL    HW232241   6.219   2.194   0.667
10448SOL     OW32242   3.423   3.882   2.246
10448SOL    HW132243   3.387   3.834   2.165
10448SOL    HW232244   3.456   3.815   2.312
10449SOL     OW32245   1.591   5.338   4.467
10449SOL    HW132246   1.650   5.396   4.523
10449SOL    HW232247   1.503   5.384   4.452
10450SOL     OW32248   0.303   2.767   0.544
10450SOL    HW132249   0.283   2.705   0.468
10450SOL    HW232250   0.231   2.759   0.613
10451SOL     OW32251   2.402   4.343   2.522
10451SOL    HW132252   2.455   4.363   2.439
10451SOL    HW232253   2.447   4.383   2.601
10452SOL     OW32254   1.124   3.535   4.630
10452SOL    HW132255   1.218   3.551   4.659
10452SOL    HW232256   1.123   3.486   4.543
10453SOL     OW32257   5.356   0.370   1.495
10453SOL    HW132258   5.350   0.272   1.473
10453SOL    HW232259   5.312   0.423   1.423
10454SOL     OW32260   4.921   3.485   2.456
10454SOL    HW132261   4.916   3.469   2.554
10454SOL    HW232262   4.886   3.405   2.407
10455SOL     OW32263   7.015   4.564   3.002
10455SOL    HW132264   7.006   4.467   3.025
10455SOL    HW232265   6.997   4.576   2.904
10456SOL     OW32266   3.675   6.084   1.616
10456SOL    HW132267   3.594   6.059   1.670
10456SOL    HW232268   3.736   6.140   1.671
10457SOL     OW32269   3.654   3.375   4.186
10457SOL    HW132270   3.599   3.417   4.114
10457SOL    HW232271   3.738   3.338   4.147
10458SOL     OW32272   6.320   6.782   1.552
10458SOL    HW132273   6.226   6.747   1.544
10458SOL    HW232274   6.347   6.825   1.466
10459SOL     OW32275   6.656   4.621   2.751
10459SOL    HW132276   6.598   4.667   2.684
10459SOL    HW232277   6.615   4.629   2.842
10460SOL     OW32278   1.808   4.532   1.883
10460SOL    HW132279   1.709   4.517   1.878
10460SOL    HW232280   1.826   4.623   1.918
10461SOL     OW32281   2.419   1.418   6.541
10461SOL    HW132282   2.439   1.344   6.606
10461SOL    HW232283   2.371   1.492   6.589
10462SOL     OW32284   5.051   0.067   1.213
10462SOL    HW132285   4.980   0.137   1.202
10462SOL    HW232286   5.065   0.020   1.125
10463SOL     OW32287   3.202   3.723   1.352
10463SOL    HW132288   3.284   3.776   1.373
10463SOL    HW232289   3.228   3.628   1.332
10464SOL     OW32290   5.360   6.804   1.315
10464SOL    HW132291   5.267   6.770   1.328
10464SOL    HW232292   5.367   6.849   1.226
10465SOL     OW32293   6.820   5.137   4.994
10465SOL    HW132294   6.760   5.057   4.986
10465SOL    HW232295   6.863   5.156   4.906
10466SOL     OW32296   4.931   6.240   6.517
10466SOL    HW132297   4.972   6.325   6.549
10466SOL    HW232298   4.946   6.168   6.584
10467SOL     OW32299   4.418   1.085   3.711
10467SOL    HW132300   4.493   1.096   3.776
10467SOL    HW232301   4.343   1.035   3.754
10468SOL     OW32302   3.346   5.564   3.381
10468SOL    HW132303   3.299   5.483   3.345
10468SOL    HW232304   3.444   5.557   3.363
10469SOL     OW32305   1.322   5.169   0.033
10469SOL    HW132306   1.339   5.200   6.962
10469SOL    HW232307   1.370   5.229   0.097
10470SOL     OW32308   3.144   1.595   4.132
10470SOL    HW132309   3.128   1.653   4.212
10470SOL    HW232310   3.145   1.652   4.049
10471SOL     OW32311   4.234   4.259   0.361
10471SOL    HW132312   4.180   4.185   0.399
10471SOL    HW232313   4.322   4.263   0.408
10472SOL     OW32314   4.538   1.688   3.444
10472SOL    HW132315   4.518   1.717   3.351
10472SOL    HW232316   4.483   1.741   3.508
10473SOL     OW32317   4.890   5.511   0.095
10473SOL    HW132318   4.918   5.557   0.011
10473SOL    HW232319   4.872   5.415   0.076
10474SOL     OW32320   5.374   1.168   3.894
10474SOL    HW132321   5.466   1.134   3.880
10474SOL    HW232322   5.378   1.258   3.938
10475SOL     OW32323   4.899   6.457   2.066
10475SOL    HW132324   4.904   6.530   1.999
10475SOL    HW232325   4.912   6.368   2.021
10476SOL     OW32326   0.471   4.631   6.889
10476SOL    HW132327   0.432   4.629   6.981
10476SOL    HW232328   0.426   4.701   6.835
10477SOL     OW32329   4.589   4.814   4.977
10477SOL    HW132330   4.688   4.805   4.966
10477SOL    HW232331   4.555   4.889   4.920
10478SOL     OW32332   0.352   6.051   2.942
10478SOL    HW132333   0.289   6.128   2.932
10478SOL    HW232334   0.333   5.983   2.872
10479SOL     OW32335   1.522   5.115   2.476
10479SOL    HW132336   1.463   5.087   2.551
10479SOL    HW232337   1.610   5.146   2.512
10480SOL     OW32338   5.637   0.233   1.830
10480SOL    HW132339   5.551   0.227   1.880
10480SOL    HW232340   5.687   0.147   1.838
10481SOL     OW32341   2.688   0.992   4.837
10481SOL    HW132342   2.765   0.931   4.854
10481SOL    HW232343   2.723   1.081   4.807
10482SOL     OW32344   0.970   5.743   6.336
10482SOL    HW132345   1.055   5.783   6.303
10482SOL    HW232346   0.989   5.676   6.407
10483SOL     OW32347   6.611   5.346   0.476
10483SOL    HW132348   6.679   5.419   0.487
10483SOL    HW232349   6.610   5.289   0.558
10484SOL     OW32350   5.993   2.102   1.145
10484SOL    HW132351   6.057   2.167   1.185
10484SOL    HW232352   5.957   2.043   1.217
10485SOL     OW32353   3.226   4.039   3.955
10485SOL    HW132354   3.319   4.075   3.956
10485SOL    HW232355   3.185   4.050   4.046
10486SOL     OW32356   5.976   5.275   5.254
10486SOL    HW132357   6.004   5.262   5.349
10486SOL    HW232358   5.884   5.237   5.241
10487SOL     OW32359   5.230   2.946   3.169
10487SOL    HW132360   5.134   2.917   3.165
10487SOL    HW232361   5.287   2.878   3.123
10488SOL     OW32362   0.478   2.440   5.066
10488SOL    HW132363   0.440   2.382   5.138
10488SOL    HW232364   0.487   2.387   4.982
10489SOL     OW32365   5.847   4.258   4.434
10489SOL    HW132366   5.849   4.308   4.347
10489SOL    HW232367   5.773   4.293   4.490
10490SOL     OW32368   5.566   6.346   6.427
10490SOL    HW132369   5.648   6.332   6.483
10490SOL    HW232370   5.589   6.401   6.346
10491SOL     OW32371   1.884   3.093   5.605
10491SOL    HW132372   1.936   3.070   5.523
10491SOL    HW232373   1.914   3.036   5.681
10492SOL     OW32374   2.981   5.909   0.678
10492SOL    HW132375   2.885   5.909   0.650
10492SOL    HW232376   3.032   5.972   0.620
10493SOL     OW32377   4.130   5.287   1.702
10493SOL    HW132378   4.033   5.265   1.710
10493SOL    HW232379   4.153   5.299   1.605
10494SOL     OW32380   0.736   4.785   4.282
10494SOL    HW132381   0.675   4.762   4.359
10494SOL    HW232382   0.800   4.856   4.310
10495SOL     OW32383   0.074   6.752   0.522
10495SOL    HW132384   0.131   6.688   0.574
10495SOL    HW232385   0.122   6.838   0.510
10496SOL     OW32386   0.158   4.800   6.253
10496SOL    HW132387   0.166   4.796   6.153
10496SOL    HW232388   0.206   4.881   6.287
10497SOL     OW32389   3.153   6.998   1.612
10497SOL    HW132390   3.220   6.945   1.663
10497SOL    HW232391   3.194   0.008   1.527
10498SOL     OW32392   3.980   3.642   6.752
10498SOL    HW132393   3.962   3.727   6.801
10498SOL    HW232394   4.031   3.662   6.668
10499SOL     OW32395   4.899   3.853   2.711
10499SOL    HW132396   4.901   3.762   2.753
10499SOL    HW232397   4.904   3.923   2.783
10500SOL     OW32398   1.300   3.204   5.219
10500SOL    HW132399   1.333   3.260   5.143
10500SOL    HW232400   1.292   3.109   5.189
10501SOL     OW32401   3.810   4.858   2.974
10501SOL    HW132402   3.845   4.935   2.922
10501SOL    HW232403   3.835   4.772   2.930
10502SOL     OW32404   3.305   3.580   2.789
10502SOL    HW132405   3.317   3.512   2.717
10502SOL    HW232406   3.208   3.587   2.812
10503SOL     OW32407   6.796   1.468   6.451
10503SOL    HW132408   6.885   1.479   6.406
10503SOL    HW232409   6.801   1.394   6.517
10504SOL     OW32410   1.249   3.817   5.927
10504SOL    HW132411   1.157   3.853   5.914
10504SOL    HW232412   1.245   3.733   5.981
10505SOL     OW32413   6.236   0.090   0.606
10505SOL    HW132414   6.249   0.141   0.521
10505SOL    HW232415   6.214   0.153   0.680
10506SOL     OW32416   1.528   4.416   5.900
10506SOL    HW132417   1.623   4.442   5.878
10506SOL    HW232418   1.496   4.350   5.832
10507SOL     OW32419   0.753   6.431   6.215
10507SOL    HW132420   0.673   6.395   6.167
10507SOL    HW232421   0.775   6.522   6.178
10508SOL     OW32422   1.558   6.009   6.752
10508SOL    HW132423   1.640   5.988   6.699
10508SOL    HW232424   1.503   5.927   6.764
10509SOL     OW32425   4.566   2.607   3.152
10509SOL    HW132426   4.617   2.650   3.226
10509SOL    HW232427   4.546   2.512   3.176
10510SOL     OW32428   5.841   5.829   3.399
10510SOL    HW132429   5.845   5.849   3.497
10510SOL    HW232430   5.812   5.734   3.385
10511SOL     OW32431   4.317   1.825   1.272
10511SOL    HW132432   4.359   1.830   1.181
10511SOL    HW232433   4.357   1.750   1.324
10512SOL     OW32434   3.993   1.476   5.924
10512SOL    HW132435   4.020   1.524   5.841
10512SOL    HW232436   4.067   1.417   5.955
10513SOL     OW32437   3.640   3.074   0.988
10513SOL    HW132438   3.649   3.047   0.892
10513SOL    HW232439   3.546   3.058   1.018
10514SOL     OW32440   1.310   5.181   1.568
10514SOL    HW132441   1.251   5.241   1.514
10514SOL    HW232442   1.275   5.088   1.565
10515SOL     OW32443   2.169   3.165   4.716
10515SOL    HW132444   2.202   3.244   4.664
10515SOL    HW232445   2.078   3.139   4.682
10516SOL     OW32446   5.774   1.968   2.044
10516SOL    HW132447   5.720   1.952   2.127
10516SOL    HW232448   5.780   2.066   2.026
10517SOL     OW32449   0.762   2.810   2.116
10517SOL    HW132450   0.692   2.848   2.176
10517SOL    HW232451   0.721   2.743   2.054
10518SOL     OW32452   0.605   5.738   2.098
10518SOL    HW132453   0.589   5.746   1.999
10518SOL    HW232454   0.693   5.780   2.120
10519SOL     OW32455   3.263   0.154   1.174
10519SOL    HW132456   3.346   0.210   1.172
10519SOL    HW232457   3.263   0.097   1.257
10520SOL     OW32458   1.802   2.035   6.319
10520SOL    HW132459   1.810   1.971   6.243
10520SOL    HW232460   1.891   2.078   6.335
10521SOL     OW32461   6.443   2.520   3.108
10521SOL    HW132462   6.396   2.555   3.027
10521SOL    HW232463   6.376   2.485   3.174
10522SOL     OW32464   5.385   1.415   4.025
10522SOL    HW132465   5.296   1.439   3.985
10522SOL    HW232466   5.384   1.437   4.122
10523SOL     OW32467   0.958   4.438   1.978
10523SOL    HW132468   1.032   4.384   2.020
10523SOL    HW232469   0.975   4.446   1.880
10524SOL     OW32470   6.830   5.798   4.636
10524SOL    HW132471   6.901   5.864   4.613
10524SOL    HW232472   6.850   5.758   4.725
10525SOL     OW32473   4.964   1.116   4.104
10525SOL    HW132474   5.016   1.174   4.166
10525SOL    HW232475   5.010   1.111   4.015
10526SOL     OW32476   1.454   5.817   6.139
10526SOL    HW132477   1.498   5.812   6.049
10526SOL    HW232478   1.421   5.727   6.165
10527SOL     OW32479   0.012   6.192   5.544
10527SOL    HW132480   6.969   6.123   5.571
10527SOL    HW232481   7.016   6.278   5.592
10528SOL     OW32482   2.047   5.284   5.086
10528SOL    HW132483   2.006   5.248   5.170
10528SOL    HW232484   2.118   5.222   5.054
10529SOL     OW32485   0.075   5.240   1.030
10529SOL    HW132486   0.004   5.264   1.095
10529SOL    HW232487   0.048   5.158   0.979
10530SOL     OW32488   0.041   6.947   0.873
10530SOL    HW132489   6.998   6.976   0.803
10530SOL    HW232490   7.015   6.900   0.947
10531SOL     OW32491   3.840   2.306   5.891
10531SOL    HW132492   3.756   2.357   5.872
10531SOL    HW232493   3.832   2.214   5.854
10532SOL     OW32494   4.562   6.034   5.965
10532SOL    HW132495   4.474   6.045   5.919
10532SOL    HW232496   4.609   5.953   5.929
10533SOL     OW32497   3.954   6.722   3.219
10533SOL    HW132498   3.928   6.806   3.267
10533SOL    HW232499   4.051   6.704   3.232
10534SOL     OW32500   1.806   6.181   3.825
10534SOL    HW132501   1.767   6.097   3.862
10534SOL    HW232502   1.771   6.197   3.733
10535SOL     OW32503   3.771   2.113   2.384
10535SOL    HW132504   3.679   2.076   2.373
10535SOL    HW232505   3.823   2.100   2.300
10536SOL     OW32506   5.833   3.970   5.181
10536SOL    HW132507   5.908   4.024   5.220
10536SOL    HW232508   5.834   3.978   5.082
10537SOL     OW32509   3.992   1.403   3.811
10537SOL    HW132510   3.909   1.378   3.761
10537SOL    HW232511   4.072   1.372   3.759
10538SOL     OW32512   6.642   2.582   3.305
10538SOL    HW132513   6.586   2.547   3.230
10538SOL    HW232514   6.684   2.506   3.354
10539SOL     OW32515   6.961   6.694   2.886
10539SOL    HW132516   6.934   6.653   2.973
10539SOL    HW232517   6.880   6.708   2.829
10540SOL     OW32518   1.613   4.177   0.098
10540SOL    HW132519   1.647   4.160   0.005
10540SOL    HW232520   1.537   4.115   0.117
10541SOL     OW32521   2.994   2.735   5.517
10541SOL    HW132522   3.012   2.653   5.462
10541SOL    HW232523   2.965   2.810   5.458
10542SOL     OW32524   4.882   6.597   2.903
10542SOL    HW132525   4.916   6.629   2.992
10542SOL    HW232526   4.911   6.660   2.832
10543SOL     OW32527   2.282   2.808   4.004
10543SOL    HW132528   2.220   2.883   4.024
10543SOL    HW232529   2.330   2.826   3.918
10544SOL     OW32530   2.562   1.433   2.596
10544SOL    HW132531   2.506   1.406   2.674
10544SOL    HW232532   2.591   1.528   2.608
10545SOL     OW32533   2.121   2.958   2.093
10545SOL    HW132534   2.153   2.905   2.172
10545SOL    HW232535   2.119   3.055   2.117
10546SOL     OW32536   2.822   6.608   6.317
10546SOL    HW132537   2.921   6.611   6.328
10546SOL    HW232538   2.777   6.620   6.405
10547SOL     OW32539   3.549   6.379   5.820
10547SOL    HW132540   3.498   6.357   5.903
10547SOL    HW232541   3.525   6.470   5.788
10548SOL     OW32542   0.919   6.436   3.421
10548SOL    HW132543   0.991   6.367   3.431
10548SOL    HW232544   0.890   6.468   3.512
10549SOL     OW32545   7.009   0.930   2.741
10549SOL    HW132546   0.061   0.869   2.715
10549SOL    HW232547   6.960   0.960   2.659
10550SOL     OW32548   5.321   5.759   3.213
10550SOL    HW132549   5.296   5.662   3.212
10550SOL    HW232550   5.243   5.813   3.182
10551SOL     OW32551   4.014   0.781   4.871
10551SOL    HW132552   3.921   0.817   4.882
10551SOL    HW232553   4.049   0.751   4.959
10552SOL     OW32554   3.099   0.232   3.334
10552SOL    HW132555   3.182   0.208   3.283
10552SOL    HW232556   3.028   0.165   3.315
10553SOL     OW32557   5.912   5.847   1.150
10553SOL    HW132558   5.992   5.787   1.155
10553SOL    HW232559   5.861   5.843   1.236
10554SOL     OW32560   6.082   6.419   1.892
10554SOL    HW132561   6.041   6.427   1.801
10554SOL    HW232562   6.157   6.485   1.900
10555SOL     OW32563   3.269   3.069   1.523
10555SOL    HW132564   3.323   2.996   1.482
10555SOL    HW232565   3.183   3.031   1.559
10556SOL     OW32566   2.510   1.691   1.696
10556SOL    HW132567   2.464   1.651   1.776
10556SOL    HW232568   2.579   1.756   1.727
10557SOL     OW32569   1.833   4.313   3.052
10557SOL    HW132570   1.810   4.368   3.133
10557SOL    HW232571   1.883   4.232   3.081
10558SOL     OW32572   4.088   4.816   4.461
10558SOL    HW132573   4.020   4.848   4.527
10558SOL    HW232574   4.172   4.793   4.509
10559SOL     OW32575   3.737   6.438   1.751
10559SOL    HW132576   3.792   6.356   1.769
10559SOL    HW232577   3.737   6.457   1.652
10560SOL     OW32578   5.670   6.909   3.518
10560SOL    HW132579   5.603   6.877   3.585
10560SOL    HW232580   5.662   6.855   3.435
10561SOL     OW32581   0.725   5.079   6.374
10561SOL    HW132582   0.749   5.168   6.413
10561SOL    HW232583   0.712   5.088   6.276
10562SOL     OW32584   4.193   5.986   2.658
10562SOL    HW132585   4.262   5.970   2.728
10562SOL    HW232586   4.235   5.983   2.567
10563SOL     OW32587   1.136   6.517   2.615
10563SOL    HW132588   1.109   6.515   2.711
10563SOL    HW232589   1.115   6.430   2.572
10564SOL     OW32590   5.292   4.363   3.089
10564SOL    HW132591   5.215   4.378   3.151
10564SOL    HW232592   5.278   4.417   3.006
10565SOL     OW32593   0.078   1.380   5.154
10565SOL    HW132594   0.081   1.349   5.249
10565SOL    HW232595   7.012   1.360   5.114
10566SOL     OW32596   3.396   1.929   1.152
10566SOL    HW132597   3.397   1.923   1.052
10566SOL    HW232598   3.399   1.837   1.190
10567SOL     OW32599   2.417   2.022   6.327
10567SOL    HW132600   2.428   2.074   6.412
10567SOL    HW232601   2.470   2.066   6.254
10568SOL     OW32602   4.863   2.088   5.927
10568SOL    HW132603   4.904   1.999   5.948
10568SOL    HW232604   4.935   2.156   5.914
10569SOL     OW32605   5.601   0.741   0.481
10569SOL    HW132606   5.567   0.669   0.421
10569SOL    HW232607   5.684   0.781   0.441
10570SOL     OW32608   1.786   3.447   3.365
10570SOL    HW132609   1.814   3.368   3.420
10570SOL    HW232610   1.696   3.429   3.326
10571SOL     OW32611   6.997   4.173   5.590
10571SOL    HW132612   6.979   4.268   5.562
10571SOL    HW232613   0.072   4.155   5.585
10572SOL     OW32614   6.496   4.433   0.782
10572SOL    HW132615   6.454   4.342   0.782
10572SOL    HW232616   6.430   4.500   0.748
10573SOL     OW32617   6.954   2.240   3.282
10573SOL    HW132618   6.863   2.246   3.242
10573SOL    HW232619   7.007   2.322   3.258
10574SOL     OW32620   6.045   2.137   2.831
10574SOL    HW132621   5.987   2.165   2.755
10574SOL    HW232622   6.004   2.164   2.918
10575SOL     OW32623   5.512   6.922   2.422
10575SOL    HW132624   5.495   6.976   2.504
10575SOL    HW232625   5.605   6.940   2.389
10576SOL     OW32626   1.302   3.782   4.444
10576SOL    HW132627   1.356   3.700   4.463
10576SOL    HW232628   1.229   3.760   4.380
10577SOL     OW32629   3.980   4.364   0.556
10577SOL    HW132630   3.935   4.449   0.530
10577SOL    HW232631   4.008   4.315   0.474
10578SOL     OW32632   0.758   3.501   2.124
10578SOL    HW132633   0.720   3.576   2.178
10578SOL    HW232634   0.836   3.461   2.173
10579SOL     OW32635   0.345   3.274   0.024
10579SOL    HW132636   0.357   3.373   0.023
10579SOL    HW232637   0.434   3.230   0.013
10580SOL     OW32638   5.630   6.936   6.594
10580SOL    HW132639   5.577   7.001   6.540
10580SOL    HW232640   5.575   6.855   6.613
10581SOL     OW32641   4.377   0.783   3.400
10581SOL    HW132642   4.327   0.862   3.364
10581SOL    HW232643   4.471   0.809   3.420
10582SOL     OW32644   6.507   3.221   6.380
10582SOL    HW132645   6.532   3.217   6.477
10582SOL    HW232646   6.539   3.139   6.333
10583SOL     OW32647   3.628   2.116   5.693
10583SOL    HW132648   3.724   2.087   5.701
10583SOL    HW232649   3.607   2.133   5.596
10584SOL     OW32650   0.557   0.434   3.199
10584SOL    HW132651   0.470   0.392   3.226
10584SOL    HW232652   0.633   0.380   3.235
10585SOL     OW32653   1.581   0.976   5.449
10585SOL    HW132654   1.664   0.925   5.426
10585SOL    HW232655   1.529   0.925   5.518
10586SOL     OW32656   4.530   4.093   5.589
10586SOL    HW132657   4.444   4.048   5.614
10586SOL    HW232658   4.528   4.188   5.620
10587SOL     OW32659   2.342   4.963   5.503
10587SOL    HW132660   2.440   4.980   5.502
10587SOL    HW232661   2.293   5.050   5.491
10588SOL     OW32662   1.849   4.166   3.867
10588SOL    HW132663   1.822   4.084   3.918
10588SOL    HW232664   1.789   4.178   3.789
10589SOL     OW32665   6.134   6.959   3.834
10589SOL    HW132666   6.135   6.901   3.752
10589SOL    HW232667   6.181   0.022   3.813
10590SOL     OW32668   0.922   4.995   2.618
10590SOL    HW132669   0.922   4.955   2.710
10590SOL    HW232670   0.857   5.070   2.614
10591SOL     OW32671   0.093   3.613   2.277
10591SOL    HW132672   0.036   3.532   2.287
10591SOL    HW232673   0.185   3.587   2.248
10592SOL     OW32674   0.542   2.928   4.363
10592SOL    HW132675   0.522   2.846   4.310
10592SOL    HW232676   0.579   2.901   4.452
10593SOL     OW32677   2.985   5.770   3.552
10593SOL    HW132678   2.993   5.869   3.539
10593SOL    HW232679   3.075   5.733   3.577
10594SOL     OW32680   3.636   5.705   3.636
10594SOL    HW132681   3.569   5.639   3.670
10594SOL    HW232682   3.591   5.770   3.575
10595SOL     OW32683   4.801   6.559   1.075
10595SOL    HW132684   4.804   6.585   0.979
10595SOL    HW232685   4.744   6.478   1.086
10596SOL     OW32686   5.235   3.713   0.365
10596SOL    HW132687   5.189   3.657   0.296
10596SOL    HW232688   5.169   3.741   0.434
10597SOL     OW32689   1.998   6.592   5.012
10597SOL    HW132690   1.969   6.647   5.090
10597SOL    HW232691   2.095   6.573   5.019
10598SOL     OW32692   3.156   0.722   0.200
10598SOL    HW132693   3.067   0.707   0.243
10598SOL    HW232694   3.160   0.815   0.164
10599SOL     OW32695   1.298   2.628   0.736
10599SOL    HW132696   1.254   2.655   0.650
10599SOL    HW232697   1.263   2.539   0.765
10600SOL     OW32698   3.971   1.363   1.708
10600SOL    HW132699   3.937   1.283   1.756
10600SOL    HW232700   4.071   1.363   1.710
10601SOL     OW32701   2.015   1.097   4.657
10601SOL    HW132702   1.924   1.085   4.617
10601SOL    HW232703   2.007   1.095   4.757
10602SOL     OW32704   6.335   6.806   1.268
10602SOL    HW132705   6.358   6.885   1.212
10602SOL    HW232706   6.275   6.744   1.217
10603SOL     OW32707   5.812   0.438   2.846
10603SOL    HW132708   5.856   0.354   2.812
10603SOL    HW232709   5.871   0.516   2.825
10604SOL     OW32710   4.765   1.821   4.898
10604SOL    HW132711   4.716   1.786   4.819
10604SOL    HW232712   4.706   1.883   4.949
10605SOL     OW32713   3.637   1.952   1.270
10605SOL    HW132714   3.606   1.969   1.363
10605SOL    HW232715   3.559   1.943   1.209
10606SOL     OW32716   6.498   1.088   0.394
10606SOL    HW132717   6.433   1.062   0.323
10606SOL    HW232718   6.472   1.177   0.432
10607SOL     OW32719   3.233   4.095   0.774
10607SOL    HW132720   3.261   4.135   0.686
10607SOL    HW232721   3.149   4.139   0.805
10608SOL     OW32722   5.465   4.152   3.866
10608SOL    HW132723   5.555   4.188   3.842
10608SOL    HW232724   5.475   4.077   3.932
10609SOL     OW32725   5.755   0.145   6.446
10609SOL    HW132726   5.781   0.088   6.368
10609SOL    HW232727   5.743   0.087   6.526
10610SOL     OW32728   0.552   1.440   3.376
10610SOL    HW132729   0.502   1.361   3.343
10610SOL    HW232730   0.495   1.522   3.369
10611SOL     OW32731   4.128   5.226   5.097
10611SOL    HW132732   4.179   5.280   5.030
10611SOL    HW232733   4.133   5.129   5.072
10612SOL     OW32734   6.369   2.577   3.709
10612SOL    HW132735   6.385   2.669   3.745
10612SOL    HW232736   6.410   2.510   3.770
10613SOL     OW32737   4.819   5.986   4.403
10613SOL    HW132738   4.823   6.018   4.308
10613SOL    HW232739   4.880   5.907   4.414
10614SOL     OW32740   4.011   2.513   6.323
10614SOL    HW132741   3.924   2.550   6.354
10614SOL    HW232742   3.995   2.429   6.270
10615SOL     OW32743   2.530   2.507   5.277
10615SOL    HW132744   2.623   2.544   5.274
10615SOL    HW232745   2.479   2.538   5.198
10616SOL     OW32746   1.584   6.014   0.283
10616SOL    HW132747   1.524   5.965   0.220
10616SOL    HW232748   1.659   5.955   0.310
10617SOL     OW32749   1.588   2.985   0.989
10617SOL    HW132750   1.525   3.062   0.998
10617SOL    HW232751   1.552   2.919   0.924
10618SOL     OW32752   1.129   5.248   4.527
10618SOL    HW132753   1.197   5.315   4.495
10618SOL    HW232754   1.133   5.167   4.469
10619SOL     OW32755   0.831   2.858   1.794
10619SOL    HW132756   0.817   2.763   1.820
10619SOL    HW232757   0.757   2.887   1.733
10620SOL     OW32758   3.400   0.968   5.912
10620SOL    HW132759   3.422   0.870   5.908
10620SOL    HW232760   3.454   1.016   5.844
10621SOL     OW32761   0.720   4.139   2.923
10621SOL    HW132762   0.791   4.206   2.945
10621SOL    HW232763   0.684   4.098   3.006
10622SOL     OW32764   4.660   2.247   0.129
10622SOL    HW132765   4.574   2.250   0.078
10622SOL    HW232766   4.652   2.304   0.210
10623SOL     OW32767   5.039   5.549   5.635
10623SOL    HW132768   4.985   5.630   5.659
10623SOL    HW232769   4.978   5.477   5.603
10624SOL     OW32770   0.282   2.071   6.701
10624SOL    HW132771   0.341   2.137   6.749
10624SOL    HW232772   0.314   2.061   6.607
10625SOL     OW32773   6.827   5.884   0.712
10625SOL    HW132774   6.862   5.855   0.623
10625SOL    HW232775   6.855   5.819   0.782
10626SOL     OW32776   5.793   2.686   2.140
10626SOL    HW132777   5.887   2.662   2.118
10626SOL    HW232778   5.748   2.725   2.060
10627SOL     OW32779   5.888   4.744   5.386
10627SOL    HW132780   5.843   4.833   5.380
10627SOL    HW232781   5.902   4.708   5.294
10628SOL     OW32782   2.906   6.264   0.425
10628SOL    HW132783   2.827   6.214   0.460
10628SOL    HW232784   2.899   6.360   0.452
10629SOL     OW32785   4.712   5.226   4.134
10629SOL    HW132786   4.765   5.239   4.218
10629SOL    HW232787   4.681   5.131   4.129
10630SOL     OW32788   4.067   1.235   1.250
10630SOL    HW132789   3.968   1.223   1.250
10630SOL    HW232790   4.098   1.263   1.340
10631SOL     OW32791   3.233   5.538   2.137
10631SOL    HW132792   3.174   5.494   2.205
10631SOL    HW232793   3.231   5.485   2.052
10632SOL     OW32794   5.688   6.886   4.424
10632SOL    HW132795   5.590   6.906   4.427
10632SOL    HW232796   5.702   6.788   4.438
10633SOL     OW32797   2.480   3.301   0.109
10633SOL    HW132798   2.568   3.340   0.134
10633SOL    HW232799   2.490   3.247   0.025
10634SOL     OW32800   0.167   4.312   6.863
10634SOL    HW132801   0.098   4.254   6.818
10634SOL    HW232802   0.240   4.333   6.798
10635SOL     OW32803   3.172   5.818   6.483
10635SOL    HW132804   3.209   5.798   6.574
10635SOL    HW232805   3.133   5.911   6.483
10636SOL     OW32806   6.401   2.878   0.332
10636SOL    HW132807   6.305   2.860   0.309
10636SOL    HW232808   6.424   2.972   0.306
10637SOL     OW32809   2.504   0.739   6.339
10637SOL    HW132810   2.527   0.641   6.342
10637SOL    HW232811   2.580   0.792   6.377
10638SOL     OW32812   4.901   5.333   0.735
10638SOL    HW132813   4.938   5.302   0.822
10638SOL    HW232814   4.973   5.380   0.683
10639SOL     OW32815   6.814   5.015   1.170
10639SOL    HW132816   6.761   4.936   1.202
10639SOL    HW232817   6.878   5.044   1.241
10640SOL     OW32818   3.992   6.280   3.874
10640SOL    HW132819   3.995   6.257   3.777
10640SOL    HW232820   3.897   6.300   3.900
10641SOL     OW32821   0.924   1.350   2.839
10641SOL    HW132822   0.912   1.439   2.882
10641SOL    HW232823   0.992   1.357   2.766
10642SOL     OW32824   6.980   2.415   6.480
10642SOL    HW132825   7.006   2.441   6.573
10642SOL    HW232826   6.886   2.445   6.462
10643SOL     OW32827   2.136   4.968   6.003
10643SOL    HW132828   2.176   4.966   5.912
10643SOL    HW232829   2.205   4.939   6.070
10644SOL     OW32830   0.202   3.058   3.127
10644SOL    HW132831   0.122   3.118   3.129
10644SOL    HW232832   0.258   3.081   3.047
10645SOL     OW32833   2.265   2.375   2.918
10645SOL    HW132834   2.291   2.387   3.013
10645SOL    HW232835   2.346   2.349   2.864
10646SOL     OW32836   5.264   0.358   3.871
10646SOL    HW132837   5.186   0.305   3.837
10646SOL    HW232838   5.347   0.304   3.862
10647SOL     OW32839   3.884   5.350   5.161
10647SOL    HW132840   3.982   5.335   5.150
10647SOL    HW232841   3.838   5.339   5.073
10648SOL     OW32842   4.963   4.557   5.436
10648SOL    HW132843   5.060   4.573   5.420
10648SOL    HW232844   4.910   4.594   5.360
10649SOL     OW32845   6.321   3.143   3.064
10649SOL    HW132846   6.322   3.056   3.113
10649SOL    HW232847   6.316   3.219   3.129
10650SOL     OW32848   0.381   0.368   2.423
10650SOL    HW132849   0.346   0.316   2.500
10650SOL    HW232850   0.470   0.407   2.446
10651SOL     OW32851   2.886   5.416   5.781
10651SOL    HW132852   2.901   5.500   5.834
10651SOL    HW232853   2.973   5.386   5.741
10652SOL     OW32854   1.905   0.323   6.768
10652SOL    HW132855   1.852   0.351   6.849
10652SOL    HW232856   1.954   0.402   6.732
10653SOL     OW32857   5.417   5.731   4.482
10653SOL    HW132858   5.478   5.745   4.404
10653SOL    HW232859   5.435   5.802   4.551
10654SOL     OW32860   6.620   2.126   3.908
10654SOL    HW132861   6.555   2.140   3.833
10654SOL    HW232862   6.648   2.030   3.911
10655SOL     OW32863   0.040   5.028   0.863
10655SOL    HW132864   0.039   4.977   0.949
10655SOL    HW232865   0.134   5.037   0.830
10656SOL     OW32866   5.106   1.822   4.842
10656SOL    HW132867   5.082   1.906   4.891
10656SOL    HW232868   5.030   1.793   4.785
10657SOL     OW32869   5.226   0.715   5.382
10657SOL    HW132870   5.160   0.663   5.328
10657SOL    HW232871   5.182   0.751   5.464
10658SOL     OW32872   0.909   2.133   5.281
10658SOL    HW132873   0.970   2.129   5.201
10658SOL    HW232874   0.904   2.227   5.314
10659SOL     OW32875   0.188   5.840   0.829
10659SOL    HW132876   0.178   5.830   0.730
10659SOL    HW232877   0.201   5.751   0.871
10660SOL     OW32878   5.793   3.201   6.027
10660SOL    HW132879   5.762   3.134   6.095
10660SOL    HW232880   5.841   3.154   5.953
10661SOL     OW32881   3.395   5.071   5.016
10661SOL    HW132882   3.356   5.018   4.940
10661SOL    HW232883   3.346   5.048   5.100
10662SOL     OW32884   3.119   1.494   1.131
10662SOL    HW132885   3.036   1.456   1.174
10662SOL    HW232886   3.179   1.531   1.202
10663SOL     OW32887   0.757   2.377   3.559
10663SOL    HW132888   0.777   2.430   3.476
10663SOL    HW232889   0.658   2.379   3.575
10664SOL     OW32890   1.666   5.722   4.525
10664SOL    HW132891   1.711   5.788   4.586
10664SOL    HW232892   1.705   5.632   4.540
10665SOL     OW32893   3.487   3.067   0.546
10665SOL    HW132894   3.506   3.101   0.455
10665SOL    HW232895   3.402   3.108   0.580
10666SOL     OW32896   3.934   3.505   1.276
10666SOL    HW132897   3.953   3.452   1.359
10666SOL    HW232898   3.982   3.463   1.198
10667SOL     OW32899   5.714   2.770   4.520
10667SOL    HW132900   5.622   2.756   4.481
10667SOL    HW232901   5.712   2.750   4.618
10668SOL     OW32902   3.518   2.688   6.083
10668SOL    HW132903   3.500   2.716   6.177
10668SOL    HW232904   3.554   2.595   6.083
10669SOL     OW32905   6.507   1.966   1.375
10669SOL    HW132906   6.428   1.975   1.315
10669SOL    HW232907   6.583   1.925   1.324
10670SOL     OW32908   4.891   3.882   4.199
10670SOL    HW132909   4.848   3.965   4.164
10670SOL    HW232910   4.897   3.887   4.299
10671SOL     OW32911   1.620   3.480   5.024
10671SOL    HW132912   1.581   3.391   4.998
10671SOL    HW232913   1.712   3.467   5.060
10672SOL     OW32914   6.207   4.043   2.162
10672SOL    HW132915   6.121   3.998   2.183
10672SOL    HW232916   6.270   3.977   2.121
10673SOL     OW32917   2.421   1.547   1.081
10673SOL    HW132918   2.428   1.461   1.031
10673SOL    HW232919   2.499   1.555   1.143
10674SOL     OW32920   3.676   3.589   4.367
10674SOL    HW132921   3.646   3.670   4.315
10674SOL    HW232922   3.677   3.510   4.306
10675SOL     OW32923   3.554   6.918   5.493
10675SOL    HW132924   3.515   6.917   5.585
10675SOL    HW232925   3.653   6.919   5.499
10676SOL     OW32926   1.276   0.275   5.778
10676SOL    HW132927   1.178   0.297   5.774
10676SOL    HW232928   1.308   0.248   5.687
10677SOL     OW32929   0.652   2.148   0.007
10677SOL    HW132930   0.688   2.118   6.942
10677SOL    HW232931   0.686   2.087   0.079
10678SOL     OW32932   4.162   5.417   2.448
10678SOL    HW132933   4.189   5.513   2.458
10678SOL    HW232934   4.235   5.358   2.484
10679SOL     OW32935   4.847   4.116   0.138
10679SOL    HW132936   4.940   4.114   0.102
10679SOL    HW232937   4.845   4.071   0.227
10680SOL     OW32938   4.040   1.607   5.681
10680SOL    HW132939   4.026   1.645   5.589
10680SOL    HW232940   4.048   1.507   5.675
10681SOL     OW32941   2.475   3.268   5.321
10681SOL    HW132942   2.391   3.295   5.369
10681SOL    HW232943   2.457   3.189   5.263
10682SOL     OW32944   5.121   4.108   6.363
10682SOL    HW132945   5.105   4.012   6.385
10682SOL    HW232946   5.033   4.155   6.355
10683SOL     OW32947   2.773   0.545   3.698
10683SOL    HW132948   2.789   0.612   3.625
10683SOL    HW232949   2.747   0.457   3.658
10684SOL     OW32950   4.660   4.503   1.813
10684SOL    HW132951   4.591   4.562   1.771
10684SOL    HW232952   4.615   4.432   1.868
10685SOL     OW32953   0.842   6.770   2.485
10685SOL    HW132954   0.855   6.800   2.579
10685SOL    HW232955   0.911   6.813   2.427
10686SOL     OW32956   2.616   0.667   6.773
10686SOL    HW132957   2.518   0.662   6.796
10686SOL    HW232958   2.627   0.714   6.686
10687SOL     OW32959   0.626   3.276   3.567
10687SOL    HW132960   0.719   3.296   3.598
10687SOL    HW232961   0.630   3.214   3.488
10688SOL     OW32962   5.113   1.046   3.016
10688SOL    HW132963   5.111   1.072   3.113
10688SOL    HW232964   5.184   1.099   2.969
10689SOL     OW32965   0.834   7.000   2.206
10689SOL    HW132966   0.884   0.048   2.156
10689SOL    HW232967   0.879   6.983   2.293
10690SOL     OW32968   0.921   6.522   4.126
10690SOL    HW132969   0.996   6.494   4.187
10690SOL    HW232970   0.898   6.445   4.066
10691SOL     OW32971   3.901   6.928   2.351
10691SOL    HW132972   3.994   6.924   2.387
10691SOL    HW232973   3.852   7.004   2.393
10692SOL     OW32974   2.671   1.479   4.720
10692SOL    HW132975   2.690   1.525   4.633
10692SOL    HW232976   2.603   1.532   4.771
10693SOL     OW32977   1.370   5.778   6.834
10693SOL    HW132978   1.276   5.745   6.845
10693SOL    HW232979   1.431   5.722   6.890
10694SOL     OW32980   4.683   0.743   4.993
10694SOL    HW132981   4.773   0.753   4.952
10694SOL    HW232982   4.691   0.712   5.087
10695SOL     OW32983   5.563   4.715   1.909
10695SOL    HW132984   5.662   4.701   1.915
10695SOL    HW232985   5.515   4.639   1.952
10696SOL     OW32986   6.310   4.710   4.015
10696SOL    HW132987   6.286   4.740   4.108
10696SOL    HW232988   6.339   4.790   3.962
10697SOL     OW32989   2.702   5.160   4.922
10697SOL    HW132990   2.686   5.255   4.950
10697SOL    HW232991   2.632   5.133   4.856
10698SOL     OW32992   3.471   3.511   0.048
10698SOL    HW132993   3.460   3.500   0.146
10698SOL    HW232994   3.565   3.489   0.022
10699SOL     OW32995   3.709   2.629   0.795
10699SOL    HW132996   3.638   2.600   0.731
10699SOL    HW232997   3.799   2.619   0.752
10700SOL     OW32998   4.776   0.842   1.531
10700SOL    HW132999   4.697   0.904   1.530
10700SOL    HW233000   4.854   0.889   1.573
10701SOL     OW33001   3.321   6.976   6.475
10701SOL    HW133002   3.363   7.012   6.559
10701SOL    HW233003   3.363   6.889   6.451
10702SOL     OW33004   5.868   2.374   1.585
10702SOL    HW133005   5.958   2.335   1.564
10702SOL    HW233006   5.878   2.446   1.654
10703SOL     OW33007   0.506   2.618   5.713
10703SOL    HW133008   0.433   2.628   5.781
10703SOL    HW233009   0.472   2.564   5.636
10704SOL     OW33010   4.684   6.707   2.235
10704SOL    HW133011   4.596   6.745   2.264
10704SOL    HW233012   4.758   6.763   2.273
10705SOL     OW33013   5.738   3.686   1.025
10705SOL    HW133014   5.641   3.709   1.031
10705SOL    HW233015   5.793   3.769   1.013
10706SOL     OW33016   3.745   0.624   1.265
10706SOL    HW133017   3.662   0.671   1.294
10706SOL    HW233018   3.735   0.596   1.169
10707SOL     OW33019   5.019   0.047   3.829
10707SOL    HW133020   4.994   0.103   3.908
10707SOL    HW233021   4.978   0.086   3.747
10708SOL     OW33022   4.234   1.628   2.142
10708SOL    HW133023   4.282   1.595   2.060
10708SOL    HW233024   4.147   1.670   2.115
10709SOL     OW33025   5.704   4.892   3.390
10709SOL    HW133026   5.720   4.980   3.345
10709SOL    HW233027   5.640   4.838   3.335
10710SOL     OW33028   4.675   2.002   3.934
10710SOL    HW133029   4.772   1.979   3.926
10710SOL    HW233030   4.666   2.090   3.980
10711SOL     OW33031   3.514   6.904   2.179
10711SOL    HW133032   3.567   6.847   2.116
10711SOL    HW233033   3.421   6.912   2.146
10712SOL     OW33034   5.613   0.251   3.248
10712SOL    HW133035   5.698   0.273   3.296
10712SOL    HW233036   5.613   0.155   3.221
10713SOL     OW33037   1.672   4.218   1.696
10713SOL    HW133038   1.694   4.231   1.599
10713SOL    HW233039   1.574   4.228   1.709
10714SOL     OW33040   2.831   3.831   5.104
10714SOL    HW133041   2.797   3.914   5.060
10714SOL    HW233042   2.852   3.850   5.200
10715SOL     OW33043   6.051   0.779   1.876
10715SOL    HW133044   6.091   0.856   1.827
10715SOL    HW233045   6.087   0.693   1.839
10716SOL     OW33046   5.098   1.193   3.280
10716SOL    HW133047   5.189   1.235   3.269
10716SOL    HW233048   5.032   1.240   3.221
10717SOL     OW33049   2.225   2.294   6.297
10717SOL    HW133050   2.261   2.379   6.334
10717SOL    HW233051   2.300   2.237   6.264
10718SOL     OW33052   2.016   5.445   5.558
10718SOL    HW133053   2.108   5.460   5.523
10718SOL    HW233054   1.953   5.512   5.518
10719SOL     OW33055   6.670   5.899   4.355
10719SOL    HW133056   6.748   5.888   4.417
10719SOL    HW233057   6.677   5.987   4.308
10720SOL     OW33058   6.922   4.961   3.719
10720SOL    HW133059   6.903   4.894   3.647
10720SOL    HW233060   6.880   5.049   3.694
10721SOL     OW33061   5.510   3.412   5.521
10721SOL    HW133062   5.451   3.479   5.566
10721SOL    HW233063   5.580   3.380   5.585
10722SOL     OW33064   6.830   4.213   5.824
10722SOL    HW133065   6.869   4.302   5.848
10722SOL    HW233066   6.877   4.176   5.744
10723SOL     OW33067   5.886   0.110   0.805
10723SOL    HW133068   5.834   0.193   0.786
10723SOL    HW233069   5.843   0.033   0.758
10724SOL     OW33070   6.631   6.471   0.280
10724SOL    HW133071   6.642   6.565   0.247
10724SOL    HW233072   6.690   6.458   0.360
10725SOL     OW33073   2.310   6.006   5.525
10725SOL    HW133074   2.282   6.067   5.450
10725SOL    HW233075   2.230   5.975   5.575
10726SOL     OW33076   4.913   1.542   4.183
10726SOL    HW133077   4.846   1.616   4.186
10726SOL    HW233078   4.907   1.489   4.268
10727SOL     OW33079   1.790   6.402   5.404
10727SOL    HW133080   1.692   6.401   5.382
10727SOL    HW233081   1.803   6.383   5.501
10728SOL     OW33082   5.396   6.578   0.592
10728SOL    HW133083   5.324   6.622   0.645
10728SOL    HW233084   5.423   6.492   0.635
10729SOL     OW33085   6.395   2.905   1.267
10729SOL    HW133086   6.464   2.976   1.256
10729SOL    HW233087   6.355   2.910   1.359
10730SOL     OW33088   4.543   0.250   2.753
10730SOL    HW133089   4.519   0.298   2.668
10730SOL    HW233090   4.588   0.314   2.815
10731SOL     OW33091   4.563   0.231   1.202
10731SOL    HW133092   4.552   0.255   1.299
10731SOL    HW233093   4.613   0.305   1.156
10732SOL     OW33094   0.613   4.583   5.540
10732SOL    HW133095   0.620   4.662   5.601
10732SOL    HW233096   0.592   4.614   5.448
10733SOL     OW33097   6.698   2.763   6.838
10733SOL    HW133098   6.660   2.692   6.778
10733SOL    HW233099   6.679   2.740   6.934
10734SOL     OW33100   0.192   2.805   1.749
10734SOL    HW133101   0.288   2.777   1.741
10734SOL    HW233102   0.146   2.792   1.661
10735SOL     OW33103   0.238   4.032   2.840
10735SOL    HW133104   0.154   4.042   2.786
10735SOL    HW233105   0.219   3.974   2.920
10736SOL     OW33106   2.520   0.482   3.392
10736SOL    HW133107   2.421   0.465   3.387
10736SOL    HW233108   2.536   0.573   3.429
10737SOL     OW33109   6.829   2.237   1.631
10737SOL    HW133110   6.795   2.247   1.537
10737SOL    HW233111   6.925   2.210   1.630
10738SOL     OW33112   4.152   0.280   3.604
10738SOL    HW133113   4.158   0.199   3.546
10738SOL    HW233114   4.223   0.277   3.674
10739SOL     OW33115   1.972   1.682   1.527
10739SOL    HW133116   1.941   1.776   1.540
10739SOL    HW233117   2.072   1.679   1.526
10740SOL     OW33118   5.144   5.022   3.082
10740SOL    HW133119   5.056   4.994   3.119
10740SOL    HW233120   5.197   4.941   3.057
10741SOL     OW33121   4.031   0.759   3.290
10741SOL    HW133122   3.975   0.766   3.373
10741SOL    HW233123   4.112   0.817   3.300
10742SOL     OW33124   6.885   5.472   0.494
10742SOL    HW133125   6.892   5.434   0.586
10742SOL    HW233126   6.926   5.408   0.429
10743SOL     OW33127   2.497   1.616   4.879
10743SOL    HW133128   2.536   1.689   4.935
10743SOL    HW233129   2.419   1.651   4.828
10744SOL     OW33130   4.186   1.579   1.017
10744SOL    HW133131   4.243   1.646   0.969
10744SOL    HW233132   4.242   1.501   1.045
10745SOL     OW33133   6.973   5.680   6.155
10745SOL    HW133134   7.010   5.748   6.218
10745SOL    HW233135   6.980   5.715   6.061
10746SOL     OW33136   0.400   4.259   5.908
10746SOL    HW133137   0.422   4.282   6.003
10746SOL    HW233138   0.306   4.226   5.903
10747SOL     OW33139   3.258   1.583   4.495
10747SOL    HW133140   3.191   1.511   4.480
10747SOL    HW233141   3.268   1.600   4.593
10748SOL     OW33142   5.107   1.159   2.706
10748SOL    HW133143   5.032   1.098   2.679
10748SOL    HW233144   5.091   1.250   2.666
10749SOL     OW33145   2.317   6.640   5.978
10749SOL    HW133146   2.304   6.626   6.076
10749SOL    HW233147   2.298   6.735   5.955
10750SOL     OW33148   4.059   0.745   6.607
10750SOL    HW133149   4.037   0.792   6.692
10750SOL    HW233150   4.157   0.723   6.605
10751SOL     OW33151   2.684   4.780   3.870
10751SOL    HW133152   2.621   4.848   3.833
10751SOL    HW233153   2.719   4.812   3.958
10752SOL     OW33154   4.922   5.256   3.970
10752SOL    HW133155   4.993   5.302   4.023
10752SOL    HW233156   4.836   5.257   4.021
10753SOL     OW33157   6.788   3.320   4.818
10753SOL    HW133158   6.716   3.376   4.776
10753SOL    HW233159   6.873   3.372   4.818
10754SOL     OW33160   1.856   0.164   2.354
10754SOL    HW133161   1.903   0.220   2.285
10754SOL    HW233162   1.874   0.068   2.335
10755SOL     OW33163   6.537   5.750   2.102
10755SOL    HW133164   6.571   5.662   2.070
10755SOL    HW233165   6.610   5.818   2.095
10756SOL     OW33166   0.192   7.018   5.280
10756SOL    HW133167   0.203   0.048   5.196
10756SOL    HW233168   0.231   6.927   5.268
10757SOL     OW33169   2.806   3.413   1.044
10757SOL    HW133170   2.724   3.382   1.092
10757SOL    HW233171   2.843   3.338   0.989
10758SOL     OW33172   0.696   5.528   4.531
10758SOL    HW133173   0.687   5.460   4.458
10758SOL    HW233174   0.686   5.620   4.492
10759SOL     OW33175   0.338   2.911   6.763
10759SOL    HW133176   0.317   2.957   6.849
10759SOL    HW233177   0.269   2.934   6.695
10760SOL     OW33178   6.145   1.075   3.839
10760SOL    HW133179   6.118   0.998   3.896
10760SOL    HW233180   6.154   1.044   3.744
10761SOL     OW33181   2.974   5.040   5.373
10761SOL    HW133182   2.980   4.951   5.326
10761SOL    HW233183   2.888   5.084   5.348
10762SOL     OW33184   3.608   0.797   4.577
10762SOL    HW133185   3.531   0.739   4.604
10762SOL    HW233186   3.693   0.757   4.612
10763SOL     OW33187   4.257   6.483   3.575
10763SOL    HW133188   4.342   6.441   3.543
10763SOL    HW233189   4.279   6.562   3.632
10764SOL     OW33190   5.746   0.494   4.742
10764SOL    HW133191   5.689   0.556   4.689
10764SOL    HW233192   5.742   0.519   4.839
10765SOL     OW33193   5.300   3.737   0.865
10765SOL    HW133194   5.362   3.760   0.939
10765SOL    HW233195   5.341   3.666   0.807
10766SOL     OW33196   4.131   2.907   1.524
10766SOL    HW133197   4.219   2.879   1.564
10766SOL    HW233198   4.078   2.825   1.503
10767SOL     OW33199   3.734   1.021   2.062
10767SOL    HW133200   3.754   0.935   2.111
10767SOL    HW233201   3.639   1.046   2.076
10768SOL     OW33202   6.876   4.836   0.409
10768SOL    HW133203   6.803   4.887   0.456
10768SOL    HW233204   6.853   4.828   0.312
10769SOL     OW33205   1.641   3.906   5.838
10769SOL    HW133206   1.602   3.817   5.862
10769SOL    HW233207   1.604   3.936   5.750
10770SOL     OW33208   4.476   6.388   3.463
10770SOL    HW133209   4.524   6.327   3.527
10770SOL    HW233210   4.543   6.447   3.417
10771SOL     OW33211   2.627   1.182   3.383
10771SOL    HW133212   2.722   1.155   3.368
10771SOL    HW233213   2.622   1.251   3.455
10772SOL     OW33214   5.563   5.326   3.881
10772SOL    HW133215   5.567   5.425   3.899
10772SOL    HW233216   5.520   5.280   3.959
10773SOL     OW33217   5.161   4.677   3.805
10773SOL    HW133218   5.181   4.775   3.808
10773SOL    HW233219   5.114   4.649   3.888
10774SOL     OW33220   0.890   0.802   3.728
10774SOL    HW133221   0.956   0.860   3.680
10774SOL    HW233222   0.931   0.712   3.744
10775SOL     OW33223   0.662   3.799   2.080
10775SOL    HW133224   0.673   3.774   2.176
10775SOL    HW233225   0.723   3.876   2.059
10776SOL     OW33226   1.585   0.298   6.420
10776SOL    HW133227   1.569   0.302   6.321
10776SOL    HW233228   1.621   0.386   6.451
10777SOL     OW33229   2.955   6.129   1.529
10777SOL    HW133230   2.923   6.115   1.436
10777SOL    HW233231   2.970   6.227   1.545
10778SOL     OW33232   6.512   5.763   3.016
10778SOL    HW133233   6.463   5.832   3.070
10778SOL    HW233234   6.595   5.736   3.064
10779SOL     OW33235   5.188   2.555   3.597
10779SOL    HW133236   5.243   2.476   3.570
10779SOL    HW233237   5.186   2.622   3.523
10780SOL     OW33238   0.319   1.002   2.739
10780SOL    HW133239   0.314   0.927   2.673
10780SOL    HW233240   0.269   0.977   2.821
10781SOL     OW33241   3.789   0.122   4.640
10781SOL    HW133242   3.719   0.151   4.575
10781SOL    HW233243   3.878   0.157   4.611
10782SOL     OW33244   6.480   5.408   4.083
10782SOL    HW133245   6.448   5.459   4.162
10782SOL    HW233246   6.442   5.315   4.086
10783SOL     OW33247   6.388   1.829   3.259
10783SOL    HW133248   6.443   1.907   3.230
10783SOL    HW233249   6.402   1.813   3.357
10784SOL     OW33250   2.857   1.133   4.308
10784SOL    HW133251   2.829   1.219   4.351
10784SOL    HW233252   2.841   1.057   4.371
10785SOL     OW33253   0.950   3.744   6.520
10785SOL    HW133254   0.922   3.675   6.586
10785SOL    HW233255   0.902   3.830   6.538
10786SOL     OW33256   0.430   5.145   3.057
10786SOL    HW133257   0.477   5.096   2.984
10786SOL    HW233258   0.383   5.079   3.116
10787SOL     OW33259   1.657   2.285   5.784
10787SOL    HW133260   1.734   2.228   5.757
10787SOL    HW233261   1.690   2.376   5.810
10788SOL     OW33262   5.659   3.975   6.608
10788SOL    HW133263   5.736   4.007   6.553
10788SOL    HW233264   5.639   3.880   6.584
10789SOL     OW33265   6.194   1.572   0.236
10789SOL    HW133266   6.155   1.652   0.191
10789SOL    HW233267   6.162   1.489   0.190
10790SOL     OW33268   0.019   6.166   2.982
10790SOL    HW133269   0.083   6.242   2.973
10790SOL    HW233270   6.949   6.197   2.962
10791SOL     OW33271   0.258   6.541   3.056
10791SOL    HW133272   0.236   6.472   2.987
10791SOL    HW233273   0.347   6.519   3.097
10792SOL     OW33274   3.857   4.194   5.368
10792SOL    HW133275   3.825   4.286   5.345
10792SOL    HW233276   3.843   4.177   5.465
10793SOL     OW33277   5.610   3.621   4.671
10793SOL    HW133278   5.575   3.534   4.635
10793SOL    HW233279   5.582   3.695   4.609
10794SOL     OW33280   2.987   3.673   3.406
10794SOL    HW133281   2.999   3.718   3.495
10794SOL    HW233282   3.023   3.731   3.334
10795SOL     OW33283   0.466   4.551   3.402
10795SOL    HW133284   0.525   4.514   3.330
10795SOL    HW233285   0.484   4.648   3.414
10796SOL     OW33286   2.090   6.278   4.953
10796SOL    HW133287   2.074   6.355   4.892
10796SOL    HW233288   2.009   6.263   5.011
10797SOL     OW33289   3.914   2.953   0.524
10797SOL    HW133290   3.825   2.949   0.569
10797SOL    HW233291   3.973   3.020   0.571
10798SOL     OW33292   0.049   1.900   0.289
10798SOL    HW133293   0.051   1.841   0.370
10798SOL    HW233294   0.138   1.944   0.278
10799SOL     OW33295   3.936   1.682   1.751
10799SOL    HW133296   4.014   1.687   1.689
10799SOL    HW233297   3.913   1.587   1.768
10800SOL     OW33298   1.175   0.189   1.674
10800SOL    HW133299   1.246   0.122   1.695
10800SOL    HW233300   1.209   0.281   1.697
10801SOL     OW33301   1.438   0.783   1.297
10801SOL    HW133302   1.404   0.752   1.208
10801SOL    HW233303   1.426   0.710   1.364
10802SOL     OW33304   6.735   0.280   3.427
10802SOL    HW133305   6.734   0.186   3.461
10802SOL    HW233306   6.667   0.334   3.477
10803SOL     OW33307   2.611   5.206   6.357
10803SOL    HW133308   2.606   5.172   6.263
10803SOL    HW233309   2.704   5.192   6.393
10804SOL     OW33310   0.105   3.786   4.335
10804SOL    HW133311   0.029   3.803   4.272
10804SOL    HW233312   0.158   3.869   4.348
10805SOL     OW33313   6.735   1.662   5.562
10805SOL    HW133314   6.769   1.570   5.542
10805SOL    HW233315   6.735   1.676   5.661
10806SOL     OW33316   1.974   4.451   6.967
10806SOL    HW133317   1.960   4.355   6.944
10806SOL    HW233318   1.954   4.466   0.041
10807SOL     OW33319   3.341   6.736   4.864
10807SOL    HW133320   3.423   6.734   4.807
10807SOL    HW233321   3.366   6.749   4.960
10808SOL     OW33322   0.538   3.442   6.067
10808SOL    HW133323   0.505   3.368   6.010
10808SOL    HW233324   0.636   3.430   6.084
10809SOL     OW33325   2.022   6.818   4.523
10809SOL    HW133326   1.983   6.726   4.524
10809SOL    HW233327   2.000   6.864   4.609
10810SOL     OW33328   6.943   0.040   4.565
10810SOL    HW133329   6.999   0.093   4.629
10810SOL    HW233330   6.847   0.055   4.585
10811SOL     OW33331   4.830   4.922   4.705
10811SOL    HW133332   4.850   4.896   4.800
10811SOL    HW233333   4.909   4.969   4.666
10812SOL     OW33334   6.238   2.982   0.050
10812SOL    HW133335   6.177   2.983   6.994
10812SOL    HW233336   6.187   2.954   0.131
10813SOL     OW33337   6.957   4.128   6.086
10813SOL    HW133338   6.915   4.145   6.175
10813SOL    HW233339   6.895   4.158   6.013
10814SOL     OW33340   2.712   0.944   1.203
10814SOL    HW133341   2.779   0.912   1.270
10814SOL    HW233342   2.722   0.892   1.118
10815SOL     OW33343   5.283   0.774   4.983
10815SOL    HW133344   5.340   0.842   4.937
10815SOL    HW233345   5.294   0.686   4.938
10816SOL     OW33346   4.075   3.496   3.864
10816SOL    HW133347   4.114   3.468   3.952
10816SOL    HW233348   4.091   3.593   3.850
10817SOL     OW33349   2.216   6.117   3.490
10817SOL    HW133350   2.296   6.058   3.504
10817SOL    HW233351   2.199   6.170   3.573
10818SOL     OW33352   3.872   4.718   6.635
10818SOL    HW133353   3.846   4.683   6.725
10818SOL    HW233354   3.960   4.679   6.608
10819SOL     OW33355   6.429   6.116   5.635
10819SOL    HW133356   6.399   6.038   5.580
10819SOL    HW233357   6.481   6.179   5.577
10820SOL     OW33358   2.089   4.274   5.955
10820SOL    HW133359   2.063   4.217   6.033
10820SOL    HW233360   2.121   4.363   5.988
10821SOL     OW33361   4.874   5.763   3.059
10821SOL    HW133362   4.926   5.679   3.042
10821SOL    HW233363   4.786   5.740   3.099
10822SOL     OW33364   5.114   1.472   2.336
10822SOL    HW133365   5.095   1.486   2.239
10822SOL    HW233366   5.162   1.385   2.348
10823SOL     OW33367   5.831   6.739   1.830
10823SOL    HW133368   5.806   6.658   1.882
10823SOL    HW233369   5.797   6.821   1.876
10824SOL     OW33370   1.086   2.647   3.504
10824SOL    HW133371   1.182   2.624   3.519
10824SOL    HW233372   1.060   2.722   3.565
10825SOL     OW33373   0.730   2.200   0.514
10825SOL    HW133374   0.803   2.142   0.478
10825SOL    HW233375   0.664   2.218   0.441
10826SOL     OW33376   0.799   3.169   2.892
10826SOL    HW133377   0.785   3.253   2.944
10826SOL    HW233378   0.719   3.110   2.903
10827SOL     OW33379   6.280   3.473   4.650
10827SOL    HW133380   6.242   3.565   4.664
10827SOL    HW233381   6.380   3.480   4.644
10828SOL     OW33382   6.104   4.797   5.616
10828SOL    HW133383   6.032   4.730   5.634
10828SOL    HW233384   6.064   4.880   5.579
10829SOL     OW33385   3.931   3.107   5.327
10829SOL    HW133386   3.983   3.027   5.298
10829SOL    HW233387   3.896   3.093   5.420
10830SOL     OW33388   3.872   2.148   3.232
10830SOL    HW133389   3.776   2.162   3.208
10830SOL    HW233390   3.928   2.161   3.151
10831SOL     OW33391   4.230   0.704   3.633
10831SOL    HW133392   4.302   0.735   3.570
10831SOL    HW233393   4.174   0.635   3.588
10832SOL     OW33394   6.525   3.782   0.484
10832SOL    HW133395   6.462   3.844   0.531
10832SOL    HW233396   6.590   3.744   0.550
10833SOL     OW33397   0.189   1.201   6.222
10833SOL    HW133398   0.179   1.122   6.161
10833SOL    HW233399   0.146   1.180   6.310
10834SOL     OW33400   6.985   6.774   1.356
10834SOL    HW133401   0.025   6.700   1.380
10834SOL    HW233402   6.894   6.753   1.393
10835SOL     OW33403   0.096   2.253   5.631
10835SOL    HW133404   0.079   2.344   5.595
10835SOL    HW233405   0.144   2.197   5.563
10836SOL     OW33406   6.823   1.131   3.986
10836SOL    HW133407   6.768   1.048   3.972
10836SOL    HW233408   6.766   1.202   4.026
10837SOL     OW33409   0.809   2.976   2.497
10837SOL    HW133410   0.731   2.948   2.441
10837SOL    HW233411   0.795   2.945   2.591
10838SOL     OW33412   0.253   5.485   2.170
10838SOL    HW133413   0.252   5.391   2.204
10838SOL    HW233414   0.348   5.515   2.161
10839SOL     OW33415   5.216   2.517   1.087
10839SOL    HW133416   5.191   2.534   0.992
10839SOL    HW233417   5.289   2.449   1.091
10840SOL     OW33418   2.675   0.314   1.548
10840SOL    HW133419   2.742   0.385   1.528
10840SOL    HW233420   2.644   0.272   1.463
10841SOL     OW33421   1.973   5.226   4.688
10841SOL    HW133422   2.042   5.297   4.672
10841SOL    HW233423   1.918   5.250   4.768
10842SOL     OW33424   5.366   4.500   1.171
10842SOL    HW133425   5.268   4.512   1.160
10842SOL    HW233426   5.415   4.559   1.107
10843SOL     OW33427   2.321   2.091   1.238
10843SOL    HW133428   2.421   2.095   1.236
10843SOL    HW233429   2.284   2.178   1.272
10844SOL     OW33430   1.637   5.240   4.843
10844SOL    HW133431   1.729   5.267   4.871
10844SOL    HW233432   1.642   5.161   4.782
10845SOL     OW33433   4.128   0.474   5.053
10845SOL    HW133434   4.135   0.574   5.062
10845SOL    HW233435   4.045   0.451   5.003
10846SOL     OW33436   5.369   0.096   6.621
10846SOL    HW133437   5.419   0.162   6.678
10846SOL    HW233438   5.284   0.069   6.668
10847SOL     OW33439   2.822   1.023   6.286
10847SOL    HW133440   2.796   0.955   6.218
10847SOL    HW233441   2.918   1.011   6.311
10848SOL     OW33442   1.685   4.901   2.046
10848SOL    HW133443   1.649   4.892   1.953
10848SOL    HW233444   1.777   4.862   2.050
10849SOL     OW33445   2.418   6.474   4.153
10849SOL    HW133446   2.439   6.567   4.183
10849SOL    HW233447   2.346   6.476   4.084
10850SOL     OW33448   3.683   5.039   0.768
10850SOL    HW133449   3.621   4.988   0.827
10850SOL    HW233450   3.687   4.995   0.678
10851SOL     OW33451   1.726   4.914   0.291
10851SOL    HW133452   1.629   4.899   0.305
10851SOL    HW233453   1.776   4.829   0.307
10852SOL     OW33454   2.237   1.447   2.186
10852SOL    HW133455   2.157   1.483   2.234
10852SOL    HW233456   2.256   1.355   2.218
10853SOL     OW33457   2.959   1.423   6.108
10853SOL    HW133458   3.043   1.380   6.075
10853SOL    HW233459   2.982   1.495   6.173
10854SOL     OW33460   3.128   6.635   5.183
10854SOL    HW133461   3.036   6.662   5.157
10854SOL    HW233462   3.163   6.569   5.116
10855SOL     OW33463   3.575   1.531   6.938
10855SOL    HW133464   3.500   1.597   6.931
10855SOL    HW233465   3.569   1.484   0.003
10856SOL     OW33466   0.174   0.854   0.190
10856SOL    HW133467   0.226   0.853   0.104
10856SOL    HW233468   0.077   0.866   0.169
10857SOL     OW33469   6.415   2.350   2.518
10857SOL    HW133470   6.416   2.420   2.589
10857SOL    HW233471   6.356   2.275   2.546
10858SOL     OW33472   2.528   6.333   1.748
10858SOL    HW133473   2.627   6.334   1.760
10858SOL    HW233474   2.494   6.240   1.760
10859SOL     OW33475   1.524   5.412   3.511
10859SOL    HW133476   1.486   5.428   3.420
10859SOL    HW233477   1.558   5.497   3.549
10860SOL     OW33478   6.831   3.218   3.099
10860SOL    HW133479   6.902   3.238   3.031
10860SOL    HW233480   6.796   3.125   3.084
10861SOL     OW33481   3.838   3.176   5.048
10861SOL    HW133482   3.857   3.099   5.108
10861SOL    HW233483   3.762   3.230   5.086
10862SOL     OW33484   0.910   1.327   4.544
10862SOL    HW133485   0.912   1.382   4.627
10862SOL    HW233486   0.815   1.312   4.516
10863SOL     OW33487   3.179   6.137   4.509
10863SOL    HW133488   3.185   6.041   4.484
10863SOL    HW233489   3.241   6.191   4.452
10864SOL     OW33490   3.629   5.534   3.296
10864SOL    HW133491   3.699   5.603   3.312
10864SOL    HW233492   3.623   5.515   3.198
10865SOL     OW33493   6.356   1.809   5.798
10865SOL    HW133494   6.263   1.811   5.763
10865SOL    HW233495   6.372   1.723   5.846
10866SOL     OW33496   5.027   5.242   0.946
10866SOL    HW133497   5.116   5.198   0.944
10866SOL    HW233498   5.022   5.305   1.024
10867SOL     OW33499   3.302   1.955   0.133
10867SOL    HW133500   3.235   1.967   0.207
10867SOL    HW233501   3.268   1.999   0.050
10868SOL     OW33502   2.337   1.781   2.656
10868SOL    HW133503   2.273   1.735   2.717
10868SOL    HW233504   2.285   1.838   2.591
10869NA      NA33505   6.484   2.608   5.914
10870NA      NA33506   4.500   4.632   5.088
10871NA      NA33507   2.487   3.452   1.676
10872NA      NA33508   4.925   3.636   5.216
10873NA      NA33509   4.307   2.469   5.324
10874NA      NA33510   3.703   4.759   1.683
10875NA      NA33511   6.630   6.071   4.885
10876NA      NA33512   3.848   4.042   5.177
10877NA      NA33513   4.488   0.103   0.032
10878NA      NA33514   3.400   0.163   4.862
10879NA      NA33515   0.026   5.041   2.784
10880NA      NA33516   2.817   0.557   2.645
10881NA      NA33517   3.780   4.000   1.259
10882NA      NA33518   3.640   3.382   2.937
   7.02298   7.02298   7.02298
