Generated by trjconv : CNT in water t= 509.00000
33518
    1C        C    1   2.848   2.773   4.743
    1C        C    2   2.899   2.720   4.864
    1C        C    3   2.843   2.771   4.981
    1C        C    4   2.847   2.769   4.257
    1C        C    5   2.901   2.725   4.380
    1C        C    6   2.847   2.773   4.501
    1C        C    7   3.014   2.639   4.621
    1C        C    8   2.900   2.724   4.621
    1C        C    9   3.071   2.594   4.741
    1C        C   10   3.009   2.631   4.862
    1C        C   11   3.181   2.489   4.975
    1C        C   12   3.059   2.557   4.971
    1C        C   13   2.849   2.768   3.768
    1C        C   14   2.900   2.719   3.891
    1C        C   15   2.846   2.769   4.012
    1C        C   16   3.012   2.637   4.136
    1C        C   17   2.898   2.720   4.134
    1C        C   18   3.081   2.612   4.257
    1C        C   19   3.016   2.643   4.379
    1C        C   20   3.207   2.548   4.500
    1C        C   21   3.077   2.603   4.500
    1C        C   22   3.274   2.527   4.622
    1C        C   23   3.201   2.535   4.743
    1C        C   24   3.409   2.470   4.862
    1C        C   25   3.268   2.495   4.861
    1C        C   26   3.489   2.472   4.977
    1C        C   27   2.849   2.767   3.280
    1C        C   28   2.904   2.723   3.403
    1C        C   29   2.851   2.769   3.525
    1C        C   30   3.014   2.633   3.647
    1C        C   31   2.903   2.719   3.647
    1C        C   32   3.074   2.597   3.770
    1C        C   33   3.012   2.633   3.892
    1C        C   34   3.204   2.545   4.013
    1C        C   35   3.072   2.596   4.014
    1C        C   36   3.275   2.528   4.134
    1C        C   37   3.209   2.554   4.256
    1C        C   38   3.414   2.500   4.379
    1C        C   39   3.275   2.526   4.378
    1C        C   40   3.485   2.494   4.501
    1C        C   41   3.413   2.501   4.622
    1C        C   42   3.627   2.488   4.740
    1C        C   43   3.485   2.482   4.742
    1C        C   44   3.700   2.492   4.860
    1C        C   45   3.628   2.471   4.978
    1C        C   46   2.834   2.751   2.791
    1C        C   47   2.894   2.708   2.912
    1C        C   48   2.846   2.760   3.034
    1C        C   49   3.013   2.633   3.158
    1C        C   50   2.898   2.716   3.158
    1C        C   51   3.076   2.598   3.279
    1C        C   52   3.015   2.636   3.401
    1C        C   53   3.203   2.541   3.522
    1C        C   54   3.074   2.598   3.524
    1C        C   55   3.270   2.522   3.645
    1C        C   56   3.204   2.542   3.769
    1C        C   57   3.410   2.497   3.891
    1C        C   58   3.271   2.520   3.891
    1C        C   59   3.483   2.489   4.012
    1C        C   60   3.412   2.496   4.134
    1C        C   61   3.625   2.497   4.255
    1C        C   62   3.484   2.492   4.256
    1C        C   63   3.697   2.510   4.375
    1C        C   64   3.626   2.496   4.496
    1C        C   65   3.832   2.544   4.617
    1C        C   66   3.698   2.501   4.618
    1C        C   67   3.902   2.563   4.739
    1C        C   68   3.836   2.530   4.859
    1C        C   69   4.049   2.583   4.973
    1C        C   70   3.921   2.527   4.970
    1C        C   71   2.819   2.730   2.308
    1C        C   72   2.881   2.689   2.428
    1C        C   73   2.826   2.740   2.548
    1C        C   74   3.000   2.617   2.669
    1C        C   75   2.887   2.701   2.670
    1C        C   76   3.065   2.585   2.791
    1C        C   77   3.009   2.626   2.914
    1C        C   78   3.201   2.536   3.034
    1C        C   79   3.073   2.596   3.036
    1C        C   80   3.270   2.514   3.156
    1C        C   81   3.204   2.540   3.279
    1C        C   82   3.410   2.491   3.400
    1C        C   83   3.270   2.513   3.401
    1C        C   84   3.479   2.486   3.523
    1C        C   85   3.409   2.494   3.645
    1C        C   86   3.619   2.496   3.767
    1C        C   87   3.478   2.488   3.768
    1C        C   88   3.693   2.505   3.887
    1C        C   89   3.624   2.500   4.010
    1C        C   90   3.829   2.552   4.131
    1C        C   91   3.693   2.514   4.132
    1C        C   92   3.901   2.572   4.251
    1C        C   93   3.832   2.551   4.373
    1C        C   94   4.028   2.628   4.498
    1C        C   95   3.898   2.574   4.496
    1C        C   96   4.092   2.668   4.617
    1C        C   97   4.031   2.624   4.737
    1C        C   98   4.193   2.760   4.856
    1C        C   99   4.099   2.652   4.858
    1C        C  100   4.213   2.837   4.972
    1C        C  101   2.821   2.729   2.067
    1C        C  102   2.985   2.591   2.185
    1C        C  103   2.868   2.673   2.187
    1C        C  104   3.059   2.575   2.306
    1C        C  105   2.996   2.608   2.428
    1C        C  106   3.192   2.522   2.550
    1C        C  107   3.061   2.576   2.549
    1C        C  108   3.264   2.507   2.670
    1C        C  109   3.196   2.532   2.791
    1C        C  110   3.407   2.491   2.913
    1C        C  111   3.267   2.512   2.911
    1C        C  112   3.480   2.483   3.033
    1C        C  113   3.409   2.488   3.155
    1C        C  114   3.619   2.498   3.278
    1C        C  115   3.479   2.483   3.278
    1C        C  116   3.688   2.511   3.401
    1C        C  117   3.621   2.492   3.524
    1C        C  118   3.826   2.546   3.643
    1C        C  119   3.691   2.505   3.646
    1C        C  120   3.893   2.573   3.764
    1C        C  121   3.828   2.548   3.886
    1C        C  122   4.021   2.638   4.008
    1C        C  123   3.895   2.575   4.008
    1C        C  124   4.083   2.676   4.129
    1C        C  125   4.026   2.638   4.253
    1C        C  126   4.190   2.766   4.372
    1C        C  127   4.084   2.673   4.377
    1C        C  128   4.240   2.819   4.493
    1C        C  129   4.195   2.764   4.615
    1C        C  130   4.324   2.935   4.738
    1C        C  131   4.241   2.820   4.737
    1C        C  132   4.356   3.001   4.858
    1C        C  133   4.281   2.958   4.968
    1C        C  134   3.169   2.471   2.077
    1C        C  135   3.035   2.510   2.078
    1C        C  136   3.254   2.476   2.189
    1C        C  137   3.190   2.520   2.306
    1C        C  138   3.398   2.474   2.429
    1C        C  139   3.258   2.498   2.428
    1C        C  140   3.476   2.475   2.546
    1C        C  141   3.404   2.484   2.668
    1C        C  142   3.616   2.486   2.787
    1C        C  143   3.475   2.483   2.789
    1C        C  144   3.689   2.498   2.908
    1C        C  145   3.621   2.492   3.031
    1C        C  146   3.824   2.544   3.155
    1C        C  147   3.688   2.506   3.155
    1C        C  148   3.894   2.567   3.276
    1C        C  149   3.826   2.542   3.397
    1C        C  150   4.020   2.628   3.519
    1C        C  151   3.893   2.566   3.519
    1C        C  152   4.079   2.670   3.640
    1C        C  153   4.018   2.640   3.764
    1C        C  154   4.190   2.766   3.884
    1C        C  155   4.078   2.680   3.885
    1C        C  156   4.244   2.813   4.005
    1C        C  157   4.192   2.766   4.128
    1C        C  158   4.335   2.921   4.251
    1C        C  159   4.245   2.812   4.250
    1C        C  160   4.370   2.987   4.371
    1C        C  161   4.329   2.929   4.493
    1C        C  162   4.437   3.112   4.614
    1C        C  163   4.371   2.987   4.615
    1C        C  164   4.464   3.183   4.733
    1C        C  165   4.431   3.121   4.855
    1C        C  166   4.508   3.320   4.970
    1C        C  167   4.479   3.184   4.970
    1C        C  168   3.469   2.426   2.075
    1C        C  169   3.393   2.451   2.190
    1C        C  170   3.611   2.464   2.305
    1C        C  171   3.469   2.458   2.308
    1C        C  172   3.687   2.485   2.422
    1C        C  173   3.617   2.482   2.545
    1C        C  174   3.824   2.534   2.666
    1C        C  175   3.687   2.498   2.666
    1C        C  176   3.891   2.560   2.787
    1C        C  177   3.824   2.539   2.910
    1C        C  178   4.017   2.628   3.029
    1C        C  179   3.889   2.568   3.032
    1C        C  180   4.077   2.670   3.150
    1C        C  181   4.020   2.630   3.273
    1C        C  182   4.187   2.756   3.395
    1C        C  183   4.081   2.663   3.396
    1C        C  184   4.238   2.810   3.516
    1C        C  185   4.189   2.759   3.638
    1C        C  186   4.336   2.914   3.760
    1C        C  187   4.244   2.807   3.759
    1C        C  188   4.379   2.972   3.881
    1C        C  189   4.339   2.918   4.006
    1C        C  190   4.449   3.099   4.126
    1C        C  191   4.379   2.976   4.128
    1C        C  192   4.470   3.171   4.246
    1C        C  193   4.437   3.111   4.370
    1C        C  194   4.512   3.311   4.488
    1C        C  195   4.467   3.177   4.492
    1C        C  196   4.526   3.384   4.608
    1C        C  197   4.512   3.317   4.731
    1C        C  198   4.549   3.532   4.849
    1C        C  199   4.535   3.390   4.851
    1C        C  200   4.584   3.617   4.959
    1C        C  201   3.609   2.414   2.071
    1C        C  202   3.819   2.508   2.180
    1C        C  203   3.685   2.458   2.184
    1C        C  204   3.892   2.539   2.298
    1C        C  205   3.823   2.524   2.420
    1C        C  206   4.014   2.618   2.540
    1C        C  207   3.887   2.555   2.541
    1C        C  208   4.077   2.654   2.661
    1C        C  209   4.015   2.628   2.785
    1C        C  210   4.191   2.747   2.903
    1C        C  211   4.078   2.663   2.907
    1C        C  212   4.242   2.798   3.025
    1C        C  213   4.190   2.754   3.148
    1C        C  214   4.330   2.910   3.269
    1C        C  215   4.240   2.801   3.272
    1C        C  216   4.369   2.971   3.391
    1C        C  217   4.328   2.918   3.516
    1C        C  218   4.437   3.100   3.638
    1C        C  219   4.371   2.975   3.638
    1C        C  220   4.469   3.166   3.759
    1C        C  221   4.443   3.098   3.880
    1C        C  222   4.506   3.299   4.001
    1C        C  223   4.473   3.162   4.002
    1C        C  224   4.513   3.374   4.120
    1C        C  225   4.507   3.307   4.244
    1C        C  226   4.521   3.520   4.362
    1C        C  227   4.522   3.379   4.365
    1C        C  228   4.512   3.592   4.483
    1C        C  229   4.525   3.525   4.606
    1C        C  230   4.504   3.740   4.723
    1C        C  231   4.533   3.600   4.726
    1C        C  232   4.491   3.815   4.842
    1C        C  233   4.544   3.752   4.955
    1C        C  234   4.011   2.606   2.058
    1C        C  235   3.890   2.538   2.062
    1C        C  236   4.079   2.642   2.175
    1C        C  237   4.017   2.608   2.297
    1C        C  238   4.190   2.737   2.416
    1C        C  239   4.077   2.649   2.418
    1C        C  240   4.243   2.784   2.538
    1C        C  241   4.189   2.741   2.661
    1C        C  242   4.339   2.898   2.779
    1C        C  243   4.244   2.793   2.780
    1C        C  244   4.378   2.958   2.901
    1C        C  245   4.339   2.901   3.024
    1C        C  246   4.439   3.089   3.145
    1C        C  247   4.374   2.963   3.146
    1C        C  248   4.463   3.156   3.267
    1C        C  249   4.434   3.096   3.392
    1C        C  250   4.502   3.297   3.511
    1C        C  251   4.459   3.163   3.514
    1C        C  252   4.517   3.369   3.632
    1C        C  253   4.501   3.304   3.756
    1C        C  254   4.526   3.512   3.875
    1C        C  255   4.515   3.371   3.880
    1C        C  256   4.521   3.584   3.996
    1C        C  257   4.523   3.515   4.119
    1C        C  258   4.491   3.729   4.238
    1C        C  259   4.516   3.590   4.239
    1C        C  260   4.474   3.800   4.359
    1C        C  261   4.488   3.732   4.481
    1C        C  262   4.420   3.935   4.600
    1C        C  263   4.471   3.804   4.602
    1C        C  264   4.392   4.002   4.721
    1C        C  265   4.430   3.942   4.843
    1C        C  266   4.310   4.121   4.956
    1C        C  267   4.382   4.002   4.960
    1C        C  268   4.251   2.775   2.059
    1C        C  269   4.194   2.724   2.177
    1C        C  270   4.344   2.884   2.296
    1C        C  271   4.248   2.780   2.295
    1C        C  272   4.381   2.948   2.416
    1C        C  273   4.336   2.891   2.537
    1C        C  274   4.444   3.080   2.658
    1C        C  275   4.375   2.957   2.656
    1C        C  276   4.473   3.147   2.779
    1C        C  277   4.445   3.082   2.901
    1C        C  278   4.501   3.289   3.020
    1C        C  279   4.466   3.152   3.022
    1C        C  280   4.516   3.359   3.141
    1C        C  281   4.504   3.291   3.265
    1C        C  282   4.522   3.503   3.388
    1C        C  283   4.513   3.362   3.386
    1C        C  284   4.517   3.578   3.508
    1C        C  285   4.523   3.510   3.632
    1C        C  286   4.491   3.722   3.751
    1C        C  287   4.523   3.584   3.753
    1C        C  288   4.466   3.787   3.873
    1C        C  289   4.491   3.722   3.996
    1C        C  290   4.422   3.928   4.114
    1C        C  291   4.477   3.797   4.115
    1C        C  292   4.391   3.994   4.235
    1C        C  293   4.421   3.931   4.358
    1C        C  294   4.324   4.124   4.476
    1C        C  295   4.390   4.000   4.477
    1C        C  296   4.278   4.181   4.597
    1C        C  297   4.318   4.124   4.720
    1C        C  298   4.196   4.308   4.831
    1C        C  299   4.274   4.189   4.838
    1C        C  300   4.167   4.397   4.940
    1C        C  301   4.344   2.879   2.058
    1C        C  302   4.468   3.062   2.176
    1C        C  303   4.390   2.941   2.174
    1C        C  304   4.481   3.138   2.295
    1C        C  305   4.446   3.074   2.416
    1C        C  306   4.510   3.279   2.533
    1C        C  307   4.476   3.142   2.536
    1C        C  308   4.521   3.352   2.653
    1C        C  309   4.512   3.283   2.776
    1C        C  310   4.529   3.497   2.897
    1C        C  311   4.522   3.356   2.897
    1C        C  312   4.521   3.568   3.018
    1C        C  313   4.519   3.500   3.142
    1C        C  314   4.490   3.710   3.262
    1C        C  315   4.519   3.571   3.265
    1C        C  316   4.465   3.778   3.382
    1C        C  317   4.488   3.716   3.507
    1C        C  318   4.424   3.920   3.625
    1C        C  319   4.476   3.789   3.628
    1C        C  320   4.390   3.983   3.747
    1C        C  321   4.419   3.921   3.870
    1C        C  322   4.310   4.105   3.987
    1C        C  323   4.385   3.985   3.991
    1C        C  324   4.268   4.164   4.108
    1C        C  325   4.316   4.114   4.231
    1C        C  326   4.177   4.273   4.351
    1C        C  327   4.279   4.176   4.352
    1C        C  328   4.123   4.325   4.471
    1C        C  329   4.181   4.284   4.593
    1C        C  330   4.022   4.436   4.710
    1C        C  331   4.134   4.348   4.710
    1C        C  332   3.967   4.489   4.829
    1C        C  333   4.052   4.477   4.939
    1C        C  334   4.549   3.263   2.057
    1C        C  335   4.536   3.124   2.066
    1C        C  336   4.534   3.345   2.170
    1C        C  337   4.513   3.276   2.291
    1C        C  338   4.518   3.491   2.411
    1C        C  339   4.522   3.350   2.411
    1C        C  340   4.516   3.564   2.532
    1C        C  341   4.519   3.494   2.654
    1C        C  342   4.489   3.705   2.772
    1C        C  343   4.519   3.567   2.775
    1C        C  344   4.474   3.774   2.895
    1C        C  345   4.493   3.706   3.017
    1C        C  346   4.413   3.905   3.137
    1C        C  347   4.469   3.775   3.138
    1C        C  348   4.382   3.971   3.258
    1C        C  349   4.417   3.911   3.381
    1C        C  350   4.316   4.100   3.499
    1C        C  351   4.391   3.981   3.501
    1C        C  352   4.267   4.156   3.619
    1C        C  353   4.311   4.100   3.741
    1C        C  354   4.166   4.256   3.862
    1C        C  355   4.268   4.159   3.863
    1C        C  356   4.117   4.310   3.983
    1C        C  357   4.172   4.267   4.106
    1C        C  358   4.006   4.398   4.228
    1C        C  359   4.121   4.316   4.229
    1C        C  360   3.948   4.444   4.348
    1C        C  361   4.010   4.410   4.470
    1C        C  362   3.821   4.511   4.589
    1C        C  363   3.951   4.455   4.590
    1C        C  364   3.755   4.540   4.711
    1C        C  365   3.834   4.538   4.827
    1C        C  366   3.624   4.587   4.947
    1C        C  367   3.762   4.569   4.943
    1C        C  368   4.499   3.556   2.050
    1C        C  369   4.523   3.486   2.169
    1C        C  370   4.500   3.702   2.283
    1C        C  371   4.514   3.561   2.288
    1C        C  372   4.485   3.773   2.404
    1C        C  373   4.497   3.704   2.527
    1C        C  374   4.421   3.904   2.646
    1C        C  375   4.472   3.772   2.649
    1C        C  376   4.385   3.966   2.768
    1C        C  377   4.421   3.905   2.890
    1C        C  378   4.311   4.086   3.009
    1C        C  379   4.386   3.966   3.012
    1C        C  380   4.271   4.147   3.130
    1C        C  381   4.308   4.091   3.254
    1C        C  382   4.170   4.252   3.373
    1C        C  383   4.268   4.150   3.376
    1C        C  384   4.116   4.302   3.494
    1C        C  385   4.171   4.259   3.617
    1C        C  386   3.999   4.385   3.739
    1C        C  387   4.115   4.304   3.739
    1C        C  388   3.939   4.423   3.861
    1C        C  389   4.001   4.390   3.984
    1C        C  390   3.812   4.484   4.104
    1C        C  391   3.941   4.426   4.106
    1C        C  392   3.745   4.511   4.226
    1C        C  393   3.815   4.492   4.347
    1C        C  394   3.611   4.551   4.471
    1C        C  395   3.750   4.525   4.468
    1C        C  396   3.540   4.566   4.592
    1C        C  397   3.615   4.563   4.711
    1C        C  398   3.406   4.544   4.837
    1C        C  399   3.545   4.572   4.833
    1C        C  400   3.337   4.509   4.953
    1C        C  401   4.499   3.695   2.047
    1C        C  402   4.448   3.909   2.163
    1C        C  403   4.485   3.773   2.162
    1C        C  404   4.406   3.970   2.283
    1C        C  405   4.432   3.904   2.405
    1C        C  406   4.322   4.091   2.521
    1C        C  407   4.395   3.970   2.524
    1C        C  408   4.271   4.142   2.643
    1C        C  409   4.310   4.085   2.766
    1C        C  410   4.167   4.244   2.884
    1C        C  411   4.265   4.142   2.888
    1C        C  412   4.115   4.290   3.007
    1C        C  413   4.171   4.248   3.129
    1C        C  414   3.995   4.368   3.249
    1C        C  415   4.116   4.295   3.250
    1C        C  416   3.934   4.405   3.372
    1C        C  417   3.997   4.378   3.495
    1C        C  418   3.805   4.471   3.617
    1C        C  419   3.935   4.415   3.617
    1C        C  420   3.740   4.496   3.740
    1C        C  421   3.808   4.476   3.862
    1C        C  422   3.602   4.531   3.985
    1C        C  423   3.740   4.501   3.983
    1C        C  424   3.533   4.545   4.107
    1C        C  425   3.607   4.539   4.228
    1C        C  426   3.396   4.551   4.354
    1C        C  427   3.538   4.553   4.350
    1C        C  428   3.324   4.548   4.476
    1C        C  429   3.400   4.555   4.595
    1C        C  430   3.191   4.516   4.719
    1C        C  431   3.331   4.539   4.717
    1C        C  432   3.119   4.490   4.839
    1C        C  433   3.199   4.491   4.954
    1C        C  434   4.383   4.118   2.049
    1C        C  435   4.440   3.989   2.048
    1C        C  436   4.301   4.158   2.159
    1C        C  437   4.334   4.093   2.281
    1C        C  438   4.178   4.246   2.398
    1C        C  439   4.279   4.147   2.399
    1C        C  440   4.124   4.295   2.519
    1C        C  441   4.173   4.244   2.641
    1C        C  442   3.996   4.366   2.762
    1C        C  443   4.114   4.288   2.761
    1C        C  444   3.934   4.403   2.883
    1C        C  445   3.994   4.364   3.005
    1C        C  446   3.809   4.467   3.127
    1C        C  447   3.936   4.405   3.127
    1C        C  448   3.742   4.491   3.249
    1C        C  449   3.807   4.466   3.372
    1C        C  450   3.603   4.528   3.494
    1C        C  451   3.739   4.491   3.494
    1C        C  452   3.534   4.542   3.617
    1C        C  453   3.604   4.534   3.739
    1C        C  454   3.394   4.550   3.862
    1C        C  455   3.535   4.547   3.862
    1C        C  456   3.324   4.542   3.985
    1C        C  457   3.392   4.550   4.108
    1C        C  458   3.188   4.505   4.233
    1C        C  459   3.326   4.538   4.233
    1C        C  460   3.120   4.487   4.355
    1C        C  461   3.187   4.514   4.477
    1C        C  462   2.994   4.428   4.599
    1C        C  463   3.119   4.495   4.599
    1C        C  464   2.930   4.393   4.720
    1C        C  465   2.985   4.440   4.842
    1C        C  466   2.798   4.334   4.958
    1C        C  467   2.904   4.426   4.959
    1C        C  468   4.123   4.283   2.038
    1C        C  469   4.189   4.247   2.157
    1C        C  470   4.002   4.363   2.275
    1C        C  471   4.123   4.288   2.275
    1C        C  472   3.938   4.398   2.396
    1C        C  473   4.002   4.367   2.518
    1C        C  474   3.809   4.462   2.640
    1C        C  475   3.937   4.401   2.638
    1C        C  476   3.742   4.490   2.761
    1C        C  477   3.808   4.466   2.884
    1C        C  478   3.604   4.521   3.006
    1C        C  479   3.743   4.496   3.006
    1C        C  480   3.533   4.534   3.128
    1C        C  481   3.604   4.521   3.249
    1C        C  482   3.392   4.528   3.374
    1C        C  483   3.534   4.532   3.371
    1C        C  484   3.321   4.529   3.496
    1C        C  485   3.392   4.545   3.617
    1C        C  486   3.188   4.499   3.743
    1C        C  487   3.323   4.540   3.740
    1C        C  488   3.122   4.474   3.865
    1C        C  489   3.187   4.505   3.986
    1C        C  490   2.997   4.417   4.113
    1C        C  491   3.123   4.481   4.110
    1C        C  492   2.938   4.379   4.236
    1C        C  493   2.994   4.423   4.357
    1C        C  494   2.822   4.300   4.480
    1C        C  495   2.929   4.392   4.479
    1C        C  496   2.770   4.251   4.602
    1C        C  497   2.817   4.308   4.723
    1C        C  498   2.663   4.162   4.842
    1C        C  499   2.748   4.274   4.842
    1C        C  500   2.594   4.117   4.955
    1C        C  501   4.004   4.355   2.035
    1C        C  502   3.817   4.465   2.151
    1C        C  503   3.942   4.399   2.152
    1C        C  504   3.745   4.485   2.271
    1C        C  505   3.810   4.458   2.394
    1C        C  506   3.606   4.513   2.516
    1C        C  507   3.743   4.480   2.516
    1C        C  508   3.534   4.521   2.637
    1C        C  509   3.604   4.520   2.760
    1C        C  510   3.394   4.529   2.882
    1C        C  511   3.535   4.530   2.883
    1C        C  512   3.322   4.527   3.004
    1C        C  513   3.392   4.535   3.126
    1C        C  514   3.187   4.490   3.252
    1C        C  515   3.324   4.523   3.250
    1C        C  516   3.119   4.466   3.373
    1C        C  517   3.185   4.493   3.495
    1C        C  518   2.997   4.408   3.621
    1C        C  519   3.123   4.472   3.621
    1C        C  520   2.939   4.369   3.744
    1C        C  521   2.999   4.404   3.867
    1C        C  522   2.838   4.275   3.994
    1C        C  523   2.943   4.369   3.992
    1C        C  524   2.785   4.230   4.117
    1C        C  525   2.831   4.286   4.238
    1C        C  526   2.697   4.123   4.363
    1C        C  527   2.781   4.237   4.360
    1C        C  528   2.656   4.067   4.486
    1C        C  529   2.694   4.132   4.605
    1C        C  530   2.579   3.955   4.727
    1C        C  531   2.643   4.082   4.727
    1C        C  532   2.533   3.900   4.850
    1C        C  533   2.522   3.997   4.954
    1C        C  534   3.616   4.560   2.039
    1C        C  535   3.747   4.509   2.038
    1C        C  536   3.534   4.532   2.152
    1C        C  537   3.605   4.507   2.273
    1C        C  538   3.393   4.519   2.396
    1C        C  539   3.534   4.515   2.395
    1C        C  540   3.321   4.511   2.517
    1C        C  541   3.393   4.516   2.638
    1C        C  542   3.185   4.485   2.762
    1C        C  543   3.323   4.515   2.761
    1C        C  544   3.118   4.464   2.885
    1C        C  545   3.186   4.490   3.006
    1C        C  546   3.000   4.393   3.131
    1C        C  547   3.123   4.461   3.129
    1C        C  548   2.943   4.355   3.255
    1C        C  549   2.996   4.397   3.379
    1C        C  550   2.828   4.272   3.503
    1C        C  551   2.934   4.365   3.502
    1C        C  552   2.780   4.227   3.628
    1C        C  553   2.828   4.281   3.749
    1C        C  554   2.698   4.115   3.871
    1C        C  555   2.784   4.227   3.872
    1C        C  556   2.660   4.057   3.994
    1C        C  557   2.698   4.118   4.116
    1C        C  558   2.595   3.938   4.242
    1C        C  559   2.662   4.063   4.240
    1C        C  560   2.561   3.875   4.364
    1C        C  561   2.587   3.944   4.484
    1C        C  562   2.522   3.746   4.612
    1C        C  563   2.554   3.883   4.608
    1C        C  564   2.511   3.677   4.735
    1C        C  565   2.515   3.758   4.853
    1C        C  566   2.528   3.545   4.974
    1C        C  567   2.522   3.684   4.972
    1C        C  568   3.325   4.477   2.035
    1C        C  569   3.394   4.506   2.154
    1C        C  570   3.182   4.476   2.276
    1C        C  571   3.320   4.509   2.275
    1C        C  572   3.114   4.457   2.399
    1C        C  573   3.182   4.483   2.520
    1C        C  574   2.987   4.399   2.644
    1C        C  575   3.115   4.460   2.642
    1C        C  576   2.931   4.356   2.766
    1C        C  577   2.993   4.396   2.886
    1C        C  578   2.831   4.264   3.010
    1C        C  579   2.938   4.357   3.009
    1C        C  580   2.784   4.214   3.134
    1C        C  581   2.836   4.263   3.256
    1C        C  582   2.698   4.107   3.380
    1C        C  583   2.789   4.215   3.380
    1C        C  584   2.659   4.053   3.505
    1C        C  585   2.694   4.114   3.627
    1C        C  586   2.591   3.931   3.752
    1C        C  587   2.655   4.057   3.750
    1C        C  588   2.564   3.868   3.875
    1C        C  589   2.596   3.931   3.998
    1C        C  590   2.532   3.733   4.126
    1C        C  591   2.567   3.870   4.122
    1C        C  592   2.518   3.666   4.249
    1C        C  593   2.524   3.739   4.370
    1C        C  594   2.506   3.530   4.495
    1C        C  595   2.506   3.671   4.493
    1C        C  596   2.513   3.461   4.618
    1C        C  597   2.511   3.535   4.738
    1C        C  598   2.527   3.323   4.859
    1C        C  599   2.519   3.463   4.860
    1C        C  600   2.524   3.247   4.977
    1C        C  601   3.193   4.437   2.040
    1C        C  602   2.980   4.390   2.156
    1C        C  603   3.115   4.437   2.157
    1C        C  604   2.923   4.354   2.281
    1C        C  605   2.989   4.392   2.400
    1C        C  606   2.820   4.266   2.525
    1C        C  607   2.927   4.357   2.523
    1C        C  608   2.774   4.210   2.647
    1C        C  609   2.827   4.260   2.768
    1C        C  610   2.685   4.105   2.893
    1C        C  611   2.772   4.216   2.891
    1C        C  612   2.651   4.047   3.017
    1C        C  613   2.692   4.107   3.138
    1C        C  614   2.586   3.923   3.263
    1C        C  615   2.650   4.050   3.260
    1C        C  616   2.563   3.863   3.388
    1C        C  617   2.597   3.926   3.510
    1C        C  618   2.527   3.725   3.635
    1C        C  619   2.569   3.860   3.632
    1C        C  620   2.511   3.659   3.759
    1C        C  621   2.526   3.731   3.880
    1C        C  622   2.504   3.523   4.005
    1C        C  623   2.518   3.664   4.004
    1C        C  624   2.507   3.452   4.128
    1C        C  625   2.512   3.525   4.249
    1C        C  626   2.539   3.320   4.377
    1C        C  627   2.512   3.459   4.373
    1C        C  628   2.558   3.250   4.498
    1C        C  629   2.539   3.322   4.618
    1C        C  630   2.591   3.116   4.742
    1C        C  631   2.545   3.250   4.739
    1C        C  632   2.621   3.050   4.865
    1C        C  633   2.560   3.111   4.979
    1C        C  634   2.781   4.299   2.053
    1C        C  635   2.887   4.390   2.047
    1C        C  636   2.746   4.224   2.167
    1C        C  637   2.809   4.270   2.285
    1C        C  638   2.675   4.104   2.407
    1C        C  639   2.761   4.217   2.407
    1C        C  640   2.636   4.045   2.529
    1C        C  641   2.685   4.100   2.649
    1C        C  642   2.580   3.918   2.774
    1C        C  643   2.647   4.043   2.772
    1C        C  644   2.558   3.854   2.898
    1C        C  645   2.586   3.922   3.018
    1C        C  646   2.521   3.721   3.143
    1C        C  647   2.561   3.856   3.141
    1C        C  648   2.500   3.658   3.268
    1C        C  649   2.514   3.731   3.388
    1C        C  650   2.508   3.520   3.515
    1C        C  651   2.507   3.661   3.511
    1C        C  652   2.513   3.449   3.638
    1C        C  653   2.504   3.518   3.761
    1C        C  654   2.531   3.311   3.889
    1C        C  655   2.507   3.450   3.884
    1C        C  656   2.551   3.245   4.013
    1C        C  657   2.530   3.313   4.135
    1C        C  658   2.601   3.114   4.255
    1C        C  659   2.550   3.246   4.257
    1C        C  660   2.633   3.051   4.378
    1C        C  661   2.601   3.115   4.499
    1C        C  662   2.709   2.937   4.622
    1C        C  663   2.624   3.049   4.622
    1C        C  664   2.752   2.877   4.743
    1C        C  665   2.696   2.928   4.863
    1C        C  666   2.742   2.867   4.980
    1C        C  667   2.678   4.019   2.052
    1C        C  668   2.678   4.101   2.165
    1C        C  669   2.581   3.910   2.288
    1C        C  670   2.637   4.041   2.287
    1C        C  671   2.553   3.845   2.410
    1C        C  672   2.573   3.918   2.529
    1C        C  673   2.512   3.718   2.655
    1C        C  674   2.548   3.854   2.653
    1C        C  675   2.504   3.647   2.777
    1C        C  676   2.522   3.717   2.899
    1C        C  677   2.505   3.508   3.026
    1C        C  678   2.510   3.649   3.022
    1C        C  679   2.505   3.443   3.151
    1C        C  680   2.499   3.516   3.272
    1C        C  681   2.527   3.307   3.398
    1C        C  682   2.505   3.446   3.394
    1C        C  683   2.555   3.242   3.520
    1C        C  684   2.540   3.311   3.643
    1C        C  685   2.604   3.113   3.768
    1C        C  686   2.553   3.244   3.767
    1C        C  687   2.640   3.054   3.891
    1C        C  688   2.609   3.117   4.014
    1C        C  689   2.713   2.931   4.134
    1C        C  690   2.635   3.048   4.135
    1C        C  691   2.756   2.877   4.257
    1C        C  692   2.711   2.933   4.378
    1C        C  693   2.749   2.876   4.502
    1C        C  694   2.626   3.889   2.058
    1C        C  695   2.519   3.699   2.171
    1C        C  696   2.567   3.832   2.171
    1C        C  697   2.495   3.636   2.295
    1C        C  698   2.514   3.709   2.414
    1C        C  699   2.489   3.502   2.538
    1C        C  700   2.494   3.643   2.537
    1C        C  701   2.504   3.434   2.661
    1C        C  702   2.499   3.506   2.782
    1C        C  703   2.525   3.296   2.908
    1C        C  704   2.504   3.435   2.904
    1C        C  705   2.543   3.232   3.033
    1C        C  706   2.521   3.303   3.153
    1C        C  707   2.601   3.108   3.275
    1C        C  708   2.541   3.236   3.276
    1C        C  709   2.634   3.049   3.398
    1C        C  710   2.607   3.111   3.522
    1C        C  711   2.714   2.932   3.644
    1C        C  712   2.633   3.048   3.646
    1C        C  713   2.760   2.878   3.766
    1C        C  714   2.717   2.936   3.888
    1C        C  715   2.753   2.875   4.010
    1C        C  716   2.445   3.497   2.058
    1C        C  717   2.483   3.632   2.053
    1C        C  718   2.464   3.419   2.176
    1C        C  719   2.481   3.494   2.296
    1C        C  720   2.518   3.288   2.420
    1C        C  721   2.486   3.425   2.419
    1C        C  722   2.542   3.223   2.543
    1C        C  723   2.523   3.294   2.664
    1C        C  724   2.592   3.094   2.788
    1C        C  725   2.538   3.225   2.786
    1C        C  726   2.625   3.034   2.911
    1C        C  727   2.595   3.100   3.032
    1C        C  728   2.710   2.923   3.156
    1C        C  729   2.633   3.041   3.155
    1C        C  730   2.755   2.872   3.280
    1C        C  731   2.710   2.929   3.401
    1C        C  732   2.757   2.874   3.522
    1C        C  733   2.480   3.191   2.071
    1C        C  734   2.488   3.278   2.180
    1C        C  735   2.582   3.083   2.301
    1C        C  736   2.525   3.213   2.300
    1C        C  737   2.611   3.020   2.424
    1C        C  738   2.588   3.090   2.545
    1C        C  739   2.695   2.906   2.666
    1C        C  740   2.623   3.028   2.667
    1C        C  741   2.737   2.854   2.790
    1C        C  742   2.704   2.917   2.912
    1C        C  743   2.749   2.863   3.034
    1C        C  744   2.535   3.063   2.069
    1C        C  745   2.681   2.894   2.182
    1C        C  746   2.602   3.011   2.181
    1C        C  747   2.724   2.836   2.303
    1C        C  748   2.682   2.898   2.423
    1C        C  749   2.735   2.847   2.544
    1C        C  750   2.730   2.835   2.065
    1C        C  751   3.657   2.311   1.976
    1C        O  752   3.647   2.192   2.015
    1C        O  753   3.635   2.329   1.839
    1C        C  754   4.632   3.049   1.982
    1C        O  755   4.614   3.034   1.858
    1C        O  756   4.768   3.027   2.009
    1C        C  757   4.452   4.223   1.970
    1C        O  758   4.547   4.291   2.016
    1C        O  759   4.425   4.236   1.834
    1C        C  760   3.590   4.671   1.944
    1C        O  761   3.631   4.787   1.974
    1C        O  762   3.556   4.649   1.810
    1C        C  763   2.845   4.517   1.984
    1C        O  764   2.847   4.536   1.859
    1C        O  765   2.741   4.583   2.050
    1C        C  766   2.332   3.469   1.967
    1C        O  767   2.347   3.452   1.842
    1C        O  768   2.199   3.472   2.011
    1C        C  769   4.697   3.591   5.051
    1C        O  770   4.686   3.559   5.173
    1C        O  771   4.826   3.634   5.020
    1C        C  772   4.266   4.434   5.044
    1C        O  773   4.265   4.385   5.160
    1C        O  774   4.331   4.558   5.040
    1C        C  775   4.151   2.510   5.051
    1C        O  776   4.157   2.384   5.055
    1C        O  777   4.214   2.561   5.166
    1C        C  778   2.872   4.549   5.036
    1C        O  779   2.841   4.661   4.987
    1C        O  780   2.862   4.561   5.175
    1C        C  781   2.483   3.027   5.074
    1C        O  782   2.368   2.983   5.046
    1C        O  783   2.497   3.055   5.209
    1C        C  784   2.426   3.979   5.066
    1C        O  785   2.304   4.010   5.055
    1C        O  786   2.473   3.940   5.192
    1C        C  787   2.943   2.421   2.004
    1C        O  788   2.959   2.436   1.880
    1C        O  789   2.909   2.297   2.057
    1C        C  790   3.197   2.388   5.081
    1C        O  791   3.193   2.265   5.055
    1C        O  792   3.224   2.427   5.213
    1C        H  793   4.243   3.030   5.038
    1C        H  794   4.160   2.813   5.061
    1C        H  795   4.520   3.126   5.050
    1C        H  796   4.545   3.360   5.062
    1C        H  797   4.533   3.802   5.049
    1C        H  798   4.443   3.990   5.047
    1C        H  799   4.330   4.179   5.043
    1C        H  800   4.030   4.539   5.024
    1C        H  801   3.815   4.579   5.036
    1C        H  802   3.581   4.634   5.033
    1C        H  803   3.392   4.453   5.027
    1C        H  804   3.148   4.508   5.046
    1C        H  805   3.904   2.449   5.042
    1C        H  806   3.671   2.414   5.058
    1C        H  807   3.002   2.562   5.062
    1C        H  808   3.444   2.501   5.070
    1C        H  809   2.896   2.757   5.074
    1C        H  810   2.695   2.892   5.072
    1C        H  811   2.464   3.283   5.058
    1C        H  812   2.562   3.499   5.064
    1C        H  813   2.551   3.728   5.064
    1C        H  814   2.555   4.190   5.023
    1C        H  815   2.767   4.294   5.052
    1C        H  816   2.716   2.884   1.971
    1C        H  817   2.851   2.685   1.975
    1C        H  818   3.216   2.448   1.984
    1C        H  819   3.415   2.398   1.987
    1C        H  820   3.828   2.544   1.975
    1C        H  821   4.058   2.613   1.962
    1C        H  822   4.250   2.716   1.970
    1C        H  823   4.379   2.914   1.963
    1C        H  824   4.585   3.304   1.966
    1C        H  825   4.487   3.504   1.958
    1C        H  826   4.552   3.742   1.967
    1C        H  827   3.807   4.549   1.959
    1C        H  828   3.966   4.377   1.937
    1C        H  829   4.177   4.280   1.946
    1C        H  830   4.457   3.948   1.951
    1C        H  831   2.610   3.851   1.959
    1C        H  832   2.711   4.058   1.958
    1C        H  833   2.699   4.313   1.987
    1C        H  834   3.383   4.431   1.958
    1C        H  835   3.150   4.404   1.948
    1C        H  836   2.502   2.994   1.994
    1C        H  837   2.416   3.215   1.988
    1C        H  838   2.457   3.696   1.972
    2V3OU   H29  839   2.797   3.559   5.680
    2V3OU   C27  840   2.773   3.504   5.774
    2V3OU   H27  841   2.722   3.571   5.848
    2V3OU   H28  842   2.724   3.406   5.750
    2V3OU   O11  843   2.900   3.470   5.829
    2V3OU   C15  844   2.919   3.392   5.942
    2V3OU   C13  845   3.045   3.374   6.002
    2V3OU   C14  846   3.071   3.266   6.088
    2V3OU   C16  847   2.965   3.183   6.123
    2V3OU    H6  848   2.984   3.103   6.197
    2V3OU   C12  849   3.211   3.223   6.111
    2V3OU    O2  850   3.231   3.128   6.190
    2V3OU   C10  851   3.321   3.302   6.055
    2V3OU    C8  852   3.454   3.267   6.075
    2V3OU   O10  853   3.480   3.149   6.137
    2V3OU   H26  854   3.399   3.116   6.179
    2V3OU    C6  855   3.565   3.345   6.029
    2V3OU    C5  856   3.536   3.463   5.961
    2V3OU    C4  857   3.702   3.288   6.025
    2V3OU    H4  858   3.723   3.227   6.118
    2V3OU    H5  859   3.705   3.221   5.934
    2V3OU    C2  860   3.812   3.394   6.016
    2V3OU    O6  861   3.807   3.474   6.135
    2V3OU   H21  862   3.756   3.554   6.115
    2V3OU    C3  863   3.777   3.490   5.904
    2V3OU    H2  864   3.858   3.566   5.886
    2V3OU    H3  865   3.777   3.434   5.807
    2V3OU   C25  866   3.947   3.326   5.988
    2V3OU    O7  867   3.993   3.292   5.879
    2V3OU   C26  868   4.025   3.288   6.112
    2V3OU   H22  869   4.062   3.376   6.170
    2V3OU   H23  870   4.116   3.229   6.085
    2V3OU    O8  871   3.960   3.199   6.201
    2V3OU   H24  872   3.917   3.255   6.268
    2V3OU    C1  873   3.643   3.561   5.922
    2V3OU    H1  874   3.622   3.618   5.827
    2V3OU    O3  875   3.652   3.653   6.031
    2V3OU   C19  876   3.615   3.790   6.016
    2V3OU    H9  877   3.516   3.802   5.962
    2V3OU    O4  878   3.708   3.844   5.925
    2V3OU   C20  879   3.840   3.871   5.974
    2V3OU   H10  880   3.892   3.773   5.991
    2V3OU   C24  881   3.607   3.849   6.157
    2V3OU   H16  882   3.541   3.785   6.219
    2V3OU   H17  883   3.557   3.949   6.148
    2V3OU   C23  884   3.747   3.872   6.215
    2V3OU   H15  885   3.795   3.769   6.228
    2V3OU    N1  886   3.735   3.948   6.338
    2V3OU   H19  887   3.804   3.913   6.401
    2V3OU   H20  888   3.651   3.927   6.389
    2V3OU   C21  889   3.842   3.939   6.111
    2V3OU   H11  890   3.947   3.919   6.146
    2V3OU    O5  891   3.823   4.079   6.098
    2V3OU   H18  892   3.774   4.108   6.177
    2V3OU   C22  893   3.905   3.945   5.858
    2V3OU   H12  894   3.857   4.045   5.847
    2V3OU   H13  895   3.898   3.885   5.764
    2V3OU   H14  896   4.014   3.956   5.883
    2V3OU   C11  897   3.156   3.468   5.983
    2V3OU    O1  898   3.138   3.585   5.944
    2V3OU    C9  899   3.295   3.416   5.975
    2V3OU    C7  900   3.400   3.497   5.933
    2V3OU    O9  901   3.387   3.615   5.863
    2V3OU   H25  902   3.290   3.626   5.860
    2V3OU   C17  903   2.815   3.309   5.988
    2V3OU    H7  904   2.714   3.343   5.963
    2V3OU   C18  905   2.836   3.203   6.076
    2V3OU    H8  906   2.752   3.144   6.114
    3SOL     OW  907   4.074   3.255   3.871
    3SOL    HW1  908   4.011   3.257   3.793
    3SOL    HW2  909   4.044   3.186   3.937
    4SOL     OW  910   0.155   5.929   0.963
    4SOL    HW1  911   0.098   5.981   1.025
    4SOL    HW2  912   0.100   5.896   0.887
    5SOL     OW  913   5.132   2.325   1.043
    5SOL    HW1  914   5.104   2.379   1.122
    5SOL    HW2  915   5.073   2.244   1.035
    6SOL     OW  916   4.341   1.208   2.339
    6SOL    HW1  917   4.421   1.250   2.296
    6SOL    HW2  918   4.303   1.138   2.278
    7SOL     OW  919   2.103   3.676   4.647
    7SOL    HW1  920   2.130   3.771   4.631
    7SOL    HW2  921   2.055   3.642   4.566
    8SOL     OW  922   0.900   2.291   5.215
    8SOL    HW1  923   0.956   2.341   5.149
    8SOL    HW2  924   0.855   2.214   5.169
    9SOL     OW  925   0.223   1.127   6.271
    9SOL    HW1  926   0.228   1.080   6.360
    9SOL    HW2  927   0.258   1.220   6.280
   10SOL     OW  928   5.267   4.870   1.571
   10SOL    HW1  929   5.269   4.930   1.651
   10SOL    HW2  930   5.178   4.879   1.526
   11SOL     OW  931   2.452   2.450   1.030
   11SOL    HW1  932   2.504   2.461   0.944
   11SOL    HW2  933   2.419   2.540   1.059
   12SOL     OW  934   4.422   5.097   2.685
   12SOL    HW1  935   4.345   5.073   2.627
   12SOL    HW2  936   4.397   5.083   2.781
   13SOL     OW  937   6.177   5.758   1.130
   13SOL    HW1  938   6.129   5.691   1.074
   13SOL    HW2  939   6.223   5.825   1.071
   14SOL     OW  940   4.483   0.032   6.337
   14SOL    HW1  941   4.403   0.049   6.394
   14SOL    HW2  942   4.558   0.092   6.366
   15SOL     OW  943   1.325   5.967   6.439
   15SOL    HW1  944   1.297   5.936   6.529
   15SOL    HW2  945   1.366   6.058   6.446
   16SOL     OW  946   2.061   4.920   5.171
   16SOL    HW1  947   2.158   4.920   5.198
   16SOL    HW2  948   2.023   4.829   5.184
   17SOL     OW  949   6.544   0.955   5.002
   17SOL    HW1  950   6.520   0.878   5.061
   17SOL    HW2  951   6.640   0.978   5.014
   18SOL     OW  952   3.094   0.966   5.582
   18SOL    HW1  953   3.110   1.043   5.644
   18SOL    HW2  954   3.173   0.904   5.585
   19SOL     OW  955   3.502   6.686   2.923
   19SOL    HW1  956   3.493   6.590   2.897
   19SOL    HW2  957   3.420   6.736   2.895
   20SOL     OW  958   6.363   1.514   5.749
   20SOL    HW1  959   6.334   1.547   5.838
   20SOL    HW2  960   6.450   1.557   5.724
   21SOL     OW  961   2.083   4.026   2.753
   21SOL    HW1  962   2.107   3.929   2.744
   21SOL    HW2  963   2.004   4.035   2.813
   22SOL     OW  964   0.936   1.098   0.000
   22SOL    HW1  965   0.932   1.024   6.950
   22SOL    HW2  966   0.987   1.068   0.081
   23SOL     OW  967   6.235   4.601   0.773
   23SOL    HW1  968   6.246   4.687   0.722
   23SOL    HW2  969   6.174   4.616   0.851
   24SOL     OW  970   5.466   1.515   0.209
   24SOL    HW1  971   5.500   1.441   0.268
   24SOL    HW2  972   5.414   1.476   0.134
   25SOL     OW  973   1.842   0.540   4.644
   25SOL    HW1  974   1.755   0.555   4.692
   25SOL    HW2  975   1.916   0.581   4.696
   26SOL     OW  976   1.569   1.803   5.771
   26SOL    HW1  977   1.564   1.769   5.865
   26SOL    HW2  978   1.576   1.903   5.772
   27SOL     OW  979   6.885   0.004   2.574
   27SOL    HW1  980   6.881   7.009   2.475
   27SOL    HW2  981   6.793   7.013   2.613
   28SOL     OW  982   2.146   0.495   5.540
   28SOL    HW1  983   2.190   0.535   5.459
   28SOL    HW2  984   2.047   0.493   5.526
   29SOL     OW  985   5.763   0.049   1.328
   29SOL    HW1  986   5.812   0.033   1.243
   29SOL    HW2  987   5.797   0.132   1.372
   30SOL     OW  988   4.588   0.166   5.169
   30SOL    HW1  989   4.650   0.243   5.157
   30SOL    HW2  990   4.628   0.100   5.232
   31SOL     OW  991   0.486   4.403   4.652
   31SOL    HW1  992   0.478   4.330   4.720
   31SOL    HW2  993   0.555   4.469   4.682
   32SOL     OW  994   3.339   0.623   0.944
   32SOL    HW1  995   3.393   0.568   1.008
   32SOL    HW2  996   3.275   0.680   0.996
   33SOL     OW  997   2.107   5.323   6.098
   33SOL    HW1  998   2.182   5.352   6.038
   33SOL    HW2  999   2.033   5.286   6.042
   34SOL     OW 1000   2.587   5.923   5.410
   34SOL    HW1 1001   2.653   5.859   5.372
   34SOL    HW2 1002   2.568   5.995   5.343
   35SOL     OW 1003   1.380   2.683   6.281
   35SOL    HW1 1004   1.434   2.766   6.298
   35SOL    HW2 1005   1.338   2.688   6.191
   36SOL     OW 1006   5.367   0.675   3.119
   36SOL    HW1 1007   5.288   0.697   3.177
   36SOL    HW2 1008   5.442   0.737   3.140
   37SOL     OW 1009   2.423   6.335   4.021
   37SOL    HW1 1010   2.471   6.349   3.935
   37SOL    HW2 1011   2.477   6.374   4.096
   38SOL     OW 1012   1.619   4.214   2.843
   38SOL    HW1 1013   1.559   4.270   2.786
   38SOL    HW2 1014   1.578   4.124   2.857
   39SOL     OW 1015   6.809   5.054   1.574
   39SOL    HW1 1016   6.800   4.963   1.615
   39SOL    HW2 1017   6.795   5.124   1.645
   40SOL     OW 1018   4.571   1.386   0.713
   40SOL    HW1 1019   4.545   1.367   0.618
   40SOL    HW2 1020   4.606   1.302   0.755
   41SOL     OW 1021   5.201   4.101   1.442
   41SOL    HW1 1022   5.297   4.094   1.416
   41SOL    HW2 1023   5.189   4.179   1.503
   42SOL     OW 1024   2.021   4.458   6.645
   42SOL    HW1 1025   1.928   4.472   6.609
   42SOL    HW2 1026   2.086   4.453   6.569
   43SOL     OW 1027   4.980   0.127   5.027
   43SOL    HW1 1028   4.907   0.068   5.063
   43SOL    HW2 1029   5.039   0.074   4.967
   44SOL     OW 1030   0.483   1.129   6.851
   44SOL    HW1 1031   0.513   1.188   6.776
   44SOL    HW2 1032   0.430   1.183   6.916
   45SOL     OW 1033   1.835   4.801   6.118
   45SOL    HW1 1034   1.864   4.801   6.022
   45SOL    HW2 1035   1.836   4.895   6.153
   46SOL     OW 1036   1.360   3.942   5.117
   46SOL    HW1 1037   1.373   3.891   5.033
   46SOL    HW2 1038   1.296   4.018   5.102
   47SOL     OW 1039   6.091   3.484   6.910
   47SOL    HW1 1040   6.117   3.399   6.955
   47SOL    HW2 1041   5.992   3.495   6.913
   48SOL     OW 1042   6.617   4.379   0.988
   48SOL    HW1 1043   6.710   4.348   0.971
   48SOL    HW2 1044   6.574   4.405   0.901
   49SOL     OW 1045   3.109   3.547   6.509
   49SOL    HW1 1046   3.148   3.624   6.560
   49SOL    HW2 1047   3.019   3.572   6.475
   50SOL     OW 1048   5.639   2.125   6.768
   50SOL    HW1 1049   5.630   2.160   6.861
   50SOL    HW2 1050   5.725   2.075   6.760
   51SOL     OW 1051   1.087   5.930   2.242
   51SOL    HW1 1052   1.144   5.849   2.254
   51SOL    HW2 1053   0.997   5.914   2.281
   52SOL     OW 1054   5.465   2.736   2.104
   52SOL    HW1 1055   5.449   2.818   2.160
   52SOL    HW2 1056   5.378   2.690   2.087
   53SOL     OW 1057   3.507   0.442   1.098
   53SOL    HW1 1058   3.474   0.382   1.025
   53SOL    HW2 1059   3.607   0.447   1.093
   54SOL     OW 1060   6.501   0.248   6.186
   54SOL    HW1 1061   6.449   0.191   6.123
   54SOL    HW2 1062   6.446   0.327   6.212
   55SOL     OW 1063   1.502   3.897   5.785
   55SOL    HW1 1064   1.469   3.809   5.749
   55SOL    HW2 1065   1.550   3.946   5.713
   56SOL     OW 1066   0.963   2.135   6.824
   56SOL    HW1 1067   0.963   2.179   6.734
   56SOL    HW2 1068   0.869   2.131   6.859
   57SOL     OW 1069   3.958   6.151   0.769
   57SOL    HW1 1070   3.970   6.245   0.803
   57SOL    HW2 1071   4.030   6.131   0.703
   58SOL     OW 1072   1.076   0.934   0.208
   58SOL    HW1 1073   1.039   0.849   0.172
   58SOL    HW2 1074   1.143   0.914   0.280
   59SOL     OW 1075   4.296   3.316   5.664
   59SOL    HW1 1076   4.340   3.374   5.733
   59SOL    HW2 1077   4.347   3.230   5.656
   60SOL     OW 1078   6.467   2.578   2.430
   60SOL    HW1 1079   6.564   2.595   2.410
   60SOL    HW2 1080   6.423   2.664   2.456
   61SOL     OW 1081   0.942   5.768   3.610
   61SOL    HW1 1082   0.903   5.849   3.566
   61SOL    HW2 1083   1.009   5.796   3.678
   62SOL     OW 1084   5.925   2.761   3.509
   62SOL    HW1 1085   5.965   2.745   3.418
   62SOL    HW2 1086   5.936   2.679   3.564
   63SOL     OW 1087   3.537   0.306   6.087
   63SOL    HW1 1088   3.517   0.215   6.052
   63SOL    HW2 1089   3.595   0.355   6.021
   64SOL     OW 1090   1.093   2.107   5.564
   64SOL    HW1 1091   1.101   2.044   5.487
   64SOL    HW2 1092   1.180   2.155   5.578
   65SOL     OW 1093   0.696   5.151   4.606
   65SOL    HW1 1094   0.778   5.165   4.663
   65SOL    HW2 1095   0.631   5.094   4.656
   66SOL     OW 1096   4.533   1.789   1.151
   66SOL    HW1 1097   4.534   1.872   1.208
   66SOL    HW2 1098   4.441   1.750   1.152
   67SOL     OW 1099   0.107   3.451   1.925
   67SOL    HW1 1100   0.105   3.511   1.845
   67SOL    HW2 1101   0.036   3.479   1.990
   68SOL     OW 1102   6.841   1.341   0.046
   68SOL    HW1 1103   6.914   1.297   0.099
   68SOL    HW2 1104   6.809   1.422   0.094
   69SOL     OW 1105   1.493   5.723   6.637
   69SOL    HW1 1106   1.504   5.645   6.575
   69SOL    HW2 1107   1.400   5.759   6.629
   70SOL     OW 1108   4.896   4.400   3.881
   70SOL    HW1 1109   4.863   4.384   3.789
   70SOL    HW2 1110   4.836   4.464   3.928
   71SOL     OW 1111   4.723   1.666   5.074
   71SOL    HW1 1112   4.729   1.581   5.126
   71SOL    HW2 1113   4.813   1.709   5.069
   72SOL     OW 1114   0.023   0.529   3.258
   72SOL    HW1 1115   0.056   0.618   3.228
   72SOL    HW2 1116   6.942   0.520   3.236
   73SOL     OW 1117   2.314   0.599   1.581
   73SOL    HW1 1118   2.282   0.509   1.550
   73SOL    HW2 1119   2.236   0.656   1.605
   74SOL     OW 1120   3.358   1.984   0.229
   74SOL    HW1 1121   3.327   1.927   0.305
   74SOL    HW2 1122   3.320   2.076   0.239
   75SOL     OW 1123   2.742   2.774   0.674
   75SOL    HW1 1124   2.795   2.851   0.708
   75SOL    HW2 1125   2.652   2.774   0.718
   76SOL     OW 1126   3.563   5.166   5.885
   76SOL    HW1 1127   3.591   5.153   5.790
   76SOL    HW2 1128   3.566   5.078   5.933
   77SOL     OW 1129   0.716   5.488   4.979
   77SOL    HW1 1130   0.736   5.443   5.066
   77SOL    HW2 1131   0.802   5.520   4.938
   78SOL     OW 1132   4.540   2.265   0.707
   78SOL    HW1 1133   4.559   2.175   0.666
   78SOL    HW2 1134   4.469   2.255   0.776
   79SOL     OW 1135   1.716   4.429   3.936
   79SOL    HW1 1136   1.641   4.377   3.977
   79SOL    HW2 1137   1.775   4.366   3.885
   80SOL     OW 1138   3.503   2.086   4.818
   80SOL    HW1 1139   3.532   2.121   4.908
   80SOL    HW2 1140   3.404   2.097   4.808
   81SOL     OW 1141   3.523   5.164   1.926
   81SOL    HW1 1142   3.538   5.221   2.006
   81SOL    HW2 1143   3.472   5.082   1.952
   82SOL     OW 1144   2.619   0.237   1.950
   82SOL    HW1 1145   2.597   0.309   2.015
   82SOL    HW2 1146   2.646   0.154   2.000
   83SOL     OW 1147   4.942   1.591   3.896
   83SOL    HW1 1148   4.957   1.649   3.976
   83SOL    HW2 1149   5.008   1.613   3.825
   84SOL     OW 1150   6.045   2.955   2.788
   84SOL    HW1 1151   6.008   3.020   2.854
   84SOL    HW2 1152   6.028   2.862   2.820
   85SOL     OW 1153   2.569   6.793   3.328
   85SOL    HW1 1154   2.573   6.773   3.230
   85SOL    HW2 1155   2.577   6.708   3.381
   86SOL     OW 1156   5.007   0.121   0.927
   86SOL    HW1 1157   5.022   0.203   0.872
   86SOL    HW2 1158   4.961   0.052   0.872
   87SOL     OW 1159   3.163   3.805   6.604
   87SOL    HW1 1160   3.109   3.801   6.688
   87SOL    HW2 1161   3.139   3.888   6.553
   88SOL     OW 1162   2.136   2.946   1.453
   88SOL    HW1 1163   2.084   2.971   1.535
   88SOL    HW2 1164   2.123   3.016   1.383
   89SOL     OW 1165   3.377   3.505   4.578
   89SOL    HW1 1166   3.359   3.573   4.507
   89SOL    HW2 1167   3.337   3.536   4.664
   90SOL     OW 1168   6.038   3.770   2.712
   90SOL    HW1 1169   6.097   3.742   2.637
   90SOL    HW2 1170   5.949   3.725   2.703
   91SOL     OW 1171   4.715   5.941   6.253
   91SOL    HW1 1172   4.647   5.907   6.187
   91SOL    HW2 1173   4.704   5.892   6.340
   92SOL     OW 1174   5.362   4.642   6.872
   92SOL    HW1 1175   5.353   4.606   6.965
   92SOL    HW2 1176   5.446   4.697   6.867
   93SOL     OW 1177   3.152   4.166   1.674
   93SOL    HW1 1178   3.097   4.105   1.617
   93SOL    HW2 1179   3.120   4.260   1.664
   94SOL     OW 1180   3.568   2.142   3.720
   94SOL    HW1 1181   3.485   2.087   3.730
   94SOL    HW2 1182   3.601   2.171   3.810
   95SOL     OW 1183   0.451   0.023   4.201
   95SOL    HW1 1184   0.448   6.943   4.177
   95SOL    HW2 1185   0.430   0.034   4.298
   96SOL     OW 1186   0.030   5.596   6.947
   96SOL    HW1 1187   0.026   5.664   6.874
   96SOL    HW2 1188   0.041   5.505   6.908
   97SOL     OW 1189   2.385   4.272   5.743
   97SOL    HW1 1190   2.469   4.308   5.783
   97SOL    HW2 1191   2.405   4.234   5.652
   98SOL     OW 1192   6.983   1.731   4.271
   98SOL    HW1 1193   7.000   1.829   4.262
   98SOL    HW2 1194   0.031   1.681   4.213
   99SOL     OW 1195   3.779   4.318   5.315
   99SOL    HW1 1196   3.873   4.311   5.280
   99SOL    HW2 1197   3.756   4.234   5.364
  100SOL     OW 1198   1.168   0.633   5.356
  100SOL    HW1 1199   1.222   0.550   5.370
  100SOL    HW2 1200   1.086   0.611   5.303
  101SOL     OW 1201   5.090   3.135   2.535
  101SOL    HW1 1202   5.017   3.131   2.603
  101SOL    HW2 1203   5.150   3.212   2.556
  102SOL     OW 1204   4.372   0.401   6.692
  102SOL    HW1 1205   4.426   0.474   6.651
  102SOL    HW2 1206   4.278   0.433   6.708
  103SOL     OW 1207   1.180   1.741   2.227
  103SOL    HW1 1208   1.141   1.794   2.151
  103SOL    HW2 1209   1.106   1.707   2.285
  104SOL     OW 1210   6.370   4.515   1.990
  104SOL    HW1 1211   6.362   4.448   2.064
  104SOL    HW2 1212   6.401   4.468   1.907
  105SOL     OW 1213   0.908   0.218   4.742
  105SOL    HW1 1214   0.931   0.312   4.717
  105SOL    HW2 1215   0.813   0.199   4.717
  106SOL     OW 1216   4.371   3.044   1.722
  106SOL    HW1 1217   4.386   2.991   1.638
  106SOL    HW2 1218   4.459   3.057   1.769
  107SOL     OW 1219   5.806   6.866   1.516
  107SOL    HW1 1220   5.823   6.771   1.488
  107SOL    HW2 1221   5.757   6.914   1.444
  108SOL     OW 1222   3.497   1.478   4.731
  108SOL    HW1 1223   3.561   1.437   4.666
  108SOL    HW2 1224   3.423   1.523   4.681
  109SOL     OW 1225   2.080   0.779   5.386
  109SOL    HW1 1226   2.176   0.757   5.369
  109SOL    HW2 1227   2.047   0.839   5.313
  110SOL     OW 1228   3.725   3.757   5.648
  110SOL    HW1 1229   3.815   3.775   5.610
  110SOL    HW2 1230   3.707   3.822   5.722
  111SOL     OW 1231   5.949   2.855   0.878
  111SOL    HW1 1232   5.906   2.771   0.910
  111SOL    HW2 1233   5.890   2.898   0.809
  112SOL     OW 1234   5.621   6.239   6.010
  112SOL    HW1 1235   5.681   6.318   5.998
  112SOL    HW2 1236   5.526   6.268   6.000
  113SOL     OW 1237   0.272   4.972   2.859
  113SOL    HW1 1238   0.366   4.964   2.826
  113SOL    HW2 1239   0.241   4.882   2.892
  114SOL     OW 1240   0.150   2.395   2.047
  114SOL    HW1 1241   0.185   2.301   2.044
  114SOL    HW2 1242   0.112   2.420   1.958
  115SOL     OW 1243   4.426   0.167   2.443
  115SOL    HW1 1244   4.485   0.243   2.472
  115SOL    HW2 1245   4.431   0.157   2.343
  116SOL     OW 1246   0.011   5.246   0.632
  116SOL    HW1 1247   6.950   5.196   0.594
  116SOL    HW2 1248   7.004   5.281   0.722
  117SOL     OW 1249   2.958   2.289   0.217
  117SOL    HW1 1250   2.943   2.299   0.119
  117SOL    HW2 1251   2.885   2.337   0.267
  118SOL     OW 1252   0.059   1.650   2.560
  118SOL    HW1 1253   0.031   1.727   2.503
  118SOL    HW2 1254   0.070   1.568   2.504
  119SOL     OW 1255   6.334   0.073   5.375
  119SOL    HW1 1256   6.288   0.153   5.413
  119SOL    HW2 1257   6.420   0.101   5.333
  120SOL     OW 1258   4.565   0.598   4.258
  120SOL    HW1 1259   4.619   0.639   4.184
  120SOL    HW2 1260   4.469   0.620   4.246
  121SOL     OW 1261   0.676   5.811   6.536
  121SOL    HW1 1262   0.712   5.719   6.522
  121SOL    HW2 1263   0.632   5.843   6.452
  122SOL     OW 1264   6.897   4.622   5.987
  122SOL    HW1 1265   6.797   4.626   5.991
  122SOL    HW2 1266   6.926   4.532   5.953
  123SOL     OW 1267   0.380   2.805   1.810
  123SOL    HW1 1268   0.312   2.799   1.737
  123SOL    HW2 1269   0.340   2.855   1.888
  124SOL     OW 1270   1.595   3.355   0.472
  124SOL    HW1 1271   1.590   3.340   0.373
  124SOL    HW2 1272   1.688   3.335   0.504
  125SOL     OW 1273   4.307   2.750   0.721
  125SOL    HW1 1274   4.392   2.776   0.768
  125SOL    HW2 1275   4.324   2.671   0.663
  126SOL     OW 1276   3.698   3.251   4.101
  126SOL    HW1 1277   3.694   3.310   4.020
  126SOL    HW2 1278   3.782   3.198   4.099
  127SOL     OW 1279   0.351   4.394   5.258
  127SOL    HW1 1280   0.290   4.319   5.231
  127SOL    HW2 1281   0.318   4.480   5.220
  128SOL     OW 1282   5.124   3.577   6.265
  128SOL    HW1 1283   5.178   3.528   6.334
  128SOL    HW2 1284   5.163   3.668   6.251
  129SOL     OW 1285   0.202   5.807   2.423
  129SOL    HW1 1286   0.222   5.812   2.521
  129SOL    HW2 1287   0.176   5.897   2.390
  130SOL     OW 1288   5.981   3.391   4.198
  130SOL    HW1 1289   6.073   3.365   4.228
  130SOL    HW2 1290   5.967   3.489   4.214
  131SOL     OW 1291   0.552   3.620   3.543
  131SOL    HW1 1292   0.550   3.520   3.540
  131SOL    HW2 1293   0.634   3.653   3.496
  132SOL     OW 1294   4.652   2.762   0.885
  132SOL    HW1 1295   4.624   2.858   0.879
  132SOL    HW2 1296   4.723   2.753   0.955
  133SOL     OW 1297   4.516   5.262   6.414
  133SOL    HW1 1298   4.524   5.359   6.392
  133SOL    HW2 1299   4.467   5.251   6.500
  134SOL     OW 1300   5.507   2.345   1.032
  134SOL    HW1 1301   5.483   2.432   1.074
  134SOL    HW2 1302   5.423   2.293   1.012
  135SOL     OW 1303   4.972   3.792   3.789
  135SOL    HW1 1304   4.927   3.878   3.765
  135SOL    HW2 1305   5.033   3.808   3.867
  136SOL     OW 1306   4.035   1.064   6.322
  136SOL    HW1 1307   3.957   1.006   6.298
  136SOL    HW2 1308   4.030   1.149   6.269
  137SOL     OW 1309   2.629   3.988   6.142
  137SOL    HW1 1310   2.654   4.074   6.098
  137SOL    HW2 1311   2.542   3.999   6.190
  138SOL     OW 1312   0.978   5.584   6.710
  138SOL    HW1 1313   0.991   5.678   6.743
  138SOL    HW2 1314   1.067   5.539   6.704
  139SOL     OW 1315   1.397   0.251   1.614
  139SOL    HW1 1316   1.344   0.324   1.573
  139SOL    HW2 1317   1.398   0.172   1.552
  140SOL     OW 1318   4.153   1.107   1.450
  140SOL    HW1 1319   4.077   1.119   1.513
  140SOL    HW2 1320   4.240   1.114   1.500
  141SOL     OW 1321   0.249   2.074   0.664
  141SOL    HW1 1322   0.301   2.009   0.609
  141SOL    HW2 1323   0.268   2.167   0.632
  142SOL     OW 1324   2.128   3.972   0.690
  142SOL    HW1 1325   2.090   3.879   0.687
  142SOL    HW2 1326   2.121   4.014   0.600
  143SOL     OW 1327   4.190   6.369   2.174
  143SOL    HW1 1328   4.136   6.444   2.210
  143SOL    HW2 1329   4.129   6.303   2.129
  144SOL     OW 1330   3.069   5.695   2.674
  144SOL    HW1 1331   3.073   5.795   2.678
  144SOL    HW2 1332   3.066   5.658   2.766
  145SOL     OW 1333   6.684   5.553   4.337
  145SOL    HW1 1334   6.679   5.520   4.243
  145SOL    HW2 1335   6.591   5.566   4.373
  146SOL     OW 1336   5.867   0.413   6.219
  146SOL    HW1 1337   5.867   0.491   6.156
  146SOL    HW2 1338   5.875   0.329   6.166
  147SOL     OW 1339   5.855   1.339   5.165
  147SOL    HW1 1340   5.794   1.294   5.230
  147SOL    HW2 1341   5.878   1.430   5.199
  148SOL     OW 1342   2.375   6.588   1.288
  148SOL    HW1 1343   2.417   6.520   1.347
  148SOL    HW2 1344   2.313   6.544   1.224
  149SOL     OW 1345   1.954   2.652   4.634
  149SOL    HW1 1346   2.037   2.708   4.642
  149SOL    HW2 1347   1.974   2.570   4.580
  150SOL     OW 1348   4.189   1.923   5.081
  150SOL    HW1 1349   4.175   1.858   5.005
  150SOL    HW2 1350   4.103   1.936   5.129
  151SOL     OW 1351   6.048   3.486   0.809
  151SOL    HW1 1352   6.146   3.470   0.820
  151SOL    HW2 1353   6.027   3.581   0.833
  152SOL     OW 1354   0.742   2.895   1.583
  152SOL    HW1 1355   0.694   2.884   1.670
  152SOL    HW2 1356   0.840   2.879   1.597
  153SOL     OW 1357   2.145   1.857   3.670
  153SOL    HW1 1358   2.129   1.896   3.761
  153SOL    HW2 1359   2.174   1.930   3.608
  154SOL     OW 1360   6.334   2.100   2.992
  154SOL    HW1 1361   6.423   2.103   2.946
  154SOL    HW2 1362   6.271   2.163   2.946
  155SOL     OW 1363   6.679   4.725   3.142
  155SOL    HW1 1364   6.766   4.775   3.138
  155SOL    HW2 1365   6.604   4.791   3.141
  156SOL     OW 1366   5.108   1.561   0.312
  156SOL    HW1 1367   5.095   1.518   0.223
  156SOL    HW2 1368   5.154   1.498   0.374
  157SOL     OW 1369   5.313   0.174   1.365
  157SOL    HW1 1370   5.329   0.210   1.457
  157SOL    HW2 1371   5.365   0.227   1.299
  158SOL     OW 1372   0.715   2.776   4.543
  158SOL    HW1 1373   0.656   2.781   4.623
  158SOL    HW2 1374   0.669   2.817   4.464
  159SOL     OW 1375   6.358   5.583   0.529
  159SOL    HW1 1376   6.457   5.584   0.537
  159SOL    HW2 1377   6.331   5.593   0.433
  160SOL     OW 1378   5.672   0.566   1.039
  160SOL    HW1 1379   5.688   0.522   1.127
  160SOL    HW2 1380   5.631   0.500   0.976
  161SOL     OW 1381   6.525   6.081   0.670
  161SOL    HW1 1382   6.582   6.005   0.699
  161SOL    HW2 1383   6.569   6.129   0.594
  162SOL     OW 1384   4.705   0.044   6.038
  162SOL    HW1 1385   4.659   7.010   5.965
  162SOL    HW2 1386   4.688   7.015   6.125
  163SOL     OW 1387   0.431   2.992   2.496
  163SOL    HW1 1388   0.399   3.028   2.408
  163SOL    HW2 1389   0.425   2.892   2.495
  164SOL     OW 1390   2.648   2.391   2.838
  164SOL    HW1 1391   2.636   2.482   2.876
  164SOL    HW2 1392   2.577   2.330   2.873
  165SOL     OW 1393   0.012   6.852   3.888
  165SOL    HW1 1394   0.042   6.874   3.981
  165SOL    HW2 1395   0.050   6.919   3.824
  166SOL     OW 1396   6.852   4.745   4.086
  166SOL    HW1 1397   6.941   4.739   4.039
  166SOL    HW2 1398   6.853   4.821   4.151
  167SOL     OW 1399   2.168   1.032   4.726
  167SOL    HW1 1400   2.139   0.936   4.719
  167SOL    HW2 1401   2.128   1.084   4.651
  168SOL     OW 1402   3.859   3.428   2.121
  168SOL    HW1 1403   3.844   3.425   2.220
  168SOL    HW2 1404   3.776   3.460   2.075
  169SOL     OW 1405   5.421   2.708   0.396
  169SOL    HW1 1406   5.489   2.676   0.329
  169SOL    HW2 1407   5.331   2.709   0.354
  170SOL     OW 1408   6.183   5.482   1.054
  170SOL    HW1 1409   6.277   5.499   1.025
  170SOL    HW2 1410   6.121   5.497   0.977
  171SOL     OW 1411   3.400   3.236   1.382
  171SOL    HW1 1412   3.415   3.282   1.294
  171SOL    HW2 1413   3.303   3.241   1.406
  172SOL     OW 1414   1.535   1.152   6.399
  172SOL    HW1 1415   1.557   1.240   6.442
  172SOL    HW2 1416   1.584   1.080   6.446
  173SOL     OW 1417   6.040   1.159   4.225
  173SOL    HW1 1418   6.023   1.258   4.222
  173SOL    HW2 1419   5.988   1.115   4.152
  174SOL     OW 1420   5.187   4.363   4.207
  174SOL    HW1 1421   5.201   4.374   4.108
  174SOL    HW2 1422   5.161   4.269   4.226
  175SOL     OW 1423   0.400   6.354   2.283
  175SOL    HW1 1424   0.496   6.358   2.255
  175SOL    HW2 1425   0.342   6.370   2.203
  176SOL     OW 1426   6.534   3.526   1.630
  176SOL    HW1 1427   6.482   3.522   1.545
  176SOL    HW2 1428   6.492   3.592   1.692
  177SOL     OW 1429   5.608   2.452   3.388
  177SOL    HW1 1430   5.693   2.406   3.412
  177SOL    HW2 1431   5.553   2.392   3.330
  178SOL     OW 1432   2.244   5.802   4.380
  178SOL    HW1 1433   2.342   5.787   4.390
  178SOL    HW2 1434   2.221   5.896   4.408
  179SOL     OW 1435   3.006   4.742   1.445
  179SOL    HW1 1436   3.009   4.645   1.423
  179SOL    HW2 1437   2.965   4.754   1.536
  180SOL     OW 1438   4.837   1.142   6.260
  180SOL    HW1 1439   4.763   1.085   6.295
  180SOL    HW2 1440   4.918   1.132   6.317
  181SOL     OW 1441   3.123   1.300   5.984
  181SOL    HW1 1442   3.074   1.387   5.992
  181SOL    HW2 1443   3.220   1.315   6.000
  182SOL     OW 1444   3.298   3.445   5.609
  182SOL    HW1 1445   3.243   3.529   5.617
  182SOL    HW2 1446   3.258   3.386   5.539
  183SOL     OW 1447   2.898   0.820   3.246
  183SOL    HW1 1448   2.904   0.738   3.304
  183SOL    HW2 1449   2.905   0.792   3.150
  184SOL     OW 1450   5.709   5.943   3.523
  184SOL    HW1 1451   5.756   5.996   3.593
  184SOL    HW2 1452   5.733   5.978   3.432
  185SOL     OW 1453   0.674   6.975   5.046
  185SOL    HW1 1454   0.758   0.010   5.065
  185SOL    HW2 1455   0.666   6.959   4.948
  186SOL     OW 1456   3.126   5.904   4.807
  186SOL    HW1 1457   3.205   5.942   4.855
  186SOL    HW2 1458   3.154   5.871   4.717
  187SOL     OW 1459   4.074   5.761   1.654
  187SOL    HW1 1460   3.977   5.756   1.674
  187SOL    HW2 1461   4.099   5.856   1.634
  188SOL     OW 1462   0.757   3.637   3.322
  188SOL    HW1 1463   0.746   3.538   3.323
  188SOL    HW2 1464   0.716   3.675   3.239
  189SOL     OW 1465   5.228   4.770   5.372
  189SOL    HW1 1466   5.218   4.694   5.437
  189SOL    HW2 1467   5.301   4.748   5.307
  190SOL     OW 1468   6.166   0.013   0.468
  190SOL    HW1 1469   6.141   0.098   0.516
  190SOL    HW2 1470   6.262   0.017   0.441
  191SOL     OW 1471   1.288   1.782   5.266
  191SOL    HW1 1472   1.367   1.769   5.327
  191SOL    HW2 1473   1.317   1.830   5.183
  192SOL     OW 1474   0.619   5.708   1.452
  192SOL    HW1 1475   0.678   5.706   1.533
  192SOL    HW2 1476   0.531   5.750   1.476
  193SOL     OW 1477   2.303   0.593   1.939
  193SOL    HW1 1478   2.325   0.666   2.004
  193SOL    HW2 1479   2.385   0.571   1.886
  194SOL     OW 1480   3.462   6.098   2.301
  194SOL    HW1 1481   3.476   6.029   2.229
  194SOL    HW2 1482   3.395   6.064   2.367
  195SOL     OW 1483   3.605   0.505   0.599
  195SOL    HW1 1484   3.505   0.509   0.604
  195SOL    HW2 1485   3.640   0.452   0.675
  196SOL     OW 1486   3.827   2.413   0.725
  196SOL    HW1 1487   3.834   2.326   0.774
  196SOL    HW2 1488   3.731   2.433   0.706
  197SOL     OW 1489   1.683   5.742   0.372
  197SOL    HW1 1490   1.651   5.714   0.282
  197SOL    HW2 1491   1.611   5.726   0.439
  198SOL     OW 1492   4.275   6.560   6.456
  198SOL    HW1 1493   4.306   6.527   6.545
  198SOL    HW2 1494   4.184   6.601   6.465
  199SOL     OW 1495   0.930   0.551   3.241
  199SOL    HW1 1496   0.869   0.621   3.203
  199SOL    HW2 1497   0.875   0.478   3.281
  200SOL     OW 1498   0.970   4.065   3.625
  200SOL    HW1 1499   0.967   4.152   3.673
  200SOL    HW2 1500   0.888   4.054   3.570
  201SOL     OW 1501   4.682   1.556   6.519
  201SOL    HW1 1502   4.629   1.497   6.457
  201SOL    HW2 1503   4.701   1.507   6.604
  202SOL     OW 1504   3.712   0.801   2.257
  202SOL    HW1 1505   3.788   0.768   2.313
  202SOL    HW2 1506   3.723   0.899   2.241
  203SOL     OW 1507   6.250   2.828   6.856
  203SOL    HW1 1508   6.212   2.759   6.795
  203SOL    HW2 1509   6.346   2.806   6.875
  204SOL     OW 1510   2.221   6.973   1.633
  204SOL    HW1 1511   2.264   0.031   1.683
  204SOL    HW2 1512   2.289   6.926   1.577
  205SOL     OW 1513   5.718   0.716   1.367
  205SOL    HW1 1514   5.630   0.669   1.356
  205SOL    HW2 1515   5.738   0.769   1.285
  206SOL     OW 1516   0.219   5.663   1.698
  206SOL    HW1 1517   0.291   5.699   1.757
  206SOL    HW2 1518   0.221   5.563   1.700
  207SOL     OW 1519   4.743   1.732   5.442
  207SOL    HW1 1520   4.819   1.787   5.477
  207SOL    HW2 1521   4.699   1.780   5.366
  208SOL     OW 1522   3.689   4.312   6.238
  208SOL    HW1 1523   3.778   4.292   6.279
  208SOL    HW2 1524   3.680   4.411   6.225
  209SOL     OW 1525   6.750   5.431   4.697
  209SOL    HW1 1526   6.754   5.477   4.786
  209SOL    HW2 1527   6.798   5.487   4.629
  210SOL     OW 1528   4.063   2.055   1.210
  210SOL    HW1 1529   4.131   2.019   1.274
  210SOL    HW2 1530   4.058   2.155   1.220
  211SOL     OW 1531   0.960   2.959   2.026
  211SOL    HW1 1532   1.049   2.953   1.979
  211SOL    HW2 1533   0.974   2.994   2.118
  212SOL     OW 1534   0.198   5.130   4.746
  212SOL    HW1 1535   0.153   5.153   4.832
  212SOL    HW2 1536   0.256   5.206   4.717
  213SOL     OW 1537   3.904   2.262   6.040
  213SOL    HW1 1538   3.970   2.330   6.005
  213SOL    HW2 1539   3.851   2.303   6.114
  214SOL     OW 1540   1.498   6.416   3.308
  214SOL    HW1 1541   1.555   6.468   3.245
  214SOL    HW2 1542   1.482   6.469   3.391
  215SOL     OW 1543   4.123   3.553   2.662
  215SOL    HW1 1544   4.186   3.507   2.600
  215SOL    HW2 1545   4.139   3.522   2.756
  216SOL     OW 1546   1.947   6.969   5.593
  216SOL    HW1 1547   1.901   6.967   5.682
  216SOL    HW2 1548   2.000   0.037   5.585
  217SOL     OW 1549   6.873   2.384   4.250
  217SOL    HW1 1550   6.870   2.466   4.307
  217SOL    HW2 1551   6.893   2.304   4.306
  218SOL     OW 1552   1.874   3.575   5.335
  218SOL    HW1 1553   1.786   3.622   5.341
  218SOL    HW2 1554   1.933   3.621   5.270
  219SOL     OW 1555   3.240   5.498   0.316
  219SOL    HW1 1556   3.165   5.527   0.257
  219SOL    HW2 1557   3.309   5.449   0.261
  220SOL     OW 1558   1.349   4.417   0.514
  220SOL    HW1 1559   1.360   4.318   0.522
  220SOL    HW2 1560   1.363   4.459   0.604
  221SOL     OW 1561   6.450   2.904   4.535
  221SOL    HW1 1562   6.351   2.903   4.520
  221SOL    HW2 1563   6.469   2.888   4.632
  222SOL     OW 1564   1.289   6.315   4.373
  222SOL    HW1 1565   1.195   6.282   4.370
  222SOL    HW2 1566   1.309   6.351   4.465
  223SOL     OW 1567   6.102   4.716   2.214
  223SOL    HW1 1568   6.193   4.702   2.254
  223SOL    HW2 1569   6.041   4.754   2.283
  224SOL     OW 1570   3.750   2.040   2.210
  224SOL    HW1 1571   3.703   2.107   2.153
  224SOL    HW2 1572   3.807   2.087   2.277
  225SOL     OW 1573   6.506   0.196   1.410
  225SOL    HW1 1574   6.584   0.156   1.363
  225SOL    HW2 1575   6.438   0.126   1.429
  226SOL     OW 1576   0.002   5.755   1.519
  226SOL    HW1 1577   0.001   5.662   1.482
  226SOL    HW2 1578   0.073   5.762   1.590
  227SOL     OW 1579   1.339   3.347   2.664
  227SOL    HW1 1580   1.243   3.373   2.679
  227SOL    HW2 1581   1.343   3.271   2.600
  228SOL     OW 1582   3.446   6.505   2.669
  228SOL    HW1 1583   3.451   6.444   2.589
  228SOL    HW2 1584   3.351   6.513   2.699
  229SOL     OW 1585   6.065   5.596   3.273
  229SOL    HW1 1586   6.074   5.508   3.320
  229SOL    HW2 1587   5.977   5.637   3.296
  230SOL     OW 1588   1.160   3.975   6.138
  230SOL    HW1 1589   1.244   4.026   6.157
  230SOL    HW2 1590   1.094   3.992   6.211
  231SOL     OW 1591   0.646   1.548   0.274
  231SOL    HW1 1592   0.652   1.471   0.337
  231SOL    HW2 1593   0.714   1.617   0.299
  232SOL     OW 1594   1.794   4.215   6.630
  232SOL    HW1 1595   1.723   4.266   6.582
  232SOL    HW2 1596   1.875   4.210   6.572
  233SOL     OW 1597   3.218   0.655   6.161
  233SOL    HW1 1598   3.151   0.715   6.204
  233SOL    HW2 1599   3.173   0.571   6.132
  234SOL     OW 1600   3.077   5.684   5.967
  234SOL    HW1 1601   3.169   5.650   5.986
  234SOL    HW2 1602   3.012   5.608   5.970
  235SOL     OW 1603   3.589   3.277   4.782
  235SOL    HW1 1604   3.660   3.333   4.740
  235SOL    HW2 1605   3.505   3.284   4.728
  236SOL     OW 1606   0.132   2.403   6.053
  236SOL    HW1 1607   0.197   2.397   5.977
  236SOL    HW2 1608   0.181   2.414   6.139
  237SOL     OW 1609   6.430   6.443   1.932
  237SOL    HW1 1610   6.478   6.529   1.914
  237SOL    HW2 1611   6.497   6.372   1.955
  238SOL     OW 1612   6.334   1.487   2.449
  238SOL    HW1 1613   6.285   1.552   2.506
  238SOL    HW2 1614   6.353   1.404   2.501
  239SOL     OW 1615   0.518   5.743   0.850
  239SOL    HW1 1616   0.480   5.713   0.937
  239SOL    HW2 1617   0.588   5.678   0.820
  240SOL     OW 1618   6.800   3.145   5.538
  240SOL    HW1 1619   6.769   3.180   5.627
  240SOL    HW2 1620   6.896   3.170   5.524
  241SOL     OW 1621   5.893   1.447   4.522
  241SOL    HW1 1622   5.815   1.471   4.464
  241SOL    HW2 1623   5.972   1.426   4.464
  242SOL     OW 1624   2.715   2.404   3.959
  242SOL    HW1 1625   2.645   2.472   3.981
  242SOL    HW2 1626   2.762   2.375   4.042
  243SOL     OW 1627   4.237   1.532   6.249
  243SOL    HW1 1628   4.295   1.453   6.265
  243SOL    HW2 1629   4.143   1.511   6.278
  244SOL     OW 1630   0.169   0.659   5.965
  244SOL    HW1 1631   0.113   0.723   5.912
  244SOL    HW2 1632   0.125   0.641   6.053
  245SOL     OW 1633   5.072   2.743   3.892
  245SOL    HW1 1634   5.054   2.745   3.990
  245SOL    HW2 1635   5.163   2.779   3.873
  246SOL     OW 1636   4.866   3.228   3.632
  246SOL    HW1 1637   4.950   3.183   3.664
  246SOL    HW2 1638   4.845   3.198   3.539
  247SOL     OW 1639   2.624   0.025   3.437
  247SOL    HW1 1640   2.717   7.007   3.448
  247SOL    HW2 1641   2.570   6.975   3.385
  248SOL     OW 1642   6.642   1.421   1.664
  248SOL    HW1 1643   6.667   1.348   1.728
  248SOL    HW2 1644   6.696   1.503   1.685
  249SOL     OW 1645   2.105   5.749   5.135
  249SOL    HW1 1646   2.053   5.683   5.081
  249SOL    HW2 1647   2.068   5.841   5.119
  250SOL     OW 1648   5.146   2.809   6.446
  250SOL    HW1 1649   5.052   2.817   6.479
  250SOL    HW2 1650   5.191   2.898   6.453
  251SOL     OW 1651   1.772   2.437   0.407
  251SOL    HW1 1652   1.716   2.376   0.463
  251SOL    HW2 1653   1.813   2.385   0.332
  252SOL     OW 1654   0.830   1.532   0.610
  252SOL    HW1 1655   0.836   1.459   0.678
  252SOL    HW2 1656   0.882   1.507   0.529
  253SOL     OW 1657   1.859   4.213   6.161
  253SOL    HW1 1658   1.772   4.250   6.193
  253SOL    HW2 1659   1.920   4.287   6.135
  254SOL     OW 1660   4.791   3.774   6.472
  254SOL    HW1 1661   4.821   3.777   6.567
  254SOL    HW2 1662   4.865   3.738   6.415
  255SOL     OW 1663   3.810   2.151   2.484
  255SOL    HW1 1664   3.844   2.115   2.571
  255SOL    HW2 1665   3.767   2.240   2.499
  256SOL     OW 1666   6.775   5.701   1.955
  256SOL    HW1 1667   6.724   5.699   1.870
  256SOL    HW2 1668   6.866   5.662   1.941
  257SOL     OW 1669   2.789   5.552   6.693
  257SOL    HW1 1670   2.784   5.452   6.700
  257SOL    HW2 1671   2.696   5.589   6.684
  258SOL     OW 1672   4.898   4.337   4.157
  258SOL    HW1 1673   4.962   4.410   4.183
  258SOL    HW2 1674   4.892   4.331   4.058
  259SOL     OW 1675   0.816   2.106   3.280
  259SOL    HW1 1676   0.747   2.175   3.259
  259SOL    HW2 1677   0.773   2.028   3.326
  260SOL     OW 1678   0.126   6.694   5.734
  260SOL    HW1 1679   0.106   6.731   5.643
  260SOL    HW2 1680   0.065   6.617   5.753
  261SOL     OW 1681   0.247   1.085   3.158
  261SOL    HW1 1682   0.269   1.169   3.209
  261SOL    HW2 1683   0.266   1.099   3.061
  262SOL     OW 1684   1.861   5.500   2.603
  262SOL    HW1 1685   1.848   5.402   2.620
  262SOL    HW2 1686   1.772   5.546   2.603
  263SOL     OW 1687   6.917   2.820   5.259
  263SOL    HW1 1688   6.823   2.795   5.282
  263SOL    HW2 1689   6.949   2.891   5.322
  264SOL     OW 1690   3.214   4.142   6.792
  264SOL    HW1 1691   3.205   4.090   6.707
  264SOL    HW2 1692   3.138   4.120   6.853
  265SOL     OW 1693   4.786   5.383   4.135
  265SOL    HW1 1694   4.829   5.296   4.159
  265SOL    HW2 1695   4.797   5.399   4.037
  266SOL     OW 1696   3.936   3.032   6.688
  266SOL    HW1 1697   3.839   3.052   6.678
  266SOL    HW2 1698   3.972   2.997   6.602
  267SOL     OW 1699   2.393   1.712   6.580
  267SOL    HW1 1700   2.382   1.668   6.669
  267SOL    HW2 1701   2.331   1.668   6.514
  268SOL     OW 1702   2.874   4.803   3.558
  268SOL    HW1 1703   2.800   4.739   3.541
  268SOL    HW2 1704   2.910   4.790   3.650
  269SOL     OW 1705   2.167   1.443   4.909
  269SOL    HW1 1706   2.076   1.425   4.945
  269SOL    HW2 1707   2.235   1.425   4.980
  270SOL     OW 1708   4.960   6.713   4.340
  270SOL    HW1 1709   4.889   6.736   4.407
  270SOL    HW2 1710   4.927   6.643   4.278
  271SOL     OW 1711   1.803   1.662   0.709
  271SOL    HW1 1712   1.836   1.634   0.799
  271SOL    HW2 1713   1.736   1.735   0.720
  272SOL     OW 1714   4.223   6.239   1.512
  272SOL    HW1 1715   4.296   6.170   1.517
  272SOL    HW2 1716   4.263   6.330   1.523
  273SOL     OW 1717   2.162   6.585   4.397
  273SOL    HW1 1718   2.099   6.594   4.320
  273SOL    HW2 1719   2.119   6.620   4.480
  274SOL     OW 1720   5.659   1.550   1.129
  274SOL    HW1 1721   5.691   1.475   1.188
  274SOL    HW2 1722   5.712   1.633   1.149
  275SOL     OW 1723   5.757   5.581   5.860
  275SOL    HW1 1724   5.730   5.654   5.924
  275SOL    HW2 1725   5.849   5.550   5.883
  276SOL     OW 1726   0.182   6.501   4.391
  276SOL    HW1 1727   0.200   6.536   4.483
  276SOL    HW2 1728   0.216   6.407   4.384
  277SOL     OW 1729   4.551   2.711   5.401
  277SOL    HW1 1730   4.554   2.756   5.490
  277SOL    HW2 1731   4.458   2.719   5.363
  278SOL     OW 1732   5.520   4.005   3.184
  278SOL    HW1 1733   5.502   3.919   3.136
  278SOL    HW2 1734   5.601   3.994   3.242
  279SOL     OW 1735   6.761   3.345   3.963
  279SOL    HW1 1736   6.737   3.350   3.866
  279SOL    HW2 1737   6.855   3.313   3.972
  280SOL     OW 1738   4.287   1.376   3.584
  280SOL    HW1 1739   4.355   1.335   3.644
  280SOL    HW2 1740   4.328   1.392   3.494
  281SOL     OW 1741   5.243   5.722   4.808
  281SOL    HW1 1742   5.280   5.629   4.821
  281SOL    HW2 1743   5.245   5.771   4.896
  282SOL     OW 1744   1.188   2.911   0.243
  282SOL    HW1 1745   1.158   2.815   0.238
  282SOL    HW2 1746   1.146   2.962   0.168
  283SOL     OW 1747   5.605   3.866   4.324
  283SOL    HW1 1748   5.648   3.918   4.249
  283SOL    HW2 1749   5.524   3.819   4.289
  284SOL     OW 1750   4.956   5.868   2.652
  284SOL    HW1 1751   4.935   5.936   2.582
  284SOL    HW2 1752   4.871   5.833   2.691
  285SOL     OW 1753   4.167   0.055   5.645
  285SOL    HW1 1754   4.230   0.071   5.720
  285SOL    HW2 1755   4.076   0.034   5.681
  286SOL     OW 1756   2.705   5.111   5.286
  286SOL    HW1 1757   2.774   5.171   5.247
  286SOL    HW2 1758   2.741   5.018   5.294
  287SOL     OW 1759   4.100   6.344   6.710
  287SOL    HW1 1760   4.138   6.303   6.627
  287SOL    HW2 1761   4.068   6.271   6.771
  288SOL     OW 1762   5.067   1.527   0.053
  288SOL    HW1 1763   5.157   1.514   0.013
  288SOL    HW2 1764   5.006   1.567   7.002
  289SOL     OW 1765   6.020   5.337   4.219
  289SOL    HW1 1766   6.091   5.330   4.289
  289SOL    HW2 1767   6.054   5.299   4.133
  290SOL     OW 1768   3.797   0.666   5.613
  290SOL    HW1 1769   3.699   0.683   5.617
  290SOL    HW2 1770   3.815   0.568   5.617
  291SOL     OW 1771   4.086   0.143   5.344
  291SOL    HW1 1772   4.147   0.191   5.408
  291SOL    HW2 1773   4.045   0.210   5.282
  292SOL     OW 1774   3.226   0.319   3.808
  292SOL    HW1 1775   3.310   0.279   3.845
  292SOL    HW2 1776   3.215   0.290   3.712
  293SOL     OW 1777   5.320   6.107   2.745
  293SOL    HW1 1778   5.279   6.072   2.660
  293SOL    HW2 1779   5.305   6.205   2.751
  294SOL     OW 1780   6.673   1.394   6.769
  294SOL    HW1 1781   6.674   1.440   6.680
  294SOL    HW2 1782   6.650   1.298   6.757
  295SOL     OW 1783   1.178   0.637   4.484
  295SOL    HW1 1784   1.200   0.723   4.530
  295SOL    HW2 1785   1.140   0.572   4.550
  296SOL     OW 1786   0.529   2.310   2.197
  296SOL    HW1 1787   0.541   2.344   2.290
  296SOL    HW2 1788   0.552   2.382   2.132
  297SOL     OW 1789   5.476   3.085   3.362
  297SOL    HW1 1790   5.546   3.139   3.410
  297SOL    HW2 1791   5.430   3.026   3.427
  298SOL     OW 1792   4.061   0.762   5.648
  298SOL    HW1 1793   4.034   0.783   5.742
  298SOL    HW2 1794   4.009   0.683   5.615
  299SOL     OW 1795   0.732   0.872   6.709
  299SOL    HW1 1796   0.735   0.774   6.690
  299SOL    HW2 1797   0.681   0.888   6.794
  300SOL     OW 1798   4.686   0.352   3.220
  300SOL    HW1 1799   4.603   0.407   3.227
  300SOL    HW2 1800   4.670   0.263   3.262
  301SOL     OW 1801   6.491   5.352   6.542
  301SOL    HW1 1802   6.530   5.282   6.481
  301SOL    HW2 1803   6.564   5.409   6.578
  302SOL     OW 1804   6.858   6.242   2.562
  302SOL    HW1 1805   6.939   6.188   2.538
  302SOL    HW2 1806   6.851   6.249   2.661
  303SOL     OW 1807   6.134   5.949   3.349
  303SOL    HW1 1808   6.111   5.874   3.287
  303SOL    HW2 1809   6.067   6.023   3.338
  304SOL     OW 1810   2.329   6.282   4.524
  304SOL    HW1 1811   2.416   6.268   4.478
  304SOL    HW2 1812   2.298   6.376   4.508
  305SOL     OW 1813   0.667   2.772   1.822
  305SOL    HW1 1814   0.569   2.772   1.841
  305SOL    HW2 1815   0.718   2.769   1.908
  306SOL     OW 1816   0.342   6.359   3.243
  306SOL    HW1 1817   0.369   6.445   3.287
  306SOL    HW2 1818   0.251   6.369   3.203
  307SOL     OW 1819   3.747   3.414   3.879
  307SOL    HW1 1820   3.789   3.342   3.823
  307SOL    HW2 1821   3.769   3.503   3.840
  308SOL     OW 1822   6.671   1.889   2.804
  308SOL    HW1 1823   6.575   1.865   2.822
  308SOL    HW2 1824   6.728   1.854   2.878
  309SOL     OW 1825   1.971   5.758   0.000
  309SOL    HW1 1826   2.017   5.782   6.931
  309SOL    HW2 1827   1.872   5.760   7.003
  310SOL     OW 1828   5.388   6.317   4.816
  310SOL    HW1 1829   5.367   6.393   4.878
  310SOL    HW2 1830   5.316   6.309   4.748
  311SOL     OW 1831   1.433   5.928   2.181
  311SOL    HW1 1832   1.512   5.929   2.120
  311SOL    HW2 1833   1.443   5.999   2.250
  312SOL     OW 1834   2.861   0.520   4.000
  312SOL    HW1 1835   2.860   0.595   3.933
  312SOL    HW2 1836   2.953   0.509   4.037
  313SOL     OW 1837   2.944   3.289   2.860
  313SOL    HW1 1838   2.918   3.271   2.765
  313SOL    HW2 1839   3.043   3.290   2.868
  314SOL     OW 1840   2.693   5.605   5.730
  314SOL    HW1 1841   2.771   5.548   5.704
  314SOL    HW2 1842   2.610   5.570   5.685
  315SOL     OW 1843   5.711   0.705   4.738
  315SOL    HW1 1844   5.646   0.776   4.710
  315SOL    HW2 1845   5.771   0.683   4.661
  316SOL     OW 1846   3.955   0.715   6.281
  316SOL    HW1 1847   3.887   0.759   6.222
  316SOL    HW2 1848   3.974   0.774   6.360
  317SOL     OW 1849   0.425   2.390   1.492
  317SOL    HW1 1850   0.481   2.378   1.409
  317SOL    HW2 1851   0.485   2.412   1.569
  318SOL     OW 1852   0.945   0.559   5.211
  318SOL    HW1 1853   0.907   0.594   5.126
  318SOL    HW2 1854   0.888   0.589   5.288
  319SOL     OW 1855   0.102   0.561   3.766
  319SOL    HW1 1856   0.017   0.568   3.713
  319SOL    HW2 1857   0.181   0.568   3.704
  320SOL     OW 1858   5.894   1.995   6.741
  320SOL    HW1 1859   5.893   1.896   6.748
  320SOL    HW2 1860   5.940   2.035   6.821
  321SOL     OW 1861   5.170   3.034   0.578
  321SOL    HW1 1862   5.256   3.032   0.629
  321SOL    HW2 1863   5.139   2.940   0.562
  322SOL     OW 1864   3.438   2.708   6.821
  322SOL    HW1 1865   3.473   2.763   6.897
  322SOL    HW2 1866   3.491   2.729   6.739
  323SOL     OW 1867   1.888   3.756   2.760
  323SOL    HW1 1868   1.896   3.828   2.829
  323SOL    HW2 1869   1.969   3.755   2.702
  324SOL     OW 1870   0.429   6.803   3.076
  324SOL    HW1 1871   0.363   6.740   3.116
  324SOL    HW2 1872   0.438   6.783   2.978
  325SOL     OW 1873   0.215   4.171   0.339
  325SOL    HW1 1874   0.241   4.106   0.268
  325SOL    HW2 1875   0.254   4.143   0.426
  326SOL     OW 1876   0.641   6.393   0.140
  326SOL    HW1 1877   0.621   6.328   0.213
  326SOL    HW2 1878   0.575   6.384   0.067
  327SOL     OW 1879   4.478   5.237   5.058
  327SOL    HW1 1880   4.483   5.147   5.101
  327SOL    HW2 1881   4.415   5.296   5.108
  328SOL     OW 1882   1.568   4.678   3.469
  328SOL    HW1 1883   1.498   4.686   3.399
  328SOL    HW2 1884   1.563   4.756   3.532
  329SOL     OW 1885   3.162   3.250   1.531
  329SOL    HW1 1886   3.086   3.214   1.478
  329SOL    HW2 1887   3.172   3.198   1.615
  330SOL     OW 1888   3.292   3.471   0.577
  330SOL    HW1 1889   3.281   3.559   0.531
  330SOL    HW2 1890   3.241   3.401   0.526
  331SOL     OW 1891   5.224   5.121   4.856
  331SOL    HW1 1892   5.219   5.064   4.938
  331SOL    HW2 1893   5.311   5.169   4.854
  332SOL     OW 1894   5.375   2.330   2.740
  332SOL    HW1 1895   5.458   2.375   2.774
  332SOL    HW2 1896   5.386   2.231   2.748
  333SOL     OW 1897   3.467   0.450   4.338
  333SOL    HW1 1898   3.512   0.524   4.389
  333SOL    HW2 1899   3.368   0.465   4.338
  334SOL     OW 1900   3.520   3.832   3.318
  334SOL    HW1 1901   3.469   3.915   3.296
  334SOL    HW2 1902   3.457   3.757   3.338
  335SOL     OW 1903   4.037   1.591   1.071
  335SOL    HW1 1904   3.965   1.641   1.120
  335SOL    HW2 1905   4.006   1.499   1.050
  336SOL     OW 1906   3.519   1.774   4.396
  336SOL    HW1 1907   3.462   1.855   4.382
  336SOL    HW2 1908   3.592   1.796   4.462
  337SOL     OW 1909   0.354   0.800   5.286
  337SOL    HW1 1910   0.308   0.889   5.281
  337SOL    HW2 1911   0.451   0.812   5.268
  338SOL     OW 1912   4.344   2.018   1.302
  338SOL    HW1 1913   4.366   2.112   1.330
  338SOL    HW2 1914   4.295   1.972   1.376
  339SOL     OW 1915   3.820   4.864   5.872
  339SOL    HW1 1916   3.782   4.781   5.831
  339SOL    HW2 1917   3.920   4.857   5.876
  340SOL     OW 1918   6.067   2.581   4.196
  340SOL    HW1 1919   5.989   2.598   4.256
  340SOL    HW2 1920   6.135   2.525   4.243
  341SOL     OW 1921   0.058   6.217   3.173
  341SOL    HW1 1922   0.040   6.283   3.246
  341SOL    HW2 1923   0.074   6.266   3.087
  342SOL     OW 1924   4.901   1.981   2.410
  342SOL    HW1 1925   4.806   1.975   2.378
  342SOL    HW2 1926   4.940   2.069   2.381
  343SOL     OW 1927   6.513   6.692   1.873
  343SOL    HW1 1928   6.488   6.740   1.958
  343SOL    HW2 1929   6.464   6.733   1.796
  344SOL     OW 1930   0.159   2.583   1.126
  344SOL    HW1 1931   0.160   2.638   1.209
  344SOL    HW2 1932   0.070   2.539   1.116
  345SOL     OW 1933   6.162   2.504   4.801
  345SOL    HW1 1934   6.152   2.536   4.707
  345SOL    HW2 1935   6.196   2.578   4.859
  346SOL     OW 1936   2.097   6.295   3.719
  346SOL    HW1 1937   2.013   6.336   3.683
  346SOL    HW2 1938   2.161   6.367   3.744
  347SOL     OW 1939   1.978   4.316   0.615
  347SOL    HW1 1940   1.986   4.237   0.676
  347SOL    HW2 1941   1.991   4.400   0.667
  348SOL     OW 1942   3.660   5.195   1.522
  348SOL    HW1 1943   3.603   5.250   1.583
  348SOL    HW2 1944   3.752   5.186   1.562
  349SOL     OW 1945   5.960   4.331   0.989
  349SOL    HW1 1946   6.055   4.331   1.020
  349SOL    HW2 1947   5.953   4.375   0.900
  350SOL     OW 1948   3.201   2.188   6.946
  350SOL    HW1 1949   3.275   2.242   6.985
  350SOL    HW2 1950   3.113   2.231   6.967
  351SOL     OW 1951   3.623   4.671   0.920
  351SOL    HW1 1952   3.664   4.582   0.901
  351SOL    HW2 1953   3.690   4.743   0.902
  352SOL     OW 1954   4.389   0.544   2.335
  352SOL    HW1 1955   4.336   0.559   2.418
  352SOL    HW2 1956   4.329   0.509   2.263
  353SOL     OW 1957   1.520   0.583   0.405
  353SOL    HW1 1958   1.565   0.672   0.404
  353SOL    HW2 1959   1.586   0.512   0.383
  354SOL     OW 1960   0.865   2.234   0.308
  354SOL    HW1 1961   0.780   2.182   0.298
  354SOL    HW2 1962   0.845   2.332   0.300
  355SOL     OW 1963   0.831   2.442   3.186
  355SOL    HW1 1964   0.860   2.414   3.094
  355SOL    HW2 1965   0.910   2.440   3.247
  356SOL     OW 1966   2.685   0.436   5.320
  356SOL    HW1 1967   2.700   0.342   5.289
  356SOL    HW2 1968   2.691   0.498   5.242
  357SOL     OW 1969   5.683   0.267   4.522
  357SOL    HW1 1970   5.609   0.212   4.482
  357SOL    HW2 1971   5.669   0.276   4.621
  358SOL     OW 1972   3.627   5.945   6.231
  358SOL    HW1 1973   3.641   5.852   6.268
  358SOL    HW2 1974   3.581   5.940   6.143
  359SOL     OW 1975   1.156   1.896   2.565
  359SOL    HW1 1976   1.161   1.977   2.623
  359SOL    HW2 1977   1.158   1.924   2.469
  360SOL     OW 1978   1.679   4.278   4.276
  360SOL    HW1 1979   1.632   4.362   4.248
  360SOL    HW2 1980   1.683   4.215   4.199
  361SOL     OW 1981   6.313   1.508   2.149
  361SOL    HW1 1982   6.299   1.483   2.245
  361SOL    HW2 1983   6.409   1.495   2.125
  362SOL     OW 1984   3.907   3.652   1.153
  362SOL    HW1 1985   3.851   3.659   1.071
  362SOL    HW2 1986   3.876   3.575   1.209
  363SOL     OW 1987   5.007   5.536   1.932
  363SOL    HW1 1988   5.025   5.526   2.030
  363SOL    HW2 1989   5.084   5.582   1.888
  364SOL     OW 1990   0.628   6.772   6.958
  364SOL    HW1 1991   0.548   6.832   6.954
  364SOL    HW2 1992   0.610   6.688   6.907
  365SOL     OW 1993   5.361   1.362   3.612
  365SOL    HW1 1994   5.419   1.388   3.690
  365SOL    HW2 1995   5.410   1.295   3.556
  366SOL     OW 1996   5.684   1.621   6.326
  366SOL    HW1 1997   5.655   1.716   6.331
  366SOL    HW2 1998   5.732   1.596   6.409
  367SOL     OW 1999   5.801   1.215   6.554
  367SOL    HW1 2000   5.877   1.209   6.619
  367SOL    HW2 2001   5.733   1.145   6.576
  368SOL     OW 2002   1.019   2.420   5.888
  368SOL    HW1 2003   1.058   2.330   5.906
  368SOL    HW2 2004   1.016   2.436   5.790
  369SOL     OW 2005   6.326   3.861   1.273
  369SOL    HW1 2006   6.384   3.938   1.301
  369SOL    HW2 2007   6.375   3.806   1.205
  370SOL     OW 2008   1.643   2.584   3.688
  370SOL    HW1 2009   1.551   2.612   3.662
  370SOL    HW2 2010   1.708   2.609   3.616
  371SOL     OW 2011   0.410   4.830   6.589
  371SOL    HW1 2012   0.469   4.909   6.574
  371SOL    HW2 2013   0.410   4.807   6.687
  372SOL     OW 2014   3.346   6.250   6.299
  372SOL    HW1 2015   3.338   6.349   6.309
  372SOL    HW2 2016   3.360   6.228   6.202
  373SOL     OW 2017   6.306   4.858   3.500
  373SOL    HW1 2018   6.244   4.842   3.423
  373SOL    HW2 2019   6.274   4.938   3.552
  374SOL     OW 2020   2.771   1.376   2.680
  374SOL    HW1 2021   2.680   1.384   2.640
  374SOL    HW2 2022   2.831   1.327   2.617
  375SOL     OW 2023   0.704   5.675   4.648
  375SOL    HW1 2024   0.648   5.601   4.685
  375SOL    HW2 2025   0.767   5.638   4.579
  376SOL     OW 2026   3.470   0.906   3.792
  376SOL    HW1 2027   3.391   0.891   3.732
  376SOL    HW2 2028   3.554   0.889   3.741
  377SOL     OW 2029   1.636   1.953   6.817
  377SOL    HW1 2030   1.600   1.980   6.906
  377SOL    HW2 2031   1.729   1.919   6.827
  378SOL     OW 2032   4.516   1.499   2.421
  378SOL    HW1 2033   4.563   1.411   2.413
  378SOL    HW2 2034   4.456   1.513   2.343
  379SOL     OW 2035   4.918   1.773   6.026
  379SOL    HW1 2036   4.861   1.775   6.108
  379SOL    HW2 2037   4.890   1.846   5.963
  380SOL     OW 2038   4.237   2.543   0.060
  380SOL    HW1 2039   4.146   2.583   0.066
  380SOL    HW2 2040   4.304   2.609   0.095
  381SOL     OW 2041   2.146   3.822   3.120
  381SOL    HW1 2042   2.075   3.822   3.190
  381SOL    HW2 2043   2.159   3.728   3.087
  382SOL     OW 2044   5.369   0.351   6.360
  382SOL    HW1 2045   5.461   0.313   6.372
  382SOL    HW2 2046   5.321   0.298   6.290
  383SOL     OW 2047   5.352   2.417   0.618
  383SOL    HW1 2048   5.364   2.510   0.655
  383SOL    HW2 2049   5.322   2.356   0.692
  384SOL     OW 2050   6.140   3.806   4.738
  384SOL    HW1 2051   6.177   3.725   4.693
  384SOL    HW2 2052   6.085   3.777   4.817
  385SOL     OW 2053   4.654   3.374   0.392
  385SOL    HW1 2054   4.649   3.306   0.465
  385SOL    HW2 2055   4.729   3.351   0.330
  386SOL     OW 2056   3.992   6.395   4.070
  386SOL    HW1 2057   3.983   6.299   4.097
  386SOL    HW2 2058   4.009   6.400   3.971
  387SOL     OW 2059   2.723   6.212   3.960
  387SOL    HW1 2060   2.669   6.295   3.950
  387SOL    HW2 2061   2.663   6.132   3.964
  388SOL     OW 2062   1.405   4.305   6.688
  388SOL    HW1 2063   1.443   4.383   6.738
  388SOL    HW2 2064   1.305   4.305   6.698
  389SOL     OW 2065   2.942   3.486   2.495
  389SOL    HW1 2066   2.993   3.571   2.482
  389SOL    HW2 2067   2.902   3.458   2.408
  390SOL     OW 2068   2.363   1.566   3.896
  390SOL    HW1 2069   2.291   1.555   3.828
  390SOL    HW2 2070   2.346   1.505   3.973
  391SOL     OW 2071   1.223   2.305   6.543
  391SOL    HW1 2072   1.240   2.309   6.444
  391SOL    HW2 2073   1.137   2.257   6.560
  392SOL     OW 2074   2.981   5.461   3.287
  392SOL    HW1 2075   2.899   5.403   3.290
  392SOL    HW2 2076   2.957   5.552   3.320
  393SOL     OW 2077   6.014   4.235   5.012
  393SOL    HW1 2078   6.009   4.335   5.015
  393SOL    HW2 2079   6.046   4.206   4.922
  394SOL     OW 2080   2.863   0.166   6.848
  394SOL    HW1 2081   2.780   0.111   6.856
  394SOL    HW2 2082   2.890   0.172   6.752
  395SOL     OW 2083   6.328   3.564   0.931
  395SOL    HW1 2084   6.366   3.475   0.905
  395SOL    HW2 2085   6.268   3.553   1.010
  396SOL     OW 2086   3.281   2.947   4.221
  396SOL    HW1 2087   3.332   2.978   4.301
  396SOL    HW2 2088   3.246   2.855   4.237
  397SOL     OW 2089   4.347   1.990   6.346
  397SOL    HW1 2090   4.279   2.028   6.283
  397SOL    HW2 2091   4.439   2.014   6.314
  398SOL     OW 2092   1.191   4.689   2.464
  398SOL    HW1 2093   1.167   4.780   2.498
  398SOL    HW2 2094   1.162   4.680   2.369
  399SOL     OW 2095   5.104   4.874   2.693
  399SOL    HW1 2096   5.044   4.854   2.771
  399SOL    HW2 2097   5.190   4.912   2.726
  400SOL     OW 2098   1.538   5.094   4.720
  400SOL    HW1 2099   1.497   5.158   4.785
  400SOL    HW2 2100   1.466   5.049   4.668
  401SOL     OW 2101   5.506   1.228   6.349
  401SOL    HW1 2102   5.472   1.161   6.415
  401SOL    HW2 2103   5.501   1.320   6.388
  402SOL     OW 2104   6.051   4.945   1.455
  402SOL    HW1 2105   6.130   4.965   1.513
  402SOL    HW2 2106   5.969   4.934   1.512
  403SOL     OW 2107   5.500   3.628   6.833
  403SOL    HW1 2108   5.512   3.725   6.857
  403SOL    HW2 2109   5.427   3.589   6.889
  404SOL     OW 2110   0.689   6.984   4.779
  404SOL    HW1 2111   0.763   6.921   4.757
  404SOL    HW2 2112   0.691   0.045   4.715
  405SOL     OW 2113   1.329   2.227   0.488
  405SOL    HW1 2114   1.373   2.141   0.461
  405SOL    HW2 2115   1.232   2.212   0.506
  406SOL     OW 2116   1.454   3.247   2.926
  406SOL    HW1 2117   1.376   3.259   2.865
  406SOL    HW2 2118   1.537   3.237   2.873
  407SOL     OW 2119   2.351   1.798   3.435
  407SOL    HW1 2120   2.438   1.756   3.459
  407SOL    HW2 2121   2.346   1.890   3.475
  408SOL     OW 2122   1.807   0.219   3.143
  408SOL    HW1 2123   1.800   0.213   3.243
  408SOL    HW2 2124   1.896   0.256   3.117
  409SOL     OW 2125   5.987   3.444   3.892
  409SOL    HW1 2126   6.018   3.412   3.981
  409SOL    HW2 2127   5.911   3.387   3.860
  410SOL     OW 2128   3.207   1.074   6.197
  410SOL    HW1 2129   3.238   1.076   6.292
  410SOL    HW2 2130   3.113   1.106   6.191
  411SOL     OW 2131   6.691   4.027   4.782
  411SOL    HW1 2132   6.605   4.059   4.821
  411SOL    HW2 2133   6.721   3.945   4.831
  412SOL     OW 2134   3.248   0.180   2.460
  412SOL    HW1 2135   3.289   0.136   2.540
  412SOL    HW2 2136   3.286   0.140   2.377
  413SOL     OW 2137   2.513   0.529   1.759
  413SOL    HW1 2138   2.606   0.529   1.721
  413SOL    HW2 2139   2.450   0.562   1.689
  414SOL     OW 2140   4.429   3.988   0.282
  414SOL    HW1 2141   4.394   3.971   0.374
  414SOL    HW2 2142   4.463   3.903   0.243
  415SOL     OW 2143   3.103   6.804   1.856
  415SOL    HW1 2144   3.023   6.863   1.868
  415SOL    HW2 2145   3.076   6.719   1.812
  416SOL     OW 2146   3.722   5.670   5.422
  416SOL    HW1 2147   3.745   5.767   5.411
  416SOL    HW2 2148   3.806   5.617   5.427
  417SOL     OW 2149   4.040   5.861   1.091
  417SOL    HW1 2150   4.057   5.898   1.182
  417SOL    HW2 2151   3.984   5.779   1.097
  418SOL     OW 2152   5.677   4.380   0.837
  418SOL    HW1 2153   5.771   4.404   0.860
  418SOL    HW2 2154   5.618   4.394   0.917
  419SOL     OW 2155   6.184   6.473   1.110
  419SOL    HW1 2156   6.234   6.484   1.024
  419SOL    HW2 2157   6.110   6.407   1.097
  420SOL     OW 2158   4.380   4.095   0.006
  420SOL    HW1 2159   4.402   4.093   0.104
  420SOL    HW2 2160   4.380   4.002   6.987
  421SOL     OW 2161   1.504   6.113   6.688
  421SOL    HW1 2162   1.467   6.205   6.681
  421SOL    HW2 2163   1.559   6.105   6.771
  422SOL     OW 2164   6.168   3.110   6.708
  422SOL    HW1 2165   6.124   3.129   6.620
  422SOL    HW2 2166   6.208   3.018   6.706
  423SOL     OW 2167   0.801   2.840   6.255
  423SOL    HW1 2168   0.858   2.830   6.174
  423SOL    HW2 2169   0.857   2.828   6.337
  424SOL     OW 2170   2.189   3.867   0.141
  424SOL    HW1 2171   2.147   3.870   0.050
  424SOL    HW2 2172   2.229   3.956   0.162
  425SOL     OW 2173   3.015   0.931   0.681
  425SOL    HW1 2174   3.049   0.856   0.624
  425SOL    HW2 2175   2.954   0.989   0.626
  426SOL     OW 2176   5.503   4.038   5.730
  426SOL    HW1 2177   5.409   4.067   5.712
  426SOL    HW2 2178   5.517   4.029   5.828
  427SOL     OW 2179   5.132   3.601   0.614
  427SOL    HW1 2180   5.091   3.660   0.684
  427SOL    HW2 2181   5.213   3.556   0.650
  428SOL     OW 2182   3.678   1.201   4.816
  428SOL    HW1 2183   3.603   1.159   4.868
  428SOL    HW2 2184   3.642   1.239   4.731
  429SOL     OW 2185   2.042   5.327   6.624
  429SOL    HW1 2186   2.037   5.230   6.645
  429SOL    HW2 2187   2.130   5.364   6.655
  430SOL     OW 2188   1.344   6.444   5.227
  430SOL    HW1 2189   1.296   6.514   5.281
  430SOL    HW2 2190   1.353   6.361   5.281
  431SOL     OW 2191   3.606   1.662   0.352
  431SOL    HW1 2192   3.612   1.704   0.442
  431SOL    HW2 2193   3.509   1.648   0.329
  432SOL     OW 2194   0.420   2.150   1.031
  432SOL    HW1 2195   0.420   2.249   1.047
  432SOL    HW2 2196   0.510   2.113   1.053
  433SOL     OW 2197   3.055   6.195   4.646
  433SOL    HW1 2198   2.969   6.144   4.641
  433SOL    HW2 2199   3.054   6.269   4.579
  434SOL     OW 2200   0.185   3.897   1.211
  434SOL    HW1 2201   0.178   3.917   1.113
  434SOL    HW2 2202   0.252   3.824   1.225
  435SOL     OW 2203   3.637   4.271   0.761
  435SOL    HW1 2204   3.661   4.224   0.676
  435SOL    HW2 2205   3.712   4.331   0.788
  436SOL     OW 2206   2.461   1.064   6.817
  436SOL    HW1 2207   2.455   1.153   6.772
  436SOL    HW2 2208   2.462   1.077   6.916
  437SOL     OW 2209   7.011   0.118   6.792
  437SOL    HW1 2210   6.922   0.154   6.765
  437SOL    HW2 2211   7.010   0.097   6.890
  438SOL     OW 2212   1.696   2.856   1.878
  438SOL    HW1 2213   1.731   2.949   1.887
  438SOL    HW2 2214   1.632   2.852   1.801
  439SOL     OW 2215   6.204   4.838   3.240
  439SOL    HW1 2216   6.112   4.876   3.233
  439SOL    HW2 2217   6.214   4.762   3.175
  440SOL     OW 2218   1.011   3.178   3.941
  440SOL    HW1 2219   1.107   3.199   3.922
  440SOL    HW2 2220   0.961   3.164   3.855
  441SOL     OW 2221   0.643   1.019   3.647
  441SOL    HW1 2222   0.589   1.073   3.712
  441SOL    HW2 2223   0.690   1.080   3.583
  442SOL     OW 2224   6.948   4.144   0.349
  442SOL    HW1 2225   6.920   4.193   0.432
  442SOL    HW2 2226   0.031   4.148   0.340
  443SOL     OW 2227   0.546   4.310   5.904
  443SOL    HW1 2228   0.540   4.390   5.844
  443SOL    HW2 2229   0.497   4.233   5.862
  444SOL     OW 2230   4.443   3.488   6.247
  444SOL    HW1 2231   4.428   3.409   6.189
  444SOL    HW2 2232   4.485   3.459   6.333
  445SOL     OW 2233   1.735   4.696   2.956
  445SOL    HW1 2234   1.784   4.627   3.009
  445SOL    HW2 2235   1.795   4.774   2.939
  446SOL     OW 2236   4.685   4.676   3.936
  446SOL    HW1 2237   4.694   4.627   4.022
  446SOL    HW2 2238   4.659   4.771   3.954
  447SOL     OW 2239   6.741   5.740   0.635
  447SOL    HW1 2240   6.683   5.658   0.637
  447SOL    HW2 2241   6.701   5.810   0.694
  448SOL     OW 2242   4.893   0.384   5.391
  448SOL    HW1 2243   4.876   0.306   5.451
  448SOL    HW2 2244   4.956   0.358   5.319
  449SOL     OW 2245   6.070   0.506   4.715
  449SOL    HW1 2246   6.087   0.414   4.680
  449SOL    HW2 2247   6.017   0.558   4.648
  450SOL     OW 2248   6.673   6.494   3.893
  450SOL    HW1 2249   6.612   6.419   3.864
  450SOL    HW2 2250   6.705   6.543   3.812
  451SOL     OW 2251   0.387   2.513   3.271
  451SOL    HW1 2252   0.326   2.591   3.257
  451SOL    HW2 2253   0.400   2.497   3.368
  452SOL     OW 2254   0.005   4.737   6.767
  452SOL    HW1 2255   6.984   4.698   6.683
  452SOL    HW2 2256   0.100   4.710   6.777
  453SOL     OW 2257   3.167   0.722   5.787
  453SOL    HW1 2258   3.081   0.695   5.831
  453SOL    HW2 2259   3.164   0.698   5.690
  454SOL     OW 2260   1.013   6.281   0.079
  454SOL    HW1 2261   0.988   6.235   0.164
  454SOL    HW2 2262   1.033   6.377   0.099
  455SOL     OW 2263   5.370   1.004   5.731
  455SOL    HW1 2264   5.403   0.931   5.791
  455SOL    HW2 2265   5.303   0.965   5.667
  456SOL     OW 2266   4.470   5.584   6.407
  456SOL    HW1 2267   4.445   5.681   6.397
  456SOL    HW2 2268   4.415   5.529   6.345
  457SOL     OW 2269   1.818   5.246   2.916
  457SOL    HW1 2270   1.827   5.227   2.818
  457SOL    HW2 2271   1.748   5.187   2.955
  458SOL     OW 2272   6.812   5.728   6.489
  458SOL    HW1 2273   6.879   5.783   6.437
  458SOL    HW2 2274   6.720   5.759   6.467
  459SOL     OW 2275   1.811   0.617   2.809
  459SOL    HW1 2276   1.815   0.644   2.713
  459SOL    HW2 2277   1.751   0.537   2.818
  460SOL     OW 2278   6.033   2.309   3.673
  460SOL    HW1 2279   6.113   2.298   3.732
  460SOL    HW2 2280   5.979   2.225   3.673
  461SOL     OW 2281   4.727   6.546   5.357
  461SOL    HW1 2282   4.814   6.595   5.349
  461SOL    HW2 2283   4.651   6.607   5.335
  462SOL     OW 2284   2.766   3.370   6.395
  462SOL    HW1 2285   2.836   3.431   6.359
  462SOL    HW2 2286   2.679   3.419   6.403
  463SOL     OW 2287   6.413   5.431   1.866
  463SOL    HW1 2288   6.323   5.405   1.900
  463SOL    HW2 2289   6.447   5.510   1.917
  464SOL     OW 2290   2.209   1.032   5.491
  464SOL    HW1 2291   2.116   1.024   5.527
  464SOL    HW2 2292   2.247   0.941   5.476
  465SOL     OW 2293   6.442   2.802   4.145
  465SOL    HW1 2294   6.434   2.703   4.134
  465SOL    HW2 2295   6.376   2.833   4.214
  466SOL     OW 2296   1.657   0.002   3.552
  466SOL    HW1 2297   1.573   0.055   3.544
  466SOL    HW2 2298   1.662   6.977   3.643
  467SOL     OW 2299   1.610   0.789   5.201
  467SOL    HW1 2300   1.602   0.732   5.118
  467SOL    HW2 2301   1.519   0.814   5.232
  468SOL     OW 2302   3.152   4.595   0.877
  468SOL    HW1 2303   3.143   4.558   0.969
  468SOL    HW2 2304   3.094   4.675   0.866
  469SOL     OW 2305   2.280   5.440   0.355
  469SOL    HW1 2306   2.303   5.537   0.359
  469SOL    HW2 2307   2.274   5.402   0.447
  470SOL     OW 2308   3.537   0.823   2.590
  470SOL    HW1 2309   3.458   0.818   2.528
  470SOL    HW2 2310   3.581   0.734   2.595
  471SOL     OW 2311   2.709   2.390   5.287
  471SOL    HW1 2312   2.639   2.423   5.223
  471SOL    HW2 2313   2.734   2.296   5.262
  472SOL     OW 2314   3.308   4.522   5.734
  472SOL    HW1 2315   3.319   4.463   5.654
  472SOL    HW2 2316   3.364   4.488   5.809
  473SOL     OW 2317   1.058   4.066   2.694
  473SOL    HW1 2318   1.081   4.113   2.608
  473SOL    HW2 2319   0.959   4.059   2.702
  474SOL     OW 2320   4.146   4.840   4.520
  474SOL    HW1 2321   4.137   4.836   4.420
  474SOL    HW2 2322   4.066   4.884   4.559
  475SOL     OW 2323   0.415   6.781   6.538
  475SOL    HW1 2324   0.387   6.873   6.567
  475SOL    HW2 2325   0.351   6.748   6.469
  476SOL     OW 2326   7.010   4.678   2.695
  476SOL    HW1 2327   0.021   4.593   2.651
  476SOL    HW2 2328   0.053   4.697   2.772
  477SOL     OW 2329   1.818   5.199   4.184
  477SOL    HW1 2330   1.799   5.164   4.276
  477SOL    HW2 2331   1.870   5.284   4.192
  478SOL     OW 2332   2.291   5.154   3.504
  478SOL    HW1 2333   2.270   5.141   3.601
  478SOL    HW2 2334   2.299   5.065   3.459
  479SOL     OW 2335   3.551   2.037   0.540
  479SOL    HW1 2336   3.626   2.067   0.481
  479SOL    HW2 2337   3.562   2.077   0.631
  480SOL     OW 2338   0.766   0.075   2.709
  480SOL    HW1 2339   0.843   0.066   2.645
  480SOL    HW2 2340   0.762   0.169   2.743
  481SOL     OW 2341   4.228   6.946   0.996
  481SOL    HW1 2342   4.212   6.924   0.900
  481SOL    HW2 2343   4.301   6.888   1.032
  482SOL     OW 2344   5.546   4.417   2.015
  482SOL    HW1 2345   5.618   4.390   2.079
  482SOL    HW2 2346   5.577   4.493   1.958
  483SOL     OW 2347   5.692   1.715   1.443
  483SOL    HW1 2348   5.720   1.778   1.371
  483SOL    HW2 2349   5.643   1.638   1.402
  484SOL     OW 2350   6.398   2.122   4.986
  484SOL    HW1 2351   6.401   2.164   4.895
  484SOL    HW2 2352   6.352   2.034   4.981
  485SOL     OW 2353   3.519   5.004   2.424
  485SOL    HW1 2354   3.553   4.997   2.330
  485SOL    HW2 2355   3.547   5.092   2.464
  486SOL     OW 2356   0.631   0.715   0.697
  486SOL    HW1 2357   0.673   0.769   0.770
  486SOL    HW2 2358   0.596   0.776   0.626
  487SOL     OW 2359   0.313   2.210   6.976
  487SOL    HW1 2360   0.353   2.138   6.919
  487SOL    HW2 2361   0.229   2.175   0.001
  488SOL     OW 2362   0.134   2.212   2.595
  488SOL    HW1 2363   0.148   2.310   2.604
  488SOL    HW2 2364   0.048   2.194   2.548
  489SOL     OW 2365   3.516   5.626   6.650
  489SOL    HW1 2366   3.448   5.657   6.583
  489SOL    HW2 2367   3.479   5.639   6.743
  490SOL     OW 2368   5.621   6.320   4.643
  490SOL    HW1 2369   5.698   6.378   4.669
  490SOL    HW2 2370   5.546   6.333   4.707
  491SOL     OW 2371   0.306   2.934   2.751
  491SOL    HW1 2372   0.371   2.970   2.684
  491SOL    HW2 2373   0.213   2.950   2.719
  492SOL     OW 2374   1.967   0.743   5.619
  492SOL    HW1 2375   2.022   0.756   5.536
  492SOL    HW2 2376   1.930   0.650   5.619
  493SOL     OW 2377   6.563   4.391   4.790
  493SOL    HW1 2378   6.527   4.462   4.850
  493SOL    HW2 2379   6.663   4.391   4.795
  494SOL     OW 2380   6.735   0.634   0.677
  494SOL    HW1 2381   6.749   0.657   0.581
  494SOL    HW2 2382   6.759   0.712   0.735
  495SOL     OW 2383   4.778   4.547   1.363
  495SOL    HW1 2384   4.877   4.553   1.353
  495SOL    HW2 2385   4.753   4.456   1.395
  496SOL     OW 2386   5.698   3.252   3.939
  496SOL    HW1 2387   5.662   3.320   4.003
  496SOL    HW2 2388   5.624   3.219   3.880
  497SOL     OW 2389   4.194   0.523   4.669
  497SOL    HW1 2390   4.147   0.524   4.581
  497SOL    HW2 2391   4.286   0.562   4.658
  498SOL     OW 2392   1.023   3.153   2.569
  498SOL    HW1 2393   1.033   3.080   2.636
  498SOL    HW2 2394   1.084   3.136   2.491
  499SOL     OW 2395   3.341   1.407   4.934
  499SOL    HW1 2396   3.254   1.383   4.890
  499SOL    HW2 2397   3.409   1.428   4.865
  500SOL     OW 2398   0.775   3.759   2.710
  500SOL    HW1 2399   0.773   3.842   2.766
  500SOL    HW2 2400   0.850   3.700   2.741
  501SOL     OW 2401   0.792   3.413   6.369
  501SOL    HW1 2402   0.832   3.335   6.322
  501SOL    HW2 2403   0.864   3.467   6.413
  502SOL     OW 2404   3.314   5.217   6.653
  502SOL    HW1 2405   3.379   5.217   6.729
  502SOL    HW2 2406   3.352   5.164   6.577
  503SOL     OW 2407   5.459   5.004   5.263
  503SOL    HW1 2408   5.436   4.998   5.361
  503SOL    HW2 2409   5.401   5.073   5.220
  504SOL     OW 2410   1.949   6.158   4.479
  504SOL    HW1 2411   1.908   6.067   4.480
  504SOL    HW2 2412   2.048   6.150   4.492
  505SOL     OW 2413   4.376   0.066   5.829
  505SOL    HW1 2414   4.434   7.009   5.862
  505SOL    HW2 2415   4.341   0.119   5.906
  506SOL     OW 2416   2.143   4.019   6.413
  506SOL    HW1 2417   2.083   3.966   6.353
  506SOL    HW2 2418   2.102   4.108   6.431
  507SOL     OW 2419   3.255   1.382   3.852
  507SOL    HW1 2420   3.344   1.428   3.862
  507SOL    HW2 2421   3.214   1.406   3.765
  508SOL     OW 2422   6.726   3.654   3.926
  508SOL    HW1 2423   6.674   3.719   3.981
  508SOL    HW2 2424   6.742   3.571   3.979
  509SOL     OW 2425   4.820   1.838   1.121
  509SOL    HW1 2426   4.741   1.842   1.182
  509SOL    HW2 2427   4.828   1.747   1.082
  510SOL     OW 2428   0.219   3.726   4.311
  510SOL    HW1 2429   0.273   3.668   4.250
  510SOL    HW2 2430   0.267   3.812   4.327
  511SOL     OW 2431   0.253   6.950   0.583
  511SOL    HW1 2432   0.171   6.942   0.640
  511SOL    HW2 2433   0.324   6.889   0.618
  512SOL     OW 2434   0.280   3.598   6.481
  512SOL    HW1 2435   0.275   3.664   6.556
  512SOL    HW2 2436   0.363   3.543   6.490
  513SOL     OW 2437   6.279   6.086   4.369
  513SOL    HW1 2438   6.322   6.147   4.436
  513SOL    HW2 2439   6.336   6.080   4.288
  514SOL     OW 2440   5.527   1.653   3.938
  514SOL    HW1 2441   5.480   1.633   4.024
  514SOL    HW2 2442   5.468   1.710   3.880
  515SOL     OW 2443   2.287   6.104   6.817
  515SOL    HW1 2444   2.376   6.106   6.771
  515SOL    HW2 2445   2.279   6.184   6.877
  516SOL     OW 2446   1.891   4.921   1.744
  516SOL    HW1 2447   1.972   4.870   1.771
  516SOL    HW2 2448   1.918   5.002   1.692
  517SOL     OW 2449   4.643   0.115   1.024
  517SOL    HW1 2450   4.563   0.064   0.992
  517SOL    HW2 2451   4.684   0.067   1.101
  518SOL     OW 2452   2.368   2.697   1.135
  518SOL    HW1 2453   2.391   2.792   1.155
  518SOL    HW2 2454   2.274   2.691   1.102
  519SOL     OW 2455   0.846   6.567   0.275
  519SOL    HW1 2456   0.936   6.560   0.232
  519SOL    HW2 2457   0.780   6.512   0.223
  520SOL     OW 2458   5.530   4.685   5.417
  520SOL    HW1 2459   5.495   4.710   5.327
  520SOL    HW2 2460   5.505   4.590   5.437
  521SOL     OW 2461   6.524   1.371   0.606
  521SOL    HW1 2462   6.622   1.392   0.609
  521SOL    HW2 2463   6.509   1.280   0.644
  522SOL     OW 2464   4.090   3.644   4.340
  522SOL    HW1 2465   4.014   3.583   4.318
  522SOL    HW2 2466   4.171   3.590   4.362
  523SOL     OW 2467   0.281   0.024   4.979
  523SOL    HW1 2468   0.204   0.041   5.039
  523SOL    HW2 2469   0.353   6.991   5.029
  524SOL     OW 2470   3.166   0.636   5.538
  524SOL    HW1 2471   3.088   0.637   5.476
  524SOL    HW2 2472   3.250   0.621   5.486
  525SOL     OW 2473   2.580   3.582   6.976
  525SOL    HW1 2474   2.649   3.519   6.941
  525SOL    HW2 2475   2.614   3.626   0.042
  526SOL     OW 2476   3.237   5.876   4.548
  526SOL    HW1 2477   3.326   5.867   4.593
  526SOL    HW2 2478   3.207   5.788   4.513
  527SOL     OW 2479   0.416   1.737   6.481
  527SOL    HW1 2480   0.407   1.640   6.499
  527SOL    HW2 2481   0.513   1.762   6.477
  528SOL     OW 2482   2.375   0.254   5.012
  528SOL    HW1 2483   2.310   0.183   4.982
  528SOL    HW2 2484   2.458   0.249   4.956
  529SOL     OW 2485   0.054   5.018   3.689
  529SOL    HW1 2486   7.002   5.009   3.762
  529SOL    HW2 2487   0.133   4.960   3.710
  530SOL     OW 2488   2.214   3.084   5.270
  530SOL    HW1 2489   2.207   3.023   5.349
  530SOL    HW2 2490   2.309   3.090   5.241
  531SOL     OW 2491   0.314   0.336   1.115
  531SOL    HW1 2492   0.258   0.351   1.034
  531SOL    HW2 2493   0.311   0.240   1.141
  532SOL     OW 2494   1.609   0.930   5.644
  532SOL    HW1 2495   1.563   1.016   5.667
  532SOL    HW2 2496   1.687   0.948   5.585
  533SOL     OW 2497   5.413   0.475   4.464
  533SOL    HW1 2498   5.506   0.475   4.501
  533SOL    HW2 2499   5.349   0.445   4.535
  534SOL     OW 2500   3.844   5.712   2.300
  534SOL    HW1 2501   3.890   5.648   2.239
  534SOL    HW2 2502   3.911   5.773   2.341
  535SOL     OW 2503   6.952   3.609   3.594
  535SOL    HW1 2504   6.875   3.560   3.635
  535SOL    HW2 2505   0.019   3.556   3.609
  536SOL     OW 2506   1.172   5.486   1.071
  536SOL    HW1 2507   1.223   5.498   1.156
  536SOL    HW2 2508   1.227   5.433   1.006
  537SOL     OW 2509   2.104   0.239   2.610
  537SOL    HW1 2510   2.181   0.245   2.673
  537SOL    HW2 2511   2.039   0.171   2.644
  538SOL     OW 2512   0.868   5.380   3.415
  538SOL    HW1 2513   0.886   5.431   3.330
  538SOL    HW2 2514   0.902   5.287   3.405
  539SOL     OW 2515   1.589   4.730   1.798
  539SOL    HW1 2516   1.602   4.827   1.819
  539SOL    HW2 2517   1.617   4.675   1.876
  540SOL     OW 2518   0.842   2.016   2.111
  540SOL    HW1 2519   0.817   1.975   2.199
  540SOL    HW2 2520   0.866   1.943   2.047
  541SOL     OW 2521   3.062   5.648   5.603
  541SOL    HW1 2522   3.110   5.577   5.553
  541SOL    HW2 2523   2.972   5.615   5.630
  542SOL     OW 2524   5.816   5.664   6.810
  542SOL    HW1 2525   5.781   5.620   6.727
  542SOL    HW2 2526   5.794   5.606   6.889
  543SOL     OW 2527   0.431   5.770   6.894
  543SOL    HW1 2528   0.389   5.852   6.853
  543SOL    HW2 2529   0.456   5.789   6.989
  544SOL     OW 2530   1.462   5.287   0.682
  544SOL    HW1 2531   1.431   5.230   0.607
  544SOL    HW2 2532   1.416   5.376   0.678
  545SOL     OW 2533   3.995   1.841   3.284
  545SOL    HW1 2534   4.069   1.830   3.217
  545SOL    HW2 2535   3.912   1.796   3.252
  546SOL     OW 2536   0.969   3.925   0.334
  546SOL    HW1 2537   1.033   3.993   0.371
  546SOL    HW2 2538   1.014   3.873   0.261
  547SOL     OW 2539   2.829   2.933   0.244
  547SOL    HW1 2540   2.798   2.904   0.153
  547SOL    HW2 2541   2.808   3.030   0.256
  548SOL     OW 2542   3.863   3.215   3.717
  548SOL    HW1 2543   3.818   3.247   3.633
  548SOL    HW2 2544   3.869   3.115   3.716
  549SOL     OW 2545   6.337   3.257   1.318
  549SOL    HW1 2546   6.393   3.339   1.320
  549SOL    HW2 2547   6.240   3.283   1.311
  550SOL     OW 2548   0.632   4.121   2.055
  550SOL    HW1 2549   0.689   4.039   2.047
  550SOL    HW2 2550   0.578   4.132   1.971
  551SOL     OW 2551   6.785   2.095   0.337
  551SOL    HW1 2552   6.761   2.044   0.254
  551SOL    HW2 2553   6.801   2.031   0.412
  552SOL     OW 2554   4.296   6.001   0.687
  552SOL    HW1 2555   4.240   5.931   0.731
  552SOL    HW2 2556   4.237   6.063   0.635
  553SOL     OW 2557   1.679   2.054   1.842
  553SOL    HW1 2558   1.632   2.073   1.928
  553SOL    HW2 2559   1.757   2.116   1.833
  554SOL     OW 2560   5.459   6.060   4.917
  554SOL    HW1 2561   5.436   6.151   4.882
  554SOL    HW2 2562   5.517   6.012   4.851
  555SOL     OW 2563   1.431   4.293   4.727
  555SOL    HW1 2564   1.509   4.239   4.759
  555SOL    HW2 2565   1.463   4.375   4.680
  556SOL     OW 2566   5.293   3.376   3.587
  556SOL    HW1 2567   5.249   3.463   3.565
  556SOL    HW2 2568   5.232   3.300   3.564
  557SOL     OW 2569   0.250   6.540   6.261
  557SOL    HW1 2570   0.272   6.447   6.290
  557SOL    HW2 2571   0.206   6.589   6.337
  558SOL     OW 2572   4.017   3.944   5.221
  558SOL    HW1 2573   4.108   3.964   5.256
  558SOL    HW2 2574   3.955   4.019   5.246
  559SOL     OW 2575   6.537   5.809   6.446
  559SOL    HW1 2576   6.510   5.900   6.477
  559SOL    HW2 2577   6.459   5.747   6.449
  560SOL     OW 2578   4.119   6.518   6.981
  560SOL    HW1 2579   4.142   6.615   6.969
  560SOL    HW2 2580   4.131   6.470   6.894
  561SOL     OW 2581   5.547   6.666   1.125
  561SOL    HW1 2582   5.478   6.673   1.052
  561SOL    HW2 2583   5.501   6.661   1.213
  562SOL     OW 2584   6.202   1.564   5.994
  562SOL    HW1 2585   6.167   1.498   5.927
  562SOL    HW2 2586   6.144   1.564   6.074
  563SOL     OW 2587   3.396   5.888   4.044
  563SOL    HW1 2588   3.346   5.885   4.130
  563SOL    HW2 2589   3.490   5.860   4.059
  564SOL     OW 2590   0.865   1.353   6.437
  564SOL    HW1 2591   0.917   1.371   6.353
  564SOL    HW2 2592   0.846   1.255   6.444
  565SOL     OW 2593   4.893   4.270   4.857
  565SOL    HW1 2594   4.805   4.312   4.879
  565SOL    HW2 2595   4.964   4.341   4.858
  566SOL     OW 2596   5.184   4.983   3.215
  566SOL    HW1 2597   5.174   5.040   3.297
  566SOL    HW2 2598   5.105   4.997   3.155
  567SOL     OW 2599   4.045   3.158   4.351
  567SOL    HW1 2600   4.032   3.255   4.332
  567SOL    HW2 2601   4.131   3.144   4.401
  568SOL     OW 2602   2.126   1.472   6.842
  568SOL    HW1 2603   2.138   1.376   6.866
  568SOL    HW2 2604   2.105   1.525   6.924
  569SOL     OW 2605   2.730   3.185   0.271
  569SOL    HW1 2606   2.720   3.241   0.354
  569SOL    HW2 2607   2.668   3.220   0.200
  570SOL     OW 2608   6.895   6.038   1.062
  570SOL    HW1 2609   6.864   6.130   1.089
  570SOL    HW2 2610   6.900   5.980   1.142
  571SOL     OW 2611   4.236   5.538   3.180
  571SOL    HW1 2612   4.303   5.588   3.236
  571SOL    HW2 2613   4.165   5.602   3.149
  572SOL     OW 2614   1.724   3.785   5.194
  572SOL    HW1 2615   1.656   3.728   5.148
  572SOL    HW2 2616   1.811   3.778   5.146
  573SOL     OW 2617   3.867   2.002   6.017
  573SOL    HW1 2618   3.782   1.975   6.062
  573SOL    HW2 2619   3.871   2.102   6.012
  574SOL     OW 2620   2.484   1.823   4.077
  574SOL    HW1 2621   2.518   1.778   4.160
  574SOL    HW2 2622   2.409   1.769   4.039
  575SOL     OW 2623   5.442   2.775   6.776
  575SOL    HW1 2624   5.399   2.781   6.866
  575SOL    HW2 2625   5.371   2.758   6.707
  576SOL     OW 2626   0.315   2.032   2.702
  576SOL    HW1 2627   0.244   2.094   2.669
  576SOL    HW2 2628   0.379   2.082   2.759
  577SOL     OW 2629   3.228   1.944   3.575
  577SOL    HW1 2630   3.135   1.972   3.550
  577SOL    HW2 2631   3.291   1.968   3.502
  578SOL     OW 2632   0.149   3.576   3.895
  578SOL    HW1 2633   0.244   3.594   3.870
  578SOL    HW2 2634   0.101   3.662   3.913
  579SOL     OW 2635   4.427   3.372   0.262
  579SOL    HW1 2636   4.441   3.291   0.205
  579SOL    HW2 2637   4.505   3.384   0.323
  580SOL     OW 2638   0.496   5.847   0.137
  580SOL    HW1 2639   0.583   5.895   0.126
  580SOL    HW2 2640   0.432   5.905   0.188
  581SOL     OW 2641   3.816   3.679   2.817
  581SOL    HW1 2642   3.778   3.758   2.768
  581SOL    HW2 2643   3.875   3.711   2.891
  582SOL     OW 2644   6.109   4.015   2.167
  582SOL    HW1 2645   6.026   4.030   2.114
  582SOL    HW2 2646   6.163   4.099   2.170
  583SOL     OW 2647   1.772   5.058   7.007
  583SOL    HW1 2648   1.680   5.082   6.976
  583SOL    HW2 2649   1.837   5.126   6.975
  584SOL     OW 2650   0.353   5.314   4.337
  584SOL    HW1 2651   0.282   5.357   4.392
  584SOL    HW2 2652   0.320   5.304   4.243
  585SOL     OW 2653   0.026   1.498   6.539
  585SOL    HW1 2654   6.988   1.417   6.519
  585SOL    HW2 2655   6.997   1.554   6.608
  586SOL     OW 2656   2.762   6.277   0.546
  586SOL    HW1 2657   2.792   6.332   0.468
  586SOL    HW2 2658   2.835   6.214   0.573
  587SOL     OW 2659   1.172   3.244   5.280
  587SOL    HW1 2660   1.127   3.291   5.204
  587SOL    HW2 2661   1.225   3.311   5.333
  588SOL     OW 2662   3.190   0.025   1.451
  588SOL    HW1 2663   3.128   6.964   1.454
  588SOL    HW2 2664   3.143   0.103   1.409
  589SOL     OW 2665   4.615   5.283   2.593
  589SOL    HW1 2666   4.711   5.259   2.597
  589SOL    HW2 2667   4.560   5.206   2.625
  590SOL     OW 2668   6.761   2.145   2.114
  590SOL    HW1 2669   6.750   2.236   2.154
  590SOL    HW2 2670   6.858   2.127   2.100
  591SOL     OW 2671   3.489   0.186   3.015
  591SOL    HW1 2672   3.547   0.187   3.096
  591SOL    HW2 2673   3.530   0.128   2.945
  592SOL     OW 2674   5.353   0.825   6.887
  592SOL    HW1 2675   5.289   0.876   6.829
  592SOL    HW2 2676   5.447   0.849   6.862
  593SOL     OW 2677   6.000   1.763   3.894
  593SOL    HW1 2678   6.008   1.852   3.849
  593SOL    HW2 2679   5.905   1.733   3.891
  594SOL     OW 2680   4.934   2.615   1.572
  594SOL    HW1 2681   4.954   2.677   1.648
  594SOL    HW2 2682   4.899   2.667   1.494
  595SOL     OW 2683   3.414   6.381   3.866
  595SOL    HW1 2684   3.411   6.281   3.866
  595SOL    HW2 2685   3.492   6.412   3.812
  596SOL     OW 2686   1.117   4.447   2.606
  596SOL    HW1 2687   1.043   4.405   2.554
  596SOL    HW2 2688   1.133   4.540   2.573
  597SOL     OW 2689   3.826   1.868   5.552
  597SOL    HW1 2690   3.749   1.832   5.604
  597SOL    HW2 2691   3.835   1.966   5.570
  598SOL     OW 2692   3.284   4.186   0.968
  598SOL    HW1 2693   3.215   4.130   0.921
  598SOL    HW2 2694   3.244   4.225   1.051
  599SOL     OW 2695   6.552   6.304   2.672
  599SOL    HW1 2696   6.486   6.304   2.598
  599SOL    HW2 2697   6.621   6.233   2.656
  600SOL     OW 2698   2.439   0.770   0.791
  600SOL    HW1 2699   2.380   0.851   0.796
  600SOL    HW2 2700   2.399   0.703   0.729
  601SOL     OW 2701   2.423   5.163   3.079
  601SOL    HW1 2702   2.472   5.221   3.014
  601SOL    HW2 2703   2.436   5.198   3.171
  602SOL     OW 2704   1.062   0.575   1.449
  602SOL    HW1 2705   1.039   0.628   1.368
  602SOL    HW2 2706   1.130   0.625   1.503
  603SOL     OW 2707   3.995   2.116   3.358
  603SOL    HW1 2708   3.956   2.118   3.450
  603SOL    HW2 2709   4.001   2.021   3.327
  604SOL     OW 2710   0.679   4.062   5.406
  604SOL    HW1 2711   0.744   4.138   5.415
  604SOL    HW2 2712   0.586   4.099   5.398
  605SOL     OW 2713   5.906   0.649   4.557
  605SOL    HW1 2714   5.863   0.577   4.504
  605SOL    HW2 2715   5.978   0.693   4.502
  606SOL     OW 2716   3.711   0.143   3.175
  606SOL    HW1 2717   3.793   0.141   3.117
  606SOL    HW2 2718   3.729   0.196   3.258
  607SOL     OW 2719   4.973   1.040   3.710
  607SOL    HW1 2720   4.994   1.079   3.799
  607SOL    HW2 2721   4.972   0.940   3.716
  608SOL     OW 2722   4.990   1.527   1.236
  608SOL    HW1 2723   4.949   1.543   1.146
  608SOL    HW2 2724   4.920   1.531   1.306
  609SOL     OW 2725   3.048   3.730   4.421
  609SOL    HW1 2726   2.992   3.653   4.453
  609SOL    HW2 2727   3.039   3.806   4.486
  610SOL     OW 2728   5.369   2.174   4.798
  610SOL    HW1 2729   5.364   2.104   4.727
  610SOL    HW2 2730   5.277   2.194   4.832
  611SOL     OW 2731   0.038   0.176   0.945
  611SOL    HW1 2732   7.004   0.248   0.898
  611SOL    HW2 2733   0.010   0.173   1.041
  612SOL     OW 2734   3.239   5.643   5.404
  612SOL    HW1 2735   3.229   5.601   5.313
  612SOL    HW2 2736   3.166   5.710   5.417
  613SOL     OW 2737   3.651   2.397   6.621
  613SOL    HW1 2738   3.552   2.387   6.613
  613SOL    HW2 2739   3.676   2.406   6.718
  614SOL     OW 2740   5.138   4.500   0.902
  614SOL    HW1 2741   5.104   4.504   0.808
  614SOL    HW2 2742   5.109   4.413   0.944
  615SOL     OW 2743   5.965   6.329   1.044
  615SOL    HW1 2744   5.881   6.375   1.014
  615SOL    HW2 2745   5.963   6.233   1.015
  616SOL     OW 2746   5.944   0.859   4.874
  616SOL    HW1 2747   5.977   0.907   4.793
  616SOL    HW2 2748   5.859   0.811   4.852
  617SOL     OW 2749   0.197   5.387   5.784
  617SOL    HW1 2750   0.169   5.468   5.836
  617SOL    HW2 2751   0.153   5.306   5.823
  618SOL     OW 2752   6.573   3.776   0.667
  618SOL    HW1 2753   6.572   3.693   0.612
  618SOL    HW2 2754   6.479   3.798   0.695
  619SOL     OW 2755   3.037   0.362   6.179
  619SOL    HW1 2756   2.987   0.375   6.093
  619SOL    HW2 2757   2.979   0.387   6.256
  620SOL     OW 2758   5.872   1.693   2.412
  620SOL    HW1 2759   5.896   1.648   2.326
  620SOL    HW2 2760   5.883   1.628   2.487
  621SOL     OW 2761   3.115   0.785   6.605
  621SOL    HW1 2762   3.099   0.878   6.638
  621SOL    HW2 2763   3.081   0.719   6.672
  622SOL     OW 2764   1.086   2.146   4.996
  622SOL    HW1 2765   1.068   2.052   4.968
  622SOL    HW2 2766   1.068   2.208   4.920
  623SOL     OW 2767   5.894   0.482   4.027
  623SOL    HW1 2768   5.970   0.515   4.082
  623SOL    HW2 2769   5.807   0.507   4.071
  624SOL     OW 2770   6.751   0.343   6.582
  624SOL    HW1 2771   6.667   0.379   6.623
  624SOL    HW2 2772   6.727   0.277   6.510
  625SOL     OW 2773   2.794   1.784   0.614
  625SOL    HW1 2774   2.713   1.732   0.641
  625SOL    HW2 2775   2.765   1.868   0.567
  626SOL     OW 2776   0.086   6.157   3.988
  626SOL    HW1 2777   0.047   6.102   4.061
  626SOL    HW2 2778   0.091   6.253   4.017
  627SOL     OW 2779   6.453   0.234   0.130
  627SOL    HW1 2780   6.475   0.261   0.224
  627SOL    HW2 2781   6.364   0.189   0.128
  628SOL     OW 2782   4.333   4.760   6.000
  628SOL    HW1 2783   4.412   4.818   5.979
  628SOL    HW2 2784   4.326   4.748   6.099
  629SOL     OW 2785   1.212   0.022   6.487
  629SOL    HW1 2786   1.262   0.045   6.404
  629SOL    HW2 2787   1.133   6.982   6.463
  630SOL     OW 2788   6.314   1.385   1.340
  630SOL    HW1 2789   6.241   1.318   1.355
  630SOL    HW2 2790   6.280   1.476   1.362
  631SOL     OW 2791   1.776   2.463   3.877
  631SOL    HW1 2792   1.756   2.366   3.863
  631SOL    HW2 2793   1.728   2.517   3.808
  632SOL     OW 2794   3.149   3.917   0.163
  632SOL    HW1 2795   3.104   3.979   0.099
  632SOL    HW2 2796   3.108   3.929   0.254
  633SOL     OW 2797   1.560   6.101   0.974
  633SOL    HW1 2798   1.469   6.143   0.979
  633SOL    HW2 2799   1.555   6.019   0.917
  634SOL     OW 2800   2.901   3.546   4.515
  634SOL    HW1 2801   2.887   3.612   4.589
  634SOL    HW2 2802   2.906   3.454   4.553
  635SOL     OW 2803   5.593   0.205   6.749
  635SOL    HW1 2804   5.615   0.297   6.781
  635SOL    HW2 2805   5.506   0.206   6.701
  636SOL     OW 2806   2.957   0.351   5.568
  636SOL    HW1 2807   3.008   0.402   5.497
  636SOL    HW2 2808   2.998   0.370   5.657
  637SOL     OW 2809   6.636   0.476   2.636
  637SOL    HW1 2810   6.586   0.393   2.614
  637SOL    HW2 2811   6.594   0.554   2.590
  638SOL     OW 2812   6.617   2.960   4.828
  638SOL    HW1 2813   6.559   2.919   4.899
  638SOL    HW2 2814   6.668   2.888   4.781
  639SOL     OW 2815   5.689   4.395   2.401
  639SOL    HW1 2816   5.746   4.385   2.482
  639SOL    HW2 2817   5.593   4.403   2.427
  640SOL     OW 2818   0.577   2.513   2.039
  640SOL    HW1 2819   0.561   2.498   1.941
  640SOL    HW2 2820   0.649   2.582   2.051
  641SOL     OW 2821   2.437   4.969   4.188
  641SOL    HW1 2822   2.353   4.916   4.177
  641SOL    HW2 2823   2.513   4.909   4.214
  642SOL     OW 2824   0.909   3.871   4.742
  642SOL    HW1 2825   0.809   3.879   4.741
  642SOL    HW2 2826   0.949   3.956   4.708
  643SOL     OW 2827   4.867   5.115   0.879
  643SOL    HW1 2828   4.918   5.201   0.884
  643SOL    HW2 2829   4.769   5.135   0.874
  644SOL     OW 2830   0.119   6.819   5.407
  644SOL    HW1 2831   0.207   6.794   5.449
  644SOL    HW2 2832   0.101   6.916   5.422
  645SOL     OW 2833   3.819   5.174   2.180
  645SOL    HW1 2834   3.731   5.211   2.210
  645SOL    HW2 2835   3.893   5.229   2.218
  646SOL     OW 2836   3.813   2.007   4.356
  646SOL    HW1 2837   3.777   2.049   4.439
  646SOL    HW2 2838   3.751   2.026   4.280
  647SOL     OW 2839   3.871   2.720   6.073
  647SOL    HW1 2840   3.887   2.671   5.987
  647SOL    HW2 2841   3.781   2.763   6.070
  648SOL     OW 2842   6.177   1.092   2.969
  648SOL    HW1 2843   6.147   1.027   2.899
  648SOL    HW2 2844   6.226   1.042   3.041
  649SOL     OW 2845   2.296   5.347   1.081
  649SOL    HW1 2846   2.350   5.265   1.099
  649SOL    HW2 2847   2.205   5.337   1.123
  650SOL     OW 2848   0.052   3.725   0.651
  650SOL    HW1 2849   0.036   3.696   0.557
  650SOL    HW2 2850   0.120   3.665   0.693
  651SOL     OW 2851   1.364   0.422   4.308
  651SOL    HW1 2852   1.322   0.496   4.361
  651SOL    HW2 2853   1.296   0.380   4.249
  652SOL     OW 2854   3.607   6.290   1.649
  652SOL    HW1 2855   3.666   6.342   1.587
  652SOL    HW2 2856   3.638   6.303   1.743
  653SOL     OW 2857   1.108   0.232   2.351
  653SOL    HW1 2858   1.102   0.313   2.292
  653SOL    HW2 2859   1.202   0.222   2.384
  654SOL     OW 2860   0.925   0.166   5.553
  654SOL    HW1 2861   1.000   0.099   5.557
  654SOL    HW2 2862   0.893   0.173   5.458
  655SOL     OW 2863   0.523   4.137   1.803
  655SOL    HW1 2864   0.437   4.139   1.752
  655SOL    HW2 2865   0.592   4.088   1.750
  656SOL     OW 2866   3.778   6.633   0.323
  656SOL    HW1 2867   3.849   6.602   0.259
  656SOL    HW2 2868   3.750   6.557   0.380
  657SOL     OW 2869   3.711   3.764   3.140
  657SOL    HW1 2870   3.646   3.823   3.188
  657SOL    HW2 2871   3.798   3.763   3.190
  658SOL     OW 2872   1.737   1.315   4.856
  658SOL    HW1 2873   1.799   1.387   4.824
  658SOL    HW2 2874   1.672   1.354   4.922
  659SOL     OW 2875   1.628   5.823   6.234
  659SOL    HW1 2876   1.683   5.750   6.273
  659SOL    HW2 2877   1.658   5.840   6.140
  660SOL     OW 2878   4.633   4.861   2.967
  660SOL    HW1 2879   4.546   4.833   2.926
  660SOL    HW2 2880   4.619   4.887   3.062
  661SOL     OW 2881   4.444   4.473   4.089
  661SOL    HW1 2882   4.376   4.521   4.144
  661SOL    HW2 2883   4.505   4.422   4.149
  662SOL     OW 2884   5.034   3.293   6.760
  662SOL    HW1 2885   5.054   3.222   6.827
  662SOL    HW2 2886   5.000   3.251   6.675
  663SOL     OW 2887   6.604   4.132   6.972
  663SOL    HW1 2888   6.695   4.150   7.010
  663SOL    HW2 2889   6.554   4.219   6.965
  664SOL     OW 2890   1.602   0.020   6.444
  664SOL    HW1 2891   1.668   0.048   6.375
  664SOL    HW2 2892   1.560   0.102   6.485
  665SOL     OW 2893   3.437   4.951   1.713
  665SOL    HW1 2894   3.459   4.881   1.782
  665SOL    HW2 2895   3.400   4.906   1.631
  666SOL     OW 2896   2.929   0.696   0.528
  666SOL    HW1 2897   2.864   0.752   0.475
  666SOL    HW2 2898   2.891   0.679   0.619
  667SOL     OW 2899   0.934   3.525   2.950
  667SOL    HW1 2900   1.016   3.583   2.947
  667SOL    HW2 2901   0.854   3.581   2.973
  668SOL     OW 2902   5.254   0.123   0.487
  668SOL    HW1 2903   5.287   0.216   0.473
  668SOL    HW2 2904   5.311   0.078   0.556
  669SOL     OW 2905   1.647   6.190   2.569
  669SOL    HW1 2906   1.746   6.177   2.560
  669SOL    HW2 2907   1.624   6.206   2.665
  670SOL     OW 2908   3.284   2.939   3.484
  670SOL    HW1 2909   3.347   2.998   3.434
  670SOL    HW2 2910   3.191   2.975   3.475
  671SOL     OW 2911   1.350   0.024   6.227
  671SOL    HW1 2912   1.348   6.945   6.200
  671SOL    HW2 2913   1.418   0.073   6.172
  672SOL     OW 2914   1.691   1.736   3.711
  672SOL    HW1 2915   1.738   1.789   3.640
  672SOL    HW2 2916   1.755   1.673   3.754
  673SOL     OW 2917   4.945   6.512   0.652
  673SOL    HW1 2918   5.003   6.461   0.589
  673SOL    HW2 2919   4.866   6.548   0.603
  674SOL     OW 2920   6.854   1.745   3.774
  674SOL    HW1 2921   6.938   1.797   3.772
  674SOL    HW2 2922   6.808   1.752   3.685
  675SOL     OW 2923   5.684   1.060   4.502
  675SOL    HW1 2924   5.709   1.026   4.411
  675SOL    HW2 2925   5.628   0.992   4.549
  676SOL     OW 2926   2.282   4.493   4.310
  676SOL    HW1 2927   2.197   4.518   4.262
  676SOL    HW2 2928   2.285   4.394   4.321
  677SOL     OW 2929   5.319   6.902   1.178
  677SOL    HW1 2930   5.405   6.886   1.226
  677SOL    HW2 2931   5.244   6.858   1.229
  678SOL     OW 2932   2.545   1.043   6.042
  678SOL    HW1 2933   2.622   1.075   5.987
  678SOL    HW2 2934   2.462   1.091   6.015
  679SOL     OW 2935   6.023   6.583   2.452
  679SOL    HW1 2936   5.992   6.488   2.454
  679SOL    HW2 2937   6.115   6.587   2.413
  680SOL     OW 2938   5.317   4.121   5.108
  680SOL    HW1 2939   5.412   4.139   5.133
  680SOL    HW2 2940   5.307   4.024   5.084
  681SOL     OW 2941   1.552   6.759   1.971
  681SOL    HW1 2942   1.535   6.681   1.911
  681SOL    HW2 2943   1.622   6.818   1.930
  682SOL     OW 2944   1.175   6.768   6.670
  682SOL    HW1 2945   1.153   6.819   6.586
  682SOL    HW2 2946   1.274   6.772   6.685
  683SOL     OW 2947   5.430   1.918   0.191
  683SOL    HW1 2948   5.364   1.993   0.191
  683SOL    HW2 2949   5.430   1.874   0.281
  684SOL     OW 2950   6.986   6.235   6.274
  684SOL    HW1 2951   6.951   6.251   6.181
  684SOL    HW2 2952   0.038   6.304   6.295
  685SOL     OW 2953   5.786   1.009   5.905
  685SOL    HW1 2954   5.782   1.104   5.936
  685SOL    HW2 2955   5.875   0.971   5.929
  686SOL     OW 2956   5.480   4.577   3.177
  686SOL    HW1 2957   5.458   4.495   3.230
  686SOL    HW2 2958   5.400   4.605   3.125
  687SOL     OW 2959   5.777   2.391   5.385
  687SOL    HW1 2960   5.797   2.446   5.466
  687SOL    HW2 2961   5.699   2.430   5.336
  688SOL     OW 2962   0.383   3.370   4.465
  688SOL    HW1 2963   0.407   3.447   4.406
  688SOL    HW2 2964   0.339   3.404   4.548
  689SOL     OW 2965   6.147   4.394   5.404
  689SOL    HW1 2966   6.217   4.332   5.368
  689SOL    HW2 2967   6.118   4.362   5.495
  690SOL     OW 2968   0.348   2.826   3.693
  690SOL    HW1 2969   0.430   2.872   3.657
  690SOL    HW2 2970   0.328   2.863   3.784
  691SOL     OW 2971   0.183   3.027   6.685
  691SOL    HW1 2972   0.105   3.090   6.681
  691SOL    HW2 2973   0.193   2.993   6.778
  692SOL     OW 2974   1.951   6.975   3.054
  692SOL    HW1 2975   1.911   0.042   3.092
  692SOL    HW2 2976   2.045   6.993   3.025
  693SOL     OW 2977   6.598   0.964   2.295
  693SOL    HW1 2978   6.652   0.987   2.214
  693SOL    HW2 2979   6.660   0.943   2.371
  694SOL     OW 2980   1.376   0.341   2.312
  694SOL    HW1 2981   1.292   0.360   2.261
  694SOL    HW2 2982   1.368   0.379   2.404
  695SOL     OW 2983   4.343   5.433   6.194
  695SOL    HW1 2984   4.336   5.333   6.187
  695SOL    HW2 2985   4.264   5.474   6.149
  696SOL     OW 2986   4.541   5.555   2.507
  696SOL    HW1 2987   4.572   5.462   2.526
  696SOL    HW2 2988   4.477   5.554   2.430
  697SOL     OW 2989   1.488   3.745   3.923
  697SOL    HW1 2990   1.422   3.739   3.998
  697SOL    HW2 2991   1.455   3.811   3.855
  698SOL     OW 2992   4.207   6.722   3.447
  698SOL    HW1 2993   4.264   6.662   3.504
  698SOL    HW2 2994   4.129   6.671   3.413
  699SOL     OW 2995   1.953   4.582   0.213
  699SOL    HW1 2996   1.925   4.653   0.148
  699SOL    HW2 2997   1.955   4.493   0.167
  700SOL     OW 2998   2.189   1.558   3.672
  700SOL    HW1 2999   2.098   1.521   3.655
  700SOL    HW2 3000   2.183   1.658   3.679
  701SOL     OW 3001   0.717   4.679   5.587
  701SOL    HW1 3002   0.801   4.653   5.635
  701SOL    HW2 3003   0.709   4.779   5.585
  702SOL     OW 3004   5.348   5.463   4.833
  702SOL    HW1 3005   5.413   5.444   4.907
  702SOL    HW2 3006   5.320   5.378   4.790
  703SOL     OW 3007   4.461   4.294   0.239
  703SOL    HW1 3008   4.505   4.209   0.270
  703SOL    HW2 3009   4.520   4.339   0.172
  704SOL     OW 3010   2.626   0.331   1.107
  704SOL    HW1 3011   2.669   0.253   1.063
  704SOL    HW2 3012   2.556   0.299   1.172
  705SOL     OW 3013   6.672   2.149   3.394
  705SOL    HW1 3014   6.612   2.206   3.339
  705SOL    HW2 3015   6.684   2.060   3.350
  706SOL     OW 3016   4.688   1.809   3.921
  706SOL    HW1 3017   4.772   1.781   3.967
  706SOL    HW2 3018   4.702   1.811   3.822
  707SOL     OW 3019   5.440   1.917   1.186
  707SOL    HW1 3020   5.414   1.821   1.197
  707SOL    HW2 3021   5.538   1.927   1.203
  708SOL     OW 3022   4.048   0.796   1.783
  708SOL    HW1 3023   3.972   0.850   1.820
  708SOL    HW2 3024   4.030   0.774   1.687
  709SOL     OW 3025   0.966   5.116   6.806
  709SOL    HW1 3026   0.885   5.159   6.767
  709SOL    HW2 3027   1.044   5.131   6.746
  710SOL     OW 3028   3.154   3.658   2.469
  710SOL    HW1 3029   3.220   3.724   2.434
  710SOL    HW2 3030   3.186   3.565   2.451
  711SOL     OW 3031   0.824   6.902   4.087
  711SOL    HW1 3032   0.852   6.826   4.028
  711SOL    HW2 3033   0.764   6.964   4.035
  712SOL     OW 3034   1.455   4.026   1.456
  712SOL    HW1 3035   1.518   3.966   1.504
  712SOL    HW2 3036   1.494   4.053   1.368
  713SOL     OW 3037   4.114   3.245   3.129
  713SOL    HW1 3038   4.080   3.204   3.214
  713SOL    HW2 3039   4.092   3.185   3.052
  714SOL     OW 3040   4.913   5.204   5.702
  714SOL    HW1 3041   4.939   5.289   5.747
  714SOL    HW2 3042   4.992   5.168   5.651
  715SOL     OW 3043   4.579   0.675   6.560
  715SOL    HW1 3044   4.510   0.716   6.501
  715SOL    HW2 3045   4.648   0.630   6.503
  716SOL     OW 3046   6.856   4.978   1.937
  716SOL    HW1 3047   6.924   4.988   2.010
  716SOL    HW2 3048   6.770   5.022   1.965
  717SOL     OW 3049   6.258   2.908   0.378
  717SOL    HW1 3050   6.299   2.956   0.300
  717SOL    HW2 3051   6.326   2.848   0.420
  718SOL     OW 3052   3.332   3.608   6.346
  718SOL    HW1 3053   3.254   3.571   6.396
  718SOL    HW2 3054   3.415   3.560   6.374
  719SOL     OW 3055   5.304   4.953   6.744
  719SOL    HW1 3056   5.263   4.986   6.829
  719SOL    HW2 3057   5.381   4.893   6.764
  720SOL     OW 3058   2.244   0.258   6.244
  720SOL    HW1 3059   2.189   0.200   6.184
  720SOL    HW2 3060   2.316   0.203   6.287
  721SOL     OW 3061   1.266   6.164   5.796
  721SOL    HW1 3062   1.303   6.121   5.714
  721SOL    HW2 3063   1.301   6.257   5.803
  722SOL     OW 3064   5.072   0.229   6.014
  722SOL    HW1 3065   5.113   0.296   5.953
  722SOL    HW2 3066   5.031   0.155   5.960
  723SOL     OW 3067   1.804   3.127   2.270
  723SOL    HW1 3068   1.792   3.224   2.289
  723SOL    HW2 3069   1.781   3.108   2.174
  724SOL     OW 3070   0.036   0.667   4.676
  724SOL    HW1 3071   6.965   0.707   4.650
  724SOL    HW2 3072   0.091   0.737   4.722
  725SOL     OW 3073   2.260   5.269   0.608
  725SOL    HW1 3074   2.316   5.302   0.684
  725SOL    HW2 3075   2.170   5.314   0.611
  726SOL     OW 3076   4.532   0.276   6.059
  726SOL    HW1 3077   4.546   0.290   6.157
  726SOL    HW2 3078   4.591   0.203   6.026
  727SOL     OW 3079   2.579   4.670   4.018
  727SOL    HW1 3080   2.599   4.711   4.107
  727SOL    HW2 3081   2.523   4.588   4.030
  728SOL     OW 3082   6.782   3.395   5.050
  728SOL    HW1 3083   6.783   3.328   5.124
  728SOL    HW2 3084   6.846   3.367   4.978
  729SOL     OW 3085   3.011   0.500   0.812
  729SOL    HW1 3086   3.011   0.414   0.762
  729SOL    HW2 3087   3.044   0.484   0.905
  730SOL     OW 3088   6.362   0.052   5.039
  730SOL    HW1 3089   6.414   0.067   5.123
  730SOL    HW2 3090   6.313   0.135   5.014
  731SOL     OW 3091   5.987   3.297   3.455
  731SOL    HW1 3092   6.051   3.254   3.519
  731SOL    HW2 3093   5.974   3.237   3.376
  732SOL     OW 3094   6.718   2.869   2.451
  732SOL    HW1 3095   6.800   2.905   2.495
  732SOL    HW2 3096   6.741   2.784   2.403
  733SOL     OW 3097   4.569   4.541   3.560
  733SOL    HW1 3098   4.568   4.641   3.550
  733SOL    HW2 3099   4.517   4.516   3.641
  734SOL     OW 3100   6.779   4.843   0.919
  734SOL    HW1 3101   6.789   4.836   0.819
  734SOL    HW2 3102   6.813   4.760   0.962
  735SOL     OW 3103   1.373   4.509   6.327
  735SOL    HW1 3104   1.369   4.537   6.231
  735SOL    HW2 3105   1.422   4.578   6.379
  736SOL     OW 3106   6.100   1.342   2.969
  736SOL    HW1 3107   6.135   1.248   2.973
  736SOL    HW2 3108   6.140   1.395   3.044
  737SOL     OW 3109   5.813   3.427   0.341
  737SOL    HW1 3110   5.892   3.427   0.402
  737SOL    HW2 3111   5.815   3.346   0.283
  738SOL     OW 3112   0.499   4.377   3.403
  738SOL    HW1 3113   0.466   4.339   3.489
  738SOL    HW2 3114   0.431   4.362   3.331
  739SOL     OW 3115   4.870   5.650   6.559
  739SOL    HW1 3116   4.855   5.733   6.612
  739SOL    HW2 3117   4.791   5.590   6.567
  740SOL     OW 3118   5.827   6.729   1.144
  740SOL    HW1 3119   5.836   6.779   1.058
  740SOL    HW2 3120   5.730   6.712   1.163
  741SOL     OW 3121   2.593   1.281   3.499
  741SOL    HW1 3122   2.606   1.183   3.481
  741SOL    HW2 3123   2.679   1.320   3.531
  742SOL     OW 3124   1.195   0.728   2.980
  742SOL    HW1 3125   1.275   0.701   3.033
  742SOL    HW2 3126   1.155   0.648   2.937
  743SOL     OW 3127   1.936   3.947   4.214
  743SOL    HW1 3128   1.994   3.890   4.156
  743SOL    HW2 3129   1.840   3.932   4.191
  744SOL     OW 3130   0.574   6.318   1.202
  744SOL    HW1 3131   0.504   6.260   1.243
  744SOL    HW2 3132   0.644   6.339   1.270
  745SOL     OW 3133   1.229   6.383   2.919
  745SOL    HW1 3134   1.235   6.297   2.868
  745SOL    HW2 3135   1.241   6.365   3.017
  746SOL     OW 3136   2.445   0.625   4.552
  746SOL    HW1 3137   2.385   0.612   4.473
  746SOL    HW2 3138   2.507   0.702   4.536
  747SOL     OW 3139   5.624   4.645   2.294
  747SOL    HW1 3140   5.640   4.549   2.320
  747SOL    HW2 3141   5.560   4.686   2.360
  748SOL     OW 3142   4.416   2.841   1.510
  748SOL    HW1 3143   4.434   2.790   1.594
  748SOL    HW2 3144   4.434   2.783   1.431
  749SOL     OW 3145   0.079   1.643   5.321
  749SOL    HW1 3146   0.127   1.605   5.242
  749SOL    HW2 3147   0.127   1.618   5.404
  750SOL     OW 3148   2.157   4.148   0.439
  750SOL    HW1 3149   2.202   4.134   0.351
  750SOL    HW2 3150   2.184   4.236   0.477
  751SOL     OW 3151   4.842   0.826   0.387
  751SOL    HW1 3152   4.855   0.775   0.471
  751SOL    HW2 3153   4.783   0.905   0.404
  752SOL     OW 3154   5.147   1.630   1.890
  752SOL    HW1 3155   5.142   1.535   1.920
  752SOL    HW2 3156   5.128   1.690   1.968
  753SOL     OW 3157   2.145   2.438   3.552
  753SOL    HW1 3158   2.161   2.416   3.455
  753SOL    HW2 3159   2.103   2.529   3.558
  754SOL     OW 3160   5.183   5.467   6.938
  754SOL    HW1 3161   5.247   5.466   7.015
  754SOL    HW2 3162   5.192   5.553   6.888
  755SOL     OW 3163   0.175   6.470   1.479
  755SOL    HW1 3164   0.101   6.514   1.428
  755SOL    HW2 3165   0.258   6.525   1.473
  756SOL     OW 3166   4.168   0.635   3.523
  756SOL    HW1 3167   4.120   0.557   3.564
  756SOL    HW2 3168   4.119   0.664   3.441
  757SOL     OW 3169   0.344   0.267   4.287
  757SOL    HW1 3170   0.403   0.348   4.291
  757SOL    HW2 3171   0.378   0.197   4.349
  758SOL     OW 3172   4.428   2.179   1.092
  758SOL    HW1 3173   4.525   2.175   1.069
  758SOL    HW2 3174   4.403   2.099   1.146
  759SOL     OW 3175   1.443   1.313   0.130
  759SOL    HW1 3176   1.508   1.259   0.183
  759SOL    HW2 3177   1.484   1.338   0.042
  760SOL     OW 3178   4.654   1.478   6.003
  760SOL    HW1 3179   4.729   1.517   5.949
  760SOL    HW2 3180   4.574   1.467   5.944
  761SOL     OW 3181   6.748   2.636   6.810
  761SOL    HW1 3182   6.741   2.618   6.712
  761SOL    HW2 3183   6.799   2.563   6.854
  762SOL     OW 3184   2.230   5.539   3.608
  762SOL    HW1 3185   2.183   5.489   3.536
  762SOL    HW2 3186   2.229   5.486   3.693
  763SOL     OW 3187   5.733   5.299   6.019
  763SOL    HW1 3188   5.722   5.327   6.115
  763SOL    HW2 3189   5.753   5.380   5.963
  764SOL     OW 3190   4.303   1.016   2.165
  764SOL    HW1 3191   4.338   0.929   2.199
  764SOL    HW2 3192   4.233   0.998   2.096
  765SOL     OW 3193   0.405   6.967   3.467
  765SOL    HW1 3194   0.326   7.009   3.423
  765SOL    HW2 3195   0.427   0.001   3.551
  766SOL     OW 3196   0.264   6.642   0.037
  766SOL    HW1 3197   0.205   6.585   0.096
  766SOL    HW2 3198   0.331   6.690   0.093
  767SOL     OW 3199   5.714   0.076   2.429
  767SOL    HW1 3200   5.671   0.032   2.350
  767SOL    HW2 3201   5.654   0.150   2.461
  768SOL     OW 3202   3.328   6.578   3.218
  768SOL    HW1 3203   3.364   6.526   3.141
  768SOL    HW2 3204   3.371   6.546   3.303
  769SOL     OW 3205   3.561   1.052   5.644
  769SOL    HW1 3206   3.637   1.076   5.705
  769SOL    HW2 3207   3.593   1.052   5.549
  770SOL     OW 3208   3.566   5.176   4.021
  770SOL    HW1 3209   3.612   5.101   3.973
  770SOL    HW2 3210   3.468   5.157   4.025
  771SOL     OW 3211   0.387   5.932   3.802
  771SOL    HW1 3212   0.455   5.899   3.736
  771SOL    HW2 3213   0.371   6.029   3.787
  772SOL     OW 3214   6.870   4.550   5.658
  772SOL    HW1 3215   6.954   4.496   5.668
  772SOL    HW2 3216   6.792   4.488   5.651
  773SOL     OW 3217   0.314   4.532   2.235
  773SOL    HW1 3218   0.375   4.587   2.179
  773SOL    HW2 3219   0.368   4.469   2.291
  774SOL     OW 3220   1.565   1.106   1.818
  774SOL    HW1 3221   1.505   1.166   1.765
  774SOL    HW2 3222   1.614   1.044   1.755
  775SOL     OW 3223   1.443   1.996   4.098
  775SOL    HW1 3224   1.360   2.004   4.043
  775SOL    HW2 3225   1.514   1.951   4.045
  776SOL     OW 3226   2.647   0.577   6.275
  776SOL    HW1 3227   2.618   0.507   6.210
  776SOL    HW2 3228   2.567   0.615   6.321
  777SOL     OW 3229   4.413   0.564   0.677
  777SOL    HW1 3230   4.440   0.619   0.756
  777SOL    HW2 3231   4.322   0.590   0.647
  778SOL     OW 3232   4.316   0.051   4.022
  778SOL    HW1 3233   4.378   7.007   4.072
  778SOL    HW2 3234   4.332   0.145   4.051
  779SOL     OW 3235   0.977   1.187   2.355
  779SOL    HW1 3236   0.922   1.111   2.322
  779SOL    HW2 3237   1.062   1.152   2.395
  780SOL     OW 3238   5.276   3.388   5.091
  780SOL    HW1 3239   5.284   3.318   5.162
  780SOL    HW2 3240   5.179   3.411   5.079
  781SOL     OW 3241   0.514   1.366   5.658
  781SOL    HW1 3242   0.527   1.269   5.679
  781SOL    HW2 3243   0.602   1.413   5.658
  782SOL     OW 3244   0.374   3.166   0.853
  782SOL    HW1 3245   0.399   3.263   0.854
  782SOL    HW2 3246   0.443   3.113   0.903
  783SOL     OW 3247   2.876   4.117   0.488
  783SOL    HW1 3248   2.930   4.033   0.484
  783SOL    HW2 3249   2.793   4.100   0.542
  784SOL     OW 3250   5.313   0.496   4.762
  784SOL    HW1 3251   5.326   0.529   4.856
  784SOL    HW2 3252   5.329   0.570   4.698
  785SOL     OW 3253   6.657   2.349   3.671
  785SOL    HW1 3254   6.590   2.274   3.670
  785SOL    HW2 3255   6.736   2.322   3.725
  786SOL     OW 3256   6.722   0.205   6.979
  786SOL    HW1 3257   6.750   0.165   0.049
  786SOL    HW2 3258   6.627   0.236   6.986
  787SOL     OW 3259   3.475   1.200   6.184
  787SOL    HW1 3260   3.382   1.169   6.202
  787SOL    HW2 3261   3.511   1.153   6.103
  788SOL     OW 3262   1.199   4.283   4.007
  788SOL    HW1 3263   1.194   4.377   4.040
  788SOL    HW2 3264   1.290   4.266   3.968
  789SOL     OW 3265   5.784   3.805   1.263
  789SOL    HW1 3266   5.784   3.866   1.341
  789SOL    HW2 3267   5.859   3.828   1.202
  790SOL     OW 3268   2.888   1.352   3.579
  790SOL    HW1 3269   2.900   1.379   3.483
  790SOL    HW2 3270   2.913   1.429   3.638
  791SOL     OW 3271   3.978   1.810   4.286
  791SOL    HW1 3272   4.027   1.739   4.337
  791SOL    HW2 3273   3.934   1.873   4.350
  792SOL     OW 3274   5.971   0.279   3.157
  792SOL    HW1 3275   6.059   0.327   3.154
  792SOL    HW2 3276   5.974   0.209   3.228
  793SOL     OW 3277   6.408   0.168   6.776
  793SOL    HW1 3278   6.452   0.255   6.754
  793SOL    HW2 3279   6.322   0.185   6.825
  794SOL     OW 3280   2.411   5.279   5.107
  794SOL    HW1 3281   2.506   5.308   5.095
  794SOL    HW2 3282   2.366   5.338   5.174
  795SOL     OW 3283   4.753   4.819   6.007
  795SOL    HW1 3284   4.812   4.873   5.947
  795SOL    HW2 3285   4.773   4.722   5.995
  796SOL     OW 3286   1.073   2.078   6.110
  796SOL    HW1 3287   1.134   2.119   6.042
  796SOL    HW2 3288   1.116   1.998   6.151
  797SOL     OW 3289   5.933   2.948   4.357
  797SOL    HW1 3290   5.867   2.908   4.421
  797SOL    HW2 3291   5.885   2.995   4.284
  798SOL     OW 3292   6.233   0.698   6.083
  798SOL    HW1 3293   6.314   0.751   6.060
  798SOL    HW2 3294   6.184   0.674   5.999
  799SOL     OW 3295   6.502   3.424   3.285
  799SOL    HW1 3296   6.535   3.462   3.371
  799SOL    HW2 3297   6.488   3.326   3.295
  800SOL     OW 3298   6.554   1.705   1.865
  800SOL    HW1 3299   6.480   1.678   1.804
  800SOL    HW2 3300   6.588   1.795   1.838
  801SOL     OW 3301   0.178   2.622   3.617
  801SOL    HW1 3302   0.253   2.684   3.639
  801SOL    HW2 3303   0.092   2.662   3.647
  802SOL     OW 3304   5.681   0.853   0.773
  802SOL    HW1 3305   5.707   0.941   0.732
  802SOL    HW2 3306   5.598   0.865   0.826
  803SOL     OW 3307   0.719   6.950   5.381
  803SOL    HW1 3308   0.664   6.891   5.321
  803SOL    HW2 3309   0.696   6.931   5.476
  804SOL     OW 3310   6.637   0.386   0.586
  804SOL    HW1 3311   6.674   0.384   0.493
  804SOL    HW2 3312   6.613   0.480   0.610
  805SOL     OW 3313   2.140   3.402   6.194
  805SOL    HW1 3314   2.058   3.427   6.246
  805SOL    HW2 3315   2.219   3.403   6.255
  806SOL     OW 3316   5.439   0.867   0.925
  806SOL    HW1 3317   5.406   0.773   0.939
  806SOL    HW2 3318   5.361   0.926   0.904
  807SOL     OW 3319   1.342   0.346   3.267
  807SOL    HW1 3320   1.254   0.307   3.294
  807SOL    HW2 3321   1.414   0.278   3.282
  808SOL     OW 3322   5.537   3.440   5.197
  808SOL    HW1 3323   5.569   3.346   5.213
  808SOL    HW2 3324   5.464   3.438   5.128
  809SOL     OW 3325   0.188   4.694   6.067
  809SOL    HW1 3326   0.193   4.634   6.147
  809SOL    HW2 3327   0.094   4.698   6.034
  810SOL     OW 3328   6.202   4.476   6.968
  810SOL    HW1 3329   6.171   4.541   6.898
  810SOL    HW2 3330   6.186   4.515   0.042
  811SOL     OW 3331   5.104   5.275   4.206
  811SOL    HW1 3332   5.038   5.206   4.235
  811SOL    HW2 3333   5.056   5.354   4.168
  812SOL     OW 3334   0.264   6.892   2.322
  812SOL    HW1 3335   0.252   6.834   2.403
  812SOL    HW2 3336   0.324   6.969   2.345
  813SOL     OW 3337   5.634   5.325   2.581
  813SOL    HW1 3338   5.701   5.308   2.509
  813SOL    HW2 3339   5.636   5.249   2.647
  814SOL     OW 3340   5.146   6.161   1.333
  814SOL    HW1 3341   5.123   6.149   1.429
  814SOL    HW2 3342   5.195   6.080   1.300
  815SOL     OW 3343   0.651   2.082   0.722
  815SOL    HW1 3344   0.632   2.179   0.728
  815SOL    HW2 3345   0.712   2.064   0.644
  816SOL     OW 3346   6.018   0.461   0.863
  816SOL    HW1 3347   5.988   0.472   0.958
  816SOL    HW2 3348   5.951   0.503   0.802
  817SOL     OW 3349   1.641   2.222   3.077
  817SOL    HW1 3350   1.668   2.150   3.013
  817SOL    HW2 3351   1.709   2.296   3.074
  818SOL     OW 3352   6.844   1.866   1.207
  818SOL    HW1 3353   6.842   1.915   1.120
  818SOL    HW2 3354   6.835   1.768   1.190
  819SOL     OW 3355   0.416   3.984   3.710
  819SOL    HW1 3356   0.513   3.973   3.733
  819SOL    HW2 3357   0.398   4.078   3.683
  820SOL     OW 3358   1.188   2.988   4.432
  820SOL    HW1 3359   1.094   3.023   4.441
  820SOL    HW2 3360   1.211   2.978   4.336
  821SOL     OW 3361   1.308   3.275   6.999
  821SOL    HW1 3362   1.309   3.195   6.939
  821SOL    HW2 3363   1.294   3.358   6.945
  822SOL     OW 3364   1.379   3.452   4.614
  822SOL    HW1 3365   1.448   3.395   4.568
  822SOL    HW2 3366   1.308   3.476   4.548
  823SOL     OW 3367   2.852   3.662   1.080
  823SOL    HW1 3368   2.858   3.745   1.025
  823SOL    HW2 3369   2.923   3.663   1.150
  824SOL     OW 3370   6.089   2.445   6.100
  824SOL    HW1 3371   6.187   2.469   6.101
  824SOL    HW2 3372   6.073   2.370   6.163
  825SOL     OW 3373   1.955   4.209   2.410
  825SOL    HW1 3374   1.963   4.144   2.335
  825SOL    HW2 3375   1.858   4.230   2.426
  826SOL     OW 3376   0.571   4.116   6.112
  826SOL    HW1 3377   0.557   4.202   6.063
  826SOL    HW2 3378   0.666   4.108   6.141
  827SOL     OW 3379   4.504   6.052   6.922
  827SOL    HW1 3380   4.556   6.066   7.006
  827SOL    HW2 3381   4.496   5.954   6.903
  828SOL     OW 3382   6.367   6.566   6.699
  828SOL    HW1 3383   6.335   6.656   6.727
  828SOL    HW2 3384   6.462   6.554   6.729
  829SOL     OW 3385   3.365   2.981   4.656
  829SOL    HW1 3386   3.359   2.951   4.751
  829SOL    HW2 3387   3.361   3.081   4.652
  830SOL     OW 3388   4.598   3.963   5.326
  830SOL    HW1 3389   4.687   3.947   5.283
  830SOL    HW2 3390   4.603   3.940   5.423
  831SOL     OW 3391   6.650   0.780   4.816
  831SOL    HW1 3392   6.590   0.718   4.765
  831SOL    HW2 3393   6.595   0.854   4.855
  832SOL     OW 3394   2.718   1.265   5.828
  832SOL    HW1 3395   2.811   1.227   5.837
  832SOL    HW2 3396   2.681   1.239   5.738
  833SOL     OW 3397   0.568   0.145   6.273
  833SOL    HW1 3398   0.645   0.138   6.337
  833SOL    HW2 3399   0.534   0.239   6.272
  834SOL     OW 3400   3.334   4.385   5.460
  834SOL    HW1 3401   3.273   4.306   5.448
  834SOL    HW2 3402   3.410   4.378   5.395
  835SOL     OW 3403   4.048   0.449   3.170
  835SOL    HW1 3404   4.142   0.416   3.179
  835SOL    HW2 3405   4.022   0.450   3.074
  836SOL     OW 3406   2.459   0.734   0.333
  836SOL    HW1 3407   2.480   0.651   0.385
  836SOL    HW2 3408   2.408   0.798   0.391
  837SOL     OW 3409   4.011   0.758   5.932
  837SOL    HW1 3410   4.046   0.841   5.976
  837SOL    HW2 3411   4.084   0.691   5.923
  838SOL     OW 3412   2.117   4.731   3.197
  838SOL    HW1 3413   2.082   4.638   3.210
  838SOL    HW2 3414   2.097   4.784   3.280
  839SOL     OW 3415   3.119   1.478   2.042
  839SOL    HW1 3416   3.042   1.493   2.104
  839SOL    HW2 3417   3.173   1.562   2.036
  840SOL     OW 3418   1.177   1.550   6.393
  840SOL    HW1 3419   1.271   1.542   6.427
  840SOL    HW2 3420   1.161   1.645   6.364
  841SOL     OW 3421   0.681   3.603   6.845
  841SOL    HW1 3422   0.581   3.598   6.845
  841SOL    HW2 3423   0.717   3.553   6.923
  842SOL     OW 3424   3.699   5.034   3.773
  842SOL    HW1 3425   3.786   5.003   3.734
  842SOL    HW2 3426   3.624   4.984   3.730
  843SOL     OW 3427   6.653   2.893   1.919
  843SOL    HW1 3428   6.604   2.824   1.972
  843SOL    HW2 3429   6.677   2.970   1.978
  844SOL     OW 3430   5.219   5.508   0.661
  844SOL    HW1 3431   5.201   5.599   0.623
  844SOL    HW2 3432   5.142   5.447   0.641
  845SOL     OW 3433   1.029   4.518   4.881
  845SOL    HW1 3434   0.946   4.541   4.829
  845SOL    HW2 3435   1.064   4.430   4.850
  846SOL     OW 3436   5.915   2.093   0.105
  846SOL    HW1 3437   5.973   2.034   0.049
  846SOL    HW2 3438   5.835   2.122   0.053
  847SOL     OW 3439   5.325   3.544   2.096
  847SOL    HW1 3440   5.295   3.451   2.121
  847SOL    HW2 3441   5.274   3.575   2.016
  848SOL     OW 3442   7.012   0.135   5.922
  848SOL    HW1 3443   6.958   0.051   5.911
  848SOL    HW2 3444   0.092   0.115   5.904
  849SOL     OW 3445   0.376   5.024   4.360
  849SOL    HW1 3446   0.333   4.984   4.441
  849SOL    HW2 3447   0.384   5.123   4.371
  850SOL     OW 3448   3.624   0.580   2.672
  850SOL    HW1 3449   3.581   0.516   2.608
  850SOL    HW2 3450   3.583   0.570   2.762
  851SOL     OW 3451   0.685   0.657   6.150
  851SOL    HW1 3452   0.595   0.619   6.125
  851SOL    HW2 3453   0.746   0.651   6.072
  852SOL     OW 3454   2.204   4.435   6.450
  852SOL    HW1 3455   2.241   4.405   6.363
  852SOL    HW2 3456   2.202   4.534   6.454
  853SOL     OW 3457   1.711   3.505   1.481
  853SOL    HW1 3458   1.664   3.517   1.394
  853SOL    HW2 3459   1.661   3.551   1.553
  854SOL     OW 3460   5.257   5.053   1.759
  854SOL    HW1 3461   5.257   5.125   1.690
  854SOL    HW2 3462   5.270   5.093   1.850
  855SOL     OW 3463   5.768   0.018   1.773
  855SOL    HW1 3464   5.672   0.028   1.746
  855SOL    HW2 3465   5.813   6.970   1.712
  856SOL     OW 3466   1.484   6.838   4.688
  856SOL    HW1 3467   1.581   6.848   4.664
  856SOL    HW2 3468   1.472   6.761   4.751
  857SOL     OW 3469   6.562   3.580   2.064
  857SOL    HW1 3470   6.462   3.581   2.053
  857SOL    HW2 3471   6.585   3.603   2.158
  858SOL     OW 3472   3.201   4.295   1.246
  858SOL    HW1 3473   3.162   4.209   1.214
  858SOL    HW2 3474   3.257   4.278   1.327
  859SOL     OW 3475   6.813   4.781   0.343
  859SOL    HW1 3476   6.731   4.791   0.400
  859SOL    HW2 3477   6.837   4.684   0.336
  860SOL     OW 3478   1.711   4.922   1.535
  860SOL    HW1 3479   1.758   4.939   1.622
  860SOL    HW2 3480   1.741   4.989   1.467
  861SOL     OW 3481   3.187   5.322   5.486
  861SOL    HW1 3482   3.103   5.343   5.435
  861SOL    HW2 3483   3.265   5.361   5.438
  862SOL     OW 3484   4.337   4.645   4.335
  862SOL    HW1 3485   4.416   4.701   4.308
  862SOL    HW2 3486   4.256   4.703   4.342
  863SOL     OW 3487   5.891   1.050   1.007
  863SOL    HW1 3488   5.795   1.076   1.020
  863SOL    HW2 3489   5.896   0.952   0.987
  864SOL     OW 3490   6.011   4.550   2.690
  864SOL    HW1 3491   5.964   4.477   2.640
  864SOL    HW2 3492   5.991   4.541   2.788
  865SOL     OW 3493   1.502   0.465   4.559
  865SOL    HW1 3494   1.427   0.409   4.595
  865SOL    HW2 3495   1.487   0.481   4.461
  866SOL     OW 3496   3.444   1.498   1.270
  866SOL    HW1 3497   3.535   1.478   1.234
  866SOL    HW2 3498   3.435   1.596   1.286
  867SOL     OW 3499   1.653   2.586   5.940
  867SOL    HW1 3500   1.738   2.638   5.951
  867SOL    HW2 3501   1.587   2.641   5.889
  868SOL     OW 3502   5.255   2.917   3.184
  868SOL    HW1 3503   5.346   2.959   3.184
  868SOL    HW2 3504   5.265   2.817   3.179
  869SOL     OW 3505   6.314   4.170   2.484
  869SOL    HW1 3506   6.328   4.088   2.539
  869SOL    HW2 3507   6.277   4.244   2.541
  870SOL     OW 3508   0.234   2.422   0.802
  870SOL    HW1 3509   0.296   2.433   0.880
  870SOL    HW2 3510   0.176   2.503   0.794
  871SOL     OW 3511   5.974   4.009   0.790
  871SOL    HW1 3512   5.916   4.064   0.851
  871SOL    HW2 3513   6.030   4.070   0.733
  872SOL     OW 3514   5.458   2.593   2.906
  872SOL    HW1 3515   5.400   2.646   2.844
  872SOL    HW2 3516   5.533   2.551   2.855
  873SOL     OW 3517   4.656   6.874   5.607
  873SOL    HW1 3518   4.601   6.850   5.528
  873SOL    HW2 3519   4.746   6.904   5.577
  874SOL     OW 3520   0.034   3.902   5.933
  874SOL    HW1 3521   0.113   3.962   5.941
  874SOL    HW2 3522   6.983   3.926   6.002
  875SOL     OW 3523   6.171   4.848   6.545
  875SOL    HW1 3524   6.217   4.929   6.581
  875SOL    HW2 3525   6.140   4.791   6.621
  876SOL     OW 3526   1.036   3.464   1.633
  876SOL    HW1 3527   1.106   3.477   1.703
  876SOL    HW2 3528   1.030   3.546   1.576
  877SOL     OW 3529   5.375   6.064   0.535
  877SOL    HW1 3530   5.406   6.026   0.622
  877SOL    HW2 3531   5.453   6.103   0.486
  878SOL     OW 3532   3.227   3.102   0.627
  878SOL    HW1 3533   3.152   3.043   0.597
  878SOL    HW2 3534   3.293   3.110   0.552
  879SOL     OW 3535   4.444   1.820   2.448
  879SOL    HW1 3536   4.365   1.790   2.396
  879SOL    HW2 3537   4.492   1.740   2.485
  880SOL     OW 3538   3.884   5.415   0.798
  880SOL    HW1 3539   3.856   5.510   0.785
  880SOL    HW2 3540   3.982   5.411   0.815
  881SOL     OW 3541   4.197   5.051   4.854
  881SOL    HW1 3542   4.266   5.088   4.792
  881SOL    HW2 3543   4.229   4.964   4.892
  882SOL     OW 3544   0.981   1.415   4.224
  882SOL    HW1 3545   0.949   1.322   4.243
  882SOL    HW2 3546   1.049   1.441   4.292
  883SOL     OW 3547   2.988   4.648   6.876
  883SOL    HW1 3548   2.956   4.630   6.969
  883SOL    HW2 3549   2.909   4.649   6.813
  884SOL     OW 3550   4.562   3.861   1.291
  884SOL    HW1 3551   4.474   3.909   1.283
  884SOL    HW2 3552   4.557   3.795   1.366
  885SOL     OW 3553   4.958   5.959   6.714
  885SOL    HW1 3554   5.025   6.013   6.664
  885SOL    HW2 3555   4.931   6.008   6.797
  886SOL     OW 3556   4.419   1.167   5.949
  886SOL    HW1 3557   4.511   1.132   5.969
  886SOL    HW2 3558   4.426   1.256   5.906
  887SOL     OW 3559   5.066   0.269   6.479
  887SOL    HW1 3560   5.077   0.193   6.543
  887SOL    HW2 3561   4.989   0.326   6.508
  888SOL     OW 3562   6.115   6.696   3.580
  888SOL    HW1 3563   6.146   6.764   3.646
  888SOL    HW2 3564   6.173   6.615   3.587
  889SOL     OW 3565   1.072   6.642   4.559
  889SOL    HW1 3566   1.091   6.604   4.649
  889SOL    HW2 3567   1.143   6.708   4.535
  890SOL     OW 3568   2.281   4.693   2.291
  890SOL    HW1 3569   2.379   4.713   2.291
  890SOL    HW2 3570   2.266   4.595   2.305
  891SOL     OW 3571   5.760   3.603   6.245
  891SOL    HW1 3572   5.783   3.542   6.320
  891SOL    HW2 3573   5.783   3.559   6.158
  892SOL     OW 3574   2.334   5.647   1.714
  892SOL    HW1 3575   2.431   5.634   1.734
  892SOL    HW2 3576   2.318   5.742   1.687
  893SOL     OW 3577   2.087   6.945   0.909
  893SOL    HW1 3578   2.073   6.914   0.815
  893SOL    HW2 3579   2.181   6.975   0.920
  894SOL     OW 3580   1.509   5.487   3.350
  894SOL    HW1 3581   1.584   5.424   3.369
  894SOL    HW2 3582   1.547   5.575   3.319
  895SOL     OW 3583   1.748   0.206   4.600
  895SOL    HW1 3584   1.689   0.286   4.608
  895SOL    HW2 3585   1.839   0.228   4.634
  896SOL     OW 3586   5.662   0.428   3.650
  896SOL    HW1 3587   5.745   0.419   3.704
  896SOL    HW2 3588   5.653   0.349   3.589
  897SOL     OW 3589   5.081   2.460   6.333
  897SOL    HW1 3590   5.146   2.533   6.314
  897SOL    HW2 3591   4.987   2.495   6.327
  898SOL     OW 3592   6.080   6.394   4.067
  898SOL    HW1 3593   6.162   6.338   4.079
  898SOL    HW2 3594   6.108   6.489   4.047
  899SOL     OW 3595   0.836   4.810   6.463
  899SOL    HW1 3596   0.809   4.724   6.420
  899SOL    HW2 3597   0.813   4.808   6.560
  900SOL     OW 3598   0.613   5.809   3.618
  900SOL    HW1 3599   0.667   5.851   3.692
  900SOL    HW2 3600   0.660   5.726   3.586
  901SOL     OW 3601   5.483   2.701   3.421
  901SOL    HW1 3602   5.546   2.628   3.396
  901SOL    HW2 3603   5.416   2.714   3.347
  902SOL     OW 3604   0.283   6.204   0.062
  902SOL    HW1 3605   0.202   6.199   0.004
  902SOL    HW2 3606   0.260   6.178   0.155
  903SOL     OW 3607   0.499   4.845   6.862
  903SOL    HW1 3608   0.450   4.789   6.929
  903SOL    HW2 3609   0.557   4.911   6.911
  904SOL     OW 3610   1.873   1.587   3.901
  904SOL    HW1 3611   1.803   1.524   3.935
  904SOL    HW2 3612   1.963   1.545   3.911
  905SOL     OW 3613   6.121   2.152   5.859
  905SOL    HW1 3614   6.070   2.132   5.775
  905SOL    HW2 3615   6.067   2.124   5.938
  906SOL     OW 3616   6.044   3.985   5.217
  906SOL    HW1 3617   5.983   4.005   5.293
  906SOL    HW2 3618   6.073   4.070   5.174
  907SOL     OW 3619   6.850   3.596   1.361
  907SOL    HW1 3620   6.752   3.592   1.377
  907SOL    HW2 3621   6.899   3.551   1.436
  908SOL     OW 3622   1.594   0.985   3.189
  908SOL    HW1 3623   1.640   1.037   3.117
  908SOL    HW2 3624   1.606   0.887   3.173
  909SOL     OW 3625   4.377   0.493   1.118
  909SOL    HW1 3626   4.284   0.530   1.125
  909SOL    HW2 3627   4.438   0.547   1.175
  910SOL     OW 3628   1.925   2.155   1.515
  910SOL    HW1 3629   2.009   2.145   1.462
  910SOL    HW2 3630   1.861   2.082   1.491
  911SOL     OW 3631   0.448   4.508   0.569
  911SOL    HW1 3632   0.381   4.472   0.504
  911SOL    HW2 3633   0.527   4.446   0.573
  912SOL     OW 3634   1.240   0.585   6.040
  912SOL    HW1 3635   1.310   0.569   6.110
  912SOL    HW2 3636   1.206   0.498   6.006
  913SOL     OW 3637   2.101   1.561   1.623
  913SOL    HW1 3638   2.159   1.628   1.576
  913SOL    HW2 3639   2.077   1.596   1.714
  914SOL     OW 3640   2.696   6.362   3.373
  914SOL    HW1 3641   2.739   6.273   3.381
  914SOL    HW2 3642   2.740   6.427   3.436
  915SOL     OW 3643   1.412   2.046   6.678
  915SOL    HW1 3644   1.407   2.141   6.708
  915SOL    HW2 3645   1.494   2.003   6.717
  916SOL     OW 3646   1.072   3.412   2.677
  916SOL    HW1 3647   1.060   3.503   2.638
  916SOL    HW2 3648   1.034   3.344   2.613
  917SOL     OW 3649   3.364   2.368   6.648
  917SOL    HW1 3650   3.351   2.340   6.743
  917SOL    HW2 3651   3.338   2.464   6.637
  918SOL     OW 3652   1.534   0.667   5.593
  918SOL    HW1 3653   1.556   0.763   5.577
  918SOL    HW2 3654   1.525   0.619   5.506
  919SOL     OW 3655   2.350   0.158   1.134
  919SOL    HW1 3656   2.403   0.078   1.105
  919SOL    HW2 3657   2.308   0.200   1.053
  920SOL     OW 3658   2.224   0.974   3.995
  920SOL    HW1 3659   2.248   0.897   3.936
  920SOL    HW2 3660   2.264   1.057   3.959
  921SOL     OW 3661   4.993   4.945   6.215
  921SOL    HW1 3662   5.056   4.995   6.155
  921SOL    HW2 3663   4.919   4.905   6.161
  922SOL     OW 3664   2.010   3.854   6.205
  922SOL    HW1 3665   1.949   3.901   6.141
  922SOL    HW2 3666   2.094   3.827   6.157
  923SOL     OW 3667   4.201   1.332   6.690
  923SOL    HW1 3668   4.129   1.382   6.643
  923SOL    HW2 3669   4.184   1.233   6.682
  924SOL     OW 3670   6.385   4.063   3.078
  924SOL    HW1 3671   6.412   4.011   3.159
  924SOL    HW2 3672   6.286   4.077   3.080
  925SOL     OW 3673   6.083   2.307   3.162
  925SOL    HW1 3674   6.012   2.377   3.168
  925SOL    HW2 3675   6.099   2.284   3.066
  926SOL     OW 3676   5.579   6.271   1.231
  926SOL    HW1 3677   5.496   6.311   1.268
  926SOL    HW2 3678   5.621   6.335   1.166
  927SOL     OW 3679   4.735   5.121   4.890
  927SOL    HW1 3680   4.676   5.042   4.909
  927SOL    HW2 3681   4.815   5.091   4.838
  928SOL     OW 3682   0.617   1.431   1.278
  928SOL    HW1 3683   0.643   1.446   1.182
  928SOL    HW2 3684   0.686   1.472   1.338
  929SOL     OW 3685   0.447   2.440   2.501
  929SOL    HW1 3686   0.356   2.456   2.464
  929SOL    HW2 3687   0.460   2.343   2.519
  930SOL     OW 3688   5.179   5.708   2.918
  930SOL    HW1 3689   5.146   5.704   3.012
  930SOL    HW2 3690   5.123   5.648   2.860
  931SOL     OW 3691   1.723   2.977   2.480
  931SOL    HW1 3692   1.766   2.887   2.469
  931SOL    HW2 3693   1.751   3.037   2.404
  932SOL     OW 3694   4.447   6.413   1.269
  932SOL    HW1 3695   4.443   6.314   1.275
  932SOL    HW2 3696   4.388   6.454   1.338
  933SOL     OW 3697   1.703   5.937   3.859
  933SOL    HW1 3698   1.682   5.847   3.820
  933SOL    HW2 3699   1.756   5.991   3.793
  934SOL     OW 3700   3.368   0.566   5.353
  934SOL    HW1 3701   3.435   0.638   5.371
  934SOL    HW2 3702   3.356   0.555   5.254
  935SOL     OW 3703   2.193   3.054   5.960
  935SOL    HW1 3704   2.110   3.082   6.008
  935SOL    HW2 3705   2.268   3.045   6.026
  936SOL     OW 3706   0.133   2.145   1.830
  936SOL    HW1 3707   0.041   2.179   1.811
  936SOL    HW2 3708   0.197   2.183   1.762
  937SOL     OW 3709   5.151   2.290   3.920
  937SOL    HW1 3710   5.131   2.192   3.917
  937SOL    HW2 3711   5.065   2.341   3.923
  938SOL     OW 3712   6.915   1.678   0.253
  938SOL    HW1 3713   6.940   1.583   0.235
  938SOL    HW2 3714   6.905   1.692   0.352
  939SOL     OW 3715   6.496   0.787   5.985
  939SOL    HW1 3716   6.523   0.845   5.909
  939SOL    HW2 3717   6.516   0.691   5.963
  940SOL     OW 3718   0.887   0.701   4.175
  940SOL    HW1 3719   0.852   0.740   4.089
  940SOL    HW2 3720   0.985   0.721   4.183
  941SOL     OW 3721   5.101   3.057   5.288
  941SOL    HW1 3722   5.191   3.099   5.282
  941SOL    HW2 3723   5.043   3.111   5.350
  942SOL     OW 3724   5.203   0.096   5.308
  942SOL    HW1 3725   5.120   0.040   5.313
  942SOL    HW2 3726   5.181   0.187   5.274
  943SOL     OW 3727   5.979   1.977   0.345
  943SOL    HW1 3728   5.889   1.966   0.388
  943SOL    HW2 3729   5.968   2.020   0.256
  944SOL     OW 3730   5.807   4.066   4.884
  944SOL    HW1 3731   5.845   4.035   4.796
  944SOL    HW2 3732   5.872   4.128   4.928
  945SOL     OW 3733   5.387   3.610   5.332
  945SOL    HW1 3734   5.364   3.679   5.264
  945SOL    HW2 3735   5.442   3.538   5.289
  946SOL     OW 3736   5.701   2.980   6.197
  946SOL    HW1 3737   5.765   3.054   6.175
  946SOL    HW2 3738   5.692   2.920   6.117
  947SOL     OW 3739   1.142   2.876   5.581
  947SOL    HW1 3740   1.174   2.964   5.547
  947SOL    HW2 3741   1.175   2.803   5.520
  948SOL     OW 3742   3.902   1.847   0.498
  948SOL    HW1 3743   3.997   1.818   0.506
  948SOL    HW2 3744   3.878   1.855   0.401
  949SOL     OW 3745   6.063   5.659   6.788
  949SOL    HW1 3746   6.079   5.642   6.690
  949SOL    HW2 3747   5.966   5.678   6.803
  950SOL     OW 3748   4.358   5.186   0.534
  950SOL    HW1 3749   4.425   5.217   0.602
  950SOL    HW2 3750   4.366   5.241   0.451
  951SOL     OW 3751   0.946   2.523   3.691
  951SOL    HW1 3752   0.959   2.525   3.790
  951SOL    HW2 3753   0.935   2.428   3.661
  952SOL     OW 3754   5.246   1.330   1.551
  952SOL    HW1 3755   5.305   1.404   1.520
  952SOL    HW2 3756   5.160   1.368   1.584
  953SOL     OW 3757   3.783   6.547   6.064
  953SOL    HW1 3758   3.746   6.640   6.062
  953SOL    HW2 3759   3.779   6.512   6.158
  954SOL     OW 3760   0.626   6.962   1.308
  954SOL    HW1 3761   0.646   6.952   1.211
  954SOL    HW2 3762   0.531   6.937   1.326
  955SOL     OW 3763   6.500   6.666   2.509
  955SOL    HW1 3764   6.577   6.660   2.446
  955SOL    HW2 3765   6.420   6.620   2.469
  956SOL     OW 3766   1.114   2.541   6.987
  956SOL    HW1 3767   1.029   2.514   6.941
  956SOL    HW2 3768   1.175   2.462   6.994
  957SOL     OW 3769   2.376   6.450   5.136
  957SOL    HW1 3770   2.291   6.441   5.188
  957SOL    HW2 3771   2.454   6.431   5.196
  958SOL     OW 3772   4.919   2.476   0.622
  958SOL    HW1 3773   4.875   2.402   0.674
  958SOL    HW2 3774   4.911   2.562   0.673
  959SOL     OW 3775   1.567   4.008   2.256
  959SOL    HW1 3776   1.505   4.077   2.294
  959SOL    HW2 3777   1.533   3.917   2.278
  960SOL     OW 3778   1.435   5.615   5.598
  960SOL    HW1 3779   1.398   5.533   5.641
  960SOL    HW2 3780   1.532   5.623   5.621
  961SOL     OW 3781   3.439   6.922   1.345
  961SOL    HW1 3782   3.445   6.944   1.247
  961SOL    HW2 3783   3.358   6.965   1.384
  962SOL     OW 3784   1.639   6.500   3.922
  962SOL    HW1 3785   1.582   6.576   3.952
  962SOL    HW2 3786   1.602   6.462   3.837
  963SOL     OW 3787   6.023   0.336   2.322
  963SOL    HW1 3788   5.947   0.330   2.386
  963SOL    HW2 3789   6.013   0.419   2.266
  964SOL     OW 3790   5.163   3.661   1.031
  964SOL    HW1 3791   5.135   3.576   0.988
  964SOL    HW2 3792   5.263   3.666   1.036
  965SOL     OW 3793   1.276   2.386   0.797
  965SOL    HW1 3794   1.248   2.398   0.702
  965SOL    HW2 3795   1.298   2.290   0.813
  966SOL     OW 3796   6.890   2.219   1.726
  966SOL    HW1 3797   6.830   2.146   1.692
  966SOL    HW2 3798   6.835   2.288   1.773
  967SOL     OW 3799   0.949   5.961   2.583
  967SOL    HW1 3800   0.890   6.019   2.641
  967SOL    HW2 3801   1.044   5.986   2.597
  968SOL     OW 3802   6.709   4.237   2.040
  968SOL    HW1 3803   6.685   4.149   1.999
  968SOL    HW2 3804   6.711   4.308   1.970
  969SOL     OW 3805   4.122   5.833   6.704
  969SOL    HW1 3806   4.220   5.853   6.710
  969SOL    HW2 3807   4.092   5.845   6.609
  970SOL     OW 3808   4.404   2.425   5.363
  970SOL    HW1 3809   4.455   2.407   5.447
  970SOL    HW2 3810   4.449   2.498   5.312
  971SOL     OW 3811   0.871   2.564   1.435
  971SOL    HW1 3812   0.773   2.545   1.437
  971SOL    HW2 3813   0.915   2.517   1.512
  972SOL     OW 3814   6.751   6.389   1.796
  972SOL    HW1 3815   6.680   6.322   1.775
  972SOL    HW2 3816   6.794   6.365   1.883
  973SOL     OW 3817   5.801   4.046   5.761
  973SOL    HW1 3818   5.892   4.023   5.726
  973SOL    HW2 3819   5.731   4.001   5.705
  974SOL     OW 3820   3.026   1.675   3.981
  974SOL    HW1 3821   3.123   1.654   3.995
  974SOL    HW2 3822   3.017   1.751   3.917
  975SOL     OW 3823   3.695   6.393   5.444
  975SOL    HW1 3824   3.622   6.339   5.401
  975SOL    HW2 3825   3.685   6.489   5.418
  976SOL     OW 3826   7.006   6.447   3.608
  976SOL    HW1 3827   7.014   6.515   3.681
  976SOL    HW2 3828   6.930   6.386   3.627
  977SOL     OW 3829   1.712   2.519   2.773
  977SOL    HW1 3830   1.639   2.450   2.771
  977SOL    HW2 3831   1.726   2.556   2.681
  978SOL     OW 3832   6.060   3.445   5.106
  978SOL    HW1 3833   6.157   3.468   5.116
  978SOL    HW2 3834   6.010   3.525   5.075
  979SOL     OW 3835   5.639   1.318   3.447
  979SOL    HW1 3836   5.613   1.314   3.350
  979SOL    HW2 3837   5.652   1.413   3.474
  980SOL     OW 3838   6.552   0.895   4.395
  980SOL    HW1 3839   6.492   0.960   4.441
  980SOL    HW2 3840   6.647   0.921   4.410
  981SOL     OW 3841   0.038   3.295   5.430
  981SOL    HW1 3842   0.030   3.353   5.511
  981SOL    HW2 3843   0.018   3.349   5.348
  982SOL     OW 3844   1.596   2.893   1.640
  982SOL    HW1 3845   1.676   2.873   1.584
  982SOL    HW2 3846   1.531   2.817   1.635
  983SOL     OW 3847   5.756   1.548   2.951
  983SOL    HW1 3848   5.840   1.597   2.927
  983SOL    HW2 3849   5.780   1.461   2.993
  984SOL     OW 3850   4.888   1.260   4.683
  984SOL    HW1 3851   4.881   1.306   4.594
  984SOL    HW2 3852   4.866   1.324   4.756
  985SOL     OW 3853   3.061   4.800   0.418
  985SOL    HW1 3854   3.047   4.816   0.320
  985SOL    HW2 3855   3.097   4.884   0.460
  986SOL     OW 3856   4.085   5.106   6.448
  986SOL    HW1 3857   4.072   5.198   6.410
  986SOL    HW2 3858   4.118   5.113   6.542
  987SOL     OW 3859   3.083   6.783   2.256
  987SOL    HW1 3860   3.140   6.810   2.178
  987SOL    HW2 3861   3.141   6.771   2.337
  988SOL     OW 3862   3.517   4.173   2.100
  988SOL    HW1 3863   3.582   4.239   2.062
  988SOL    HW2 3864   3.557   4.082   2.100
  989SOL     OW 3865   1.145   0.094   4.785
  989SOL    HW1 3866   1.123   0.018   4.846
  989SOL    HW2 3867   1.061   0.135   4.751
  990SOL     OW 3868   4.692   6.400   3.668
  990SOL    HW1 3869   4.754   6.474   3.694
  990SOL    HW2 3870   4.743   6.314   3.665
  991SOL     OW 3871   6.423   1.404   5.296
  991SOL    HW1 3872   6.456   1.487   5.339
  991SOL    HW2 3873   6.474   1.325   5.331
  992SOL     OW 3874   0.177   3.026   0.771
  992SOL    HW1 3875   0.260   3.069   0.804
  992SOL    HW2 3876   0.109   3.096   0.750
  993SOL     OW 3877   3.308   5.138   3.938
  993SOL    HW1 3878   3.329   5.156   3.842
  993SOL    HW2 3879   3.222   5.184   3.962
  994SOL     OW 3880   3.114   3.916   2.137
  994SOL    HW1 3881   3.049   3.855   2.091
  994SOL    HW2 3882   3.162   3.971   2.069
  995SOL     OW 3883   0.519   1.101   4.951
  995SOL    HW1 3884   0.466   1.181   4.980
  995SOL    HW2 3885   0.512   1.029   5.020
  996SOL     OW 3886   1.180   3.708   1.849
  996SOL    HW1 3887   1.110   3.780   1.846
  996SOL    HW2 3888   1.210   3.696   1.944
  997SOL     OW 3889   0.012   1.288   1.473
  997SOL    HW1 3890   0.092   1.347   1.462
  997SOL    HW2 3891   0.023   1.206   1.417
  998SOL     OW 3892   4.784   0.239   2.989
  998SOL    HW1 3893   4.880   0.215   2.999
  998SOL    HW2 3894   4.752   0.286   3.072
  999SOL     OW 3895   0.052   5.532   1.341
  999SOL    HW1 3896   0.096   5.445   1.363
  999SOL    HW2 3897   0.102   5.577   1.268
 1000SOL     OW 3898   4.272   2.030   4.088
 1000SOL    HW1 3899   4.297   2.121   4.054
 1000SOL    HW2 3900   4.320   1.961   4.034
 1001SOL     OW 3901   4.459   0.112   5.527
 1001SOL    HW1 3902   4.436   0.066   5.613
 1001SOL    HW2 3903   4.387   0.097   5.460
 1002SOL     OW 3904   6.805   1.431   0.398
 1002SOL    HW1 3905   6.823   1.411   0.495
 1002SOL    HW2 3906   6.726   1.378   0.368
 1003SOL     OW 3907   4.540   4.808   2.622
 1003SOL    HW1 3908   4.610   4.758   2.672
 1003SOL    HW2 3909   4.489   4.867   2.685
 1004SOL     OW 3910   5.878   5.498   0.468
 1004SOL    HW1 3911   5.965   5.468   0.506
 1004SOL    HW2 3912   5.803   5.465   0.525
 1005SOL     OW 3913   6.510   6.365   3.594
 1005SOL    HW1 3914   6.543   6.284   3.546
 1005SOL    HW2 3915   6.420   6.391   3.557
 1006SOL     OW 3916   2.303   4.349   0.831
 1006SOL    HW1 3917   2.248   4.374   0.911
 1006SOL    HW2 3918   2.373   4.283   0.859
 1007SOL     OW 3919   0.641   0.428   3.529
 1007SOL    HW1 3920   0.617   0.525   3.521
 1007SOL    HW2 3921   0.646   0.404   3.626
 1008SOL     OW 3922   2.426   2.681   3.577
 1008SOL    HW1 3923   2.394   2.600   3.527
 1008SOL    HW2 3924   2.502   2.723   3.528
 1009SOL     OW 3925   1.460   5.584   5.169
 1009SOL    HW1 3926   1.475   5.493   5.207
 1009SOL    HW2 3927   1.367   5.613   5.187
 1010SOL     OW 3928   4.513   1.079   6.642
 1010SOL    HW1 3929   4.563   0.993   6.643
 1010SOL    HW2 3930   4.480   1.101   6.734
 1011SOL     OW 3931   3.763   5.854   3.812
 1011SOL    HW1 3932   3.734   5.948   3.793
 1011SOL    HW2 3933   3.700   5.790   3.768
 1012SOL     OW 3934   4.739   5.659   0.188
 1012SOL    HW1 3935   4.772   5.729   0.126
 1012SOL    HW2 3936   4.724   5.574   0.137
 1013SOL     OW 3937   0.384   1.601   1.298
 1013SOL    HW1 3938   0.463   1.543   1.316
 1013SOL    HW2 3939   0.415   1.690   1.263
 1014SOL     OW 3940   5.250   0.682   6.103
 1014SOL    HW1 3941   5.254   0.782   6.102
 1014SOL    HW2 3942   5.334   0.646   6.141
 1015SOL     OW 3943   3.098   5.977   4.120
 1015SOL    HW1 3944   3.051   6.005   4.036
 1015SOL    HW2 3945   3.172   6.040   4.140
 1016SOL     OW 3946   4.490   2.790   1.249
 1016SOL    HW1 3947   4.498   2.741   1.162
 1016SOL    HW2 3948   4.433   2.872   1.236
 1017SOL     OW 3949   4.630   1.924   6.974
 1017SOL    HW1 3950   4.688   1.857   0.003
 1017SOL    HW2 3951   4.581   1.880   6.899
 1018SOL     OW 3952   1.828   3.433   2.361
 1018SOL    HW1 3953   1.795   3.517   2.318
 1018SOL    HW2 3954   1.927   3.429   2.354
 1019SOL     OW 3955   6.175   0.657   0.185
 1019SOL    HW1 3956   6.165   0.731   0.251
 1019SOL    HW2 3957   6.223   0.690   0.104
 1020SOL     OW 3958   2.928   1.907   1.292
 1020SOL    HW1 3959   3.024   1.930   1.277
 1020SOL    HW2 3960   2.921   1.810   1.316
 1021SOL     OW 3961   6.471   1.896   1.189
 1021SOL    HW1 3962   6.535   1.819   1.185
 1021SOL    HW2 3963   6.496   1.964   1.120
 1022SOL     OW 3964   4.079   2.694   6.731
 1022SOL    HW1 3965   4.086   2.781   6.681
 1022SOL    HW2 3966   4.148   2.631   6.697
 1023SOL     OW 3967   5.047   1.164   3.927
 1023SOL    HW1 3968   5.132   1.211   3.903
 1023SOL    HW2 3969   5.038   1.161   4.026
 1024SOL     OW 3970   6.181   1.678   3.624
 1024SOL    HW1 3971   6.195   1.686   3.526
 1024SOL    HW2 3972   6.093   1.634   3.641
 1025SOL     OW 3973   3.105   4.523   1.143
 1025SOL    HW1 3974   3.141   4.600   1.196
 1025SOL    HW2 3975   3.139   4.438   1.181
 1026SOL     OW 3976   1.257   2.932   6.563
 1026SOL    HW1 3977   1.243   2.835   6.581
 1026SOL    HW2 3978   1.355   2.950   6.552
 1027SOL     OW 3979   2.572   4.963   2.205
 1027SOL    HW1 3980   2.510   4.903   2.154
 1027SOL    HW2 3981   2.545   4.965   2.301
 1028SOL     OW 3982   2.172   5.816   0.994
 1028SOL    HW1 3983   2.134   5.880   1.061
 1028SOL    HW2 3984   2.129   5.726   1.005
 1029SOL     OW 3985   3.368   0.362   5.740
 1029SOL    HW1 3986   3.319   0.371   5.827
 1029SOL    HW2 3987   3.401   0.453   5.711
 1030SOL     OW 3988   3.671   4.197   4.924
 1030SOL    HW1 3989   3.658   4.296   4.928
 1030SOL    HW2 3990   3.747   4.171   4.984
 1031SOL     OW 3991   2.272   5.392   1.670
 1031SOL    HW1 3992   2.366   5.356   1.671
 1031SOL    HW2 3993   2.274   5.489   1.696
 1032SOL     OW 3994   1.944   0.924   4.255
 1032SOL    HW1 3995   1.944   0.835   4.299
 1032SOL    HW2 3996   2.026   0.975   4.281
 1033SOL     OW 3997   1.913   6.195   3.161
 1033SOL    HW1 3998   1.990   6.183   3.099
 1033SOL    HW2 3999   1.935   6.153   3.249
 1034SOL     OW 4000   1.304   5.824   2.851
 1034SOL    HW1 4001   1.258   5.909   2.826
 1034SOL    HW2 4002   1.403   5.836   2.843
 1035SOL     OW 4003   2.936   0.991   4.321
 1035SOL    HW1 4004   2.936   1.090   4.302
 1035SOL    HW2 4005   2.891   0.943   4.246
 1036SOL     OW 4006   4.394   0.786   6.747
 1036SOL    HW1 4007   4.459   0.756   6.677
 1036SOL    HW2 4008   4.442   0.802   6.833
 1037SOL     OW 4009   3.044   1.883   6.342
 1037SOL    HW1 4010   3.045   1.807   6.407
 1037SOL    HW2 4011   3.056   1.969   6.392
 1038SOL     OW 4012   2.641   1.308   4.499
 1038SOL    HW1 4013   2.578   1.315   4.576
 1038SOL    HW2 4014   2.677   1.215   4.494
 1039SOL     OW 4015   4.028   1.253   3.577
 1039SOL    HW1 4016   4.122   1.285   3.572
 1039SOL    HW2 4017   3.984   1.266   3.488
 1040SOL     OW 4018   6.357   3.924   3.540
 1040SOL    HW1 4019   6.428   3.950   3.605
 1040SOL    HW2 4020   6.398   3.912   3.449
 1041SOL     OW 4021   0.906   6.839   4.738
 1041SOL    HW1 4022   0.940   6.901   4.667
 1041SOL    HW2 4023   0.940   6.747   4.720
 1042SOL     OW 4024   5.245   3.941   0.856
 1042SOL    HW1 4025   5.267   3.986   0.942
 1042SOL    HW2 4026   5.327   3.898   0.819
 1043SOL     OW 4027   3.265   1.087   6.464
 1043SOL    HW1 4028   3.181   1.081   6.517
 1043SOL    HW2 4029   3.343   1.058   6.520
 1044SOL     OW 4030   4.013   3.753   1.869
 1044SOL    HW1 4031   4.099   3.784   1.830
 1044SOL    HW2 4032   4.031   3.689   1.944
 1045SOL     OW 4033   3.490   1.446   3.505
 1045SOL    HW1 4034   3.562   1.441   3.575
 1045SOL    HW2 4035   3.532   1.438   3.415
 1046SOL     OW 4036   3.882   0.974   1.985
 1046SOL    HW1 4037   3.941   1.053   2.002
 1046SOL    HW2 4038   3.786   1.002   1.989
 1047SOL     OW 4039   0.873   5.017   1.867
 1047SOL    HW1 4040   0.807   4.942   1.873
 1047SOL    HW2 4041   0.949   4.990   1.807
 1048SOL     OW 4042   6.457   4.556   5.323
 1048SOL    HW1 4043   6.448   4.467   5.279
 1048SOL    HW2 4044   6.529   4.608   5.278
 1049SOL     OW 4045   1.054   3.081   4.991
 1049SOL    HW1 4046   1.085   3.014   4.923
 1049SOL    HW2 4047   1.089   3.171   4.966
 1050SOL     OW 4048   3.380   0.736   6.764
 1050SOL    HW1 4049   3.312   0.663   6.751
 1050SOL    HW2 4050   3.333   0.822   6.784
 1051SOL     OW 4051   4.701   5.291   1.760
 1051SOL    HW1 4052   4.785   5.268   1.809
 1051SOL    HW2 4053   4.659   5.371   1.804
 1052SOL     OW 4054   3.103   6.818   4.089
 1052SOL    HW1 4055   3.172   6.755   4.125
 1052SOL    HW2 4056   3.013   6.789   4.121
 1053SOL     OW 4057   4.614   4.901   3.231
 1053SOL    HW1 4058   4.622   4.801   3.235
 1053SOL    HW2 4059   4.520   4.927   3.254
 1054SOL     OW 4060   3.750   6.210   3.865
 1054SOL    HW1 4061   3.849   6.195   3.861
 1054SOL    HW2 4062   3.729   6.303   3.833
 1055SOL     OW 4063   4.574   5.209   4.496
 1055SOL    HW1 4064   4.607   5.262   4.574
 1055SOL    HW2 4065   4.484   5.171   4.518
 1056SOL     OW 4066   1.249   5.798   5.644
 1056SOL    HW1 4067   1.319   5.727   5.639
 1056SOL    HW2 4068   1.198   5.801   5.559
 1057SOL     OW 4069   3.753   4.162   1.740
 1057SOL    HW1 4070   3.797   4.098   1.803
 1057SOL    HW2 4071   3.669   4.120   1.704
 1058SOL     OW 4072   3.726   0.308   1.334
 1058SOL    HW1 4073   3.756   0.262   1.251
 1058SOL    HW2 4074   3.703   0.240   1.403
 1059SOL     OW 4075   3.159   1.532   1.174
 1059SOL    HW1 4076   3.158   1.624   1.135
 1059SOL    HW2 4077   3.247   1.518   1.221
 1060SOL     OW 4078   2.593   2.111   5.143
 1060SOL    HW1 4079   2.566   2.115   5.047
 1060SOL    HW2 4080   2.512   2.097   5.200
 1061SOL     OW 4081   3.131   6.302   1.308
 1061SOL    HW1 4082   3.198   6.346   1.368
 1061SOL    HW2 4083   3.155   6.321   1.212
 1062SOL     OW 4084   5.000   4.336   5.547
 1062SOL    HW1 4085   4.946   4.287   5.615
 1062SOL    HW2 4086   4.949   4.343   5.461
 1063SOL     OW 4087   2.427   2.495   5.776
 1063SOL    HW1 4088   2.467   2.412   5.816
 1063SOL    HW2 4089   2.498   2.563   5.761
 1064SOL     OW 4090   0.085   3.631   1.672
 1064SOL    HW1 4091   7.004   3.650   1.672
 1064SOL    HW2 4092   0.115   3.613   1.578
 1065SOL     OW 4093   5.564   5.616   5.256
 1065SOL    HW1 4094   5.579   5.553   5.332
 1065SOL    HW2 4095   5.599   5.576   5.172
 1066SOL     OW 4096   3.641   0.557   3.774
 1066SOL    HW1 4097   3.580   0.518   3.843
 1066SOL    HW2 4098   3.591   0.567   3.687
 1067SOL     OW 4099   1.807   3.125   1.471
 1067SOL    HW1 4100   1.748   3.141   1.392
 1067SOL    HW2 4101   1.806   3.028   1.494
 1068SOL     OW 4102   0.770   3.871   1.257
 1068SOL    HW1 4103   0.721   3.951   1.222
 1068SOL    HW2 4104   0.780   3.803   1.184
 1069SOL     OW 4105   3.724   3.837   1.573
 1069SOL    HW1 4106   3.667   3.910   1.613
 1069SOL    HW2 4107   3.725   3.847   1.474
 1070SOL     OW 4108   2.325   0.380   0.268
 1070SOL    HW1 4109   2.295   0.431   0.187
 1070SOL    HW2 4110   2.351   0.287   0.241
 1071SOL     OW 4111   4.325   6.171   3.753
 1071SOL    HW1 4112   4.379   6.099   3.798
 1071SOL    HW2 4113   4.337   6.165   3.654
 1072SOL     OW 4114   3.723   5.762   3.019
 1072SOL    HW1 4115   3.624   5.752   3.019
 1072SOL    HW2 4116   3.750   5.832   2.953
 1073SOL     OW 4117   2.946   4.811   2.858
 1073SOL    HW1 4118   2.979   4.825   2.765
 1073SOL    HW2 4119   3.017   4.840   2.923
 1074SOL     OW 4120   1.484   5.132   2.245
 1074SOL    HW1 4121   1.449   5.184   2.323
 1074SOL    HW2 4122   1.578   5.159   2.226
 1075SOL     OW 4123   0.227   4.236   2.890
 1075SOL    HW1 4124   0.326   4.243   2.900
 1075SOL    HW2 4125   0.182   4.262   2.975
 1076SOL     OW 4126   0.179   4.774   3.405
 1076SOL    HW1 4127   0.128   4.734   3.329
 1076SOL    HW2 4128   0.269   4.802   3.374
 1077SOL     OW 4129   4.704   0.569   0.843
 1077SOL    HW1 4130   4.722   0.503   0.915
 1077SOL    HW2 4131   4.635   0.635   0.873
 1078SOL     OW 4132   0.739   3.062   1.862
 1078SOL    HW1 4133   0.761   3.082   1.766
 1078SOL    HW2 4134   0.822   3.070   1.917
 1079SOL     OW 4135   2.499   5.027   2.475
 1079SOL    HW1 4136   2.513   4.952   2.539
 1079SOL    HW2 4137   2.442   5.097   2.518
 1080SOL     OW 4138   1.321   5.398   4.508
 1080SOL    HW1 4139   1.296   5.331   4.438
 1080SOL    HW2 4140   1.247   5.405   4.575
 1081SOL     OW 4141   1.022   1.193   0.419
 1081SOL    HW1 4142   1.014   1.268   0.354
 1081SOL    HW2 4143   1.010   1.106   0.371
 1082SOL     OW 4144   2.048   0.048   6.940
 1082SOL    HW1 4145   2.096   0.079   6.857
 1082SOL    HW2 4146   2.049   0.121   7.008
 1083SOL     OW 4147   3.785   2.587   1.464
 1083SOL    HW1 4148   3.829   2.544   1.543
 1083SOL    HW2 4149   3.752   2.677   1.490
 1084SOL     OW 4150   6.403   3.711   0.302
 1084SOL    HW1 4151   6.390   3.646   0.227
 1084SOL    HW2 4152   6.361   3.674   0.385
 1085SOL     OW 4153   2.484   4.638   3.262
 1085SOL    HW1 4154   2.473   4.727   3.218
 1085SOL    HW2 4155   2.525   4.574   3.197
 1086SOL     OW 4156   4.215   5.386   2.086
 1086SOL    HW1 4157   4.223   5.292   2.117
 1086SOL    HW2 4158   4.219   5.389   1.986
 1087SOL     OW 4159   3.778   3.193   5.327
 1087SOL    HW1 4160   3.787   3.288   5.296
 1087SOL    HW2 4161   3.712   3.145   5.269
 1088SOL     OW 4162   5.507   4.082   3.673
 1088SOL    HW1 4163   5.411   4.077   3.647
 1088SOL    HW2 4164   5.517   4.054   3.769
 1089SOL     OW 4165   5.807   0.165   2.968
 1089SOL    HW1 4166   5.873   0.216   3.023
 1089SOL    HW2 4167   5.741   0.121   3.029
 1090SOL     OW 4168   1.098   1.962   5.352
 1090SOL    HW1 4169   1.043   1.978   5.270
 1090SOL    HW2 4170   1.175   1.902   5.329
 1091SOL     OW 4171   0.839   2.466   4.876
 1091SOL    HW1 4172   0.744   2.498   4.874
 1091SOL    HW2 4173   0.895   2.530   4.929
 1092SOL     OW 4174   2.212   4.437   1.094
 1092SOL    HW1 4175   2.296   4.472   1.136
 1092SOL    HW2 4176   2.153   4.514   1.068
 1093SOL     OW 4177   0.311   1.731   2.687
 1093SOL    HW1 4178   0.287   1.828   2.686
 1093SOL    HW2 4179   0.233   1.676   2.658
 1094SOL     OW 4180   0.668   6.231   1.627
 1094SOL    HW1 4181   0.767   6.217   1.636
 1094SOL    HW2 4182   0.639   6.308   1.684
 1095SOL     OW 4183   5.859   3.440   6.041
 1095SOL    HW1 4184   5.824   3.354   6.005
 1095SOL    HW2 4185   5.932   3.473   5.981
 1096SOL     OW 4186   3.894   4.335   1.544
 1096SOL    HW1 4187   3.836   4.298   1.617
 1096SOL    HW2 4188   3.966   4.269   1.522
 1097SOL     OW 4189   1.971   4.658   5.235
 1097SOL    HW1 4190   1.884   4.619   5.264
 1097SOL    HW2 4191   2.039   4.646   5.308
 1098SOL     OW 4192   4.339   1.285   3.287
 1098SOL    HW1 4193   4.327   1.196   3.333
 1098SOL    HW2 4194   4.295   1.282   3.197
 1099SOL     OW 4195   3.901   1.611   2.456
 1099SOL    HW1 4196   3.903   1.520   2.414
 1099SOL    HW2 4197   3.915   1.680   2.385
 1100SOL     OW 4198   0.585   0.522   0.896
 1100SOL    HW1 4199   0.597   0.591   0.825
 1100SOL    HW2 4200   0.564   0.566   0.983
 1101SOL     OW 4201   6.106   2.555   0.990
 1101SOL    HW1 4202   6.170   2.609   0.935
 1101SOL    HW2 4203   6.015   2.596   0.983
 1102SOL     OW 4204   0.680   4.506   3.843
 1102SOL    HW1 4205   0.695   4.430   3.779
 1102SOL    HW2 4206   0.752   4.506   3.913
 1103SOL     OW 4207   0.420   3.233   1.530
 1103SOL    HW1 4208   0.393   3.199   1.440
 1103SOL    HW2 4209   0.518   3.218   1.544
 1104SOL     OW 4210   2.779   5.195   5.562
 1104SOL    HW1 4211   2.721   5.193   5.644
 1104SOL    HW2 4212   2.733   5.147   5.487
 1105SOL     OW 4213   4.447   5.763   0.510
 1105SOL    HW1 4214   4.389   5.746   0.589
 1105SOL    HW2 4215   4.401   5.827   0.448
 1106SOL     OW 4216   1.486   1.722   5.507
 1106SOL    HW1 4217   1.548   1.673   5.569
 1106SOL    HW2 4218   1.411   1.762   5.560
 1107SOL     OW 4219   1.003   0.216   1.727
 1107SOL    HW1 4220   1.025   0.139   1.666
 1107SOL    HW2 4221   1.064   0.292   1.707
 1108SOL     OW 4222   1.611   1.543   5.691
 1108SOL    HW1 4223   1.590   1.632   5.732
 1108SOL    HW2 4224   1.607   1.473   5.762
 1109SOL     OW 4225   4.540   1.266   3.531
 1109SOL    HW1 4226   4.551   1.170   3.556
 1109SOL    HW2 4227   4.578   1.281   3.440
 1110SOL     OW 4228   3.538   2.799   2.246
 1110SOL    HW1 4229   3.561   2.729   2.314
 1110SOL    HW2 4230   3.570   2.770   2.156
 1111SOL     OW 4231   5.633   6.822   6.838
 1111SOL    HW1 4232   5.539   6.791   6.828
 1111SOL    HW2 4233   5.634   6.920   6.859
 1112SOL     OW 4234   0.249   1.178   2.896
 1112SOL    HW1 4235   0.179   1.228   2.945
 1112SOL    HW2 4236   0.288   1.236   2.824
 1113SOL     OW 4237   6.425   3.891   1.713
 1113SOL    HW1 4238   6.373   3.894   1.798
 1113SOL    HW2 4239   6.368   3.853   1.640
 1114SOL     OW 4240   5.918   1.617   5.240
 1114SOL    HW1 4241   5.960   1.704   5.215
 1114SOL    HW2 4242   5.862   1.629   5.322
 1115SOL     OW 4243   3.094   3.318   0.393
 1115SOL    HW1 4244   3.092   3.227   0.436
 1115SOL    HW2 4245   3.118   3.309   0.297
 1116SOL     OW 4246   4.412   5.484   5.362
 1116SOL    HW1 4247   4.401   5.580   5.391
 1116SOL    HW2 4248   4.501   5.451   5.393
 1117SOL     OW 4249   2.241   3.185   0.927
 1117SOL    HW1 4250   2.195   3.230   0.851
 1117SOL    HW2 4251   2.233   3.085   0.917
 1118SOL     OW 4252   1.824   3.420   3.315
 1118SOL    HW1 4253   1.758   3.345   3.310
 1118SOL    HW2 4254   1.831   3.465   3.226
 1119SOL     OW 4255   3.039   3.987   2.389
 1119SOL    HW1 4256   3.091   3.938   2.319
 1119SOL    HW2 4257   2.946   4.003   2.356
 1120SOL     OW 4258   4.389   0.308   4.134
 1120SOL    HW1 4259   4.481   0.285   4.167
 1120SOL    HW2 4260   4.358   0.392   4.178
 1121SOL     OW 4261   5.236   3.262   2.158
 1121SOL    HW1 4262   5.244   3.196   2.084
 1121SOL    HW2 4263   5.140   3.285   2.172
 1122SOL     OW 4264   5.084   4.832   0.088
 1122SOL    HW1 4265   5.034   4.871   0.165
 1122SOL    HW2 4266   5.023   4.826   0.009
 1123SOL     OW 4267   3.926   0.566   2.191
 1123SOL    HW1 4268   3.986   0.646   2.182
 1123SOL    HW2 4269   3.831   0.595   2.190
 1124SOL     OW 4270   0.635   4.755   4.959
 1124SOL    HW1 4271   0.658   4.679   4.898
 1124SOL    HW2 4272   0.537   4.752   4.979
 1125SOL     OW 4273   3.863   3.326   4.723
 1125SOL    HW1 4274   3.943   3.357   4.672
 1125SOL    HW2 4275   3.858   3.375   4.810
 1126SOL     OW 4276   5.545   0.246   2.553
 1126SOL    HW1 4277   5.539   0.345   2.568
 1126SOL    HW2 4278   5.519   0.199   2.637
 1127SOL     OW 4279   1.187   5.018   6.647
 1127SOL    HW1 4280   1.200   4.925   6.614
 1127SOL    HW2 4281   1.230   5.028   6.736
 1128SOL     OW 4282   3.105   1.540   4.383
 1128SOL    HW1 4283   3.101   1.637   4.356
 1128SOL    HW2 4284   3.045   1.487   4.323
 1129SOL     OW 4285   5.238   0.121   6.794
 1129SOL    HW1 4286   5.299   0.187   6.749
 1129SOL    HW2 4287   5.155   0.111   6.740
 1130SOL     OW 4288   0.476   4.688   6.006
 1130SOL    HW1 4289   0.379   4.693   6.028
 1130SOL    HW2 4290   0.522   4.770   6.041
 1131SOL     OW 4291   0.471   4.991   5.685
 1131SOL    HW1 4292   0.567   4.977   5.663
 1131SOL    HW2 4293   0.462   5.048   5.767
 1132SOL     OW 4294   5.075   0.343   5.178
 1132SOL    HW1 4295   5.057   0.273   5.109
 1132SOL    HW2 4296   5.136   0.413   5.139
 1133SOL     OW 4297   0.805   2.583   0.746
 1133SOL    HW1 4298   0.859   2.620   0.822
 1133SOL    HW2 4299   0.712   2.620   0.750
 1134SOL     OW 4300   6.471   2.758   5.979
 1134SOL    HW1 4301   6.519   2.684   6.025
 1134SOL    HW2 4302   6.433   2.724   5.892
 1135SOL     OW 4303   5.482   1.756   3.144
 1135SOL    HW1 4304   5.481   1.744   3.045
 1135SOL    HW2 4305   5.452   1.848   3.168
 1136SOL     OW 4306   3.937   5.533   4.447
 1136SOL    HW1 4307   3.967   5.439   4.460
 1136SOL    HW2 4308   3.875   5.559   4.521
 1137SOL     OW 4309   1.822   1.240   5.562
 1137SOL    HW1 4310   1.777   1.243   5.652
 1137SOL    HW2 4311   1.860   1.148   5.548
 1138SOL     OW 4312   0.796   4.254   5.775
 1138SOL    HW1 4313   0.704   4.290   5.788
 1138SOL    HW2 4314   0.827   4.274   5.682
 1139SOL     OW 4315   1.181   6.377   1.293
 1139SOL    HW1 4316   1.104   6.385   1.230
 1139SOL    HW2 4317   1.203   6.280   1.307
 1140SOL     OW 4318   3.671   1.454   3.704
 1140SOL    HW1 4319   3.768   1.439   3.726
 1140SOL    HW2 4320   3.635   1.525   3.764
 1141SOL     OW 4321   6.721   6.123   5.877
 1141SOL    HW1 4322   6.756   6.204   5.925
 1141SOL    HW2 4323   6.624   6.111   5.898
 1142SOL     OW 4324   5.758   0.958   4.253
 1142SOL    HW1 4325   5.829   0.941   4.185
 1142SOL    HW2 4326   5.672   0.914   4.224
 1143SOL     OW 4327   3.962   1.828   2.277
 1143SOL    HW1 4328   3.991   1.921   2.298
 1143SOL    HW2 4329   3.866   1.828   2.249
 1144SOL     OW 4330   1.327   6.585   5.660
 1144SOL    HW1 4331   1.301   6.665   5.713
 1144SOL    HW2 4332   1.245   6.533   5.636
 1145SOL     OW 4333   1.339   5.051   4.921
 1145SOL    HW1 4334   1.391   4.996   4.986
 1145SOL    HW2 4335   1.269   4.995   4.878
 1146SOL     OW 4336   6.042   2.177   0.803
 1146SOL    HW1 4337   5.972   2.114   0.769
 1146SOL    HW2 4338   6.018   2.271   0.779
 1147SOL     OW 4339   5.883   2.705   1.598
 1147SOL    HW1 4340   5.890   2.774   1.526
 1147SOL    HW2 4341   5.974   2.675   1.625
 1148SOL     OW 4342   4.331   0.345   0.340
 1148SOL    HW1 4343   4.315   0.442   0.352
 1148SOL    HW2 4344   4.378   0.329   0.253
 1149SOL     OW 4345   6.680   3.126   2.721
 1149SOL    HW1 4346   6.593   3.114   2.769
 1149SOL    HW2 4347   6.753   3.081   2.772
 1150SOL     OW 4348   0.909   4.976   5.804
 1150SOL    HW1 4349   0.909   4.876   5.798
 1150SOL    HW2 4350   1.004   5.008   5.810
 1151SOL     OW 4351   4.598   5.758   6.885
 1151SOL    HW1 4352   4.618   5.688   6.817
 1151SOL    HW2 4353   4.683   5.788   6.928
 1152SOL     OW 4354   0.417   0.805   5.015
 1152SOL    HW1 4355   0.481   0.729   4.997
 1152SOL    HW2 4356   0.373   0.791   5.104
 1153SOL     OW 4357   2.132   5.304   2.302
 1153SOL    HW1 4358   2.177   5.238   2.242
 1153SOL    HW2 4359   2.183   5.312   2.387
 1154SOL     OW 4360   2.352   4.353   1.648
 1154SOL    HW1 4361   2.270   4.297   1.653
 1154SOL    HW2 4362   2.380   4.380   1.740
 1155SOL     OW 4363   2.957   5.647   1.919
 1155SOL    HW1 4364   2.983   5.556   1.951
 1155SOL    HW2 4365   2.862   5.665   1.945
 1156SOL     OW 4366   1.661   1.167   4.082
 1156SOL    HW1 4367   1.686   1.151   4.177
 1156SOL    HW2 4368   1.600   1.094   4.051
 1157SOL     OW 4369   0.979   2.494   4.292
 1157SOL    HW1 4370   0.995   2.448   4.379
 1157SOL    HW2 4371   0.996   2.592   4.303
 1158SOL     OW 4372   4.653   5.194   5.548
 1158SOL    HW1 4373   4.618   5.288   5.546
 1158SOL    HW2 4374   4.730   5.188   5.612
 1159SOL     OW 4375   5.199   5.403   3.370
 1159SOL    HW1 4376   5.168   5.343   3.297
 1159SOL    HW2 4377   5.280   5.364   3.414
 1160SOL     OW 4378   2.368   2.594   0.616
 1160SOL    HW1 4379   2.417   2.586   0.529
 1160SOL    HW2 4380   2.273   2.619   0.598
 1161SOL     OW 4381   3.780   6.860   4.225
 1161SOL    HW1 4382   3.765   6.803   4.306
 1161SOL    HW2 4383   3.862   6.917   4.238
 1162SOL     OW 4384   3.958   4.660   1.725
 1162SOL    HW1 4385   4.004   4.743   1.755
 1162SOL    HW2 4386   4.020   4.582   1.735
 1163SOL     OW 4387   4.635   2.179   2.138
 1163SOL    HW1 4388   4.734   2.193   2.131
 1163SOL    HW2 4389   4.588   2.267   2.128
 1164SOL     OW 4390   5.753   3.667   3.876
 1164SOL    HW1 4391   5.813   3.739   3.841
 1164SOL    HW2 4392   5.807   3.601   3.927
 1165SOL     OW 4393   1.635   4.601   2.052
 1165SOL    HW1 4394   1.598   4.518   2.094
 1165SOL    HW2 4395   1.575   4.678   2.073
 1166SOL     OW 4396   3.634   3.041   6.601
 1166SOL    HW1 4397   3.609   2.946   6.620
 1166SOL    HW2 4398   3.681   3.045   6.513
 1167SOL     OW 4399   4.746   1.634   4.701
 1167SOL    HW1 4400   4.798   1.719   4.711
 1167SOL    HW2 4401   4.713   1.605   4.791
 1168SOL     OW 4402   6.239   6.390   3.479
 1168SOL    HW1 4403   6.265   6.334   3.401
 1168SOL    HW2 4404   6.196   6.332   3.549
 1169SOL     OW 4405   0.888   3.730   1.593
 1169SOL    HW1 4406   0.923   3.699   1.505
 1169SOL    HW2 4407   0.799   3.775   1.580
 1170SOL     OW 4408   2.769   0.587   0.755
 1170SOL    HW1 4409   2.731   0.649   0.825
 1170SOL    HW2 4410   2.852   0.544   0.790
 1171SOL     OW 4411   2.407   6.983   0.680
 1171SOL    HW1 4412   2.364   0.048   0.718
 1171SOL    HW2 4413   2.475   7.010   0.612
 1172SOL     OW 4414   2.951   3.306   4.660
 1172SOL    HW1 4415   2.945   3.294   4.759
 1172SOL    HW2 4416   2.980   3.221   4.617
 1173SOL     OW 4417   4.987   0.717   6.098
 1173SOL    HW1 4418   5.083   0.692   6.090
 1173SOL    HW2 4419   4.980   0.810   6.136
 1174SOL     OW 4420   3.162   6.542   0.838
 1174SOL    HW1 4421   3.069   6.546   0.800
 1174SOL    HW2 4422   3.215   6.619   0.804
 1175SOL     OW 4423   6.778   5.018   5.035
 1175SOL    HW1 4424   6.689   5.010   5.080
 1175SOL    HW2 4425   6.766   5.007   4.936
 1176SOL     OW 4426   6.719   3.786   1.119
 1176SOL    HW1 4427   6.750   3.743   1.034
 1176SOL    HW2 4428   6.795   3.787   1.185
 1177SOL     OW 4429   6.387   3.290   6.976
 1177SOL    HW1 4430   6.385   3.305   6.877
 1177SOL    HW2 4431   6.302   3.246   7.005
 1178SOL     OW 4432   5.396   4.101   1.867
 1178SOL    HW1 4433   5.297   4.087   1.865
 1178SOL    HW2 4434   5.425   4.118   1.961
 1179SOL     OW 4435   2.660   5.733   6.341
 1179SOL    HW1 4436   2.611   5.808   6.297
 1179SOL    HW2 4437   2.729   5.771   6.403
 1180SOL     OW 4438   2.708   1.763   3.697
 1180SOL    HW1 4439   2.659   1.677   3.683
 1180SOL    HW2 4440   2.643   1.836   3.718
 1181SOL     OW 4441   2.130   4.404   3.211
 1181SOL    HW1 4442   2.226   4.432   3.212
 1181SOL    HW2 4443   2.123   4.310   3.245
 1182SOL     OW 4444   1.508   4.414   3.454
 1182SOL    HW1 4445   1.527   4.513   3.457
 1182SOL    HW2 4446   1.465   4.391   3.367
 1183SOL     OW 4447   4.790   5.583   0.762
 1183SOL    HW1 4448   4.792   5.515   0.689
 1183SOL    HW2 4449   4.732   5.551   0.837
 1184SOL     OW 4450   3.247   2.717   5.581
 1184SOL    HW1 4451   3.321   2.744   5.520
 1184SOL    HW2 4452   3.199   2.638   5.543
 1185SOL     OW 4453   2.435   1.894   0.097
 1185SOL    HW1 4454   2.412   1.858   0.006
 1185SOL    HW2 4455   2.470   1.819   0.154
 1186SOL     OW 4456   4.304   0.825   5.028
 1186SOL    HW1 4457   4.385   0.785   4.984
 1186SOL    HW2 4458   4.318   0.830   5.127
 1187SOL     OW 4459   0.072   0.850   5.752
 1187SOL    HW1 4460   0.029   0.806   5.673
 1187SOL    HW2 4461   0.148   0.907   5.722
 1188SOL     OW 4462   1.742   6.630   5.698
 1188SOL    HW1 4463   1.841   6.613   5.694
 1188SOL    HW2 4464   1.705   6.636   5.605
 1189SOL     OW 4465   6.826   0.976   1.457
 1189SOL    HW1 4466   6.914   0.946   1.420
 1189SOL    HW2 4467   6.764   0.898   1.463
 1190SOL     OW 4468   4.387   4.557   2.901
 1190SOL    HW1 4469   4.368   4.652   2.926
 1190SOL    HW2 4470   4.377   4.547   2.802
 1191SOL     OW 4471   3.281   5.075   0.259
 1191SOL    HW1 4472   3.223   5.026   0.194
 1191SOL    HW2 4473   3.288   5.171   0.232
 1192SOL     OW 4474   4.767   5.175   2.219
 1192SOL    HW1 4475   4.752   5.209   2.126
 1192SOL    HW2 4476   4.754   5.251   2.283
 1193SOL     OW 4477   4.145   6.676   3.857
 1193SOL    HW1 4478   4.083   6.717   3.924
 1193SOL    HW2 4479   4.212   6.744   3.828
 1194SOL     OW 4480   6.222   0.464   1.596
 1194SOL    HW1 4481   6.299   0.514   1.556
 1194SOL    HW2 4482   6.169   0.420   1.523
 1195SOL     OW 4483   3.699   0.003   6.757
 1195SOL    HW1 4484   3.683   0.087   6.809
 1195SOL    HW2 4485   3.788   0.007   6.713
 1196SOL     OW 4486   0.423   5.515   2.763
 1196SOL    HW1 4487   0.399   5.421   2.788
 1196SOL    HW2 4488   0.509   5.515   2.713
 1197SOL     OW 4489   3.189   5.351   6.330
 1197SOL    HW1 4490   3.190   5.410   6.410
 1197SOL    HW2 4491   3.226   5.261   6.354
 1198SOL     OW 4492   3.465   1.608   2.452
 1198SOL    HW1 4493   3.382   1.665   2.455
 1198SOL    HW2 4494   3.508   1.607   2.543
 1199SOL     OW 4495   3.472   4.157   3.517
 1199SOL    HW1 4496   3.423   4.161   3.430
 1199SOL    HW2 4497   3.433   4.084   3.574
 1200SOL     OW 4498   3.769   3.680   0.653
 1200SOL    HW1 4499   3.692   3.616   0.643
 1200SOL    HW2 4500   3.736   3.773   0.638
 1201SOL     OW 4501   1.575   0.810   4.590
 1201SOL    HW1 4502   1.519   0.890   4.610
 1201SOL    HW2 4503   1.668   0.840   4.567
 1202SOL     OW 4504   5.728   0.260   5.126
 1202SOL    HW1 4505   5.792   0.241   5.052
 1202SOL    HW2 4506   5.671   0.339   5.101
 1203SOL     OW 4507   6.225   6.554   2.057
 1203SOL    HW1 4508   6.302   6.515   2.006
 1203SOL    HW2 4509   6.178   6.481   2.107
 1204SOL     OW 4510   2.988   6.756   6.955
 1204SOL    HW1 4511   2.932   6.765   6.873
 1204SOL    HW2 4512   3.071   6.705   6.933
 1205SOL     OW 4513   0.716   2.113   5.116
 1205SOL    HW1 4514   0.674   2.199   5.086
 1205SOL    HW2 4515   0.644   2.045   5.133
 1206SOL     OW 4516   0.706   1.668   4.569
 1206SOL    HW1 4517   0.616   1.704   4.593
 1206SOL    HW2 4518   0.759   1.740   4.523
 1207SOL     OW 4519   5.918   6.044   6.317
 1207SOL    HW1 4520   5.999   6.042   6.257
 1207SOL    HW2 4521   5.941   6.003   6.405
 1208SOL     OW 4522   3.842   3.906   3.584
 1208SOL    HW1 4523   3.820   3.987   3.529
 1208SOL    HW2 4524   3.841   3.825   3.525
 1209SOL     OW 4525   6.445   4.157   4.968
 1209SOL    HW1 4526   6.420   4.233   4.908
 1209SOL    HW2 4527   6.380   4.082   4.956
 1210SOL     OW 4528   2.938   6.544   2.661
 1210SOL    HW1 4529   2.905   6.579   2.748
 1210SOL    HW2 4530   2.906   6.603   2.587
 1211SOL     OW 4531   1.215   3.444   3.685
 1211SOL    HW1 4532   1.229   3.516   3.754
 1211SOL    HW2 4533   1.298   3.435   3.630
 1212SOL     OW 4534   2.214   4.120   4.802
 1212SOL    HW1 4535   2.264   4.206   4.794
 1212SOL    HW2 4536   2.261   4.061   4.868
 1213SOL     OW 4537   5.990   2.785   5.603
 1213SOL    HW1 4538   5.930   2.838   5.664
 1213SOL    HW2 4539   6.074   2.837   5.586
 1214SOL     OW 4540   1.505   2.972   2.673
 1214SOL    HW1 4541   1.532   3.042   2.739
 1214SOL    HW2 4542   1.560   2.983   2.590
 1215SOL     OW 4543   0.162   5.522   2.108
 1215SOL    HW1 4544   0.116   5.588   2.049
 1215SOL    HW2 4545   0.261   5.533   2.099
 1216SOL     OW 4546   3.314   0.270   1.840
 1216SOL    HW1 4547   3.368   0.257   1.757
 1216SOL    HW2 4548   3.217   0.273   1.816
 1217SOL     OW 4549   1.412   1.469   2.863
 1217SOL    HW1 4550   1.437   1.475   2.766
 1217SOL    HW2 4551   1.378   1.377   2.883
 1218SOL     OW 4552   0.660   3.660   4.007
 1218SOL    HW1 4553   0.655   3.564   4.031
 1218SOL    HW2 4554   0.735   3.674   3.941
 1219SOL     OW 4555   2.473   5.915   3.563
 1219SOL    HW1 4556   2.398   5.937   3.625
 1219SOL    HW2 4557   2.503   5.821   3.578
 1220SOL     OW 4558   6.604   3.992   2.694
 1220SOL    HW1 4559   6.570   3.931   2.765
 1220SOL    HW2 4560   6.550   4.077   2.695
 1221SOL     OW 4561   5.105   3.544   6.741
 1221SOL    HW1 4562   5.079   3.448   6.753
 1221SOL    HW2 4563   5.165   3.552   6.661
 1222SOL     OW 4564   5.297   5.459   1.225
 1222SOL    HW1 4565   5.350   5.514   1.289
 1222SOL    HW2 4566   5.312   5.492   1.132
 1223SOL     OW 4567   5.817   4.798   4.916
 1223SOL    HW1 4568   5.776   4.840   4.997
 1223SOL    HW2 4569   5.912   4.828   4.907
 1224SOL     OW 4570   4.511   5.156   2.015
 1224SOL    HW1 4571   4.581   5.227   2.007
 1224SOL    HW2 4572   4.511   5.099   1.933
 1225SOL     OW 4573   4.327   0.997   0.255
 1225SOL    HW1 4574   4.299   0.904   0.229
 1225SOL    HW2 4575   4.306   1.060   0.180
 1226SOL     OW 4576   5.311   5.058   0.290
 1226SOL    HW1 4577   5.240   5.052   0.220
 1226SOL    HW2 4578   5.275   5.023   0.377
 1227SOL     OW 4579   4.952   4.861   6.853
 1227SOL    HW1 4580   5.017   4.813   6.794
 1227SOL    HW2 4581   4.859   4.842   6.820
 1228SOL     OW 4582   3.866   3.855   4.257
 1228SOL    HW1 4583   3.888   3.757   4.255
 1228SOL    HW2 4584   3.913   3.899   4.333
 1229SOL     OW 4585   2.199   5.833   2.653
 1229SOL    HW1 4586   2.166   5.847   2.559
 1229SOL    HW2 4587   2.128   5.786   2.706
 1230SOL     OW 4588   5.358   4.859   1.975
 1230SOL    HW1 4589   5.333   4.933   1.913
 1230SOL    HW2 4590   5.316   4.773   1.944
 1231SOL     OW 4591   2.076   2.125   6.993
 1231SOL    HW1 4592   2.006   2.185   6.955
 1231SOL    HW2 4593   2.161   2.137   6.942
 1232SOL     OW 4594   3.138   1.122   5.040
 1232SOL    HW1 4595   3.114   1.155   4.949
 1232SOL    HW2 4596   3.056   1.125   5.099
 1233SOL     OW 4597   6.855   5.804   5.114
 1233SOL    HW1 4598   6.832   5.774   5.207
 1233SOL    HW2 4599   6.936   5.863   5.117
 1234SOL     OW 4600   6.249   3.702   6.916
 1234SOL    HW1 4601   6.252   3.744   7.006
 1234SOL    HW2 4602   6.190   3.621   6.918
 1235SOL     OW 4603   6.433   5.262   1.350
 1235SOL    HW1 4604   6.407   5.297   1.440
 1235SOL    HW2 4605   6.477   5.173   1.360
 1236SOL     OW 4606   1.403   1.658   2.472
 1236SOL    HW1 4607   1.306   1.635   2.476
 1236SOL    HW2 4608   1.456   1.587   2.520
 1237SOL     OW 4609   1.053   6.940   4.955
 1237SOL    HW1 4610   1.111   6.880   5.011
 1237SOL    HW2 4611   0.982   6.885   4.911
 1238SOL     OW 4612   0.800   0.617   4.419
 1238SOL    HW1 4613   0.876   0.681   4.426
 1238SOL    HW2 4614   0.752   0.632   4.332
 1239SOL     OW 4615   5.390   4.809   3.765
 1239SOL    HW1 4616   5.490   4.802   3.770
 1239SOL    HW2 4617   5.358   4.772   3.678
 1240SOL     OW 4618   0.735   3.819   2.110
 1240SOL    HW1 4619   0.802   3.745   2.098
 1240SOL    HW2 4620   0.667   3.793   2.178
 1241SOL     OW 4621   3.959   5.566   5.404
 1241SOL    HW1 4622   4.017   5.576   5.485
 1241SOL    HW2 4623   4.006   5.605   5.325
 1242SOL     OW 4624   2.237   4.633   0.782
 1242SOL    HW1 4625   2.285   4.693   0.847
 1242SOL    HW2 4626   2.233   4.541   0.819
 1243SOL     OW 4627   0.831   3.671   3.796
 1243SOL    HW1 4628   0.898   3.746   3.805
 1243SOL    HW2 4629   0.870   3.598   3.740
 1244SOL     OW 4630   6.529   0.274   5.764
 1244SOL    HW1 4631   6.485   0.206   5.705
 1244SOL    HW2 4632   6.628   0.264   5.759
 1245SOL     OW 4633   4.495   6.129   1.266
 1245SOL    HW1 4634   4.498   6.068   1.345
 1245SOL    HW2 4635   4.587   6.149   1.235
 1246SOL     OW 4636   5.098   0.868   0.725
 1246SOL    HW1 4637   5.160   0.922   0.783
 1246SOL    HW2 4638   5.129   0.873   0.630
 1247SOL     OW 4639   6.663   0.118   3.357
 1247SOL    HW1 4640   6.622   0.032   3.388
 1247SOL    HW2 4641   6.641   0.132   3.261
 1248SOL     OW 4642   0.979   6.568   4.310
 1248SOL    HW1 4643   0.898   6.627   4.314
 1248SOL    HW2 4644   1.021   6.564   4.401
 1249SOL     OW 4645   6.026   5.631   6.445
 1249SOL    HW1 4646   6.009   5.724   6.412
 1249SOL    HW2 4647   5.946   5.597   6.493
 1250SOL     OW 4648   0.525   2.862   5.178
 1250SOL    HW1 4649   0.451   2.881   5.114
 1250SOL    HW2 4650   0.591   2.937   5.177
 1251SOL     OW 4651   2.837   0.685   2.673
 1251SOL    HW1 4652   2.878   0.776   2.669
 1251SOL    HW2 4653   2.882   0.625   2.608
 1252SOL     OW 4654   2.044   5.784   6.473
 1252SOL    HW1 4655   2.114   5.724   6.511
 1252SOL    HW2 4656   2.066   5.804   6.377
 1253SOL     OW 4657   3.431   6.880   6.876
 1253SOL    HW1 4658   3.520   6.836   6.866
 1253SOL    HW2 4659   3.413   6.938   6.796
 1254SOL     OW 4660   5.739   0.436   3.243
 1254SOL    HW1 4661   5.791   0.513   3.280
 1254SOL    HW2 4662   5.800   0.375   3.193
 1255SOL     OW 4663   5.629   1.133   5.605
 1255SOL    HW1 4664   5.577   1.139   5.690
 1255SOL    HW2 4665   5.573   1.090   5.534
 1256SOL     OW 4666   6.945   5.761   4.685
 1256SOL    HW1 4667   6.884   5.721   4.753
 1256SOL    HW2 4668   6.975   5.689   4.622
 1257SOL     OW 4669   0.094   5.941   3.216
 1257SOL    HW1 4670   0.038   5.900   3.288
 1257SOL    HW2 4671   0.070   6.037   3.205
 1258SOL     OW 4672   4.543   5.832   6.083
 1258SOL    HW1 4673   4.525   5.746   6.033
 1258SOL    HW2 4674   4.457   5.883   6.092
 1259SOL     OW 4675   5.627   0.122   5.322
 1259SOL    HW1 4676   5.675   0.162   5.244
 1259SOL    HW2 4677   5.547   0.176   5.345
 1260SOL     OW 4678   2.992   1.421   1.518
 1260SOL    HW1 4679   3.087   1.391   1.517
 1260SOL    HW2 4680   2.958   1.420   1.612
 1261SOL     OW 4681   6.696   4.667   5.216
 1261SOL    HW1 4682   6.762   4.630   5.281
 1261SOL    HW2 4683   6.741   4.731   5.155
 1262SOL     OW 4684   4.059   5.031   1.174
 1262SOL    HW1 4685   4.006   5.037   1.090
 1262SOL    HW2 4686   4.022   4.958   1.231
 1263SOL     OW 4687   6.304   2.230   0.878
 1263SOL    HW1 4688   6.278   2.273   0.964
 1263SOL    HW2 4689   6.225   2.186   0.837
 1264SOL     OW 4690   6.567   2.513   4.198
 1264SOL    HW1 4691   6.659   2.498   4.160
 1264SOL    HW2 4692   6.500   2.460   4.146
 1265SOL     OW 4693   6.779   5.987   4.411
 1265SOL    HW1 4694   6.793   6.049   4.489
 1265SOL    HW2 4695   6.694   5.938   4.423
 1266SOL     OW 4696   2.463   1.359   4.721
 1266SOL    HW1 4697   2.395   1.414   4.673
 1266SOL    HW2 4698   2.491   1.406   4.804
 1267SOL     OW 4699   6.474   5.018   2.695
 1267SOL    HW1 4700   6.515   5.035   2.784
 1267SOL    HW2 4701   6.493   5.095   2.634
 1268SOL     OW 4702   5.854   3.194   0.173
 1268SOL    HW1 4703   5.951   3.216   0.186
 1268SOL    HW2 4704   5.832   3.111   0.226
 1269SOL     OW 4705   6.964   5.506   6.245
 1269SOL    HW1 4706   6.957   5.492   6.344
 1269SOL    HW2 4707   6.995   5.599   6.227
 1270SOL     OW 4708   1.853   2.526   5.284
 1270SOL    HW1 4709   1.911   2.483   5.354
 1270SOL    HW2 4710   1.894   2.613   5.256
 1271SOL     OW 4711   5.129   2.151   2.926
 1271SOL    HW1 4712   5.122   2.234   2.870
 1271SOL    HW2 4713   5.187   2.084   2.879
 1272SOL     OW 4714   0.026   6.591   1.945
 1272SOL    HW1 4715   6.958   6.627   1.909
 1272SOL    HW2 4716   0.007   6.534   2.025
 1273SOL     OW 4717   2.546   6.109   6.746
 1273SOL    HW1 4718   2.593   6.091   6.833
 1273SOL    HW2 4719   2.595   6.179   6.695
 1274SOL     OW 4720   6.354   2.599   1.447
 1274SOL    HW1 4721   6.339   2.576   1.543
 1274SOL    HW2 4722   6.441   2.560   1.417
 1275SOL     OW 4723   4.096   1.840   3.882
 1275SOL    HW1 4724   4.028   1.890   3.828
 1275SOL    HW2 4725   4.054   1.804   3.965
 1276SOL     OW 4726   6.246   0.357   3.178
 1276SOL    HW1 4727   6.259   0.376   3.080
 1276SOL    HW2 4728   6.235   0.259   3.192
 1277SOL     OW 4729   0.094   0.940   5.103
 1277SOL    HW1 4730   0.105   1.026   5.054
 1277SOL    HW2 4731   0.105   0.956   5.201
 1278SOL     OW 4732   3.113   1.798   5.122
 1278SOL    HW1 4733   3.167   1.878   5.148
 1278SOL    HW2 4734   3.129   1.724   5.187
 1279SOL     OW 4735   2.736   5.309   6.924
 1279SOL    HW1 4736   2.758   5.211   6.921
 1279SOL    HW2 4737   2.717   5.336   0.001
 1280SOL     OW 4738   1.844   6.439   3.296
 1280SOL    HW1 4739   1.796   6.516   3.254
 1280SOL    HW2 4740   1.871   6.374   3.225
 1281SOL     OW 4741   0.944   6.694   3.907
 1281SOL    HW1 4742   0.890   6.631   3.850
 1281SOL    HW2 4743   0.987   6.763   3.849
 1282SOL     OW 4744   0.935   0.651   2.370
 1282SOL    HW1 4745   0.877   0.598   2.432
 1282SOL    HW2 4746   0.903   0.639   2.276
 1283SOL     OW 4747   5.084   5.001   5.326
 1283SOL    HW1 4748   5.126   4.913   5.346
 1283SOL    HW2 4749   4.984   4.991   5.323
 1284SOL     OW 4750   2.631   1.942   2.458
 1284SOL    HW1 4751   2.724   1.958   2.492
 1284SOL    HW2 4752   2.614   1.844   2.455
 1285SOL     OW 4753   5.125   2.384   5.682
 1285SOL    HW1 4754   5.055   2.420   5.744
 1285SOL    HW2 4755   5.198   2.343   5.736
 1286SOL     OW 4756   5.949   5.548   1.565
 1286SOL    HW1 4757   5.992   5.458   1.552
 1286SOL    HW2 4758   5.889   5.567   1.487
 1287SOL     OW 4759   6.064   5.050   5.956
 1287SOL    HW1 4760   6.025   4.983   6.019
 1287SOL    HW2 4761   6.134   5.103   6.003
 1288SOL     OW 4762   6.448   2.377   2.707
 1288SOL    HW1 4763   6.443   2.414   2.799
 1288SOL    HW2 4764   6.488   2.445   2.646
 1289SOL     OW 4765   6.527   5.687   2.571
 1289SOL    HW1 4766   6.493   5.694   2.477
 1289SOL    HW2 4767   6.449   5.680   2.633
 1290SOL     OW 4768   0.703   6.787   1.531
 1290SOL    HW1 4769   0.618   6.810   1.577
 1290SOL    HW2 4770   0.714   6.845   1.450
 1291SOL     OW 4771   2.170   0.028   0.447
 1291SOL    HW1 4772   2.253   0.081   0.462
 1291SOL    HW2 4773   2.174   7.001   0.357
 1292SOL     OW 4774   1.263   6.232   6.975
 1292SOL    HW1 4775   1.336   6.235   0.025
 1292SOL    HW2 4776   1.175   6.243   0.004
 1293SOL     OW 4777   0.415   2.671   5.882
 1293SOL    HW1 4778   0.488   2.645   5.944
 1293SOL    HW2 4779   0.361   2.590   5.858
 1294SOL     OW 4780   6.608   1.470   2.810
 1294SOL    HW1 4781   6.643   1.466   2.717
 1294SOL    HW2 4782   6.518   1.426   2.815
 1295SOL     OW 4783   5.931   3.256   1.775
 1295SOL    HW1 4784   6.022   3.268   1.736
 1295SOL    HW2 4785   5.920   3.161   1.805
 1296SOL     OW 4786   3.587   2.768   6.593
 1296SOL    HW1 4787   3.570   2.757   6.495
 1296SOL    HW2 4788   3.673   2.723   6.617
 1297SOL     OW 4789   6.728   1.485   6.546
 1297SOL    HW1 4790   6.778   1.410   6.504
 1297SOL    HW2 4791   6.758   1.572   6.508
 1298SOL     OW 4792   5.683   3.194   3.513
 1298SOL    HW1 4793   5.783   3.197   3.512
 1298SOL    HW2 4794   5.647   3.260   3.579
 1299SOL     OW 4795   1.030   3.842   3.787
 1299SOL    HW1 4796   1.013   3.904   3.710
 1299SOL    HW2 4797   1.068   3.895   3.863
 1300SOL     OW 4798   2.769   3.280   1.557
 1300SOL    HW1 4799   2.727   3.356   1.508
 1300SOL    HW2 4800   2.827   3.228   1.495
 1301SOL     OW 4801   0.430   0.342   3.210
 1301SOL    HW1 4802   0.513   0.291   3.185
 1301SOL    HW2 4803   0.359   0.325   3.141
 1302SOL     OW 4804   2.282   5.638   4.734
 1302SOL    HW1 4805   2.349   5.591   4.790
 1302SOL    HW2 4806   2.300   5.621   4.637
 1303SOL     OW 4807   3.785   1.071   1.506
 1303SOL    HW1 4808   3.707   1.133   1.517
 1303SOL    HW2 4809   3.772   1.017   1.422
 1304SOL     OW 4810   3.013   0.738   6.337
 1304SOL    HW1 4811   2.958   0.661   6.369
 1304SOL    HW2 4812   2.987   0.821   6.387
 1305SOL     OW 4813   5.141   6.967   4.850
 1305SOL    HW1 4814   5.135   6.869   4.869
 1305SOL    HW2 4815   5.231   7.000   4.877
 1306SOL     OW 4816   0.886   4.735   3.723
 1306SOL    HW1 4817   0.792   4.705   3.706
 1306SOL    HW2 4818   0.885   4.808   3.791
 1307SOL     OW 4819   2.015   1.707   4.403
 1307SOL    HW1 4820   2.102   1.755   4.393
 1307SOL    HW2 4821   1.948   1.768   4.444
 1308SOL     OW 4822   4.761   5.583   2.709
 1308SOL    HW1 4823   4.775   5.495   2.754
 1308SOL    HW2 4824   4.695   5.572   2.635
 1309SOL     OW 4825   5.833   2.583   4.631
 1309SOL    HW1 4826   5.882   2.547   4.711
 1309SOL    HW2 4827   5.739   2.548   4.631
 1310SOL     OW 4828   4.822   3.797   5.261
 1310SOL    HW1 4829   4.825   3.796   5.361
 1310SOL    HW2 4830   4.771   3.718   5.228
 1311SOL     OW 4831   5.077   5.735   5.621
 1311SOL    HW1 4832   5.165   5.733   5.574
 1311SOL    HW2 4833   5.091   5.752   5.719
 1312SOL     OW 4834   0.322   6.830   1.264
 1312SOL    HW1 4835   0.312   6.790   1.355
 1312SOL    HW2 4836   0.263   6.781   1.200
 1313SOL     OW 4837   3.518   5.163   5.256
 1313SOL    HW1 4838   3.589   5.096   5.277
 1313SOL    HW2 4839   3.430   5.116   5.247
 1314SOL     OW 4840   6.047   1.463   4.777
 1314SOL    HW1 4841   6.116   1.398   4.810
 1314SOL    HW2 4842   5.993   1.420   4.705
 1315SOL     OW 4843   1.600   1.167   2.833
 1315SOL    HW1 4844   1.621   1.069   2.826
 1315SOL    HW2 4845   1.503   1.179   2.854
 1316SOL     OW 4846   2.838   6.720   2.492
 1316SOL    HW1 4847   2.746   6.710   2.454
 1316SOL    HW2 4848   2.872   6.812   2.473
 1317SOL     OW 4849   6.866   5.502   3.652
 1317SOL    HW1 4850   6.813   5.572   3.605
 1317SOL    HW2 4851   6.960   5.535   3.665
 1318SOL     OW 4852   0.387   6.425   0.940
 1318SOL    HW1 4853   0.389   6.383   1.031
 1318SOL    HW2 4854   0.399   6.524   0.949
 1319SOL     OW 4855   6.443   1.013   0.501
 1319SOL    HW1 4856   6.389   1.045   0.422
 1319SOL    HW2 4857   6.425   1.073   0.579
 1320SOL     OW 4858   5.356   5.171   6.199
 1320SOL    HW1 4859   5.385   5.169   6.295
 1320SOL    HW2 4860   5.432   5.142   6.141
 1321SOL     OW 4861   3.897   2.413   6.443
 1321SOL    HW1 4862   3.822   2.393   6.507
 1321SOL    HW2 4863   3.966   2.342   6.450
 1322SOL     OW 4864   6.218   1.263   4.867
 1322SOL    HW1 4865   6.313   1.231   4.868
 1322SOL    HW2 4866   6.178   1.253   4.958
 1323SOL     OW 4867   5.974   1.069   4.480
 1323SOL    HW1 4868   5.994   1.106   4.389
 1323SOL    HW2 4869   5.878   1.085   4.503
 1324SOL     OW 4870   0.861   3.701   0.483
 1324SOL    HW1 4871   0.889   3.610   0.452
 1324SOL    HW2 4872   0.899   3.771   0.422
 1325SOL     OW 4873   3.347   5.713   2.784
 1325SOL    HW1 4874   3.429   5.680   2.736
 1325SOL    HW2 4875   3.274   5.646   2.774
 1326SOL     OW 4876   5.221   3.584   4.156
 1326SOL    HW1 4877   5.122   3.596   4.145
 1326SOL    HW2 4878   5.260   3.548   4.071
 1327SOL     OW 4879   2.699   5.383   3.030
 1327SOL    HW1 4880   2.729   5.367   3.124
 1327SOL    HW2 4881   2.751   5.323   2.968
 1328SOL     OW 4882   2.033   2.341   6.605
 1328SOL    HW1 4883   2.048   2.390   6.519
 1328SOL    HW2 4884   1.969   2.392   6.662
 1329SOL     OW 4885   1.177   0.446   1.699
 1329SOL    HW1 4886   1.244   0.433   1.772
 1329SOL    HW2 4887   1.190   0.536   1.658
 1330SOL     OW 4888   5.822   6.617   1.405
 1330SOL    HW1 4889   5.829   6.519   1.418
 1330SOL    HW2 4890   5.823   6.638   1.307
 1331SOL     OW 4891   6.056   0.356   2.634
 1331SOL    HW1 4892   5.975   0.384   2.582
 1331SOL    HW2 4893   6.047   0.260   2.660
 1332SOL     OW 4894   4.569   1.833   1.569
 1332SOL    HW1 4895   4.493   1.778   1.536
 1332SOL    HW2 4896   4.617   1.784   1.642
 1333SOL     OW 4897   3.794   4.056   5.551
 1333SOL    HW1 4898   3.754   4.038   5.461
 1333SOL    HW2 4899   3.732   4.024   5.622
 1334SOL     OW 4900   0.680   3.928   4.040
 1334SOL    HW1 4901   0.660   3.830   4.035
 1334SOL    HW2 4902   0.740   3.945   4.118
 1335SOL     OW 4903   2.399   4.557   2.585
 1335SOL    HW1 4904   2.348   4.519   2.508
 1335SOL    HW2 4905   2.463   4.489   2.620
 1336SOL     OW 4906   0.750   0.656   5.368
 1336SOL    HW1 4907   0.670   0.597   5.380
 1336SOL    HW2 4908   0.813   0.641   5.444
 1337SOL     OW 4909   2.812   1.002   5.994
 1337SOL    HW1 4910   2.800   0.923   6.054
 1337SOL    HW2 4911   2.821   1.085   6.050
 1338SOL     OW 4912   3.667   5.996   0.375
 1338SOL    HW1 4913   3.610   5.928   0.421
 1338SOL    HW2 4914   3.738   6.028   0.437
 1339SOL     OW 4915   6.936   4.708   4.719
 1339SOL    HW1 4916   6.979   4.721   4.809
 1339SOL    HW2 4917   6.916   4.611   4.705
 1340SOL     OW 4918   2.070   1.556   6.210
 1340SOL    HW1 4919   1.987   1.545   6.265
 1340SOL    HW2 4920   2.148   1.518   6.259
 1341SOL     OW 4921   4.466   1.659   3.778
 1341SOL    HW1 4922   4.468   1.609   3.864
 1341SOL    HW2 4923   4.559   1.685   3.753
 1342SOL     OW 4924   0.547   6.212   0.846
 1342SOL    HW1 4925   0.482   6.280   0.881
 1342SOL    HW2 4926   0.502   6.158   0.774
 1343SOL     OW 4927   4.204   4.708   3.118
 1343SOL    HW1 4928   4.127   4.760   3.079
 1343SOL    HW2 4929   4.181   4.680   3.211
 1344SOL     OW 4930   5.899   1.516   2.600
 1344SOL    HW1 4931   5.942   1.430   2.572
 1344SOL    HW2 4932   5.841   1.500   2.680
 1345SOL     OW 4933   1.328   0.072   3.537
 1345SOL    HW1 4934   1.252   0.123   3.497
 1345SOL    HW2 4935   1.310   6.991   3.531
 1346SOL     OW 4936   0.211   0.746   3.977
 1346SOL    HW1 4937   0.293   0.799   3.955
 1346SOL    HW2 4938   0.191   0.683   3.901
 1347SOL     OW 4939   5.797   0.615   2.905
 1347SOL    HW1 4940   5.728   0.544   2.899
 1347SOL    HW2 4941   5.793   0.658   2.996
 1348SOL     OW 4942   4.838   4.928   4.095
 1348SOL    HW1 4943   4.880   4.891   4.012
 1348SOL    HW2 4944   4.806   4.853   4.153
 1349SOL     OW 4945   4.621   2.589   0.086
 1349SOL    HW1 4946   4.544   2.601   0.149
 1349SOL    HW2 4947   4.652   2.679   0.054
 1350SOL     OW 4948   3.407   6.693   6.133
 1350SOL    HW1 4949   3.486   6.715   6.076
 1350SOL    HW2 4950   3.351   6.625   6.088
 1351SOL     OW 4951   0.969   0.858   4.449
 1351SOL    HW1 4952   0.974   0.880   4.352
 1351SOL    HW2 4953   1.060   0.868   4.490
 1352SOL     OW 4954   0.459   7.002   3.849
 1352SOL    HW1 4955   0.471   0.078   3.883
 1352SOL    HW2 4956   0.440   6.940   3.925
 1353SOL     OW 4957   1.653   4.023   3.725
 1353SOL    HW1 4958   1.727   3.956   3.730
 1353SOL    HW2 4959   1.670   4.085   3.648
 1354SOL     OW 4960   0.061   0.409   1.243
 1354SOL    HW1 4961   7.013   0.335   1.230
 1354SOL    HW2 4962   0.068   0.432   1.340
 1355SOL     OW 4963   4.782   3.041   6.925
 1355SOL    HW1 4964   4.789   3.140   6.934
 1355SOL    HW2 4965   4.702   3.018   6.869
 1356SOL     OW 4966   3.082   3.920   1.819
 1356SOL    HW1 4967   3.145   3.843   1.810
 1356SOL    HW2 4968   3.123   4.003   1.781
 1357SOL     OW 4969   2.910   2.882   5.750
 1357SOL    HW1 4970   2.926   2.792   5.792
 1357SOL    HW2 4971   2.819   2.914   5.774
 1358SOL     OW 4972   2.900   2.882   5.473
 1358SOL    HW1 4973   2.801   2.884   5.459
 1358SOL    HW2 4974   2.920   2.845   5.564
 1359SOL     OW 4975   6.688   0.912   0.531
 1359SOL    HW1 4976   6.703   0.839   0.465
 1359SOL    HW2 4977   6.591   0.934   0.535
 1360SOL     OW 4978   2.868   3.595   4.058
 1360SOL    HW1 4979   2.800   3.606   3.985
 1360SOL    HW2 4980   2.911   3.683   4.077
 1361SOL     OW 4981   1.051   5.955   0.753
 1361SOL    HW1 4982   1.016   6.048   0.752
 1361SOL    HW2 4983   0.978   5.892   0.781
 1362SOL     OW 4984   3.190   2.831   6.220
 1362SOL    HW1 4985   3.141   2.879   6.293
 1362SOL    HW2 4986   3.241   2.754   6.259
 1363SOL     OW 4987   5.766   6.633   2.290
 1363SOL    HW1 4988   5.794   6.553   2.344
 1363SOL    HW2 4989   5.776   6.716   2.345
 1364SOL     OW 4990   0.774   3.709   0.726
 1364SOL    HW1 4991   0.841   3.765   0.775
 1364SOL    HW2 4992   0.801   3.699   0.631
 1365SOL     OW 4993   0.459   3.714   5.190
 1365SOL    HW1 4994   0.388   3.648   5.213
 1365SOL    HW2 4995   0.505   3.745   5.274
 1366SOL     OW 4996   5.471   0.668   1.228
 1366SOL    HW1 4997   5.386   0.698   1.184
 1366SOL    HW2 4998   5.524   0.613   1.164
 1367SOL     OW 4999   1.065   6.355   4.578
 1367SOL    HW1 5000   1.158   6.389   4.585
 1367SOL    HW2 5001   1.001   6.425   4.608
 1368SOL     OW 5002   1.290   6.216   5.418
 1368SOL    HW1 5003   1.366   6.248   5.474
 1368SOL    HW2 5004   1.223   6.169   5.475
 1369SOL     OW 5005   2.489   6.513   3.411
 1369SOL    HW1 5006   2.568   6.458   3.383
 1369SOL    HW2 5007   2.414   6.499   3.346
 1370SOL     OW 5008   6.825   2.106   2.724
 1370SOL    HW1 5009   6.805   2.128   2.629
 1370SOL    HW2 5010   6.776   2.022   2.750
 1371SOL     OW 5011   5.973   2.431   5.801
 1371SOL    HW1 5012   5.877   2.403   5.798
 1371SOL    HW2 5013   6.021   2.377   5.871
 1372SOL     OW 5014   6.654   2.585   0.322
 1372SOL    HW1 5015   6.686   2.505   0.372
 1372SOL    HW2 5016   6.729   2.623   0.267
 1373SOL     OW 5017   5.382   2.115   1.357
 1373SOL    HW1 5018   5.406   2.042   1.293
 1373SOL    HW2 5019   5.443   2.194   1.342
 1374SOL     OW 5020   3.935   3.982   1.006
 1374SOL    HW1 5021   3.873   3.919   0.960
 1374SOL    HW2 5022   4.024   3.982   0.960
 1375SOL     OW 5023   5.468   5.737   3.899
 1375SOL    HW1 5024   5.519   5.745   3.985
 1375SOL    HW2 5025   5.396   5.806   3.896
 1376SOL     OW 5026   2.721   4.784   5.996
 1376SOL    HW1 5027   2.813   4.756   6.023
 1376SOL    HW2 5028   2.691   4.862   6.052
 1377SOL     OW 5029   1.753   1.351   2.726
 1377SOL    HW1 5030   1.694   1.287   2.775
 1377SOL    HW2 5031   1.799   1.304   2.651
 1378SOL     OW 5032   4.812   2.519   4.493
 1378SOL    HW1 5033   4.757   2.464   4.431
 1378SOL    HW2 5034   4.869   2.459   4.550
 1379SOL     OW 5035   4.872   5.924   1.435
 1379SOL    HW1 5036   4.782   5.888   1.459
 1379SOL    HW2 5037   4.924   5.944   1.518
 1380SOL     OW 5038   6.859   6.265   2.030
 1380SOL    HW1 5039   6.916   6.318   2.092
 1380SOL    HW2 5040   6.916   6.219   1.963
 1381SOL     OW 5041   6.461   2.461   5.699
 1381SOL    HW1 5042   6.533   2.501   5.641
 1381SOL    HW2 5043   6.396   2.532   5.725
 1382SOL     OW 5044   4.818   2.538   0.367
 1382SOL    HW1 5045   4.845   2.505   0.458
 1382SOL    HW2 5046   4.736   2.595   0.375
 1383SOL     OW 5047   0.446   1.570   1.701
 1383SOL    HW1 5048   0.504   1.515   1.761
 1383SOL    HW2 5049   0.434   1.522   1.614
 1384SOL     OW 5050   6.088   1.775   1.763
 1384SOL    HW1 5051   6.147   1.804   1.838
 1384SOL    HW2 5052   5.995   1.809   1.778
 1385SOL     OW 5053   0.860   5.804   0.889
 1385SOL    HW1 5054   0.882   5.718   0.935
 1385SOL    HW2 5055   0.825   5.869   0.957
 1386SOL     OW 5056   2.025   5.808   4.004
 1386SOL    HW1 5057   2.058   5.798   3.910
 1386SOL    HW2 5058   1.971   5.728   4.029
 1387SOL     OW 5059   2.563   5.948   1.992
 1387SOL    HW1 5060   2.587   5.897   1.910
 1387SOL    HW2 5061   2.620   6.030   1.998
 1388SOL     OW 5062   6.738   0.623   1.846
 1388SOL    HW1 5063   6.745   0.723   1.852
 1388SOL    HW2 5064   6.644   0.595   1.865
 1389SOL     OW 5065   6.070   0.807   3.158
 1389SOL    HW1 5066   6.101   0.716   3.128
 1389SOL    HW2 5067   5.983   0.828   3.115
 1390SOL     OW 5068   1.182   1.803   6.089
 1390SOL    HW1 5069   1.094   1.767   6.058
 1390SOL    HW2 5070   1.256   1.758   6.040
 1391SOL     OW 5071   0.284   3.029   3.261
 1391SOL    HW1 5072   0.233   3.035   3.347
 1391SOL    HW2 5073   0.326   2.938   3.254
 1392SOL     OW 5074   4.659   4.609   5.472
 1392SOL    HW1 5075   4.674   4.672   5.548
 1392SOL    HW2 5076   4.672   4.515   5.502
 1393SOL     OW 5077   3.446   6.497   5.883
 1393SOL    HW1 5078   3.360   6.508   5.933
 1393SOL    HW2 5079   3.494   6.585   5.881
 1394SOL     OW 5080   1.810   6.257   6.358
 1394SOL    HW1 5081   1.762   6.174   6.385
 1394SOL    HW2 5082   1.746   6.320   6.314
 1395SOL     OW 5083   3.600   4.016   5.730
 1395SOL    HW1 5084   3.505   3.992   5.710
 1395SOL    HW2 5085   3.608   4.050   5.823
 1396SOL     OW 5086   5.333   5.651   4.285
 1396SOL    HW1 5087   5.416   5.652   4.230
 1396SOL    HW2 5088   5.357   5.654   4.382
 1397SOL     OW 5089   4.442   6.224   5.081
 1397SOL    HW1 5090   4.521   6.273   5.116
 1397SOL    HW2 5091   4.404   6.273   5.002
 1398SOL     OW 5092   1.714   1.617   4.556
 1398SOL    HW1 5093   1.775   1.696   4.548
 1398SOL    HW2 5094   1.628   1.646   4.598
 1399SOL     OW 5095   3.026   6.836   1.366
 1399SOL    HW1 5096   3.000   6.740   1.351
 1399SOL    HW2 5097   3.046   6.879   1.279
 1400SOL     OW 5098   0.892   6.865   1.916
 1400SOL    HW1 5099   0.838   6.820   1.988
 1400SOL    HW2 5100   0.974   6.906   1.956
 1401SOL     OW 5101   6.834   1.128   4.722
 1401SOL    HW1 5102   6.928   1.098   4.704
 1401SOL    HW2 5103   6.783   1.128   4.636
 1402SOL     OW 5104   6.889   3.390   0.245
 1402SOL    HW1 5105   6.989   3.388   0.235
 1402SOL    HW2 5106   6.856   3.298   0.266
 1403SOL     OW 5107   2.700   1.102   2.210
 1403SOL    HW1 5108   2.650   1.164   2.150
 1403SOL    HW2 5109   2.636   1.060   2.275
 1404SOL     OW 5110   5.339   0.366   0.414
 1404SOL    HW1 5111   5.346   0.452   0.465
 1404SOL    HW2 5112   5.309   0.385   0.320
 1405SOL     OW 5113   2.256   3.641   0.927
 1405SOL    HW1 5114   2.310   3.724   0.913
 1405SOL    HW2 5115   2.189   3.657   0.999
 1406SOL     OW 5116   1.457   4.255   1.048
 1406SOL    HW1 5117   1.407   4.314   1.112
 1406SOL    HW2 5118   1.488   4.173   1.095
 1407SOL     OW 5119   6.412   2.141   2.558
 1407SOL    HW1 5120   6.428   2.202   2.635
 1407SOL    HW2 5121   6.497   2.097   2.532
 1408SOL     OW 5122   6.410   0.596   6.493
 1408SOL    HW1 5123   6.407   0.696   6.490
 1408SOL    HW2 5124   6.397   0.559   6.400
 1409SOL     OW 5125   0.364   0.771   4.616
 1409SOL    HW1 5126   0.313   0.718   4.549
 1409SOL    HW2 5127   0.462   0.761   4.598
 1410SOL     OW 5128   0.628   2.632   6.961
 1410SOL    HW1 5129   0.550   2.570   6.966
 1410SOL    HW2 5130   0.623   2.698   0.019
 1411SOL     OW 5131   2.064   6.755   1.491
 1411SOL    HW1 5132   2.157   6.722   1.507
 1411SOL    HW2 5133   2.066   6.854   1.477
 1412SOL     OW 5134   1.059   2.798   6.907
 1412SOL    HW1 5135   1.096   2.713   6.945
 1412SOL    HW2 5136   0.968   2.781   6.870
 1413SOL     OW 5137   2.552   0.598   3.722
 1413SOL    HW1 5138   2.646   0.567   3.733
 1413SOL    HW2 5139   2.492   0.519   3.712
 1414SOL     OW 5140   1.800   1.802   1.758
 1414SOL    HW1 5141   1.746   1.884   1.778
 1414SOL    HW2 5142   1.896   1.821   1.776
 1415SOL     OW 5143   4.193   6.056   5.743
 1415SOL    HW1 5144   4.099   6.086   5.727
 1415SOL    HW2 5145   4.192   5.962   5.778
 1416SOL     OW 5146   4.300   5.372   1.825
 1416SOL    HW1 5147   4.314   5.297   1.760
 1416SOL    HW2 5148   4.389   5.408   1.855
 1417SOL     OW 5149   3.103   1.845   5.818
 1417SOL    HW1 5150   3.119   1.912   5.890
 1417SOL    HW2 5151   3.110   1.890   5.729
 1418SOL     OW 5152   3.688   3.895   2.545
 1418SOL    HW1 5153   3.772   3.848   2.518
 1418SOL    HW2 5154   3.645   3.935   2.465
 1419SOL     OW 5155   4.190   6.586   4.793
 1419SOL    HW1 5156   4.131   6.519   4.838
 1419SOL    HW2 5157   4.140   6.671   4.781
 1420SOL     OW 5158   0.573   6.000   2.203
 1420SOL    HW1 5159   0.578   6.058   2.121
 1420SOL    HW2 5160   0.666   5.985   2.238
 1421SOL     OW 5161   3.621   1.449   2.281
 1421SOL    HW1 5162   3.581   1.508   2.351
 1421SOL    HW2 5163   3.583   1.472   2.192
 1422SOL     OW 5164   2.840   5.680   0.167
 1422SOL    HW1 5165   2.799   5.650   0.252
 1422SOL    HW2 5166   2.773   5.733   0.114
 1423SOL     OW 5167   4.986   0.109   2.636
 1423SOL    HW1 5168   4.953   0.017   2.612
 1423SOL    HW2 5169   4.908   0.170   2.647
 1424SOL     OW 5170   6.501   4.569   5.001
 1424SOL    HW1 5171   6.564   4.580   5.078
 1424SOL    HW2 5172   6.409   4.552   5.035
 1425SOL     OW 5173   2.711   6.898   4.026
 1425SOL    HW1 5174   2.623   6.866   4.061
 1425SOL    HW2 5175   2.703   6.918   3.928
 1426SOL     OW 5176   1.006   1.428   5.504
 1426SOL    HW1 5177   1.010   1.335   5.469
 1426SOL    HW2 5178   1.024   1.493   5.430
 1427SOL     OW 5179   6.060   0.830   4.382
 1427SOL    HW1 5180   6.157   0.846   4.368
 1427SOL    HW2 5181   6.017   0.912   4.420
 1428SOL     OW 5182   5.470   1.480   6.455
 1428SOL    HW1 5183   5.536   1.534   6.403
 1428SOL    HW2 5184   5.385   1.532   6.467
 1429SOL     OW 5185   0.173   0.928   0.417
 1429SOL    HW1 5186   0.199   0.832   0.407
 1429SOL    HW2 5187   0.116   0.956   0.340
 1430SOL     OW 5188   1.735   5.308   3.413
 1430SOL    HW1 5189   1.695   5.217   3.419
 1430SOL    HW2 5190   1.811   5.307   3.348
 1431SOL     OW 5191   1.903   1.121   0.839
 1431SOL    HW1 5192   1.855   1.042   0.877
 1431SOL    HW2 5193   1.990   1.091   0.799
 1432SOL     OW 5194   1.836   1.601   2.283
 1432SOL    HW1 5195   1.844   1.660   2.202
 1432SOL    HW2 5196   1.758   1.540   2.272
 1433SOL     OW 5197   4.314   0.920   4.394
 1433SOL    HW1 5198   4.255   0.942   4.316
 1433SOL    HW2 5199   4.297   0.984   4.468
 1434SOL     OW 5200   1.485   1.148   5.694
 1434SOL    HW1 5201   1.456   1.104   5.778
 1434SOL    HW2 5202   1.420   1.220   5.669
 1435SOL     OW 5203   6.257   1.920   2.685
 1435SOL    HW1 5204   6.315   1.840   2.695
 1435SOL    HW2 5205   6.311   1.997   2.653
 1436SOL     OW 5206   4.026   3.622   0.745
 1436SOL    HW1 5207   4.065   3.714   0.758
 1436SOL    HW2 5208   3.943   3.628   0.690
 1437SOL     OW 5209   3.360   0.825   2.340
 1437SOL    HW1 5210   3.385   0.765   2.264
 1437SOL    HW2 5211   3.261   0.840   2.340
 1438SOL     OW 5212   2.870   0.228   0.990
 1438SOL    HW1 5213   2.905   0.212   0.898
 1438SOL    HW2 5214   2.853   0.325   1.004
 1439SOL     OW 5215   0.569   5.839   2.721
 1439SOL    HW1 5216   0.594   5.750   2.682
 1439SOL    HW2 5217   0.542   5.901   2.647
 1440SOL     OW 5218   3.103   3.460   1.678
 1440SOL    HW1 5219   3.103   3.381   1.616
 1440SOL    HW2 5220   3.187   3.460   1.732
 1441SOL     OW 5221   5.702   6.439   1.057
 1441SOL    HW1 5222   5.724   6.431   0.959
 1441SOL    HW2 5223   5.668   6.530   1.076
 1442SOL     OW 5224   6.119   5.452   0.615
 1442SOL    HW1 5225   6.200   5.501   0.583
 1442SOL    HW2 5226   6.147   5.369   0.663
 1443SOL     OW 5227   0.288   2.727   2.922
 1443SOL    HW1 5228   0.305   2.789   2.845
 1443SOL    HW2 5229   0.222   2.767   2.984
 1444SOL     OW 5230   6.000   5.379   0.100
 1444SOL    HW1 5231   6.017   5.318   0.177
 1444SOL    HW2 5232   6.077   5.377   0.037
 1445SOL     OW 5233   1.239   3.370   2.159
 1445SOL    HW1 5234   1.337   3.361   2.172
 1445SOL    HW2 5235   1.191   3.303   2.215
 1446SOL     OW 5236   0.039   0.173   0.090
 1446SOL    HW1 5237   0.080   0.189   0.180
 1446SOL    HW2 5238   6.957   0.189   0.096
 1447SOL     OW 5239   5.933   5.095   4.780
 1447SOL    HW1 5240   5.982   5.037   4.715
 1447SOL    HW2 5241   5.998   5.155   4.826
 1448SOL     OW 5242   1.372   3.214   5.746
 1448SOL    HW1 5243   1.458   3.228   5.698
 1448SOL    HW2 5244   1.328   3.303   5.763
 1449SOL     OW 5245   2.096   3.836   4.006
 1449SOL    HW1 5246   2.164   3.765   4.021
 1449SOL    HW2 5247   2.041   3.813   3.925
 1450SOL     OW 5248   2.427   2.642   4.491
 1450SOL    HW1 5249   2.468   2.661   4.581
 1450SOL    HW2 5250   2.418   2.543   4.480
 1451SOL     OW 5251   2.071   0.535   2.085
 1451SOL    HW1 5252   2.033   0.460   2.140
 1451SOL    HW2 5253   2.149   0.501   2.032
 1452SOL     OW 5254   4.869   3.045   5.819
 1452SOL    HW1 5255   4.967   3.064   5.809
 1452SOL    HW2 5256   4.828   3.113   5.881
 1453SOL     OW 5257   0.003   4.993   5.397
 1453SOL    HW1 5258   0.088   5.042   5.378
 1453SOL    HW2 5259   6.968   5.041   5.468
 1454SOL     OW 5260   3.720   1.896   3.948
 1454SOL    HW1 5261   3.793   1.930   3.889
 1454SOL    HW2 5262   3.657   1.840   3.895
 1455SOL     OW 5263   0.909   5.936   1.480
 1455SOL    HW1 5264   0.855   6.002   1.532
 1455SOL    HW2 5265   0.868   5.845   1.488
 1456SOL     OW 5266   6.309   5.279   5.296
 1456SOL    HW1 5267   6.216   5.313   5.313
 1456SOL    HW2 5268   6.366   5.296   5.376
 1457SOL     OW 5269   1.149   4.366   6.129
 1457SOL    HW1 5270   1.071   4.341   6.072
 1457SOL    HW2 5271   1.126   4.355   6.225
 1458SOL     OW 5272   5.024   5.475   5.004
 1458SOL    HW1 5273   5.017   5.403   4.935
 1458SOL    HW2 5274   5.022   5.565   4.959
 1459SOL     OW 5275   4.896   6.260   4.809
 1459SOL    HW1 5276   4.903   6.203   4.891
 1459SOL    HW2 5277   4.985   6.264   4.763
 1460SOL     OW 5278   1.551   6.269   5.475
 1460SOL    HW1 5279   1.598   6.236   5.557
 1460SOL    HW2 5280   1.614   6.266   5.398
 1461SOL     OW 5281   0.018   3.268   3.638
 1461SOL    HW1 5282   0.098   3.294   3.584
 1461SOL    HW2 5283   0.009   3.169   3.639
 1462SOL     OW 5284   0.926   0.241   1.356
 1462SOL    HW1 5285   0.836   0.238   1.399
 1462SOL    HW2 5286   0.956   0.336   1.347
 1463SOL     OW 5287   2.129   5.749   0.236
 1463SOL    HW1 5288   2.071   5.784   0.310
 1463SOL    HW2 5289   2.075   5.740   0.153
 1464SOL     OW 5290   0.670   4.225   3.743
 1464SOL    HW1 5291   0.768   4.242   3.750
 1464SOL    HW2 5292   0.650   4.185   3.653
 1465SOL     OW 5293   1.220   2.581   3.622
 1465SOL    HW1 5294   1.128   2.547   3.605
 1465SOL    HW2 5295   1.243   2.568   3.719
 1466SOL     OW 5296   5.026   2.306   1.810
 1466SOL    HW1 5297   5.045   2.340   1.718
 1466SOL    HW2 5298   4.928   2.310   1.828
 1467SOL     OW 5299   1.270   1.196   4.183
 1467SOL    HW1 5300   1.290   1.198   4.085
 1467SOL    HW2 5301   1.200   1.128   4.202
 1468SOL     OW 5302   2.385   5.552   2.334
 1468SOL    HW1 5303   2.362   5.513   2.245
 1468SOL    HW2 5304   2.320   5.624   2.356
 1469SOL     OW 5305   6.315   4.248   3.429
 1469SOL    HW1 5306   6.265   4.271   3.513
 1469SOL    HW2 5307   6.334   4.150   3.428
 1470SOL     OW 5308   6.553   1.849   0.742
 1470SOL    HW1 5309   6.534   1.869   0.645
 1470SOL    HW2 5310   6.558   1.750   0.755
 1471SOL     OW 5311   5.326   0.019   1.907
 1471SOL    HW1 5312   5.268   0.094   1.875
 1471SOL    HW2 5313   5.383   7.003   1.832
 1472SOL     OW 5314   1.749   6.868   5.995
 1472SOL    HW1 5315   1.749   6.872   6.095
 1472SOL    HW2 5316   1.674   6.809   5.964
 1473SOL     OW 5317   2.269   5.591   4.071
 1473SOL    HW1 5318   2.313   5.597   4.161
 1473SOL    HW2 5319   2.188   5.650   4.070
 1474SOL     OW 5320   3.276   4.878   1.506
 1474SOL    HW1 5321   3.246   4.972   1.495
 1474SOL    HW2 5322   3.219   4.832   1.574
 1475SOL     OW 5323   4.917   0.047   0.146
 1475SOL    HW1 5324   4.906   0.051   0.047
 1475SOL    HW2 5325   4.828   0.058   0.190
 1476SOL     OW 5326   5.011   0.655   1.459
 1476SOL    HW1 5327   5.089   0.655   1.396
 1476SOL    HW2 5328   4.985   0.749   1.480
 1477SOL     OW 5329   3.613   4.816   1.492
 1477SOL    HW1 5330   3.566   4.748   1.436
 1477SOL    HW2 5331   3.551   4.891   1.514
 1478SOL     OW 5332   5.411   5.474   6.231
 1478SOL    HW1 5333   5.360   5.473   6.317
 1478SOL    HW2 5334   5.367   5.413   6.165
 1479SOL     OW 5335   3.778   3.856   1.310
 1479SOL    HW1 5336   3.826   3.788   1.254
 1479SOL    HW2 5337   3.836   3.936   1.322
 1480SOL     OW 5338   3.052   0.133   4.670
 1480SOL    HW1 5339   2.968   0.187   4.677
 1480SOL    HW2 5340   3.049   0.058   4.736
 1481SOL     OW 5341   5.355   2.672   6.504
 1481SOL    HW1 5342   5.276   2.732   6.492
 1481SOL    HW2 5343   5.389   2.643   6.415
 1482SOL     OW 5344   4.955   1.142   0.681
 1482SOL    HW1 5345   4.888   1.129   0.607
 1482SOL    HW2 5346   5.007   1.057   0.693
 1483SOL     OW 5347   5.510   1.546   5.636
 1483SOL    HW1 5348   5.453   1.564   5.715
 1483SOL    HW2 5349   5.529   1.632   5.588
 1484SOL     OW 5350   3.069   5.625   4.798
 1484SOL    HW1 5351   3.083   5.708   4.852
 1484SOL    HW2 5352   3.005   5.645   4.723
 1485SOL     OW 5353   5.296   2.425   3.297
 1485SOL    HW1 5354   5.215   2.402   3.243
 1485SOL    HW2 5355   5.272   2.427   3.394
 1486SOL     OW 5356   5.189   7.005   3.935
 1486SOL    HW1 5357   5.218   6.925   3.883
 1486SOL    HW2 5358   5.269   0.039   3.966
 1487SOL     OW 5359   6.674   0.494   0.947
 1487SOL    HW1 5360   6.700   0.522   0.854
 1487SOL    HW2 5361   6.689   0.570   1.010
 1488SOL     OW 5362   5.789   1.012   2.532
 1488SOL    HW1 5363   5.734   1.095   2.541
 1488SOL    HW2 5364   5.758   0.944   2.597
 1489SOL     OW 5365   3.754   4.518   0.149
 1489SOL    HW1 5366   3.831   4.490   0.206
 1489SOL    HW2 5367   3.775   4.605   0.104
 1490SOL     OW 5368   6.706   2.228   2.481
 1490SOL    HW1 5369   6.767   2.302   2.510
 1490SOL    HW2 5370   6.630   2.266   2.428
 1491SOL     OW 5371   6.265   2.610   3.452
 1491SOL    HW1 5372   6.219   2.523   3.435
 1491SOL    HW2 5373   6.357   2.592   3.487
 1492SOL     OW 5374   5.842   1.303   3.044
 1492SOL    HW1 5375   5.933   1.335   3.015
 1492SOL    HW2 5376   5.812   1.230   2.982
 1493SOL     OW 5377   4.389   2.560   5.711
 1493SOL    HW1 5378   4.296   2.594   5.722
 1493SOL    HW2 5379   4.396   2.468   5.750
 1494SOL     OW 5380   6.573   4.359   5.522
 1494SOL    HW1 5381   6.663   4.352   5.478
 1494SOL    HW2 5382   6.519   4.429   5.475
 1495SOL     OW 5383   6.381   3.977   4.380
 1495SOL    HW1 5384   6.322   4.020   4.449
 1495SOL    HW2 5385   6.468   3.952   4.422
 1496SOL     OW 5386   6.344   5.563   6.448
 1496SOL    HW1 5387   6.379   5.480   6.490
 1496SOL    HW2 5388   6.244   5.565   6.457
 1497SOL     OW 5389   5.936   3.187   2.897
 1497SOL    HW1 5390   6.009   3.236   2.946
 1497SOL    HW2 5391   5.865   3.252   2.871
 1498SOL     OW 5392   3.384   4.408   0.760
 1498SOL    HW1 5393   3.463   4.346   0.755
 1498SOL    HW2 5394   3.308   4.369   0.709
 1499SOL     OW 5395   0.518   4.140   5.130
 1499SOL    HW1 5396   0.475   4.152   5.219
 1499SOL    HW2 5397   0.605   4.190   5.128
 1500SOL     OW 5398   0.827   5.827   1.963
 1500SOL    HW1 5399   0.756   5.864   2.024
 1500SOL    HW2 5400   0.783   5.787   1.883
 1501SOL     OW 5401   5.622   2.126   0.104
 1501SOL    HW1 5402   5.555   2.190   0.142
 1501SOL    HW2 5403   5.582   2.035   0.098
 1502SOL     OW 5404   6.330   0.145   6.486
 1502SOL    HW1 5405   6.326   0.095   6.399
 1502SOL    HW2 5406   6.296   0.086   6.560
 1503SOL     OW 5407   0.427   4.866   1.961
 1503SOL    HW1 5408   0.361   4.869   1.886
 1503SOL    HW2 5409   0.519   4.878   1.923
 1504SOL     OW 5410   0.670   0.255   2.319
 1504SOL    HW1 5411   0.726   0.272   2.238
 1504SOL    HW2 5412   0.721   0.279   2.401
 1505SOL     OW 5413   4.918   6.121   5.052
 1505SOL    HW1 5414   4.860   6.043   5.075
 1505SOL    HW2 5415   5.014   6.093   5.054
 1506SOL     OW 5416   1.105   1.560   1.230
 1506SOL    HW1 5417   1.080   1.498   1.305
 1506SOL    HW2 5418   1.122   1.651   1.266
 1507SOL     OW 5419   1.777   2.744   4.460
 1507SOL    HW1 5420   1.856   2.704   4.506
 1507SOL    HW2 5421   1.760   2.696   4.374
 1508SOL     OW 5422   1.275   0.641   0.867
 1508SOL    HW1 5423   1.358   0.657   0.814
 1508SOL    HW2 5424   1.215   0.579   0.817
 1509SOL     OW 5425   4.949   0.943   4.303
 1509SOL    HW1 5426   5.049   0.945   4.292
 1509SOL    HW2 5427   4.919   0.849   4.314
 1510SOL     OW 5428   3.824   5.646   4.221
 1510SOL    HW1 5429   3.893   5.656   4.150
 1510SOL    HW2 5430   3.865   5.605   4.302
 1511SOL     OW 5431   3.644   3.370   4.495
 1511SOL    HW1 5432   3.656   3.280   4.454
 1511SOL    HW2 5433   3.546   3.391   4.502
 1512SOL     OW 5434   6.031   6.160   0.765
 1512SOL    HW1 5435   6.010   6.167   0.668
 1512SOL    HW2 5436   6.128   6.181   0.779
 1513SOL     OW 5437   3.149   0.077   6.051
 1513SOL    HW1 5438   3.056   0.111   6.060
 1513SOL    HW2 5439   3.147   6.996   6.027
 1514SOL     OW 5440   3.392   2.361   5.495
 1514SOL    HW1 5441   3.460   2.425   5.530
 1514SOL    HW2 5442   3.315   2.412   5.456
 1515SOL     OW 5443   5.412   1.957   1.934
 1515SOL    HW1 5444   5.331   1.996   1.979
 1515SOL    HW2 5445   5.387   1.926   1.843
 1516SOL     OW 5446   5.997   0.008   4.795
 1516SOL    HW1 5447   6.023   6.953   4.859
 1516SOL    HW2 5448   5.943   6.985   4.720
 1517SOL     OW 5449   4.384   6.160   3.450
 1517SOL    HW1 5450   4.466   6.212   3.426
 1517SOL    HW2 5451   4.350   6.113   3.369
 1518SOL     OW 5452   0.433   2.620   0.219
 1518SOL    HW1 5453   0.349   2.625   0.164
 1518SOL    HW2 5454   0.493   2.696   0.194
 1519SOL     OW 5455   6.878   4.443   6.707
 1519SOL    HW1 5456   6.857   4.347   6.687
 1519SOL    HW2 5457   6.962   4.469   6.658
 1520SOL     OW 5458   0.093   6.127   2.592
 1520SOL    HW1 5459   0.146   6.119   2.507
 1520SOL    HW2 5460   0.145   6.086   2.667
 1521SOL     OW 5461   1.890   5.651   6.106
 1521SOL    HW1 5462   1.844   5.621   6.189
 1521SOL    HW2 5463   1.986   5.671   6.127
 1522SOL     OW 5464   4.489   5.930   4.328
 1522SOL    HW1 5465   4.565   5.972   4.278
 1522SOL    HW2 5466   4.522   5.849   4.377
 1523SOL     OW 5467   3.733   6.402   0.485
 1523SOL    HW1 5468   3.673   6.438   0.557
 1523SOL    HW2 5469   3.737   6.302   0.492
 1524SOL     OW 5470   2.364   1.605   2.306
 1524SOL    HW1 5471   2.395   1.672   2.373
 1524SOL    HW2 5472   2.329   1.652   2.225
 1525SOL     OW 5473   5.755   2.531   6.625
 1525SOL    HW1 5474   5.754   2.630   6.633
 1525SOL    HW2 5475   5.665   2.494   6.649
 1526SOL     OW 5476   0.995   1.287   0.690
 1526SOL    HW1 5477   0.935   1.215   0.725
 1526SOL    HW2 5478   1.023   1.264   0.597
 1527SOL     OW 5479   3.798   1.008   3.908
 1527SOL    HW1 5480   3.788   1.057   3.822
 1527SOL    HW2 5481   3.723   0.942   3.918
 1528SOL     OW 5482   4.325   3.988   1.261
 1528SOL    HW1 5483   4.254   3.920   1.246
 1528SOL    HW2 5484   4.293   4.056   1.328
 1529SOL     OW 5485   4.849   1.145   5.503
 1529SOL    HW1 5486   4.801   1.127   5.589
 1529SOL    HW2 5487   4.797   1.108   5.427
 1530SOL     OW 5488   3.436   6.216   1.442
 1530SOL    HW1 5489   3.397   6.306   1.424
 1530SOL    HW2 5490   3.497   6.221   1.522
 1531SOL     OW 5491   3.789   6.746   3.781
 1531SOL    HW1 5492   3.876   6.743   3.732
 1531SOL    HW2 5493   3.762   6.653   3.806
 1532SOL     OW 5494   2.335   5.332   6.399
 1532SOL    HW1 5495   2.317   5.406   6.334
 1532SOL    HW2 5496   2.296   5.247   6.364
 1533SOL     OW 5497   6.036   5.281   1.505
 1533SOL    HW1 5498   6.074   5.317   1.420
 1533SOL    HW2 5499   5.986   5.196   1.485
 1534SOL     OW 5500   3.368   5.520   6.165
 1534SOL    HW1 5501   3.392   5.477   6.078
 1534SOL    HW2 5502   3.301   5.464   6.214
 1535SOL     OW 5503   5.855   6.455   4.681
 1535SOL    HW1 5504   5.884   6.489   4.591
 1535SOL    HW2 5505   5.903   6.507   4.752
 1536SOL     OW 5506   4.436   4.086   6.634
 1536SOL    HW1 5507   4.463   4.177   6.601
 1536SOL    HW2 5508   4.505   4.019   6.606
 1537SOL     OW 5509   3.145   5.408   3.504
 1537SOL    HW1 5510   3.061   5.427   3.453
 1537SOL    HW2 5511   3.147   5.311   3.529
 1538SOL     OW 5512   3.153   1.396   6.974
 1538SOL    HW1 5513   3.191   1.404   6.882
 1538SOL    HW2 5514   3.084   1.467   6.988
 1539SOL     OW 5515   6.028   3.467   0.480
 1539SOL    HW1 5516   6.082   3.551   0.483
 1539SOL    HW2 5517   6.017   3.430   0.572
 1540SOL     OW 5518   3.179   6.767   4.401
 1540SOL    HW1 5519   3.233   6.849   4.382
 1540SOL    HW2 5520   3.206   6.694   4.338
 1541SOL     OW 5521   3.170   3.212   4.890
 1541SOL    HW1 5522   3.077   3.234   4.920
 1541SOL    HW2 5523   3.177   3.114   4.875
 1542SOL     OW 5524   6.833   0.315   2.701
 1542SOL    HW1 5525   6.785   0.400   2.680
 1542SOL    HW2 5526   6.799   0.242   2.643
 1543SOL     OW 5527   2.498   4.384   6.873
 1543SOL    HW1 5528   2.457   4.456   6.817
 1543SOL    HW2 5529   2.458   4.296   6.848
 1544SOL     OW 5530   4.048   3.451   4.575
 1544SOL    HW1 5531   3.994   3.443   4.492
 1544SOL    HW2 5532   4.062   3.547   4.597
 1545SOL     OW 5533   5.929   6.343   2.392
 1545SOL    HW1 5534   5.863   6.290   2.444
 1545SOL    HW2 5535   6.007   6.285   2.368
 1546SOL     OW 5536   5.453   6.449   5.833
 1546SOL    HW1 5537   5.516   6.436   5.757
 1546SOL    HW2 5538   5.411   6.361   5.856
 1547SOL     OW 5539   1.744   3.407   6.769
 1547SOL    HW1 5540   1.702   3.446   6.687
 1547SOL    HW2 5541   1.810   3.337   6.743
 1548SOL     OW 5542   6.395   2.435   6.592
 1548SOL    HW1 5543   6.354   2.410   6.504
 1548SOL    HW2 5544   6.419   2.532   6.591
 1549SOL     OW 5545   4.718   0.774   5.182
 1549SOL    HW1 5546   4.672   0.847   5.233
 1549SOL    HW2 5547   4.651   0.727   5.124
 1550SOL     OW 5548   3.113   3.080   3.262
 1550SOL    HW1 5549   3.070   3.153   3.209
 1550SOL    HW2 5550   3.131   3.001   3.203
 1551SOL     OW 5551   6.804   5.203   6.419
 1551SOL    HW1 5552   6.722   5.153   6.447
 1551SOL    HW2 5553   6.885   5.157   6.456
 1552SOL     OW 5554   2.123   4.301   2.073
 1552SOL    HW1 5555   2.064   4.377   2.099
 1552SOL    HW2 5556   2.218   4.321   2.098
 1553SOL     OW 5557   0.967   1.737   5.854
 1553SOL    HW1 5558   0.935   1.812   5.912
 1553SOL    HW2 5559   0.956   1.762   5.758
 1554SOL     OW 5560   2.823   1.629   3.460
 1554SOL    HW1 5561   2.846   1.652   3.554
 1554SOL    HW2 5562   2.889   1.670   3.398
 1555SOL     OW 5563   6.822   3.695   6.304
 1555SOL    HW1 5564   6.871   3.668   6.220
 1555SOL    HW2 5565   6.826   3.621   6.371
 1556SOL     OW 5566   2.301   1.106   5.955
 1556SOL    HW1 5567   2.320   1.130   5.860
 1556SOL    HW2 5568   2.207   1.071   5.962
 1557SOL     OW 5569   0.550   2.765   6.347
 1557SOL    HW1 5570   0.636   2.812   6.326
 1557SOL    HW2 5571   0.491   2.825   6.399
 1558SOL     OW 5572   6.804   6.951   4.835
 1558SOL    HW1 5573   6.861   6.874   4.864
 1558SOL    HW2 5574   6.791   6.948   4.736
 1559SOL     OW 5575   0.693   1.694   6.419
 1559SOL    HW1 5576   0.783   1.723   6.451
 1559SOL    HW2 5577   0.667   1.747   6.338
 1560SOL     OW 5578   6.978   0.789   6.613
 1560SOL    HW1 5579   6.916   0.831   6.679
 1560SOL    HW2 5580   6.937   0.706   6.577
 1561SOL     OW 5581   5.503   5.818   3.059
 1561SOL    HW1 5582   5.454   5.832   2.972
 1561SOL    HW2 5583   5.489   5.898   3.117
 1562SOL     OW 5584   5.658   1.035   3.427
 1562SOL    HW1 5585   5.647   1.134   3.433
 1562SOL    HW2 5586   5.726   1.013   3.357
 1563SOL     OW 5587   3.739   0.376   5.329
 1563SOL    HW1 5588   3.686   0.296   5.359
 1563SOL    HW2 5589   3.826   0.378   5.378
 1564SOL     OW 5590   1.662   2.077   2.840
 1564SOL    HW1 5591   1.621   1.991   2.869
 1564SOL    HW2 5592   1.679   2.075   2.741
 1565SOL     OW 5593   5.179   3.587   1.872
 1565SOL    HW1 5594   5.177   3.536   1.786
 1565SOL    HW2 5595   5.089   3.585   1.915
 1566SOL     OW 5596   5.734   4.270   3.655
 1566SOL    HW1 5597   5.684   4.186   3.676
 1566SOL    HW2 5598   5.668   4.344   3.639
 1567SOL     OW 5599   6.863   5.587   5.755
 1567SOL    HW1 5600   6.825   5.510   5.806
 1567SOL    HW2 5601   6.961   5.595   5.777
 1568SOL     OW 5602   0.295   0.118   0.849
 1568SOL    HW1 5603   0.199   0.131   0.874
 1568SOL    HW2 5604   0.318   0.180   0.774
 1569SOL     OW 5605   3.696   5.951   5.326
 1569SOL    HW1 5606   3.730   5.983   5.237
 1569SOL    HW2 5607   3.608   5.906   5.314
 1570SOL     OW 5608   3.871   2.020   1.539
 1570SOL    HW1 5609   3.814   1.945   1.505
 1570SOL    HW2 5610   3.967   2.000   1.519
 1571SOL     OW 5611   6.689   4.437   1.853
 1571SOL    HW1 5612   6.728   4.526   1.878
 1571SOL    HW2 5613   6.700   4.424   1.754
 1572SOL     OW 5614   1.479   6.654   2.430
 1572SOL    HW1 5615   1.451   6.564   2.396
 1572SOL    HW2 5616   1.515   6.708   2.354
 1573SOL     OW 5617   4.102   0.176   1.013
 1573SOL    HW1 5618   4.158   0.095   0.996
 1573SOL    HW2 5619   4.147   0.257   0.976
 1574SOL     OW 5620   6.596   2.700   2.146
 1574SOL    HW1 5621   6.507   2.654   2.147
 1574SOL    HW2 5622   6.587   2.791   2.186
 1575SOL     OW 5623   2.465   2.579   0.313
 1575SOL    HW1 5624   2.530   2.655   0.319
 1575SOL    HW2 5625   2.383   2.609   0.263
 1576SOL     OW 5626   6.688   5.967   4.152
 1576SOL    HW1 5627   6.712   5.883   4.103
 1576SOL    HW2 5628   6.763   5.992   4.213
 1577SOL     OW 5629   2.236   0.358   6.980
 1577SOL    HW1 5630   2.192   0.346   6.891
 1577SOL    HW2 5631   2.259   0.455   6.992
 1578SOL     OW 5632   5.438   4.752   4.873
 1578SOL    HW1 5633   5.386   4.763   4.788
 1578SOL    HW2 5634   5.531   4.786   4.860
 1579SOL     OW 5635   1.129   0.399   3.809
 1579SOL    HW1 5636   1.112   0.485   3.761
 1579SOL    HW2 5637   1.228   0.389   3.825
 1580SOL     OW 5638   3.096   3.965   5.534
 1580SOL    HW1 5639   2.997   3.970   5.550
 1580SOL    HW2 5640   3.143   3.953   5.621
 1581SOL     OW 5641   6.618   3.892   4.483
 1581SOL    HW1 5642   6.675   3.835   4.423
 1581SOL    HW2 5643   6.615   3.851   4.575
 1582SOL     OW 5644   6.285   5.217   4.349
 1582SOL    HW1 5645   6.208   5.154   4.356
 1582SOL    HW2 5646   6.335   5.219   4.436
 1583SOL     OW 5647   1.677   2.719   2.972
 1583SOL    HW1 5648   1.687   2.655   2.895
 1583SOL    HW2 5649   1.723   2.804   2.950
 1584SOL     OW 5650   2.395   0.013   6.275
 1584SOL    HW1 5651   2.430   7.001   6.365
 1584SOL    HW2 5652   2.340   6.957   6.236
 1585SOL     OW 5653   5.491   1.815   5.518
 1585SOL    HW1 5654   5.556   1.889   5.502
 1585SOL    HW2 5655   5.425   1.811   5.443
 1586SOL     OW 5656   3.938   3.935   2.815
 1586SOL    HW1 5657   3.852   3.970   2.853
 1586SOL    HW2 5658   3.986   3.882   2.886
 1587SOL     OW 5659   2.837   6.377   6.841
 1587SOL    HW1 5660   2.822   6.278   6.834
 1587SOL    HW2 5661   2.840   6.417   6.750
 1588SOL     OW 5662   5.900   3.450   1.962
 1588SOL    HW1 5663   5.896   3.377   1.894
 1588SOL    HW2 5664   5.919   3.410   2.052
 1589SOL     OW 5665   5.325   3.806   4.199
 1589SOL    HW1 5666   5.288   3.846   4.282
 1589SOL    HW2 5667   5.287   3.714   4.186
 1590SOL     OW 5668   2.120   0.768   6.152
 1590SOL    HW1 5669   2.203   0.802   6.108
 1590SOL    HW2 5670   2.114   0.669   6.141
 1591SOL     OW 5671   1.260   4.585   1.474
 1591SOL    HW1 5672   1.300   4.576   1.566
 1591SOL    HW2 5673   1.167   4.622   1.482
 1592SOL     OW 5674   3.160   3.709   2.740
 1592SOL    HW1 5675   3.156   3.632   2.803
 1592SOL    HW2 5676   3.125   3.681   2.650
 1593SOL     OW 5677   0.945   5.589   5.419
 1593SOL    HW1 5678   0.889   5.526   5.473
 1593SOL    HW2 5679   0.920   5.581   5.322
 1594SOL     OW 5680   6.592   5.126   2.955
 1594SOL    HW1 5681   6.631   5.195   3.016
 1594SOL    HW2 5682   6.539   5.061   3.008
 1595SOL     OW 5683   6.900   4.846   6.191
 1595SOL    HW1 5684   6.825   4.861   6.256
 1595SOL    HW2 5685   6.906   4.749   6.169
 1596SOL     OW 5686   2.856   5.039   6.617
 1596SOL    HW1 5687   2.760   5.021   6.639
 1596SOL    HW2 5688   2.868   5.035   6.517
 1597SOL     OW 5689   2.631   7.005   1.401
 1597SOL    HW1 5690   2.693   0.018   1.329
 1597SOL    HW2 5691   2.568   0.062   1.424
 1598SOL     OW 5692   0.275   5.290   1.328
 1598SOL    HW1 5693   0.326   5.294   1.414
 1598SOL    HW2 5694   0.335   5.313   1.252
 1599SOL     OW 5695   3.508   5.069   6.880
 1599SOL    HW1 5696   3.559   5.112   6.805
 1599SOL    HW2 5697   3.558   5.081   6.965
 1600SOL     OW 5698   4.047   1.168   4.382
 1600SOL    HW1 5699   4.105   1.170   4.463
 1600SOL    HW2 5700   3.973   1.103   4.396
 1601SOL     OW 5701   0.620   4.823   3.549
 1601SOL    HW1 5702   0.577   4.753   3.492
 1601SOL    HW2 5703   0.715   4.837   3.518
 1602SOL     OW 5704   0.951   4.868   3.511
 1602SOL    HW1 5705   0.928   4.805   3.585
 1602SOL    HW2 5706   0.996   4.949   3.549
 1603SOL     OW 5707   6.563   6.647   1.430
 1603SOL    HW1 5708   6.603   6.579   1.492
 1603SOL    HW2 5709   6.487   6.693   1.476
 1604SOL     OW 5710   0.794   5.370   5.521
 1604SOL    HW1 5711   0.702   5.392   5.554
 1604SOL    HW2 5712   0.791   5.357   5.421
 1605SOL     OW 5713   5.217   6.310   3.088
 1605SOL    HW1 5714   5.138   6.274   3.038
 1605SOL    HW2 5715   5.256   6.387   3.038
 1606SOL     OW 5716   5.082   6.667   6.291
 1606SOL    HW1 5717   5.150   6.719   6.341
 1606SOL    HW2 5718   5.024   6.618   6.356
 1607SOL     OW 5719   4.234   2.113   0.672
 1607SOL    HW1 5720   4.316   2.082   0.624
 1607SOL    HW2 5721   4.258   2.182   0.739
 1608SOL     OW 5722   2.712   0.269   0.650
 1608SOL    HW1 5723   2.684   0.336   0.582
 1608SOL    HW2 5724   2.800   0.296   0.690
 1609SOL     OW 5725   4.881   1.945   5.586
 1609SOL    HW1 5726   4.969   1.937   5.633
 1609SOL    HW2 5727   4.807   1.918   5.648
 1610SOL     OW 5728   6.028   5.588   4.605
 1610SOL    HW1 5729   6.021   5.685   4.582
 1610SOL    HW2 5730   5.976   5.534   4.539
 1611SOL     OW 5731   2.651   3.487   1.399
 1611SOL    HW1 5732   2.635   3.490   1.300
 1611SOL    HW2 5733   2.696   3.572   1.428
 1612SOL     OW 5734   3.250   0.987   4.218
 1612SOL    HW1 5735   3.166   1.038   4.197
 1612SOL    HW2 5736   3.320   1.010   4.151
 1613SOL     OW 5737   2.086   6.111   0.766
 1613SOL    HW1 5738   2.040   6.097   0.853
 1613SOL    HW2 5739   2.019   6.114   0.692
 1614SOL     OW 5740   6.648   2.318   6.908
 1614SOL    HW1 5741   6.552   2.291   6.911
 1614SOL    HW2 5742   6.705   2.236   6.912
 1615SOL     OW 5743   6.566   5.051   6.450
 1615SOL    HW1 5744   6.539   4.991   6.525
 1615SOL    HW2 5745   6.513   5.028   6.368
 1616SOL     OW 5746   2.722   2.018   5.671
 1616SOL    HW1 5747   2.638   2.063   5.641
 1616SOL    HW2 5748   2.749   1.949   5.603
 1617SOL     OW 5749   4.400   0.758   4.013
 1617SOL    HW1 5750   4.356   0.727   4.098
 1617SOL    HW2 5751   4.348   0.725   3.935
 1618SOL     OW 5752   5.640   2.454   0.831
 1618SOL    HW1 5753   5.588   2.525   0.783
 1618SOL    HW2 5754   5.579   2.401   0.889
 1619SOL     OW 5755   1.658   3.325   4.541
 1619SOL    HW1 5756   1.610   3.266   4.476
 1619SOL    HW2 5757   1.725   3.271   4.592
 1620SOL     OW 5758   3.466   5.223   1.041
 1620SOL    HW1 5759   3.460   5.189   1.135
 1620SOL    HW2 5760   3.481   5.146   0.979
 1621SOL     OW 5761   1.665   0.956   1.608
 1621SOL    HW1 5762   1.754   0.938   1.650
 1621SOL    HW2 5763   1.656   0.903   1.524
 1622SOL     OW 5764   2.255   1.839   4.382
 1622SOL    HW1 5765   2.339   1.792   4.355
 1622SOL    HW2 5766   2.276   1.934   4.404
 1623SOL     OW 5767   2.790   1.971   4.836
 1623SOL    HW1 5768   2.798   1.953   4.738
 1623SOL    HW2 5769   2.830   2.061   4.857
 1624SOL     OW 5770   2.294   0.636   0.118
 1624SOL    HW1 5771   2.233   0.702   0.076
 1624SOL    HW2 5772   2.343   0.679   0.194
 1625SOL     OW 5773   6.931   5.386   2.141
 1625SOL    HW1 5774   7.012   5.444   2.133
 1625SOL    HW2 5775   6.940   5.328   2.222
 1626SOL     OW 5776   2.045   2.474   6.121
 1626SOL    HW1 5777   2.104   2.393   6.124
 1626SOL    HW2 5778   2.050   2.516   6.031
 1627SOL     OW 5779   5.254   2.844   4.105
 1627SOL    HW1 5780   5.251   2.888   4.194
 1627SOL    HW2 5781   5.349   2.822   4.082
 1628SOL     OW 5782   3.142   3.044   0.231
 1628SOL    HW1 5783   3.049   3.025   0.264
 1628SOL    HW2 5784   3.204   2.974   0.266
 1629SOL     OW 5785   4.676   2.552   3.675
 1629SOL    HW1 5786   4.679   2.594   3.765
 1629SOL    HW2 5787   4.730   2.608   3.611
 1630SOL     OW 5788   0.170   4.867   4.234
 1630SOL    HW1 5789   0.242   4.920   4.279
 1630SOL    HW2 5790   0.111   4.825   4.303
 1631SOL     OW 5791   0.635   6.876   5.624
 1631SOL    HW1 5792   0.578   6.805   5.582
 1631SOL    HW2 5793   0.692   6.834   5.695
 1632SOL     OW 5794   6.249   0.613   1.803
 1632SOL    HW1 5795   6.235   0.546   1.730
 1632SOL    HW2 5796   6.162   0.656   1.826
 1633SOL     OW 5797   5.475   3.066   3.635
 1633SOL    HW1 5798   5.556   3.112   3.598
 1633SOL    HW2 5799   5.473   3.076   3.734
 1634SOL     OW 5800   3.469   0.984   6.623
 1634SOL    HW1 5801   3.477   0.885   6.612
 1634SOL    HW2 5802   3.501   1.010   6.715
 1635SOL     OW 5803   0.384   5.413   4.077
 1635SOL    HW1 5804   0.367   5.511   4.086
 1635SOL    HW2 5805   0.477   5.398   4.043
 1636SOL     OW 5806   1.693   5.886   1.367
 1636SOL    HW1 5807   1.737   5.821   1.306
 1636SOL    HW2 5808   1.669   5.969   1.316
 1637SOL     OW 5809   0.269   3.117   2.301
 1637SOL    HW1 5810   0.231   3.075   2.219
 1637SOL    HW2 5811   0.353   3.165   2.279
 1638SOL     OW 5812   1.419   3.128   5.219
 1638SOL    HW1 5813   1.331   3.175   5.211
 1638SOL    HW2 5814   1.442   3.116   5.315
 1639SOL     OW 5815   5.054   4.777   2.110
 1639SOL    HW1 5816   5.071   4.734   2.199
 1639SOL    HW2 5817   5.106   4.730   2.039
 1640SOL     OW 5818   5.818   0.505   1.637
 1640SOL    HW1 5819   5.837   0.551   1.550
 1640SOL    HW2 5820   5.895   0.445   1.660
 1641SOL     OW 5821   6.162   2.487   5.626
 1641SOL    HW1 5822   6.209   2.401   5.606
 1641SOL    HW2 5823   6.097   2.473   5.701
 1642SOL     OW 5824   0.402   2.534   1.771
 1642SOL    HW1 5825   0.305   2.507   1.766
 1642SOL    HW2 5826   0.409   2.634   1.777
 1643SOL     OW 5827   3.978   0.404   5.488
 1643SOL    HW1 5828   4.060   0.348   5.498
 1643SOL    HW2 5829   4.000   0.485   5.433
 1644SOL     OW 5830   3.201   0.831   1.035
 1644SOL    HW1 5831   3.183   0.859   1.130
 1644SOL    HW2 5832   3.198   0.911   0.976
 1645SOL     OW 5833   1.884   0.093   6.375
 1645SOL    HW1 5834   1.946   0.024   6.337
 1645SOL    HW2 5835   1.917   0.184   6.349
 1646SOL     OW 5836   1.174   3.313   1.138
 1646SOL    HW1 5837   1.205   3.350   1.226
 1646SOL    HW2 5838   1.214   3.222   1.125
 1647SOL     OW 5839   5.993   2.929   3.937
 1647SOL    HW1 5840   5.931   2.952   3.862
 1647SOL    HW2 5841   5.951   2.956   4.024
 1648SOL     OW 5842   4.317   6.683   2.421
 1648SOL    HW1 5843   4.414   6.660   2.430
 1648SOL    HW2 5844   4.299   6.772   2.461
 1649SOL     OW 5845   3.133   1.061   3.094
 1649SOL    HW1 5846   3.058   0.995   3.093
 1649SOL    HW2 5847   3.219   1.014   3.114
 1650SOL     OW 5848   2.284   6.258   3.452
 1650SOL    HW1 5849   2.313   6.218   3.539
 1650SOL    HW2 5850   2.338   6.219   3.377
 1651SOL     OW 5851   1.722   6.670   0.862
 1651SOL    HW1 5852   1.782   6.702   0.936
 1651SOL    HW2 5853   1.766   6.595   0.813
 1652SOL     OW 5854   2.928   2.602   1.487
 1652SOL    HW1 5855   3.010   2.658   1.490
 1652SOL    HW2 5856   2.878   2.611   1.574
 1653SOL     OW 5857   0.931   5.575   0.991
 1653SOL    HW1 5858   0.882   5.503   0.942
 1653SOL    HW2 5859   1.021   5.541   1.020
 1654SOL     OW 5860   6.787   3.185   3.384
 1654SOL    HW1 5861   6.760   3.220   3.474
 1654SOL    HW2 5862   6.705   3.160   3.332
 1655SOL     OW 5863   4.659   4.785   5.706
 1655SOL    HW1 5864   4.711   4.786   5.791
 1655SOL    HW2 5865   4.561   4.775   5.726
 1656SOL     OW 5866   0.389   4.884   3.182
 1656SOL    HW1 5867   0.316   4.919   3.123
 1656SOL    HW2 5868   0.429   4.961   3.234
 1657SOL     OW 5869   1.279   0.225   5.542
 1657SOL    HW1 5870   1.236   0.299   5.593
 1657SOL    HW2 5871   1.303   0.151   5.606
 1658SOL     OW 5872   6.092   6.116   2.714
 1658SOL    HW1 5873   6.024   6.073   2.655
 1658SOL    HW2 5874   6.057   6.205   2.745
 1659SOL     OW 5875   4.258   2.099   5.669
 1659SOL    HW1 5876   4.276   2.060   5.578
 1659SOL    HW2 5877   4.202   2.181   5.660
 1660SOL     OW 5878   1.666   5.744   3.316
 1660SOL    HW1 5879   1.762   5.740   3.288
 1660SOL    HW2 5880   1.610   5.769   3.237
 1661SOL     OW 5881   2.781   0.248   2.320
 1661SOL    HW1 5882   2.793   0.286   2.412
 1661SOL    HW2 5883   2.864   0.263   2.267
 1662SOL     OW 5884   0.427   0.621   3.265
 1662SOL    HW1 5885   0.426   0.522   3.281
 1662SOL    HW2 5886   0.340   0.660   3.296
 1663SOL     OW 5887   2.869   6.946   3.475
 1663SOL    HW1 5888   2.896   6.950   3.571
 1663SOL    HW2 5889   2.925   6.879   3.427
 1664SOL     OW 5890   2.023   5.650   4.510
 1664SOL    HW1 5891   2.050   5.554   4.503
 1664SOL    HW2 5892   2.092   5.707   4.466
 1665SOL     OW 5893   0.418   6.999   4.709
 1665SOL    HW1 5894   0.357   7.001   4.788
 1665SOL    HW2 5895   0.513   6.997   4.740
 1666SOL     OW 5896   6.049   2.710   6.112
 1666SOL    HW1 5897   6.071   2.613   6.098
 1666SOL    HW2 5898   6.000   2.721   6.198
 1667SOL     OW 5899   6.722   0.409   6.123
 1667SOL    HW1 5900   6.658   0.336   6.147
 1667SOL    HW2 5901   6.811   0.390   6.163
 1668SOL     OW 5902   3.462   1.164   4.990
 1668SOL    HW1 5903   3.529   1.174   5.063
 1668SOL    HW2 5904   3.392   1.234   4.999
 1669SOL     OW 5905   5.971   0.045   6.531
 1669SOL    HW1 5906   5.893   6.999   6.529
 1669SOL    HW2 5907   5.942   0.136   6.502
 1670SOL     OW 5908   5.411   4.441   5.704
 1670SOL    HW1 5909   5.410   4.541   5.706
 1670SOL    HW2 5910   5.422   4.409   5.610
 1671SOL     OW 5911   5.435   4.000   0.267
 1671SOL    HW1 5912   5.442   4.001   0.367
 1671SOL    HW2 5913   5.453   4.092   0.232
 1672SOL     OW 5914   1.615   5.639   2.551
 1672SOL    HW1 5915   1.697   5.675   2.507
 1672SOL    HW2 5916   1.544   5.710   2.551
 1673SOL     OW 5917   6.606   1.875   4.147
 1673SOL    HW1 5918   6.570   1.841   4.233
 1673SOL    HW2 5919   6.531   1.906   4.089
 1674SOL     OW 5920   0.649   4.676   6.243
 1674SOL    HW1 5921   0.565   4.720   6.275
 1674SOL    HW2 5922   0.632   4.633   6.154
 1675SOL     OW 5923   4.990   2.273   6.945
 1675SOL    HW1 5924   4.941   2.198   6.990
 1675SOL    HW2 5925   4.980   2.356   7.000
 1676SOL     OW 5926   1.609   0.711   3.212
 1676SOL    HW1 5927   1.534   0.670   3.160
 1676SOL    HW2 5928   1.695   0.666   3.188
 1677SOL     OW 5929   6.625   1.635   5.725
 1677SOL    HW1 5930   6.632   1.548   5.772
 1677SOL    HW2 5931   6.671   1.706   5.778
 1678SOL     OW 5932   5.517   6.951   1.712
 1678SOL    HW1 5933   5.496   6.954   1.615
 1678SOL    HW2 5934   5.550   6.860   1.736
 1679SOL     OW 5935   0.145   3.827   6.861
 1679SOL    HW1 5936   0.049   3.827   6.890
 1679SOL    HW2 5937   0.191   3.909   6.895
 1680SOL     OW 5938   1.268   1.717   4.322
 1680SOL    HW1 5939   1.203   1.758   4.258
 1680SOL    HW2 5940   1.220   1.654   4.383
 1681SOL     OW 5941   6.162   5.367   1.291
 1681SOL    HW1 5942   6.243   5.399   1.340
 1681SOL    HW2 5943   6.153   5.417   1.205
 1682SOL     OW 5944   6.521   3.292   5.637
 1682SOL    HW1 5945   6.591   3.253   5.698
 1682SOL    HW2 5946   6.451   3.223   5.619
 1683SOL     OW 5947   5.478   5.739   0.597
 1683SOL    HW1 5948   5.384   5.746   0.565
 1683SOL    HW2 5949   5.478   5.721   0.696
 1684SOL     OW 5950   0.494   5.854   4.943
 1684SOL    HW1 5951   0.422   5.915   4.912
 1684SOL    HW2 5952   0.471   5.759   4.919
 1685SOL     OW 5953   0.930   1.865   0.029
 1685SOL    HW1 5954   0.879   1.939   0.073
 1685SOL    HW2 5955   0.947   1.889   6.950
 1686SOL     OW 5956   1.908   6.377   0.073
 1686SOL    HW1 5957   1.810   6.397   0.077
 1686SOL    HW2 5958   1.922   6.280   0.053
 1687SOL     OW 5959   1.784   0.173   1.694
 1687SOL    HW1 5960   1.707   0.182   1.757
 1687SOL    HW2 5961   1.749   0.169   1.600
 1688SOL     OW 5962   0.658   1.635   3.526
 1688SOL    HW1 5963   0.583   1.583   3.567
 1688SOL    HW2 5964   0.688   1.590   3.442
 1689SOL     OW 5965   2.166   1.347   2.666
 1689SOL    HW1 5966   2.146   1.367   2.570
 1689SOL    HW2 5967   2.134   1.422   2.723
 1690SOL     OW 5968   1.059   2.139   0.968
 1690SOL    HW1 5969   1.023   2.206   0.903
 1690SOL    HW2 5970   1.153   2.163   0.991
 1691SOL     OW 5971   5.306   4.949   2.452
 1691SOL    HW1 5972   5.326   4.853   2.467
 1691SOL    HW2 5973   5.238   4.980   2.519
 1692SOL     OW 5974   1.305   0.705   3.955
 1692SOL    HW1 5975   1.377   0.772   3.936
 1692SOL    HW2 5976   1.339   0.636   4.018
 1693SOL     OW 5977   2.648   2.467   3.429
 1693SOL    HW1 5978   2.742   2.479   3.396
 1693SOL    HW2 5979   2.645   2.395   3.497
 1694SOL     OW 5980   4.957   5.996   5.471
 1694SOL    HW1 5981   4.858   5.979   5.478
 1694SOL    HW2 5982   4.987   6.050   5.550
 1695SOL     OW 5983   2.848   2.050   6.052
 1695SOL    HW1 5984   2.858   2.113   6.129
 1695SOL    HW2 5985   2.873   2.097   5.967
 1696SOL     OW 5986   3.360   5.288   0.786
 1696SOL    HW1 5987   3.337   5.277   0.883
 1696SOL    HW2 5988   3.458   5.308   0.777
 1697SOL     OW 5989   0.867   1.237   2.040
 1697SOL    HW1 5990   0.810   1.284   2.107
 1697SOL    HW2 5991   0.847   1.272   1.948
 1698SOL     OW 5992   4.849   2.256   0.760
 1698SOL    HW1 5993   4.878   2.274   0.854
 1698SOL    HW2 5994   4.750   2.268   0.753
 1699SOL     OW 5995   2.274   3.561   0.663
 1699SOL    HW1 5996   2.235   3.632   0.604
 1699SOL    HW2 5997   2.263   3.587   0.759
 1700SOL     OW 5998   6.335   3.184   4.504
 1700SOL    HW1 5999   6.394   3.104   4.491
 1700SOL    HW2 6000   6.263   3.161   4.570
 1701SOL     OW 6001   5.657   3.518   4.696
 1701SOL    HW1 6002   5.674   3.538   4.600
 1701SOL    HW2 6003   5.638   3.604   4.745
 1702SOL     OW 6004   4.893   2.987   0.654
 1702SOL    HW1 6005   4.892   3.020   0.749
 1702SOL    HW2 6006   4.925   3.060   0.594
 1703SOL     OW 6007   1.952   3.826   0.321
 1703SOL    HW1 6008   2.023   3.811   0.252
 1703SOL    HW2 6009   1.901   3.909   0.298
 1704SOL     OW 6010   1.168   0.898   1.788
 1704SOL    HW1 6011   1.137   0.953   1.865
 1704SOL    HW2 6012   1.097   0.831   1.765
 1705SOL     OW 6013   3.637   3.140   2.021
 1705SOL    HW1 6014   3.573   3.152   1.945
 1705SOL    HW2 6015   3.731   3.143   1.986
 1706SOL     OW 6016   3.055   1.050   6.632
 1706SOL    HW1 6017   3.043   1.138   6.679
 1706SOL    HW2 6018   2.971   1.028   6.582
 1707SOL     OW 6019   6.031   1.903   3.071
 1707SOL    HW1 6020   6.003   1.885   3.165
 1707SOL    HW2 6021   6.129   1.924   3.069
 1708SOL     OW 6022   6.787   4.829   2.555
 1708SOL    HW1 6023   6.825   4.765   2.622
 1708SOL    HW2 6024   6.744   4.905   2.604
 1709SOL     OW 6025   3.402   6.126   3.259
 1709SOL    HW1 6026   3.487   6.107   3.210
 1709SOL    HW2 6027   3.339   6.049   3.248
 1710SOL     OW 6028   6.770   6.302   3.633
 1710SOL    HW1 6029   6.687   6.314   3.687
 1710SOL    HW2 6030   6.751   6.323   3.537
 1711SOL     OW 6031   1.637   4.650   5.936
 1711SOL    HW1 6032   1.610   4.570   5.882
 1711SOL    HW2 6033   1.736   4.664   5.929
 1712SOL     OW 6034   1.386   5.064   0.850
 1712SOL    HW1 6035   1.402   4.996   0.779
 1712SOL    HW2 6036   1.436   5.148   0.828
 1713SOL     OW 6037   1.471   3.293   0.703
 1713SOL    HW1 6038   1.517   3.311   0.617
 1713SOL    HW2 6039   1.414   3.371   0.728
 1714SOL     OW 6040   3.496   1.529   0.827
 1714SOL    HW1 6041   3.460   1.586   0.754
 1714SOL    HW2 6042   3.563   1.465   0.790
 1715SOL     OW 6043   0.323   3.372   4.057
 1715SOL    HW1 6044   0.295   3.346   4.149
 1715SOL    HW2 6045   0.264   3.446   4.025
 1716SOL     OW 6046   0.665   0.032   0.288
 1716SOL    HW1 6047   0.689   6.974   0.350
 1716SOL    HW2 6048   0.739   0.099   0.287
 1717SOL     OW 6049   3.493   0.372   0.241
 1717SOL    HW1 6050   3.517   0.462   0.205
 1717SOL    HW2 6051   3.460   0.314   0.166
 1718SOL     OW 6052   1.079   4.882   5.420
 1718SOL    HW1 6053   1.040   4.919   5.336
 1718SOL    HW2 6054   1.113   4.789   5.402
 1719SOL     OW 6055   2.111   3.350   1.557
 1719SOL    HW1 6056   2.184   3.321   1.618
 1719SOL    HW2 6057   2.083   3.272   1.500
 1720SOL     OW 6058   6.984   1.593   1.203
 1720SOL    HW1 6059   6.948   1.541   1.281
 1720SOL    HW2 6060   0.001   1.681   1.236
 1721SOL     OW 6061   1.463   6.295   3.980
 1721SOL    HW1 6062   1.468   6.394   3.983
 1721SOL    HW2 6063   1.554   6.258   3.961
 1722SOL     OW 6064   5.779   6.481   1.821
 1722SOL    HW1 6065   5.729   6.567   1.827
 1722SOL    HW2 6066   5.814   6.457   1.912
 1723SOL     OW 6067   6.265   1.410   1.916
 1723SOL    HW1 6068   6.288   1.439   2.009
 1723SOL    HW2 6069   6.194   1.340   1.919
 1724SOL     OW 6070   4.708   0.418   0.240
 1724SOL    HW1 6071   4.663   0.501   0.271
 1724SOL    HW2 6072   4.757   0.375   0.316
 1725SOL     OW 6073   4.137   4.785   1.380
 1725SOL    HW1 6074   4.168   4.787   1.476
 1725SOL    HW2 6075   4.038   4.790   1.377
 1726SOL     OW 6076   0.568   4.904   4.710
 1726SOL    HW1 6077   0.551   4.922   4.807
 1726SOL    HW2 6078   0.482   4.882   4.664
 1727SOL     OW 6079   3.311   3.836   5.332
 1727SOL    HW1 6080   3.379   3.793   5.392
 1727SOL    HW2 6081   3.229   3.859   5.384
 1728SOL     OW 6082   4.720   4.137   3.160
 1728SOL    HW1 6083   4.680   4.094   3.241
 1728SOL    HW2 6084   4.703   4.235   3.163
 1729SOL     OW 6085   1.754   3.524   3.017
 1729SOL    HW1 6086   1.722   3.503   2.924
 1729SOL    HW2 6087   1.767   3.623   3.025
 1730SOL     OW 6088   5.911   2.536   5.161
 1730SOL    HW1 6089   5.819   2.499   5.154
 1730SOL    HW2 6090   5.971   2.491   5.095
 1731SOL     OW 6091   1.615   5.054   0.310
 1731SOL    HW1 6092   1.705   5.012   0.318
 1731SOL    HW2 6093   1.621   5.152   0.329
 1732SOL     OW 6094   0.355   4.655   0.076
 1732SOL    HW1 6095   0.278   4.668   0.138
 1732SOL    HW2 6096   0.435   4.627   0.128
 1733SOL     OW 6097   1.386   4.129   0.538
 1733SOL    HW1 6098   1.391   4.030   0.526
 1733SOL    HW2 6099   1.393   4.152   0.635
 1734SOL     OW 6100   5.092   3.294   0.704
 1734SOL    HW1 6101   5.095   3.195   0.688
 1734SOL    HW2 6102   5.008   3.331   0.664
 1735SOL     OW 6103   5.650   5.401   1.822
 1735SOL    HW1 6104   5.744   5.372   1.837
 1735SOL    HW2 6105   5.608   5.425   1.909
 1736SOL     OW 6106   3.534   3.838   0.834
 1736SOL    HW1 6107   3.506   3.926   0.874
 1736SOL    HW2 6108   3.495   3.830   0.742
 1737SOL     OW 6109   1.426   6.297   3.628
 1737SOL    HW1 6110   1.405   6.251   3.714
 1737SOL    HW2 6111   1.342   6.312   3.576
 1738SOL     OW 6112   1.227   2.634   2.005
 1738SOL    HW1 6113   1.214   2.705   1.936
 1738SOL    HW2 6114   1.324   2.625   2.026
 1739SOL     OW 6115   3.903   1.871   5.268
 1739SOL    HW1 6116   3.843   1.869   5.348
 1739SOL    HW2 6117   3.964   1.792   5.272
 1740SOL     OW 6118   0.931   1.092   5.822
 1740SOL    HW1 6119   0.874   1.173   5.809
 1740SOL    HW2 6120   0.977   1.097   5.910
 1741SOL     OW 6121   1.643   0.188   2.931
 1741SOL    HW1 6122   1.613   0.093   2.925
 1741SOL    HW2 6123   1.707   0.198   3.007
 1742SOL     OW 6124   5.802   0.467   4.377
 1742SOL    HW1 6125   5.756   0.382   4.403
 1742SOL    HW2 6126   5.896   0.446   4.348
 1743SOL     OW 6127   4.475   0.734   0.903
 1743SOL    HW1 6128   4.521   0.803   0.847
 1743SOL    HW2 6129   4.410   0.779   0.964
 1744SOL     OW 6130   2.553   0.725   1.466
 1744SOL    HW1 6131   2.523   0.632   1.446
 1744SOL    HW2 6132   2.653   0.729   1.467
 1745SOL     OW 6133   0.001   2.188   4.132
 1745SOL    HW1 6134   7.006   2.287   4.142
 1745SOL    HW2 6135   6.934   2.142   4.161
 1746SOL     OW 6136   3.292   0.382   6.040
 1746SOL    HW1 6137   3.382   0.351   6.072
 1746SOL    HW2 6138   3.221   0.342   6.099
 1747SOL     OW 6139   4.126   0.652   1.152
 1747SOL    HW1 6140   4.067   0.587   1.199
 1747SOL    HW2 6141   4.122   0.740   1.198
 1748SOL     OW 6142   5.611   2.166   2.014
 1748SOL    HW1 6143   5.546   2.111   1.962
 1748SOL    HW2 6144   5.601   2.263   1.988
 1749SOL     OW 6145   4.302   6.632   6.116
 1749SOL    HW1 6146   4.214   6.624   6.070
 1749SOL    HW2 6147   4.316   6.553   6.176
 1750SOL     OW 6148   5.330   0.610   4.015
 1750SOL    HW1 6149   5.425   0.611   3.983
 1750SOL    HW2 6150   5.278   0.544   3.962
 1751SOL     OW 6151   1.661   5.693   3.713
 1751SOL    HW1 6152   1.633   5.759   3.643
 1751SOL    HW2 6153   1.726   5.628   3.675
 1752SOL     OW 6154   6.055   2.408   0.588
 1752SOL    HW1 6155   5.963   2.373   0.602
 1752SOL    HW2 6156   6.102   2.351   0.520
 1753SOL     OW 6157   2.322   0.496   2.267
 1753SOL    HW1 6158   2.238   0.487   2.321
 1753SOL    HW2 6159   2.326   0.423   2.199
 1754SOL     OW 6160   3.918   2.898   0.708
 1754SOL    HW1 6161   3.891   2.823   0.768
 1754SOL    HW2 6162   3.903   2.985   0.755
 1755SOL     OW 6163   5.133   3.679   0.319
 1755SOL    HW1 6164   5.225   3.678   0.280
 1755SOL    HW2 6165   5.135   3.634   0.409
 1756SOL     OW 6166   6.241   5.806   4.265
 1756SOL    HW1 6167   6.260   5.854   4.180
 1756SOL    HW2 6168   6.231   5.872   4.339
 1757SOL     OW 6169   2.979   6.347   3.887
 1757SOL    HW1 6170   2.883   6.320   3.890
 1757SOL    HW2 6171   2.987   6.441   3.854
 1758SOL     OW 6172   1.969   1.062   3.091
 1758SOL    HW1 6173   1.890   1.099   3.139
 1758SOL    HW2 6174   2.005   1.131   3.028
 1759SOL     OW 6175   0.609   5.655   6.140
 1759SOL    HW1 6176   0.542   5.626   6.209
 1759SOL    HW2 6177   0.642   5.574   6.091
 1760SOL     OW 6178   5.812   0.392   2.494
 1760SOL    HW1 6179   5.737   0.362   2.435
 1760SOL    HW2 6180   5.808   0.492   2.505
 1761SOL     OW 6181   6.477   2.586   1.094
 1761SOL    HW1 6182   6.473   2.681   1.064
 1761SOL    HW2 6183   6.495   2.583   1.192
 1762SOL     OW 6184   5.958   1.768   6.494
 1762SOL    HW1 6185   6.058   1.762   6.498
 1762SOL    HW2 6186   5.918   1.720   6.573
 1763SOL     OW 6187   2.208   4.063   3.884
 1763SOL    HW1 6188   2.249   4.062   3.793
 1763SOL    HW2 6189   2.210   3.970   3.922
 1764SOL     OW 6190   6.535   3.094   3.996
 1764SOL    HW1 6191   6.437   3.074   3.999
 1764SOL    HW2 6192   6.587   3.010   4.015
 1765SOL     OW 6193   2.971   2.721   6.108
 1765SOL    HW1 6194   2.913   2.772   6.172
 1765SOL    HW2 6195   3.048   2.779   6.080
 1766SOL     OW 6196   5.341   3.213   5.307
 1766SOL    HW1 6197   5.345   3.233   5.405
 1766SOL    HW2 6198   5.428   3.174   5.278
 1767SOL     OW 6199   5.717   3.644   2.233
 1767SOL    HW1 6200   5.664   3.720   2.195
 1767SOL    HW2 6201   5.768   3.675   2.313
 1768SOL     OW 6202   5.972   6.904   4.306
 1768SOL    HW1 6203   6.024   6.819   4.321
 1768SOL    HW2 6204   5.909   6.917   4.383
 1769SOL     OW 6205   4.832   1.622   2.538
 1769SOL    HW1 6206   4.840   1.714   2.576
 1769SOL    HW2 6207   4.784   1.625   2.450
 1770SOL     OW 6208   2.615   5.506   5.189
 1770SOL    HW1 6209   2.599   5.505   5.091
 1770SOL    HW2 6210   2.711   5.528   5.207
 1771SOL     OW 6211   4.948   6.017   6.172
 1771SOL    HW1 6212   4.961   5.963   6.089
 1771SOL    HW2 6213   4.869   5.982   6.222
 1772SOL     OW 6214   3.162   6.807   2.837
 1772SOL    HW1 6215   3.151   6.828   2.740
 1772SOL    HW2 6216   3.100   6.864   2.891
 1773SOL     OW 6217   0.917   5.122   0.072
 1773SOL    HW1 6218   0.941   5.137   6.993
 1773SOL    HW2 6219   0.862   5.040   0.080
 1774SOL     OW 6220   3.791   5.392   1.751
 1774SOL    HW1 6221   3.804   5.297   1.779
 1774SOL    HW2 6222   3.873   5.425   1.704
 1775SOL     OW 6223   0.858   4.593   1.906
 1775SOL    HW1 6224   0.819   4.514   1.953
 1775SOL    HW2 6225   0.958   4.582   1.900
 1776SOL     OW 6226   2.765   5.614   4.919
 1776SOL    HW1 6227   2.731   5.695   4.968
 1776SOL    HW2 6228   2.847   5.579   4.965
 1777SOL     OW 6229   4.125   6.336   0.897
 1777SOL    HW1 6230   4.212   6.376   0.867
 1777SOL    HW2 6231   4.143   6.247   0.938
 1778SOL     OW 6232   5.404   3.794   5.568
 1778SOL    HW1 6233   5.385   3.739   5.486
 1778SOL    HW2 6234   5.354   3.880   5.562
 1779SOL     OW 6235   2.984   6.510   4.994
 1779SOL    HW1 6236   3.035   6.579   5.045
 1779SOL    HW2 6237   3.048   6.443   4.955
 1780SOL     OW 6238   3.313   3.272   6.782
 1780SOL    HW1 6239   3.339   3.337   6.853
 1780SOL    HW2 6240   3.337   3.179   6.811
 1781SOL     OW 6241   3.464   5.626   3.266
 1781SOL    HW1 6242   3.479   5.704   3.206
 1781SOL    HW2 6243   3.381   5.578   3.239
 1782SOL     OW 6244   3.515   1.743   3.721
 1782SOL    HW1 6245   3.457   1.661   3.722
 1782SOL    HW2 6246   3.457   1.825   3.729
 1783SOL     OW 6247   1.948   5.860   0.402
 1783SOL    HW1 6248   1.941   5.933   0.471
 1783SOL    HW2 6249   1.857   5.821   0.387
 1784SOL     OW 6250   3.456   6.737   5.121
 1784SOL    HW1 6251   3.441   6.689   5.208
 1784SOL    HW2 6252   3.436   6.675   5.045
 1785SOL     OW 6253   6.868   4.120   2.680
 1785SOL    HW1 6254   6.887   4.111   2.778
 1785SOL    HW2 6255   6.791   4.062   2.655
 1786SOL     OW 6256   3.130   2.586   1.251
 1786SOL    HW1 6257   3.146   2.629   1.162
 1786SOL    HW2 6258   3.144   2.652   1.324
 1787SOL     OW 6259   3.669   0.437   5.849
 1787SOL    HW1 6260   3.625   0.472   5.766
 1787SOL    HW2 6261   3.768   0.437   5.837
 1788SOL     OW 6262   1.884   5.136   5.048
 1788SOL    HW1 6263   1.931   5.059   5.092
 1788SOL    HW2 6264   1.949   5.213   5.039
 1789SOL     OW 6265   6.357   1.629   0.305
 1789SOL    HW1 6266   6.306   1.707   0.341
 1789SOL    HW2 6267   6.442   1.617   0.357
 1790SOL     OW 6268   3.722   0.011   3.806
 1790SOL    HW1 6269   3.814   0.049   3.797
 1790SOL    HW2 6270   3.726   6.929   3.787
 1791SOL     OW 6271   6.891   6.692   2.627
 1791SOL    HW1 6272   6.904   6.787   2.655
 1791SOL    HW2 6273   6.863   6.637   2.706
 1792SOL     OW 6274   1.306   2.819   4.732
 1792SOL    HW1 6275   1.388   2.764   4.716
 1792SOL    HW2 6276   1.310   2.859   4.823
 1793SOL     OW 6277   0.118   0.140   3.930
 1793SOL    HW1 6278   0.118   0.057   3.986
 1793SOL    HW2 6279   0.165   0.213   3.979
 1794SOL     OW 6280   4.084   5.448   6.052
 1794SOL    HW1 6281   3.990   5.472   6.027
 1794SOL    HW2 6282   4.147   5.494   5.989
 1795SOL     OW 6283   0.787   2.901   0.608
 1795SOL    HW1 6284   0.871   2.846   0.602
 1795SOL    HW2 6285   0.710   2.847   0.575
 1796SOL     OW 6286   3.256   0.632   6.449
 1796SOL    HW1 6287   3.235   0.654   6.353
 1796SOL    HW2 6288   3.196   0.685   6.509
 1797SOL     OW 6289   1.345   6.982   1.112
 1797SOL    HW1 6290   1.262   6.930   1.089
 1797SOL    HW2 6291   1.423   6.919   1.119
 1798SOL     OW 6292   5.029   2.415   3.176
 1798SOL    HW1 6293   4.996   2.379   3.089
 1798SOL    HW2 6294   4.967   2.487   3.209
 1799SOL     OW 6295   1.462   1.638   6.817
 1799SOL    HW1 6296   1.531   1.710   6.826
 1799SOL    HW2 6297   1.371   1.678   6.829
 1800SOL     OW 6298   4.007   5.074   1.736
 1800SOL    HW1 6299   3.928   5.088   1.795
 1800SOL    HW2 6300   4.061   4.998   1.771
 1801SOL     OW 6301   6.326   6.473   1.349
 1801SOL    HW1 6302   6.313   6.548   1.413
 1801SOL    HW2 6303   6.274   6.490   1.266
 1802SOL     OW 6304   4.986   5.720   4.403
 1802SOL    HW1 6305   5.029   5.680   4.484
 1802SOL    HW2 6306   4.951   5.811   4.426
 1803SOL     OW 6307   0.169   5.652   1.127
 1803SOL    HW1 6308   0.151   5.745   1.095
 1803SOL    HW2 6309   0.181   5.591   1.048
 1804SOL     OW 6310   2.916   3.360   5.184
 1804SOL    HW1 6311   2.916   3.277   5.241
 1804SOL    HW2 6312   2.849   3.424   5.220
 1805SOL     OW 6313   4.851   2.855   6.508
 1805SOL    HW1 6314   4.845   2.953   6.524
 1805SOL    HW2 6315   4.774   2.809   6.554
 1806SOL     OW 6316   0.438   6.876   1.596
 1806SOL    HW1 6317   0.393   6.960   1.564
 1806SOL    HW2 6318   0.480   6.892   1.685
 1807SOL     OW 6319   6.052   1.153   5.129
 1807SOL    HW1 6320   6.131   1.151   5.190
 1807SOL    HW2 6321   5.994   1.232   5.151
 1808SOL     OW 6322   1.667   4.741   4.129
 1808SOL    HW1 6323   1.641   4.663   4.185
 1808SOL    HW2 6324   1.736   4.713   4.062
 1809SOL     OW 6325   3.640   1.299   6.373
 1809SOL    HW1 6326   3.586   1.271   6.293
 1809SOL    HW2 6327   3.681   1.388   6.357
 1810SOL     OW 6328   2.695   6.153   2.922
 1810SOL    HW1 6329   2.735   6.245   2.928
 1810SOL    HW2 6330   2.722   6.110   2.837
 1811SOL     OW 6331   5.930   5.355   3.533
 1811SOL    HW1 6332   5.924   5.445   3.579
 1811SOL    HW2 6333   5.888   5.286   3.592
 1812SOL     OW 6334   4.111   5.368   6.373
 1812SOL    HW1 6335   4.093   5.366   6.275
 1812SOL    HW2 6336   4.082   5.456   6.410
 1813SOL     OW 6337   6.426   4.704   6.357
 1813SOL    HW1 6338   6.456   4.795   6.327
 1813SOL    HW2 6339   6.366   4.664   6.288
 1814SOL     OW 6340   4.181   6.635   2.709
 1814SOL    HW1 6341   4.276   6.661   2.726
 1814SOL    HW2 6342   4.176   6.540   2.680
 1815SOL     OW 6343   0.373   0.305   3.488
 1815SOL    HW1 6344   0.368   0.278   3.391
 1815SOL    HW2 6345   0.469   0.318   3.513
 1816SOL     OW 6346   1.046   4.204   0.135
 1816SOL    HW1 6347   0.989   4.148   0.194
 1816SOL    HW2 6348   1.135   4.160   0.121
 1817SOL     OW 6349   2.079   5.916   2.425
 1817SOL    HW1 6350   1.980   5.931   2.427
 1817SOL    HW2 6351   2.102   5.849   2.354
 1818SOL     OW 6352   1.772   1.256   3.176
 1818SOL    HW1 6353   1.705   1.295   3.113
 1818SOL    HW2 6354   1.845   1.323   3.192
 1819SOL     OW 6355   1.660   5.277   1.825
 1819SOL    HW1 6356   1.683   5.374   1.817
 1819SOL    HW2 6357   1.736   5.228   1.867
 1820SOL     OW 6358   4.630   0.141   2.690
 1820SOL    HW1 6359   4.661   0.072   2.625
 1820SOL    HW2 6360   4.531   0.153   2.682
 1821SOL     OW 6361   3.256   1.986   2.662
 1821SOL    HW1 6362   3.314   2.033   2.729
 1821SOL    HW2 6363   3.228   2.051   2.591
 1822SOL     OW 6364   3.300   3.348   1.844
 1822SOL    HW1 6365   3.295   3.337   1.943
 1822SOL    HW2 6366   3.232   3.288   1.801
 1823SOL     OW 6367   3.775   6.492   2.459
 1823SOL    HW1 6368   3.744   6.586   2.478
 1823SOL    HW2 6369   3.699   6.439   2.421
 1824SOL     OW 6370   5.253   2.862   1.470
 1824SOL    HW1 6371   5.261   2.822   1.561
 1824SOL    HW2 6372   5.240   2.961   1.477
 1825SOL     OW 6373   0.991   0.659   1.769
 1825SOL    HW1 6374   1.045   0.575   1.777
 1825SOL    HW2 6375   0.898   0.643   1.803
 1826SOL     OW 6376   3.739   6.419   6.360
 1826SOL    HW1 6377   3.791   6.402   6.443
 1826SOL    HW2 6378   3.714   6.331   6.318
 1827SOL     OW 6379   6.571   6.328   1.349
 1827SOL    HW1 6380   6.478   6.363   1.360
 1827SOL    HW2 6381   6.630   6.369   1.419
 1828SOL     OW 6382   1.404   1.930   6.427
 1828SOL    HW1 6383   1.406   1.964   6.334
 1828SOL    HW2 6384   1.424   2.004   6.491
 1829SOL     OW 6385   5.215   5.512   2.122
 1829SOL    HW1 6386   5.287   5.529   2.055
 1829SOL    HW2 6387   5.209   5.589   2.185
 1830SOL     OW 6388   4.891   6.557   3.765
 1830SOL    HW1 6389   4.891   6.652   3.734
 1830SOL    HW2 6390   4.985   6.528   3.784
 1831SOL     OW 6391   5.168   6.776   2.473
 1831SOL    HW1 6392   5.192   6.873   2.471
 1831SOL    HW2 6393   5.248   6.723   2.502
 1832SOL     OW 6394   4.637   2.885   0.604
 1832SOL    HW1 6395   4.731   2.905   0.634
 1832SOL    HW2 6396   4.572   2.920   0.672
 1833SOL     OW 6397   5.367   1.345   5.480
 1833SOL    HW1 6398   5.411   1.432   5.501
 1833SOL    HW2 6399   5.277   1.362   5.441
 1834SOL     OW 6400   2.749   3.202   1.109
 1834SOL    HW1 6401   2.674   3.227   1.047
 1834SOL    HW2 6402   2.811   3.279   1.118
 1835SOL     OW 6403   1.814   4.809   0.649
 1835SOL    HW1 6404   1.834   4.892   0.702
 1835SOL    HW2 6405   1.820   4.829   0.552
 1836SOL     OW 6406   0.420   6.702   0.949
 1836SOL    HW1 6407   0.489   6.691   1.021
 1836SOL    HW2 6408   0.430   6.793   0.909
 1837SOL     OW 6409   1.040   2.300   4.763
 1837SOL    HW1 6410   0.969   2.355   4.808
 1837SOL    HW2 6411   1.126   2.351   4.762
 1838SOL     OW 6412   6.489   2.144   4.319
 1838SOL    HW1 6413   6.430   2.080   4.269
 1838SOL    HW2 6414   6.545   2.196   4.255
 1839SOL     OW 6415   0.162   2.332   5.599
 1839SOL    HW1 6416   0.092   2.262   5.590
 1839SOL    HW2 6417   0.193   2.359   5.507
 1840SOL     OW 6418   1.816   6.019   0.862
 1840SOL    HW1 6419   1.735   6.070   0.891
 1840SOL    HW2 6420   1.873   5.998   0.942
 1841SOL     OW 6421   1.544   2.856   3.514
 1841SOL    HW1 6422   1.482   2.934   3.523
 1841SOL    HW2 6423   1.491   2.776   3.482
 1842SOL     OW 6424   0.897   4.650   6.896
 1842SOL    HW1 6425   0.941   4.740   6.894
 1842SOL    HW2 6426   0.959   4.584   6.938
 1843SOL     OW 6427   2.986   2.243   4.470
 1843SOL    HW1 6428   3.062   2.206   4.524
 1843SOL    HW2 6429   2.998   2.217   4.374
 1844SOL     OW 6430   4.835   2.865   3.826
 1844SOL    HW1 6431   4.833   2.951   3.877
 1844SOL    HW2 6432   4.898   2.802   3.871
 1845SOL     OW 6433   4.090   0.434   6.755
 1845SOL    HW1 6434   4.013   0.372   6.739
 1845SOL    HW2 6435   4.102   0.493   6.675
 1846SOL     OW 6436   3.159   1.466   5.670
 1846SOL    HW1 6437   3.209   1.389   5.628
 1846SOL    HW2 6438   3.099   1.507   5.602
 1847SOL     OW 6439   0.399   0.310   0.693
 1847SOL    HW1 6440   0.436   0.402   0.696
 1847SOL    HW2 6441   0.419   0.268   0.605
 1848SOL     OW 6442   2.634   6.945   2.390
 1848SOL    HW1 6443   2.570   7.014   2.358
 1848SOL    HW2 6444   2.588   6.856   2.394
 1849SOL     OW 6445   2.954   1.704   6.568
 1849SOL    HW1 6446   2.894   1.774   6.610
 1849SOL    HW2 6447   3.009   1.661   6.639
 1850SOL     OW 6448   5.780   2.456   2.425
 1850SOL    HW1 6449   5.820   2.365   2.429
 1850SOL    HW2 6450   5.827   2.510   2.356
 1851SOL     OW 6451   6.851   2.454   2.598
 1851SOL    HW1 6452   6.794   2.496   2.668
 1851SOL    HW2 6453   6.932   2.413   2.639
 1852SOL     OW 6454   4.975   3.050   0.319
 1852SOL    HW1 6455   5.070   3.078   0.301
 1852SOL    HW2 6456   4.974   2.961   0.363
 1853SOL     OW 6457   1.342   4.731   0.963
 1853SOL    HW1 6458   1.379   4.824   0.970
 1853SOL    HW2 6459   1.394   4.670   1.023
 1854SOL     OW 6460   2.503   5.757   4.369
 1854SOL    HW1 6461   2.560   5.740   4.450
 1854SOL    HW2 6462   2.556   5.736   4.287
 1855SOL     OW 6463   5.007   4.933   1.445
 1855SOL    HW1 6464   4.953   4.933   1.361
 1855SOL    HW2 6465   5.025   5.028   1.472
 1856SOL     OW 6466   5.050   2.349   5.412
 1856SOL    HW1 6467   4.952   2.338   5.393
 1856SOL    HW2 6468   5.063   2.371   5.509
 1857SOL     OW 6469   4.347   1.012   3.387
 1857SOL    HW1 6470   4.384   0.938   3.443
 1857SOL    HW2 6471   4.276   0.977   3.327
 1858SOL     OW 6472   4.896   3.550   3.355
 1858SOL    HW1 6473   4.923   3.459   3.324
 1858SOL    HW2 6474   4.885   3.550   3.454
 1859SOL     OW 6475   4.838   1.830   2.970
 1859SOL    HW1 6476   4.918   1.852   3.025
 1859SOL    HW2 6477   4.759   1.815   3.030
 1860SOL     OW 6478   5.434   1.122   4.729
 1860SOL    HW1 6479   5.364   1.190   4.753
 1860SOL    HW2 6480   5.525   1.163   4.738
 1861SOL     OW 6481   5.605   6.375   2.836
 1861SOL    HW1 6482   5.666   6.449   2.865
 1861SOL    HW2 6483   5.645   6.287   2.861
 1862SOL     OW 6484   2.095   1.648   0.075
 1862SOL    HW1 6485   2.042   1.614   0.153
 1862SOL    HW2 6486   2.098   1.748   0.077
 1863SOL     OW 6487   3.172   2.785   1.468
 1863SOL    HW1 6488   3.166   2.848   1.546
 1863SOL    HW2 6489   3.152   2.834   1.384
 1864SOL     OW 6490   1.587   6.532   4.216
 1864SOL    HW1 6491   1.614   6.622   4.181
 1864SOL    HW2 6492   1.664   6.469   4.208
 1865SOL     OW 6493   4.580   2.438   6.447
 1865SOL    HW1 6494   4.482   2.445   6.430
 1865SOL    HW2 6495   4.596   2.381   6.528
 1866SOL     OW 6496   4.756   4.966   2.578
 1866SOL    HW1 6497   4.823   4.913   2.526
 1866SOL    HW2 6498   4.676   4.909   2.597
 1867SOL     OW 6499   0.718   3.991   6.636
 1867SOL    HW1 6500   0.704   3.919   6.568
 1867SOL    HW2 6501   0.636   4.001   6.692
 1868SOL     OW 6502   6.031   4.224   5.627
 1868SOL    HW1 6503   5.976   4.284   5.686
 1868SOL    HW2 6504   6.073   4.153   5.682
 1869SOL     OW 6505   6.295   1.083   5.297
 1869SOL    HW1 6506   6.265   1.001   5.346
 1869SOL    HW2 6507   6.393   1.077   5.278
 1870SOL     OW 6508   1.764   5.782   4.215
 1870SOL    HW1 6509   1.781   5.693   4.256
 1870SOL    HW2 6510   1.815   5.789   4.129
 1871SOL     OW 6511   1.714   0.233   1.073
 1871SOL    HW1 6512   1.783   0.179   1.123
 1871SOL    HW2 6513   1.689   0.184   0.989
 1872SOL     OW 6514   2.191   4.510   0.043
 1872SOL    HW1 6515   2.119   4.454   0.085
 1872SOL    HW2 6516   2.280   4.467   0.059
 1873SOL     OW 6517   4.677   1.349   6.724
 1873SOL    HW1 6518   4.589   1.396   6.719
 1873SOL    HW2 6519   4.663   1.251   6.708
 1874SOL     OW 6520   1.156   2.123   2.705
 1874SOL    HW1 6521   1.242   2.134   2.756
 1874SOL    HW2 6522   1.136   2.207   2.655
 1875SOL     OW 6523   0.490   6.716   0.176
 1875SOL    HW1 6524   0.553   6.720   0.098
 1875SOL    HW2 6525   0.540   6.691   0.258
 1876SOL     OW 6526   2.737   0.383   4.200
 1876SOL    HW1 6527   2.765   0.287   4.198
 1876SOL    HW2 6528   2.786   0.435   4.130
 1877SOL     OW 6529   0.783   0.010   3.389
 1877SOL    HW1 6530   0.719   6.951   3.375
 1877SOL    HW2 6531   0.804   0.019   3.486
 1878SOL     OW 6532   6.366   2.385   5.109
 1878SOL    HW1 6533   6.354   2.307   5.048
 1878SOL    HW2 6534   6.277   2.412   5.148
 1879SOL     OW 6535   0.999   3.808   5.248
 1879SOL    HW1 6536   0.989   3.798   5.149
 1879SOL    HW2 6537   0.993   3.905   5.273
 1880SOL     OW 6538   6.253   0.569   5.670
 1880SOL    HW1 6539   6.338   0.536   5.629
 1880SOL    HW2 6540   6.180   0.567   5.601
 1881SOL     OW 6541   6.698   2.144   0.624
 1881SOL    HW1 6542   6.711   2.235   0.584
 1881SOL    HW2 6543   6.788   2.100   0.636
 1882SOL     OW 6544   0.748   4.499   6.072
 1882SOL    HW1 6545   0.741   4.487   5.973
 1882SOL    HW2 6546   0.825   4.447   6.107
 1883SOL     OW 6547   0.167   2.330   3.863
 1883SOL    HW1 6548   0.226   2.255   3.834
 1883SOL    HW2 6549   0.206   2.374   3.944
 1884SOL     OW 6550   0.561   2.609   1.185
 1884SOL    HW1 6551   0.571   2.678   1.113
 1884SOL    HW2 6552   0.566   2.654   1.274
 1885SOL     OW 6553   1.591   1.983   4.973
 1885SOL    HW1 6554   1.613   1.895   4.932
 1885SOL    HW2 6555   1.642   1.993   5.058
 1886SOL     OW 6556   1.241   6.399   3.209
 1886SOL    HW1 6557   1.217   6.495   3.197
 1886SOL    HW2 6558   1.325   6.392   3.263
 1887SOL     OW 6559   1.910   5.923   6.662
 1887SOL    HW1 6560   1.933   6.020   6.648
 1887SOL    HW2 6561   1.963   5.867   6.598
 1888SOL     OW 6562   2.423   0.940   1.656
 1888SOL    HW1 6563   2.502   0.930   1.718
 1888SOL    HW2 6564   2.392   0.849   1.627
 1889SOL     OW 6565   0.548   3.300   3.545
 1889SOL    HW1 6566   0.560   3.281   3.447
 1889SOL    HW2 6567   0.472   3.247   3.581
 1890SOL     OW 6568   0.154   6.061   3.633
 1890SOL    HW1 6569   0.082   6.125   3.662
 1890SOL    HW2 6570   0.222   6.111   3.579
 1891SOL     OW 6571   3.496   3.230   2.915
 1891SOL    HW1 6572   3.535   3.260   2.828
 1891SOL    HW2 6573   3.399   3.209   2.903
 1892SOL     OW 6574   0.396   1.007   2.436
 1892SOL    HW1 6575   0.439   0.960   2.360
 1892SOL    HW2 6576   0.458   1.010   2.514
 1893SOL     OW 6577   3.008   3.122   3.831
 1893SOL    HW1 6578   2.927   3.096   3.778
 1893SOL    HW2 6579   3.071   3.173   3.772
 1894SOL     OW 6580   3.016   3.822   4.138
 1894SOL    HW1 6581   3.077   3.900   4.136
 1894SOL    HW2 6582   3.028   3.772   4.224
 1895SOL     OW 6583   2.547   5.669   6.691
 1895SOL    HW1 6584   2.541   5.768   6.680
 1895SOL    HW2 6585   2.518   5.644   6.784
 1896SOL     OW 6586   5.403   2.555   1.221
 1896SOL    HW1 6587   5.397   2.634   1.160
 1896SOL    HW2 6588   5.367   2.579   1.311
 1897SOL     OW 6589   2.089   4.825   4.336
 1897SOL    HW1 6590   1.992   4.848   4.326
 1897SOL    HW2 6591   2.126   4.870   4.417
 1898SOL     OW 6592   1.351   5.853   3.555
 1898SOL    HW1 6593   1.269   5.840   3.612
 1898SOL    HW2 6594   1.323   5.884   3.464
 1899SOL     OW 6595   6.974   0.524   2.314
 1899SOL    HW1 6596   6.901   0.580   2.354
 1899SOL    HW2 6597   6.997   0.449   2.376
 1900SOL     OW 6598   2.901   6.840   0.205
 1900SOL    HW1 6599   2.938   6.794   0.123
 1900SOL    HW2 6600   2.872   6.932   0.180
 1901SOL     OW 6601   2.915   3.606   1.549
 1901SOL    HW1 6602   2.969   3.544   1.605
 1901SOL    HW2 6603   2.867   3.671   1.607
 1902SOL     OW 6604   1.359   6.710   4.321
 1902SOL    HW1 6605   1.286   6.745   4.262
 1902SOL    HW2 6606   1.391   6.622   4.286
 1903SOL     OW 6607   1.038   2.615   4.610
 1903SOL    HW1 6608   0.940   2.632   4.599
 1903SOL    HW2 6609   1.071   2.659   4.693
 1904SOL     OW 6610   5.403   5.442   2.458
 1904SOL    HW1 6611   5.477   5.378   2.481
 1904SOL    HW2 6612   5.434   5.535   2.475
 1905SOL     OW 6613   6.745   0.430   3.868
 1905SOL    HW1 6614   6.820   0.373   3.903
 1905SOL    HW2 6615   6.775   0.476   3.784
 1906SOL     OW 6616   2.017   0.154   5.277
 1906SOL    HW1 6617   1.985   0.197   5.193
 1906SOL    HW2 6618   2.001   0.056   5.273
 1907SOL     OW 6619   5.532   2.464   6.980
 1907SOL    HW1 6620   5.623   2.449   7.017
 1907SOL    HW2 6621   5.535   2.466   6.880
 1908SOL     OW 6622   3.315   1.189   1.313
 1908SOL    HW1 6623   3.293   1.247   1.234
 1908SOL    HW2 6624   3.262   1.105   1.307
 1909SOL     OW 6625   6.833   4.453   4.948
 1909SOL    HW1 6626   6.859   4.450   4.851
 1909SOL    HW2 6627   6.792   4.366   4.973
 1910SOL     OW 6628   6.983   6.479   5.779
 1910SOL    HW1 6629   6.970   6.460   5.682
 1910SOL    HW2 6630   0.032   6.415   5.818
 1911SOL     OW 6631   0.105   4.912   3.979
 1911SOL    HW1 6632   0.125   4.903   4.076
 1911SOL    HW2 6633   0.189   4.901   3.926
 1912SOL     OW 6634   2.575   5.443   2.125
 1912SOL    HW1 6635   2.539   5.383   2.197
 1912SOL    HW2 6636   2.623   5.387   2.057
 1913SOL     OW 6637   2.872   4.456   5.801
 1913SOL    HW1 6638   2.923   4.399   5.737
 1913SOL    HW2 6639   2.875   4.551   5.772
 1914SOL     OW 6640   2.201   4.800   6.282
 1914SOL    HW1 6641   2.204   4.792   6.382
 1914SOL    HW2 6642   2.130   4.739   6.246
 1915SOL     OW 6643   4.125   2.333   5.565
 1915SOL    HW1 6644   4.050   2.295   5.511
 1915SOL    HW2 6645   4.102   2.427   5.591
 1916SOL     OW 6646   4.023   0.831   2.198
 1916SOL    HW1 6647   3.986   0.872   2.115
 1916SOL    HW2 6648   3.995   0.885   2.277
 1917SOL     OW 6649   2.286   3.925   1.692
 1917SOL    HW1 6650   2.228   3.984   1.636
 1917SOL    HW2 6651   2.268   3.943   1.789
 1918SOL     OW 6652   5.593   2.773   4.323
 1918SOL    HW1 6653   5.672   2.797   4.379
 1918SOL    HW2 6654   5.552   2.689   4.358
 1919SOL     OW 6655   0.594   2.325   1.301
 1919SOL    HW1 6656   0.640   2.238   1.319
 1919SOL    HW2 6657   0.639   2.371   1.225
 1920SOL     OW 6658   5.183   2.550   0.865
 1920SOL    HW1 6659   5.178   2.465   0.918
 1920SOL    HW2 6660   5.127   2.620   0.909
 1921SOL     OW 6661   1.821   2.822   0.154
 1921SOL    HW1 6662   1.772   2.855   0.073
 1921SOL    HW2 6663   1.885   2.750   0.128
 1922SOL     OW 6664   3.333   3.246   2.592
 1922SOL    HW1 6665   3.326   3.169   2.528
 1922SOL    HW2 6666   3.428   3.253   2.624
 1923SOL     OW 6667   4.044   0.372   5.142
 1923SOL    HW1 6668   4.086   0.391   5.054
 1923SOL    HW2 6669   4.034   0.458   5.194
 1924SOL     OW 6670   3.838   0.385   0.025
 1924SOL    HW1 6671   3.814   0.296   0.064
 1924SOL    HW2 6672   3.777   0.405   6.965
 1925SOL     OW 6673   1.312   4.410   0.812
 1925SOL    HW1 6674   1.372   4.486   0.835
 1925SOL    HW2 6675   1.335   4.331   0.870
 1926SOL     OW 6676   3.334   0.060   2.222
 1926SOL    HW1 6677   3.289   7.009   2.164
 1926SOL    HW2 6678   3.369   0.135   2.166
 1927SOL     OW 6679   2.330   5.153   2.182
 1927SOL    HW1 6680   2.302   5.132   2.088
 1927SOL    HW2 6681   2.399   5.088   2.212
 1928SOL     OW 6682   5.126   4.472   3.296
 1928SOL    HW1 6683   5.082   4.413   3.229
 1928SOL    HW2 6684   5.217   4.436   3.317
 1929SOL     OW 6685   3.460   0.011   3.276
 1929SOL    HW1 6686   3.415   0.097   3.301
 1929SOL    HW2 6687   3.553   0.030   3.245
 1930SOL     OW 6688   4.518   2.956   6.719
 1930SOL    HW1 6689   4.461   2.944   6.800
 1930SOL    HW2 6690   4.545   2.867   6.683
 1931SOL     OW 6691   0.225   1.775   4.678
 1931SOL    HW1 6692   0.268   1.724   4.753
 1931SOL    HW2 6693   0.219   1.717   4.597
 1932SOL     OW 6694   4.225   2.498   1.664
 1932SOL    HW1 6695   4.300   2.510   1.729
 1932SOL    HW2 6696   4.180   2.410   1.681
 1933SOL     OW 6697   1.124   1.030   1.370
 1933SOL    HW1 6698   1.219   1.002   1.383
 1933SOL    HW2 6699   1.065   0.949   1.367
 1934SOL     OW 6700   0.465   0.517   6.771
 1934SOL    HW1 6701   0.513   0.432   6.795
 1934SOL    HW2 6702   0.374   0.517   6.813
 1935SOL     OW 6703   6.368   4.993   4.177
 1935SOL    HW1 6704   6.445   4.990   4.241
 1935SOL    HW2 6705   6.308   5.070   4.200
 1936SOL     OW 6706   4.558   2.798   5.654
 1936SOL    HW1 6707   4.499   2.724   5.687
 1936SOL    HW2 6708   4.637   2.807   5.714
 1937SOL     OW 6709   5.458   5.115   6.481
 1937SOL    HW1 6710   5.364   5.120   6.516
 1937SOL    HW2 6711   5.504   5.036   6.522
 1938SOL     OW 6712   6.947   3.269   6.358
 1938SOL    HW1 6713   0.020   3.251   6.400
 1938SOL    HW2 6714   6.899   3.338   6.411
 1939SOL     OW 6715   1.092   0.466   4.763
 1939SOL    HW1 6716   1.143   0.506   4.839
 1939SOL    HW2 6717   1.156   0.426   4.698
 1940SOL     OW 6718   6.791   5.043   0.585
 1940SOL    HW1 6719   6.813   4.946   0.597
 1940SOL    HW2 6720   6.744   5.076   0.667
 1941SOL     OW 6721   5.704   1.769   4.305
 1941SOL    HW1 6722   5.605   1.779   4.316
 1941SOL    HW2 6723   5.736   1.832   4.235
 1942SOL     OW 6724   6.441   3.681   2.653
 1942SOL    HW1 6725   6.522   3.623   2.646
 1942SOL    HW2 6726   6.371   3.649   2.590
 1943SOL     OW 6727   0.787   2.069   2.501
 1943SOL    HW1 6728   0.794   2.143   2.435
 1943SOL    HW2 6729   0.788   1.981   2.454
 1944SOL     OW 6730   6.830   2.566   3.561
 1944SOL    HW1 6731   6.887   2.485   3.578
 1944SOL    HW2 6732   6.763   2.575   3.634
 1945SOL     OW 6733   4.829   1.575   1.508
 1945SOL    HW1 6734   4.784   1.593   1.596
 1945SOL    HW2 6735   4.771   1.607   1.434
 1946SOL     OW 6736   6.150   4.939   1.156
 1946SOL    HW1 6737   6.247   4.962   1.154
 1946SOL    HW2 6738   6.119   4.933   1.251
 1947SOL     OW 6739   6.126   4.724   3.697
 1947SOL    HW1 6740   6.072   4.744   3.615
 1947SOL    HW2 6741   6.210   4.675   3.671
 1948SOL     OW 6742   4.884   3.597   3.055
 1948SOL    HW1 6743   4.929   3.686   3.058
 1948SOL    HW2 6744   4.856   3.570   3.147
 1949SOL     OW 6745   3.585   5.118   0.118
 1949SOL    HW1 6746   3.614   5.045   0.180
 1949SOL    HW2 6747   3.559   5.199   0.172
 1950SOL     OW 6748   3.231   3.764   3.263
 1950SOL    HW1 6749   3.163   3.745   3.334
 1950SOL    HW2 6750   3.206   3.847   3.213
 1951SOL     OW 6751   5.852   4.917   5.352
 1951SOL    HW1 6752   5.933   4.974   5.339
 1951SOL    HW2 6753   5.877   4.821   5.339
 1952SOL     OW 6754   5.804   5.172   0.632
 1952SOL    HW1 6755   5.733   5.121   0.582
 1952SOL    HW2 6756   5.774   5.267   0.644
 1953SOL     OW 6757   0.690   1.375   6.692
 1953SOL    HW1 6758   0.752   1.361   6.769
 1953SOL    HW2 6759   0.743   1.401   6.611
 1954SOL     OW 6760   4.369   6.784   2.026
 1954SOL    HW1 6761   4.319   6.840   2.092
 1954SOL    HW2 6762   4.374   6.690   2.059
 1955SOL     OW 6763   0.098   2.106   3.320
 1955SOL    HW1 6764   0.005   2.140   3.332
 1955SOL    HW2 6765   0.097   2.024   3.264
 1956SOL     OW 6766   5.732   0.252   2.044
 1956SOL    HW1 6767   5.682   0.304   2.114
 1956SOL    HW2 6768   5.686   0.164   2.030
 1957SOL     OW 6769   5.985   1.933   4.532
 1957SOL    HW1 6770   6.032   1.953   4.618
 1957SOL    HW2 6771   5.903   1.879   4.550
 1958SOL     OW 6772   4.418   1.842   0.225
 1958SOL    HW1 6773   4.507   1.884   0.241
 1958SOL    HW2 6774   4.380   1.875   0.139
 1959SOL     OW 6775   0.634   0.921   4.735
 1959SOL    HW1 6776   0.732   0.910   4.722
 1959SOL    HW2 6777   0.616   0.970   4.820
 1960SOL     OW 6778   6.075   4.171   4.146
 1960SOL    HW1 6779   6.168   4.198   4.172
 1960SOL    HW2 6780   6.018   4.167   4.227
 1961SOL     OW 6781   6.989   3.613   4.266
 1961SOL    HW1 6782   6.910   3.673   4.278
 1961SOL    HW2 6783   0.056   3.668   4.265
 1962SOL     OW 6784   0.810   0.396   2.504
 1962SOL    HW1 6785   0.885   0.331   2.494
 1962SOL    HW2 6786   0.757   0.374   2.587
 1963SOL     OW 6787   0.305   2.809   0.917
 1963SOL    HW1 6788   0.297   2.830   1.014
 1963SOL    HW2 6789   0.242   2.867   0.865
 1964SOL     OW 6790   6.034   3.830   1.122
 1964SOL    HW1 6791   6.093   3.761   1.163
 1964SOL    HW2 6792   6.079   3.919   1.126
 1965SOL     OW 6793   6.932   4.080   4.083
 1965SOL    HW1 6794   6.939   3.997   4.028
 1965SOL    HW2 6795   6.838   4.115   4.079
 1966SOL     OW 6796   1.557   4.689   0.170
 1966SOL    HW1 6797   1.564   4.592   0.193
 1966SOL    HW2 6798   1.564   4.744   0.253
 1967SOL     OW 6799   6.429   3.358   3.650
 1967SOL    HW1 6800   6.386   3.446   3.629
 1967SOL    HW2 6801   6.366   3.284   3.629
 1968SOL     OW 6802   2.932   1.407   4.989
 1968SOL    HW1 6803   2.942   1.363   5.078
 1968SOL    HW2 6804   2.953   1.504   4.997
 1969SOL     OW 6805   2.520   6.466   0.234
 1969SOL    HW1 6806   2.479   6.380   0.204
 1969SOL    HW2 6807   2.586   6.498   0.165
 1970SOL     OW 6808   5.780   5.295   5.093
 1970SOL    HW1 6809   5.775   5.227   5.020
 1970SOL    HW2 6810   5.750   5.254   5.179
 1971SOL     OW 6811   1.643   5.339   5.099
 1971SOL    HW1 6812   1.571   5.318   5.165
 1971SOL    HW2 6813   1.714   5.268   5.103
 1972SOL     OW 6814   6.098   3.070   2.546
 1972SOL    HW1 6815   6.082   3.022   2.632
 1972SOL    HW2 6816   6.173   3.135   2.558
 1973SOL     OW 6817   2.398   3.016   0.660
 1973SOL    HW1 6818   2.410   3.111   0.633
 1973SOL    HW2 6819   2.421   3.006   0.757
 1974SOL     OW 6820   2.652   6.008   4.790
 1974SOL    HW1 6821   2.562   6.000   4.747
 1974SOL    HW2 6822   2.657   5.946   4.868
 1975SOL     OW 6823   2.171   2.735   3.287
 1975SOL    HW1 6824   2.144   2.737   3.384
 1975SOL    HW2 6825   2.254   2.679   3.276
 1976SOL     OW 6826   0.470   0.002   5.863
 1976SOL    HW1 6827   0.559   0.038   5.836
 1976SOL    HW2 6828   0.465   6.921   5.840
 1977SOL     OW 6829   1.844   4.758   5.595
 1977SOL    HW1 6830   1.900   4.817   5.537
 1977SOL    HW2 6831   1.751   4.753   5.558
 1978SOL     OW 6832   3.050   0.362   1.852
 1978SOL    HW1 6833   3.032   0.282   1.795
 1978SOL    HW2 6834   3.007   0.442   1.812
 1979SOL     OW 6835   6.431   4.990   6.221
 1979SOL    HW1 6836   6.355   5.054   6.227
 1979SOL    HW2 6837   6.443   4.960   6.127
 1980SOL     OW 6838   3.364   1.685   1.016
 1980SOL    HW1 6839   3.421   1.755   1.057
 1980SOL    HW2 6840   3.423   1.615   0.974
 1981SOL     OW 6841   3.369   2.144   2.856
 1981SOL    HW1 6842   3.358   2.239   2.883
 1981SOL    HW2 6843   3.458   2.132   2.810
 1982SOL     OW 6844   1.007   2.592   5.230
 1982SOL    HW1 6845   1.009   2.648   5.147
 1982SOL    HW2 6846   0.917   2.550   5.239
 1983SOL     OW 6847   0.199   0.641   2.298
 1983SOL    HW1 6848   0.189   0.714   2.231
 1983SOL    HW2 6849   0.110   0.601   2.318
 1984SOL     OW 6850   4.325   2.919   5.862
 1984SOL    HW1 6851   4.305   2.942   5.766
 1984SOL    HW2 6852   4.247   2.944   5.918
 1985SOL     OW 6853   6.511   3.494   2.467
 1985SOL    HW1 6854   6.419   3.469   2.439
 1985SOL    HW2 6855   6.551   3.554   2.398
 1986SOL     OW 6856   3.600   2.799   1.979
 1986SOL    HW1 6857   3.590   2.715   1.925
 1986SOL    HW2 6858   3.675   2.853   1.942
 1987SOL     OW 6859   2.820   1.228   1.021
 1987SOL    HW1 6860   2.859   1.260   1.106
 1987SOL    HW2 6861   2.856   1.137   0.999
 1988SOL     OW 6862   0.316   2.197   1.646
 1988SOL    HW1 6863   0.344   2.264   1.577
 1988SOL    HW2 6864   0.397   2.158   1.690
 1989SOL     OW 6865   2.981   4.871   4.620
 1989SOL    HW1 6866   2.992   4.842   4.715
 1989SOL    HW2 6867   2.890   4.846   4.588
 1990SOL     OW 6868   4.051   0.434   0.208
 1990SOL    HW1 6869   4.142   0.392   0.205
 1990SOL    HW2 6870   4.005   0.420   0.120
 1991SOL     OW 6871   2.826   5.020   0.764
 1991SOL    HW1 6872   2.788   4.975   0.683
 1991SOL    HW2 6873   2.861   5.110   0.738
 1992SOL     OW 6874   0.390   6.643   1.479
 1992SOL    HW1 6875   0.478   6.596   1.467
 1992SOL    HW2 6876   0.397   6.709   1.554
 1993SOL     OW 6877   2.395   2.549   3.288
 1993SOL    HW1 6878   2.489   2.530   3.313
 1993SOL    HW2 6879   2.340   2.466   3.297
 1994SOL     OW 6880   3.113   2.977   1.257
 1994SOL    HW1 6881   3.043   2.986   1.186
 1994SOL    HW2 6882   3.201   3.009   1.222
 1995SOL     OW 6883   5.461   1.756   4.410
 1995SOL    HW1 6884   5.499   1.718   4.494
 1995SOL    HW2 6885   5.366   1.782   4.425
 1996SOL     OW 6886   4.268   1.175   1.081
 1996SOL    HW1 6887   4.324   1.094   1.100
 1996SOL    HW2 6888   4.316   1.257   1.113
 1997SOL     OW 6889   3.827   0.365   4.160
 1997SOL    HW1 6890   3.822   0.433   4.232
 1997SOL    HW2 6891   3.788   0.278   4.192
 1998SOL     OW 6892   1.959   3.621   1.444
 1998SOL    HW1 6893   1.927   3.689   1.377
 1998SOL    HW2 6894   1.884   3.559   1.466
 1999SOL     OW 6895   1.635   0.148   0.825
 1999SOL    HW1 6896   1.613   0.052   0.842
 1999SOL    HW2 6897   1.668   0.159   0.732
 2000SOL     OW 6898   3.941   4.276   5.972
 2000SOL    HW1 6899   3.879   4.292   5.895
 2000SOL    HW2 6900   3.900   4.210   6.034
 2001SOL     OW 6901   2.043   1.739   0.675
 2001SOL    HW1 6902   1.951   1.702   0.691
 2001SOL    HW2 6903   2.035   1.833   0.642
 2002SOL     OW 6904   0.169   5.104   0.099
 2002SOL    HW1 6905   0.154   5.202   0.117
 2002SOL    HW2 6906   0.104   5.050   0.153
 2003SOL     OW 6907   6.229   4.363   2.640
 2003SOL    HW1 6908   6.285   4.349   2.721
 2003SOL    HW2 6909   6.172   4.444   2.653
 2004SOL     OW 6910   3.908   6.965   3.394
 2004SOL    HW1 6911   3.842   0.012   3.435
 2004SOL    HW2 6912   3.877   6.941   3.302
 2005SOL     OW 6913   1.617   6.395   7.002
 2005SOL    HW1 6914   1.605   6.389   6.903
 2005SOL    HW2 6915   1.572   6.478   0.019
 2006SOL     OW 6916   5.702   5.825   2.532
 2006SOL    HW1 6917   5.650   5.765   2.593
 2006SOL    HW2 6918   5.642   5.895   2.494
 2007SOL     OW 6919   5.516   4.407   6.874
 2007SOL    HW1 6920   5.494   4.503   6.856
 2007SOL    HW2 6921   5.471   4.349   6.805
 2008SOL     OW 6922   1.760   3.278   3.700
 2008SOL    HW1 6923   1.772   3.267   3.799
 2008SOL    HW2 6924   1.746   3.189   3.658
 2009SOL     OW 6925   6.322   0.126   2.782
 2009SOL    HW1 6926   6.416   0.128   2.749
 2009SOL    HW2 6927   6.261   0.099   2.707
 2010SOL     OW 6928   0.725   2.095   1.374
 2010SOL    HW1 6929   0.780   2.073   1.294
 2010SOL    HW2 6930   0.722   2.017   1.436
 2011SOL     OW 6931   1.244   6.744   5.072
 2011SOL    HW1 6932   1.178   6.680   5.113
 2011SOL    HW2 6933   1.292   6.794   5.145
 2012SOL     OW 6934   1.386   3.134   1.668
 2012SOL    HW1 6935   1.446   3.071   1.619
 2012SOL    HW2 6936   1.440   3.210   1.704
 2013SOL     OW 6937   0.889   3.233   2.073
 2013SOL    HW1 6938   0.817   3.277   2.020
 2013SOL    HW2 6939   0.902   3.283   2.159
 2014SOL     OW 6940   3.893   0.933   4.583
 2014SOL    HW1 6941   3.868   0.855   4.640
 2014SOL    HW2 6942   3.989   0.958   4.599
 2015SOL     OW 6943   4.142   0.562   1.869
 2015SOL    HW1 6944   4.062   0.507   1.846
 2015SOL    HW2 6945   4.114   0.657   1.885
 2016SOL     OW 6946   1.835   0.374   5.130
 2016SOL    HW1 6947   1.853   0.299   5.067
 2016SOL    HW2 6948   1.922   0.417   5.155
 2017SOL     OW 6949   4.039   6.370   3.554
 2017SOL    HW1 6950   4.080   6.323   3.476
 2017SOL    HW2 6951   3.944   6.340   3.565
 2018SOL     OW 6952   1.478   0.828   4.205
 2018SOL    HW1 6953   1.495   0.865   4.114
 2018SOL    HW2 6954   1.556   0.773   4.234
 2019SOL     OW 6955   5.701   5.287   6.490
 2019SOL    HW1 6956   5.607   5.254   6.494
 2019SOL    HW2 6957   5.755   5.226   6.432
 2020SOL     OW 6958   2.187   6.337   6.956
 2020SOL    HW1 6959   2.164   6.429   6.926
 2020SOL    HW2 6960   2.103   6.286   6.975
 2021SOL     OW 6961   7.012   6.025   4.208
 2021SOL    HW1 6962   6.953   6.029   4.290
 2021SOL    HW2 6963   0.005   5.930   4.179
 2022SOL     OW 6964   1.961   3.884   4.468
 2022SOL    HW1 6965   2.033   3.934   4.515
 2022SOL    HW2 6966   1.962   3.907   4.371
 2023SOL     OW 6967   6.837   6.994   0.555
 2023SOL    HW1 6968   6.788   6.908   0.541
 2023SOL    HW2 6969   6.906   7.005   0.483
 2024SOL     OW 6970   0.503   5.734   4.435
 2024SOL    HW1 6971   0.508   5.834   4.435
 2024SOL    HW2 6972   0.557   5.697   4.511
 2025SOL     OW 6973   1.532   6.202   4.262
 2025SOL    HW1 6974   1.542   6.220   4.164
 2025SOL    HW2 6975   1.445   6.240   4.293
 2026SOL     OW 6976   0.263   0.167   5.955
 2026SOL    HW1 6977   0.334   0.123   5.899
 2026SOL    HW2 6978   0.305   0.201   6.039
 2027SOL     OW 6979   6.555   6.005   1.959
 2027SOL    HW1 6980   6.552   5.921   1.906
 2027SOL    HW2 6981   6.493   5.998   2.037
 2028SOL     OW 6982   3.340   5.488   4.808
 2028SOL    HW1 6983   3.258   5.542   4.793
 2028SOL    HW2 6984   3.364   5.488   4.905
 2029SOL     OW 6985   6.751   2.638   6.534
 2029SOL    HW1 6986   6.657   2.648   6.501
 2029SOL    HW2 6987   6.803   2.583   6.469
 2030SOL     OW 6988   2.048   0.076   1.959
 2030SOL    HW1 6989   2.095   0.052   2.044
 2030SOL    HW2 6990   2.044   7.013   1.899
 2031SOL     OW 6991   0.189   6.046   4.426
 2031SOL    HW1 6992   0.206   5.949   4.442
 2031SOL    HW2 6993   0.140   6.058   4.339
 2032SOL     OW 6994   2.516   2.263   5.906
 2032SOL    HW1 6995   2.534   2.200   5.831
 2032SOL    HW2 6996   2.442   2.228   5.963
 2033SOL     OW 6997   2.828   2.248   0.819
 2033SOL    HW1 6998   2.887   2.216   0.893
 2033SOL    HW2 6999   2.768   2.174   0.788
 2034SOL     OW 7000   0.572   3.721   4.641
 2034SOL    HW1 7001   0.537   3.757   4.555
 2034SOL    HW2 7002   0.605   3.627   4.627
 2035SOL     OW 7003   5.179   0.050   2.848
 2035SOL    HW1 7004   5.232   0.134   2.860
 2035SOL    HW2 7005   5.117   0.061   2.770
 2036SOL     OW 7006   0.288   4.540   6.796
 2036SOL    HW1 7007   0.288   4.575   6.889
 2036SOL    HW2 7008   0.335   4.451   6.793
 2037SOL     OW 7009   0.931   2.276   6.572
 2037SOL    HW1 7010   0.928   2.376   6.571
 2037SOL    HW2 7011   0.945   2.243   6.479
 2038SOL     OW 7012   0.976   0.891   6.521
 2038SOL    HW1 7013   1.048   0.848   6.575
 2038SOL    HW2 7014   1.013   0.972   6.475
 2039SOL     OW 7015   5.122   6.362   3.344
 2039SOL    HW1 7016   5.023   6.345   3.348
 2039SOL    HW2 7017   5.156   6.339   3.252
 2040SOL     OW 7018   2.085   2.640   0.581
 2040SOL    HW1 7019   2.007   2.691   0.543
 2040SOL    HW2 7020   2.054   2.582   0.656
 2041SOL     OW 7021   2.655   0.971   6.650
 2041SOL    HW1 7022   2.586   1.019   6.704
 2041SOL    HW2 7023   2.640   0.990   6.553
 2042SOL     OW 7024   6.346   1.210   5.895
 2042SOL    HW1 7025   6.260   1.198   5.846
 2042SOL    HW2 7026   6.412   1.140   5.867
 2043SOL     OW 7027   0.555   4.006   1.175
 2043SOL    HW1 7028   0.506   3.966   1.098
 2043SOL    HW2 7029   0.491   4.024   1.250
 2044SOL     OW 7030   4.111   0.856   1.322
 2044SOL    HW1 7031   4.114   0.952   1.352
 2044SOL    HW2 7032   4.078   0.799   1.396
 2045SOL     OW 7033   1.324   6.431   4.640
 2045SOL    HW1 7034   1.321   6.348   4.697
 2045SOL    HW2 7035   1.419   6.458   4.626
 2046SOL     OW 7036   0.574   1.892   4.834
 2046SOL    HW1 7037   0.574   1.938   4.923
 2046SOL    HW2 7038   0.521   1.946   4.769
 2047SOL     OW 7039   0.188   0.936   0.697
 2047SOL    HW1 7040   0.276   0.955   0.738
 2047SOL    HW2 7041   0.196   0.940   0.597
 2048SOL     OW 7042   0.887   2.183   3.853
 2048SOL    HW1 7043   0.873   2.234   3.938
 2048SOL    HW2 7044   0.979   2.199   3.818
 2049SOL     OW 7045   4.501   2.206   4.540
 2049SOL    HW1 7046   4.480   2.144   4.465
 2049SOL    HW2 7047   4.434   2.281   4.541
 2050SOL     OW 7048   0.731   1.104   4.052
 2050SOL    HW1 7049   0.778   1.050   3.982
 2050SOL    HW2 7050   0.724   1.199   4.022
 2051SOL     OW 7051   2.727   6.549   0.012
 2051SOL    HW1 7052   2.759   6.502   6.947
 2051SOL    HW2 7053   2.785   6.523   0.090
 2052SOL     OW 7054   1.049   4.074   6.685
 2052SOL    HW1 7055   1.111   4.016   6.632
 2052SOL    HW2 7056   0.960   4.028   6.692
 2053SOL     OW 7057   6.858   5.538   3.203
 2053SOL    HW1 7058   6.936   5.478   3.218
 2053SOL    HW2 7059   6.888   5.620   3.154
 2054SOL     OW 7060   3.167   3.991   3.103
 2054SOL    HW1 7061   3.074   4.024   3.085
 2054SOL    HW2 7062   3.218   3.986   3.017
 2055SOL     OW 7063   3.797   2.388   5.554
 2055SOL    HW1 7064   3.762   2.475   5.519
 2055SOL    HW2 7065   3.761   2.372   5.646
 2056SOL     OW 7066   3.329   4.722   1.300
 2056SOL    HW1 7067   3.380   4.638   1.315
 2056SOL    HW2 7068   3.287   4.752   1.386
 2057SOL     OW 7069   5.154   2.835   4.741
 2057SOL    HW1 7070   5.129   2.869   4.832
 2057SOL    HW2 7071   5.210   2.904   4.695
 2058SOL     OW 7072   6.890   6.978   3.252
 2058SOL    HW1 7073   6.837   6.981   3.336
 2058SOL    HW2 7074   6.864   0.038   3.193
 2059SOL     OW 7075   1.468   1.159   5.371
 2059SOL    HW1 7076   1.539   1.211   5.418
 2059SOL    HW2 7077   1.446   1.076   5.424
 2060SOL     OW 7078   1.912   2.913   6.732
 2060SOL    HW1 7079   1.843   2.906   6.803
 2060SOL    HW2 7080   1.997   2.871   6.763
 2061SOL     OW 7081   1.824   2.549   2.547
 2061SOL    HW1 7082   1.913   2.507   2.563
 2061SOL    HW2 7083   1.835   2.627   2.485
 2062SOL     OW 7084   0.010   4.988   5.129
 2062SOL    HW1 7085   0.004   4.997   5.228
 2062SOL    HW2 7086   6.937   5.003   5.088
 2063SOL     OW 7087   1.156   1.464   4.422
 2063SOL    HW1 7088   1.236   1.411   4.449
 2063SOL    HW2 7089   1.093   1.472   4.499
 2064SOL     OW 7090   0.955   3.493   3.635
 2064SOL    HW1 7091   0.925   3.410   3.588
 2064SOL    HW2 7092   1.034   3.473   3.692
 2065SOL     OW 7093   4.144   3.709   5.685
 2065SOL    HW1 7094   4.116   3.624   5.642
 2065SOL    HW2 7095   4.089   3.785   5.650
 2066SOL     OW 7096   1.089   3.271   5.675
 2066SOL    HW1 7097   1.049   3.211   5.606
 2066SOL    HW2 7098   1.061   3.366   5.656
 2067SOL     OW 7099   6.388   5.452   1.578
 2067SOL    HW1 7100   6.360   5.463   1.674
 2067SOL    HW2 7101   6.411   5.542   1.540
 2068SOL     OW 7102   4.610   0.530   4.762
 2068SOL    HW1 7103   4.617   0.621   4.721
 2068SOL    HW2 7104   4.594   0.462   4.691
 2069SOL     OW 7105   0.090   1.013   3.380
 2069SOL    HW1 7106   0.103   1.073   3.302
 2069SOL    HW2 7107   7.010   1.011   3.405
 2070SOL     OW 7108   1.222   5.011   1.069
 2070SOL    HW1 7109   1.131   5.053   1.076
 2070SOL    HW2 7110   1.261   5.031   0.979
 2071SOL     OW 7111   0.531   1.901   5.177
 2071SOL    HW1 7112   0.521   1.811   5.218
 2071SOL    HW2 7113   0.444   1.930   5.137
 2072SOL     OW 7114   5.459   4.415   5.447
 2072SOL    HW1 7115   5.378   4.374   5.405
 2072SOL    HW2 7116   5.541   4.379   5.403
 2073SOL     OW 7117   3.116   5.388   6.646
 2073SOL    HW1 7118   3.188   5.319   6.643
 2073SOL    HW2 7119   3.030   5.348   6.615
 2074SOL     OW 7120   1.580   4.759   6.211
 2074SOL    HW1 7121   1.526   4.780   6.130
 2074SOL    HW2 7122   1.676   4.744   6.183
 2075SOL     OW 7123   6.215   2.921   1.172
 2075SOL    HW1 7124   6.176   2.834   1.203
 2075SOL    HW2 7125   6.149   2.969   1.115
 2076SOL     OW 7126   6.215   6.924   4.576
 2076SOL    HW1 7127   6.233   6.937   4.479
 2076SOL    HW2 7128   6.247   7.003   4.627
 2077SOL     OW 7129   6.417   4.955   1.154
 2077SOL    HW1 7130   6.435   4.858   1.135
 2077SOL    HW2 7131   6.480   4.988   1.224
 2078SOL     OW 7132   0.954   3.067   5.527
 2078SOL    HW1 7133   0.920   3.128   5.455
 2078SOL    HW2 7134   0.935   2.972   5.501
 2079SOL     OW 7135   5.460   0.971   2.433
 2079SOL    HW1 7136   5.463   0.943   2.337
 2079SOL    HW2 7137   5.502   1.061   2.443
 2080SOL     OW 7138   2.497   3.468   6.221
 2080SOL    HW1 7139   2.490   3.502   6.315
 2080SOL    HW2 7140   2.511   3.546   6.160
 2081SOL     OW 7141   5.735   5.861   2.093
 2081SOL    HW1 7142   5.793   5.870   2.012
 2081SOL    HW2 7143   5.775   5.913   2.168
 2082SOL     OW 7144   6.467   6.145   4.168
 2082SOL    HW1 7145   6.494   6.196   4.250
 2082SOL    HW2 7146   6.532   6.071   4.153
 2083SOL     OW 7147   0.261   6.717   3.756
 2083SOL    HW1 7148   0.319   6.638   3.774
 2083SOL    HW2 7149   0.165   6.691   3.766
 2084SOL     OW 7150   6.401   2.353   0.592
 2084SOL    HW1 7151   6.332   2.315   0.654
 2084SOL    HW2 7152   6.485   2.370   0.644
 2085SOL     OW 7153   5.849   5.856   1.130
 2085SOL    HW1 7154   5.948   5.869   1.140
 2085SOL    HW2 7155   5.831   5.765   1.092
 2086SOL     OW 7156   4.511   0.829   6.998
 2086SOL    HW1 7157   4.443   0.766   0.019
 2086SOL    HW2 7158   4.468   0.918   6.981
 2087SOL     OW 7159   4.210   1.437   6.940
 2087SOL    HW1 7160   4.178   1.531   6.935
 2087SOL    HW2 7161   4.206   1.395   6.849
 2088SOL     OW 7162   1.013   5.351   5.705
 2088SOL    HW1 7163   0.927   5.337   5.655
 2088SOL    HW2 7164   1.032   5.271   5.761
 2089SOL     OW 7165   2.494   3.341   6.690
 2089SOL    HW1 7166   2.539   3.393   6.618
 2089SOL    HW2 7167   2.404   3.311   6.659
 2090SOL     OW 7168   5.275   2.933   6.062
 2090SOL    HW1 7169   5.184   2.974   6.051
 2090SOL    HW2 7170   5.280   2.849   6.008
 2091SOL     OW 7171   5.391   6.403   1.390
 2091SOL    HW1 7172   5.293   6.382   1.384
 2091SOL    HW2 7173   5.404   6.502   1.382
 2092SOL     OW 7174   3.888   3.444   1.339
 2092SOL    HW1 7175   3.828   3.364   1.339
 2092SOL    HW2 7176   3.908   3.470   1.434
 2093SOL     OW 7177   4.536   1.422   1.495
 2093SOL    HW1 7178   4.520   1.332   1.456
 2093SOL    HW2 7179   4.575   1.483   1.426
 2094SOL     OW 7180   5.590   1.913   6.368
 2094SOL    HW1 7181   5.536   1.867   6.439
 2094SOL    HW2 7182   5.615   2.004   6.400
 2095SOL     OW 7183   4.740   5.789   3.917
 2095SOL    HW1 7184   4.825   5.743   3.890
 2095SOL    HW2 7185   4.751   5.829   4.008
 2096SOL     OW 7186   3.957   6.801   1.489
 2096SOL    HW1 7187   4.027   6.846   1.545
 2096SOL    HW2 7188   3.974   6.703   1.487
 2097SOL     OW 7189   0.765   6.110   6.167
 2097SOL    HW1 7190   0.861   6.129   6.150
 2097SOL    HW2 7191   0.709   6.184   6.128
 2098SOL     OW 7192   2.917   5.915   3.510
 2098SOL    HW1 7193   3.000   5.968   3.497
 2098SOL    HW2 7194   2.897   5.908   3.608
 2099SOL     OW 7195   4.654   1.877   6.247
 2099SOL    HW1 7196   4.574   1.819   6.256
 2099SOL    HW2 7197   4.732   1.834   6.293
 2100SOL     OW 7198   5.158   6.702   1.703
 2100SOL    HW1 7199   5.112   6.666   1.784
 2100SOL    HW2 7200   5.166   6.801   1.710
 2101SOL     OW 7201   0.811   0.317   3.029
 2101SOL    HW1 7202   0.876   0.240   3.029
 2101SOL    HW2 7203   0.738   0.299   3.094
 2102SOL     OW 7204   3.849   2.199   0.963
 2102SOL    HW1 7205   3.815   2.221   1.055
 2102SOL    HW2 7206   3.920   2.129   0.970
 2103SOL     OW 7207   2.313   6.479   0.739
 2103SOL    HW1 7208   2.275   6.566   0.707
 2103SOL    HW2 7209   2.412   6.480   0.727
 2104SOL     OW 7210   2.018   4.147   3.613
 2104SOL    HW1 7211   2.020   4.142   3.513
 2104SOL    HW2 7212   1.953   4.218   3.641
 2105SOL     OW 7213   5.440   6.690   4.845
 2105SOL    HW1 7214   5.393   6.673   4.759
 2105SOL    HW2 7215   5.402   6.632   4.916
 2106SOL     OW 7216   4.276   2.994   1.056
 2106SOL    HW1 7217   4.292   2.989   1.155
 2106SOL    HW2 7218   4.267   3.090   1.028
 2107SOL     OW 7219   5.025   4.857   4.881
 2107SOL    HW1 7220   5.088   4.876   4.956
 2107SOL    HW2 7221   4.937   4.828   4.917
 2108SOL     OW 7222   4.733   0.386   5.131
 2108SOL    HW1 7223   4.747   0.466   5.074
 2108SOL    HW2 7224   4.811   0.374   5.193
 2109SOL     OW 7225   2.892   6.493   2.279
 2109SOL    HW1 7226   2.881   6.573   2.338
 2109SOL    HW2 7227   2.989   6.479   2.260
 2110SOL     OW 7228   3.118   6.248   6.840
 2110SOL    HW1 7229   3.134   6.338   6.800
 2110SOL    HW2 7230   3.020   6.230   6.845
 2111SOL     OW 7231   1.197   2.198   5.853
 2111SOL    HW1 7232   1.288   2.239   5.854
 2111SOL    HW2 7233   1.185   2.148   5.767
 2112SOL     OW 7234   1.118   0.381   0.351
 2112SOL    HW1 7235   1.133   0.302   0.292
 2112SOL    HW2 7236   1.068   0.353   0.432
 2113SOL     OW 7237   6.782   1.035   4.459
 2113SOL    HW1 7238   6.849   1.037   4.385
 2113SOL    HW2 7239   6.713   1.106   4.443
 2114SOL     OW 7240   1.908   1.467   5.931
 2114SOL    HW1 7241   1.963   1.466   5.848
 2114SOL    HW2 7242   1.965   1.493   6.009
 2115SOL     OW 7243   6.325   6.247   3.240
 2115SOL    HW1 7244   6.240   6.266   3.190
 2115SOL    HW2 7245   6.384   6.189   3.183
 2116SOL     OW 7246   1.902   1.891   6.848
 2116SOL    HW1 7247   1.942   1.863   6.760
 2116SOL    HW2 7248   1.968   1.947   6.898
 2117SOL     OW 7249   6.187   1.562   2.701
 2117SOL    HW1 7250   6.195   1.473   2.746
 2117SOL    HW2 7251   6.094   1.573   2.665
 2118SOL     OW 7252   6.800   2.402   3.038
 2118SOL    HW1 7253   6.769   2.307   3.033
 2118SOL    HW2 7254   6.770   2.442   3.125
 2119SOL     OW 7255   1.127   1.489   0.814
 2119SOL    HW1 7256   1.060   1.420   0.784
 2119SOL    HW2 7257   1.219   1.453   0.802
 2120SOL     OW 7258   5.458   1.445   0.598
 2120SOL    HW1 7259   5.500   1.535   0.607
 2120SOL    HW2 7260   5.360   1.452   0.616
 2121SOL     OW 7261   1.794   0.386   0.283
 2121SOL    HW1 7262   1.714   0.329   0.301
 2121SOL    HW2 7263   1.875   0.341   0.321
 2122SOL     OW 7264   6.568   0.272   4.341
 2122SOL    HW1 7265   6.539   0.253   4.247
 2122SOL    HW2 7266   6.490   0.310   4.392
 2123SOL     OW 7267   1.563   4.920   2.748
 2123SOL    HW1 7268   1.662   4.912   2.747
 2123SOL    HW2 7269   1.534   4.978   2.824
 2124SOL     OW 7270   4.359   3.867   6.879
 2124SOL    HW1 7271   4.277   3.867   6.821
 2124SOL    HW2 7272   4.432   3.817   6.832
 2125SOL     OW 7273   1.635   5.893   4.579
 2125SOL    HW1 7274   1.731   5.895   4.553
 2125SOL    HW2 7275   1.578   5.887   4.496
 2126SOL     OW 7276   2.773   3.942   6.873
 2126SOL    HW1 7277   2.798   3.857   6.918
 2126SOL    HW2 7278   2.849   4.007   6.879
 2127SOL     OW 7279   0.975   2.750   4.354
 2127SOL    HW1 7280   1.007   2.836   4.313
 2127SOL    HW2 7281   1.011   2.741   4.447
 2128SOL     OW 7282   5.281   3.114   1.930
 2128SOL    HW1 7283   5.379   3.093   1.925
 2128SOL    HW2 7284   5.258   3.184   1.863
 2129SOL     OW 7285   5.330   4.607   4.534
 2129SOL    HW1 7286   5.285   4.595   4.445
 2129SOL    HW2 7287   5.359   4.702   4.545
 2130SOL     OW 7288   3.098   1.028   1.224
 2130SOL    HW1 7289   3.042   1.073   1.155
 2130SOL    HW2 7290   3.041   1.003   1.302
 2131SOL     OW 7291   5.433   0.461   5.608
 2131SOL    HW1 7292   5.503   0.516   5.564
 2131SOL    HW2 7293   5.343   0.498   5.587
 2132SOL     OW 7294   2.341   2.293   0.183
 2132SOL    HW1 7295   2.262   2.299   0.243
 2132SOL    HW2 7296   2.328   2.354   0.105
 2133SOL     OW 7297   3.126   2.434   1.691
 2133SOL    HW1 7298   3.093   2.367   1.625
 2133SOL    HW2 7299   3.076   2.422   1.777
 2134SOL     OW 7300   2.162   6.155   5.294
 2134SOL    HW1 7301   2.159   6.210   5.378
 2134SOL    HW2 7302   2.086   6.180   5.235
 2135SOL     OW 7303   0.766   5.922   3.814
 2135SOL    HW1 7304   0.780   5.992   3.884
 2135SOL    HW2 7305   0.772   5.832   3.855
 2136SOL     OW 7306   1.289   4.330   3.626
 2136SOL    HW1 7307   1.380   4.345   3.586
 2136SOL    HW2 7308   1.248   4.418   3.650
 2137SOL     OW 7309   1.410   1.397   4.563
 2137SOL    HW1 7310   1.345   1.337   4.609
 2137SOL    HW2 7311   1.460   1.344   4.494
 2138SOL     OW 7312   1.416   2.381   5.911
 2138SOL    HW1 7313   1.369   2.465   5.936
 2138SOL    HW2 7314   1.505   2.403   5.871
 2139SOL     OW 7315   2.687   0.495   4.873
 2139SOL    HW1 7316   2.743   0.504   4.790
 2139SOL    HW2 7317   2.590   0.496   4.848
 2140SOL     OW 7318   1.609   5.906   3.537
 2140SOL    HW1 7319   1.660   5.856   3.466
 2140SOL    HW2 7320   1.511   5.886   3.528
 2141SOL     OW 7321   0.067   1.456   0.378
 2141SOL    HW1 7322   6.985   1.466   0.387
 2141SOL    HW2 7323   0.107   1.439   0.468
 2142SOL     OW 7324   2.538   1.613   3.434
 2142SOL    HW1 7325   2.529   1.535   3.371
 2142SOL    HW2 7326   2.634   1.621   3.462
 2143SOL     OW 7327   3.889   6.136   6.413
 2143SOL    HW1 7328   3.793   6.133   6.439
 2143SOL    HW2 7329   3.897   6.147   6.314
 2144SOL     OW 7330   0.146   0.850   2.126
 2144SOL    HW1 7331   0.232   0.901   2.132
 2144SOL    HW2 7332   0.089   0.889   2.054
 2145SOL     OW 7333   3.992   5.651   3.072
 2145SOL    HW1 7334   3.896   5.624   3.061
 2145SOL    HW2 7335   3.996   5.747   3.098
 2146SOL     OW 7336   3.469   2.789   0.962
 2146SOL    HW1 7337   3.408   2.710   0.955
 2146SOL    HW2 7338   3.494   2.803   1.058
 2147SOL     OW 7339   6.962   0.778   5.365
 2147SOL    HW1 7340   6.932   0.749   5.455
 2147SOL    HW2 7341   0.004   0.858   5.373
 2148SOL     OW 7342   5.140   3.085   2.991
 2148SOL    HW1 7343   5.191   3.023   3.050
 2148SOL    HW2 7344   5.201   3.128   2.925
 2149SOL     OW 7345   3.421   0.876   2.850
 2149SOL    HW1 7346   3.492   0.922   2.797
 2149SOL    HW2 7347   3.432   0.899   2.947
 2150SOL     OW 7348   3.727   1.259   1.843
 2150SOL    HW1 7349   3.640   1.298   1.813
 2150SOL    HW2 7350   3.711   1.194   1.917
 2151SOL     OW 7351   3.557   2.972   5.848
 2151SOL    HW1 7352   3.480   2.972   5.912
 2151SOL    HW2 7353   3.525   2.945   5.757
 2152SOL     OW 7354   5.935   6.099   1.685
 2152SOL    HW1 7355   6.010   6.165   1.682
 2152SOL    HW2 7356   5.963   6.019   1.737
 2153SOL     OW 7357   4.882   2.473   2.461
 2153SOL    HW1 7358   4.791   2.435   2.478
 2153SOL    HW2 7359   4.950   2.401   2.472
 2154SOL     OW 7360   3.985   6.215   5.182
 2154SOL    HW1 7361   3.914   6.146   5.165
 2154SOL    HW2 7362   4.067   6.192   5.130
 2155SOL     OW 7363   5.799   3.899   6.680
 2155SOL    HW1 7364   5.871   3.904   6.750
 2155SOL    HW2 7365   5.796   3.806   6.643
 2156SOL     OW 7366   0.625   0.881   1.540
 2156SOL    HW1 7367   0.562   0.957   1.523
 2156SOL    HW2 7368   0.583   0.795   1.513
 2157SOL     OW 7369   6.666   1.274   4.378
 2157SOL    HW1 7370   6.719   1.285   4.294
 2157SOL    HW2 7371   6.710   1.324   4.452
 2158SOL     OW 7372   4.089   6.346   2.782
 2158SOL    HW1 7373   4.011   6.381   2.833
 2158SOL    HW2 7374   4.093   6.390   2.692
 2159SOL     OW 7375   2.029   6.314   5.091
 2159SOL    HW1 7376   1.940   6.273   5.114
 2159SOL    HW2 7377   2.060   6.370   5.168
 2160SOL     OW 7378   2.929   2.986   1.051
 2160SOL    HW1 7379   2.840   3.028   1.062
 2160SOL    HW2 7380   2.928   2.893   1.088
 2161SOL     OW 7381   4.655   2.194   4.133
 2161SOL    HW1 7382   4.675   2.201   4.036
 2161SOL    HW2 7383   4.738   2.168   4.183
 2162SOL     OW 7384   2.013   1.284   0.227
 2162SOL    HW1 7385   1.965   1.369   0.206
 2162SOL    HW2 7386   2.063   1.294   0.313
 2163SOL     OW 7387   2.885   1.651   1.374
 2163SOL    HW1 7388   2.796   1.647   1.418
 2163SOL    HW2 7389   2.952   1.602   1.431
 2164SOL     OW 7390   0.401   0.605   1.704
 2164SOL    HW1 7391   0.448   0.600   1.615
 2164SOL    HW2 7392   0.379   0.512   1.735
 2165SOL     OW 7393   3.071   0.155   1.681
 2165SOL    HW1 7394   3.129   0.103   1.619
 2165SOL    HW2 7395   3.018   0.092   1.738
 2166SOL     OW 7396   6.286   2.757   6.274
 2166SOL    HW1 7397   6.220   2.767   6.349
 2166SOL    HW2 7398   6.264   2.823   6.202
 2167SOL     OW 7399   2.621   0.739   2.166
 2167SOL    HW1 7400   2.593   0.824   2.211
 2167SOL    HW2 7401   2.696   0.697   2.217
 2168SOL     OW 7402   5.603   5.499   4.988
 2168SOL    HW1 7403   5.658   5.581   4.979
 2168SOL    HW2 7404   5.659   5.424   5.023
 2169SOL     OW 7405   6.498   1.640   5.442
 2169SOL    HW1 7406   6.554   1.649   5.525
 2169SOL    HW2 7407   6.409   1.682   5.458
 2170SOL     OW 7408   5.666   5.111   4.329
 2170SOL    HW1 7409   5.626   5.161   4.252
 2170SOL    HW2 7410   5.651   5.013   4.316
 2171SOL     OW 7411   0.052   2.840   0.352
 2171SOL    HW1 7412   0.043   2.819   0.450
 2171SOL    HW2 7413   7.006   2.783   0.300
 2172SOL     OW 7414   2.772   0.551   1.085
 2172SOL    HW1 7415   2.734   0.621   1.025
 2172SOL    HW2 7416   2.706   0.476   1.094
 2173SOL     OW 7417   4.926   1.851   5.144
 2173SOL    HW1 7418   4.994   1.885   5.079
 2173SOL    HW2 7419   4.862   1.924   5.167
 2174SOL     OW 7420   1.343   5.480   4.802
 2174SOL    HW1 7421   1.334   5.579   4.814
 2174SOL    HW2 7422   1.440   5.456   4.801
 2175SOL     OW 7423   1.714   6.143   5.678
 2175SOL    HW1 7424   1.713   6.059   5.623
 2175SOL    HW2 7425   1.776   6.131   5.756
 2176SOL     OW 7426   1.871   2.713   2.329
 2176SOL    HW1 7427   1.944   2.653   2.296
 2176SOL    HW2 7428   1.817   2.746   2.252
 2177SOL     OW 7429   6.779   1.227   2.464
 2177SOL    HW1 7430   6.841   1.169   2.410
 2177SOL    HW2 7431   6.688   1.225   2.423
 2178SOL     OW 7432   0.596   5.217   0.967
 2178SOL    HW1 7433   0.532   5.257   1.033
 2178SOL    HW2 7434   0.579   5.119   0.961
 2179SOL     OW 7435   1.439   4.229   3.911
 2179SOL    HW1 7436   1.489   4.173   3.977
 2179SOL    HW2 7437   1.446   4.188   3.820
 2180SOL     OW 7438   4.007   2.835   1.448
 2180SOL    HW1 7439   4.067   2.857   1.371
 2180SOL    HW2 7440   4.035   2.748   1.488
 2181SOL     OW 7441   4.097   6.568   1.141
 2181SOL    HW1 7442   4.079   6.655   1.095
 2181SOL    HW2 7443   4.125   6.500   1.074
 2182SOL     OW 7444   5.466   1.872   0.555
 2182SOL    HW1 7445   5.476   1.805   0.629
 2182SOL    HW2 7446   5.406   1.836   0.485
 2183SOL     OW 7447   2.815   2.495   0.347
 2183SOL    HW1 7448   2.723   2.509   0.383
 2183SOL    HW2 7449   2.869   2.579   0.358
 2184SOL     OW 7450   4.093   2.971   6.017
 2184SOL    HW1 7451   4.065   3.001   6.108
 2184SOL    HW2 7452   4.012   2.944   5.964
 2185SOL     OW 7453   0.736   0.122   1.717
 2185SOL    HW1 7454   0.708   0.165   1.631
 2185SOL    HW2 7455   0.833   0.140   1.733
 2186SOL     OW 7456   0.174   5.071   2.482
 2186SOL    HW1 7457   0.204   5.137   2.550
 2186SOL    HW2 7458   0.235   4.992   2.482
 2187SOL     OW 7459   6.353   1.429   6.940
 2187SOL    HW1 7460   6.282   1.475   6.887
 2187SOL    HW2 7461   6.443   1.455   6.904
 2188SOL     OW 7462   5.024   1.113   3.149
 2188SOL    HW1 7463   5.071   1.201   3.140
 2188SOL    HW2 7464   5.024   1.085   3.245
 2189SOL     OW 7465   3.146   0.139   6.365
 2189SOL    HW1 7466   3.104   0.149   6.275
 2189SOL    HW2 7467   3.246   0.136   6.355
 2190SOL     OW 7468   4.979   2.059   1.069
 2190SOL    HW1 7469   5.056   2.055   1.133
 2190SOL    HW2 7470   4.921   1.979   1.082
 2191SOL     OW 7471   3.195   1.451   0.341
 2191SOL    HW1 7472   3.215   1.473   0.437
 2191SOL    HW2 7473   3.279   1.423   0.295
 2192SOL     OW 7474   3.798   5.802   3.449
 2192SOL    HW1 7475   3.896   5.823   3.445
 2192SOL    HW2 7476   3.768   5.769   3.359
 2193SOL     OW 7477   6.788   5.686   5.345
 2193SOL    HW1 7478   6.868   5.641   5.385
 2193SOL    HW2 7479   6.716   5.619   5.330
 2194SOL     OW 7480   3.466   0.011   1.100
 2194SOL    HW1 7481   3.434   0.100   1.066
 2194SOL    HW2 7482   3.534   6.991   1.037
 2195SOL     OW 7483   1.226   5.019   2.679
 2195SOL    HW1 7484   1.163   5.043   2.753
 2195SOL    HW2 7485   1.273   4.934   2.703
 2196SOL     OW 7486   4.605   2.679   6.638
 2196SOL    HW1 7487   4.582   2.692   6.542
 2196SOL    HW2 7488   4.550   2.604   6.675
 2197SOL     OW 7489   4.595   4.583   6.805
 2197SOL    HW1 7490   4.626   4.669   6.765
 2197SOL    HW2 7491   4.508   4.556   6.762
 2198SOL     OW 7492   6.496   4.430   0.741
 2198SOL    HW1 7493   6.509   4.362   0.669
 2198SOL    HW2 7494   6.401   4.461   0.743
 2199SOL     OW 7495   4.204   0.467   2.142
 2199SOL    HW1 7496   4.135   0.428   2.204
 2199SOL    HW2 7497   4.158   0.521   2.072
 2200SOL     OW 7498   1.968   6.659   4.196
 2200SOL    HW1 7499   1.901   6.721   4.237
 2200SOL    HW2 7500   1.929   6.568   4.187
 2201SOL     OW 7501   4.818   4.021   3.431
 2201SOL    HW1 7502   4.790   4.010   3.527
 2201SOL    HW2 7503   4.865   4.108   3.420
 2202SOL     OW 7504   4.856   6.150   3.650
 2202SOL    HW1 7505   4.795   6.102   3.713
 2202SOL    HW2 7506   4.922   6.205   3.703
 2203SOL     OW 7507   3.562   1.825   2.915
 2203SOL    HW1 7508   3.512   1.852   2.997
 2203SOL    HW2 7509   3.596   1.907   2.868
 2204SOL     OW 7510   2.438   2.970   1.182
 2204SOL    HW1 7511   2.507   2.957   1.253
 2204SOL    HW2 7512   2.382   3.050   1.204
 2205SOL     OW 7513   2.119   0.796   1.849
 2205SOL    HW1 7514   2.189   0.728   1.872
 2205SOL    HW2 7515   2.030   0.763   1.879
 2206SOL     OW 7516   2.492   3.242   0.134
 2206SOL    HW1 7517   2.534   3.211   0.048
 2206SOL    HW2 7518   2.410   3.296   0.113
 2207SOL     OW 7519   0.812   4.784   4.371
 2207SOL    HW1 7520   0.728   4.822   4.332
 2207SOL    HW2 7521   0.891   4.827   4.327
 2208SOL     OW 7522   6.542   4.721   2.151
 2208SOL    HW1 7523   6.523   4.625   2.132
 2208SOL    HW2 7524   6.637   4.732   2.178
 2209SOL     OW 7525   1.751   6.370   1.433
 2209SOL    HW1 7526   1.844   6.346   1.461
 2209SOL    HW2 7527   1.689   6.365   1.512
 2210SOL     OW 7528   1.960   5.112   3.778
 2210SOL    HW1 7529   1.926   5.034   3.832
 2210SOL    HW2 7530   1.980   5.082   3.685
 2211SOL     OW 7531   6.844   1.437   5.471
 2211SOL    HW1 7532   6.844   1.485   5.383
 2211SOL    HW2 7533   6.773   1.475   5.530
 2212SOL     OW 7534   2.052   6.906   6.316
 2212SOL    HW1 7535   2.016   6.821   6.277
 2212SOL    HW2 7536   2.137   6.886   6.365
 2213SOL     OW 7537   3.447   0.861   3.455
 2213SOL    HW1 7538   3.374   0.839   3.390
 2213SOL    HW2 7539   3.446   0.959   3.475
 2214SOL     OW 7540   3.905   6.923   5.435
 2214SOL    HW1 7541   3.944   7.006   5.473
 2214SOL    HW2 7542   3.970   6.847   5.447
 2215SOL     OW 7543   5.832   2.728   5.327
 2215SOL    HW1 7544   5.906   2.737   5.393
 2215SOL    HW2 7545   5.860   2.665   5.254
 2216SOL     OW 7546   2.488   0.934   2.311
 2216SOL    HW1 7547   2.488   0.883   2.397
 2216SOL    HW2 7548   2.415   0.900   2.252
 2217SOL     OW 7549   4.619   1.067   1.873
 2217SOL    HW1 7550   4.561   1.130   1.925
 2217SOL    HW2 7551   4.603   1.080   1.776
 2218SOL     OW 7552   1.374   6.669   3.143
 2218SOL    HW1 7553   1.384   6.763   3.177
 2218SOL    HW2 7554   1.461   6.620   3.153
 2219SOL     OW 7555   1.414   2.188   2.796
 2219SOL    HW1 7556   1.498   2.188   2.849
 2219SOL    HW2 7557   1.433   2.220   2.703
 2220SOL     OW 7558   0.383   0.235   1.485
 2220SOL    HW1 7559   0.335   0.160   1.441
 2220SOL    HW2 7560   0.361   0.321   1.438
 2221SOL     OW 7561   1.037   1.495   6.671
 2221SOL    HW1 7562   0.999   1.409   6.706
 2221SOL    HW2 7563   1.038   1.493   6.571
 2222SOL     OW 7564   6.218   5.880   2.759
 2222SOL    HW1 7565   6.157   5.808   2.728
 2222SOL    HW2 7566   6.167   5.965   2.770
 2223SOL     OW 7567   6.101   5.815   1.585
 2223SOL    HW1 7568   6.022   5.757   1.571
 2223SOL    HW2 7569   6.126   5.859   1.498
 2224SOL     OW 7570   1.098   4.854   2.072
 2224SOL    HW1 7571   1.123   4.875   1.977
 2224SOL    HW2 7572   1.093   4.940   2.124
 2225SOL     OW 7573   0.178   4.671   1.098
 2225SOL    HW1 7574   0.123   4.739   1.146
 2225SOL    HW2 7575   0.151   4.579   1.126
 2226SOL     OW 7576   4.107   3.761   1.501
 2226SOL    HW1 7577   4.168   3.813   1.561
 2226SOL    HW2 7578   4.020   3.810   1.492
 2227SOL     OW 7579   0.426   2.962   4.636
 2227SOL    HW1 7580   0.333   2.927   4.638
 2227SOL    HW2 7581   0.432   3.037   4.570
 2228SOL     OW 7582   3.245   4.944   4.568
 2228SOL    HW1 7583   3.154   4.913   4.596
 2228SOL    HW2 7584   3.258   5.039   4.595
 2229SOL     OW 7585   5.602   0.183   3.513
 2229SOL    HW1 7586   5.601   0.091   3.552
 2229SOL    HW2 7587   5.546   0.185   3.430
 2230SOL     OW 7588   2.470   5.187   1.585
 2230SOL    HW1 7589   2.516   5.143   1.508
 2230SOL    HW2 7590   2.474   5.127   1.665
 2231SOL     OW 7591   2.415   5.628   1.028
 2231SOL    HW1 7592   2.368   5.547   1.063
 2231SOL    HW2 7593   2.447   5.684   1.104
 2232SOL     OW 7594   5.483   3.020   3.894
 2232SOL    HW1 7595   5.501   2.937   3.946
 2232SOL    HW2 7596   5.455   3.093   3.956
 2233SOL     OW 7597   2.638   2.159   6.451
 2233SOL    HW1 7598   2.727   2.130   6.416
 2233SOL    HW2 7599   2.594   2.082   6.498
 2234SOL     OW 7600   3.818   2.252   1.309
 2234SOL    HW1 7601   3.796   2.262   1.406
 2234SOL    HW2 7602   3.914   2.275   1.294
 2235SOL     OW 7603   2.664   1.445   1.042
 2235SOL    HW1 7604   2.722   1.365   1.023
 2235SOL    HW2 7605   2.573   1.414   1.069
 2236SOL     OW 7606   0.203   4.284   5.783
 2236SOL    HW1 7607   0.281   4.228   5.757
 2236SOL    HW2 7608   0.184   4.351   5.711
 2237SOL     OW 7609   6.225   3.254   4.250
 2237SOL    HW1 7610   6.231   3.194   4.170
 2237SOL    HW2 7611   6.260   3.206   4.331
 2238SOL     OW 7612   6.488   5.985   1.557
 2238SOL    HW1 7613   6.544   6.008   1.477
 2238SOL    HW2 7614   6.395   6.019   1.544
 2239SOL     OW 7615   5.445   5.688   2.769
 2239SOL    HW1 7616   5.354   5.648   2.760
 2239SOL    HW2 7617   5.444   5.782   2.734
 2240SOL     OW 7618   5.843   3.715   1.900
 2240SOL    HW1 7619   5.779   3.754   1.966
 2240SOL    HW2 7620   5.875   3.626   1.933
 2241SOL     OW 7621   0.941   0.052   2.508
 2241SOL    HW1 7622   0.976   6.976   2.515
 2241SOL    HW2 7623   1.006   0.108   2.456
 2242SOL     OW 7624   4.052   1.668   3.023
 2242SOL    HW1 7625   4.081   1.615   2.944
 2242SOL    HW2 7626   3.988   1.614   3.078
 2243SOL     OW 7627   2.538   6.524   5.371
 2243SOL    HW1 7628   2.571   6.430   5.361
 2243SOL    HW2 7629   2.517   6.543   5.467
 2244SOL     OW 7630   3.427   0.885   4.986
 2244SOL    HW1 7631   3.411   0.962   5.048
 2244SOL    HW2 7632   3.399   0.910   4.894
 2245SOL     OW 7633   0.299   2.171   2.232
 2245SOL    HW1 7634   0.258   2.257   2.262
 2245SOL    HW2 7635   0.398   2.178   2.235
 2246SOL     OW 7636   1.569   4.825   4.828
 2246SOL    HW1 7637   1.667   4.819   4.808
 2246SOL    HW2 7638   1.530   4.902   4.778
 2247SOL     OW 7639   2.163   1.713   4.985
 2247SOL    HW1 7640   2.219   1.643   4.941
 2247SOL    HW2 7641   2.209   1.802   4.977
 2248SOL     OW 7642   4.485   4.223   5.328
 2248SOL    HW1 7643   4.460   4.126   5.321
 2248SOL    HW2 7644   4.452   4.271   5.247
 2249SOL     OW 7645   3.942   5.021   4.604
 2249SOL    HW1 7646   3.852   5.002   4.643
 2249SOL    HW2 7647   3.976   5.108   4.639
 2250SOL     OW 7648   5.250   4.923   0.832
 2250SOL    HW1 7649   5.237   4.824   0.829
 2250SOL    HW2 7650   5.183   4.967   0.772
 2251SOL     OW 7651   0.404   0.569   6.100
 2251SOL    HW1 7652   0.405   0.584   6.001
 2251SOL    HW2 7653   0.407   0.657   6.146
 2252SOL     OW 7654   3.534   0.939   6.046
 2252SOL    HW1 7655   3.466   0.960   5.975
 2252SOL    HW2 7656   3.509   0.852   6.090
 2253SOL     OW 7657   1.530   2.449   6.203
 2253SOL    HW1 7658   1.479   2.534   6.198
 2253SOL    HW2 7659   1.562   2.424   6.111
 2254SOL     OW 7660   1.507   4.086   5.561
 2254SOL    HW1 7661   1.567   4.018   5.518
 2254SOL    HW2 7662   1.415   4.048   5.568
 2255SOL     OW 7663   5.336   3.371   0.573
 2255SOL    HW1 7664   5.265   3.313   0.614
 2255SOL    HW2 7665   5.340   3.355   0.475
 2256SOL     OW 7666   3.398   4.951   2.039
 2256SOL    HW1 7667   3.364   4.987   2.126
 2256SOL    HW2 7668   3.466   4.879   2.058
 2257SOL     OW 7669   2.090   3.576   4.212
 2257SOL    HW1 7670   2.022   3.566   4.285
 2257SOL    HW2 7671   2.146   3.493   4.208
 2258SOL     OW 7672   1.993   4.974   5.463
 2258SOL    HW1 7673   1.918   5.040   5.468
 2258SOL    HW2 7674   2.032   4.975   5.371
 2259SOL     OW 7675   6.410   3.253   6.412
 2259SOL    HW1 7676   6.490   3.194   6.403
 2259SOL    HW2 7677   6.328   3.204   6.383
 2260SOL     OW 7678   4.586   3.651   1.078
 2260SOL    HW1 7679   4.488   3.642   1.062
 2260SOL    HW2 7680   4.603   3.732   1.135
 2261SOL     OW 7681   3.480   6.301   4.757
 2261SOL    HW1 7682   3.421   6.245   4.699
 2261SOL    HW2 7683   3.555   6.245   4.793
 2262SOL     OW 7684   3.463   1.664   3.319
 2262SOL    HW1 7685   3.522   1.707   3.388
 2262SOL    HW2 7686   3.380   1.631   3.363
 2263SOL     OW 7687   0.171   3.882   4.997
 2263SOL    HW1 7688   0.095   3.818   4.987
 2263SOL    HW2 7689   0.231   3.876   4.917
 2264SOL     OW 7690   3.376   4.078   3.268
 2264SOL    HW1 7691   3.394   4.110   3.175
 2264SOL    HW2 7692   3.278   4.062   3.279
 2265SOL     OW 7693   0.575   6.824   3.289
 2265SOL    HW1 7694   0.520   6.807   3.207
 2265SOL    HW2 7695   0.518   6.865   3.360
 2266SOL     OW 7696   6.209   0.411   6.528
 2266SOL    HW1 7697   6.276   0.339   6.542
 2266SOL    HW2 7698   6.257   0.498   6.513
 2267SOL     OW 7699   5.978   2.114   5.642
 2267SOL    HW1 7700   6.025   2.147   5.560
 2267SOL    HW2 7701   5.882   2.141   5.638
 2268SOL     OW 7702   6.523   5.082   0.147
 2268SOL    HW1 7703   6.538   5.129   0.234
 2268SOL    HW2 7704   6.477   5.145   0.084
 2269SOL     OW 7705   0.304   5.723   3.438
 2269SOL    HW1 7706   0.374   5.769   3.383
 2269SOL    HW2 7707   0.246   5.792   3.482
 2270SOL     OW 7708   3.604   2.878   2.810
 2270SOL    HW1 7709   3.664   2.885   2.890
 2270SOL    HW2 7710   3.658   2.890   2.727
 2271SOL     OW 7711   0.535   4.188   2.612
 2271SOL    HW1 7712   0.541   4.109   2.551
 2271SOL    HW2 7713   0.509   4.269   2.558
 2272SOL     OW 7714   5.165   2.270   6.084
 2272SOL    HW1 7715   5.164   2.170   6.080
 2272SOL    HW2 7716   5.158   2.299   6.180
 2273SOL     OW 7717   0.583   0.708   3.514
 2273SOL    HW1 7718   0.533   0.730   3.430
 2273SOL    HW2 7719   0.575   0.784   3.578
 2274SOL     OW 7720   0.940   3.831   2.955
 2274SOL    HW1 7721   0.929   3.909   2.894
 2274SOL    HW2 7722   1.031   3.834   2.997
 2275SOL     OW 7723   4.577   6.423   3.422
 2275SOL    HW1 7724   4.595   6.387   3.513
 2275SOL    HW2 7725   4.573   6.523   3.427
 2276SOL     OW 7726   3.398   5.505   1.441
 2276SOL    HW1 7727   3.299   5.496   1.425
 2276SOL    HW2 7728   3.435   5.417   1.469
 2277SOL     OW 7729   3.199   3.795   1.108
 2277SOL    HW1 7730   3.138   3.718   1.124
 2277SOL    HW2 7731   3.294   3.763   1.110
 2278SOL     OW 7732   5.107   6.482   1.248
 2278SOL    HW1 7733   5.145   6.568   1.214
 2278SOL    HW2 7734   5.110   6.483   1.348
 2279SOL     OW 7735   5.264   4.035   5.543
 2279SOL    HW1 7736   5.216   4.117   5.511
 2279SOL    HW2 7737   5.197   3.962   5.557
 2280SOL     OW 7738   6.091   6.580   6.100
 2280SOL    HW1 7739   6.184   6.575   6.138
 2280SOL    HW2 7740   6.055   6.488   6.089
 2281SOL     OW 7741   3.432   2.296   0.469
 2281SOL    HW1 7742   3.528   2.284   0.443
 2281SOL    HW2 7743   3.390   2.207   0.484
 2282SOL     OW 7744   4.312   5.556   2.255
 2282SOL    HW1 7745   4.260   5.494   2.196
 2282SOL    HW2 7746   4.402   5.574   2.213
 2283SOL     OW 7747   0.207   4.106   2.001
 2283SOL    HW1 7748   0.132   4.165   2.030
 2283SOL    HW2 7749   0.270   4.091   2.077
 2284SOL     OW 7750   2.758   2.131   2.191
 2284SOL    HW1 7751   2.693   2.089   2.128
 2284SOL    HW2 7752   2.820   2.191   2.140
 2285SOL     OW 7753   1.780   3.752   6.294
 2285SOL    HW1 7754   1.728   3.827   6.254
 2285SOL    HW2 7755   1.876   3.779   6.304
 2286SOL     OW 7756   5.784   0.005   4.539
 2286SOL    HW1 7757   5.703   6.965   4.548
 2286SOL    HW2 7758   5.759   0.102   4.546
 2287SOL     OW 7759   2.303   2.221   1.077
 2287SOL    HW1 7760   2.323   2.148   1.011
 2287SOL    HW2 7761   2.365   2.298   1.060
 2288SOL     OW 7762   1.760   5.712   4.884
 2288SOL    HW1 7763   1.822   5.751   4.816
 2288SOL    HW2 7764   1.670   5.754   4.875
 2289SOL     OW 7765   4.603   1.105   0.302
 2289SOL    HW1 7766   4.515   1.062   0.321
 2289SOL    HW2 7767   4.593   1.166   0.224
 2290SOL     OW 7768   3.226   3.352   3.487
 2290SOL    HW1 7769   3.317   3.335   3.527
 2290SOL    HW2 7770   3.233   3.351   3.387
 2291SOL     OW 7771   1.077   2.518   6.339
 2291SOL    HW1 7772   1.140   2.493   6.265
 2291SOL    HW2 7773   1.004   2.451   6.344
 2292SOL     OW 7774   4.948   1.860   2.638
 2292SOL    HW1 7775   4.937   1.907   2.550
 2292SOL    HW2 7776   4.902   1.913   2.710
 2293SOL     OW 7777   0.571   0.887   6.970
 2293SOL    HW1 7778   0.501   0.852   0.015
 2293SOL    HW2 7779   0.533   0.962   6.916
 2294SOL     OW 7780   6.962   1.006   5.932
 2294SOL    HW1 7781   7.012   0.922   5.907
 2294SOL    HW2 7782   0.004   1.085   5.918
 2295SOL     OW 7783   6.147   5.930   0.887
 2295SOL    HW1 7784   6.208   5.881   0.825
 2295SOL    HW2 7785   6.121   6.017   0.846
 2296SOL     OW 7786   4.239   5.107   4.082
 2296SOL    HW1 7787   4.197   5.162   4.153
 2296SOL    HW2 7788   4.241   5.160   3.996
 2297SOL     OW 7789   5.039   3.871   5.520
 2297SOL    HW1 7790   5.031   3.785   5.470
 2297SOL    HW2 7791   4.948   3.905   5.542
 2298SOL     OW 7792   3.115   3.910   4.673
 2298SOL    HW1 7793   3.162   3.979   4.618
 2298SOL    HW2 7794   3.112   3.939   4.768
 2299SOL     OW 7795   5.518   3.040   4.428
 2299SOL    HW1 7796   5.560   2.961   4.383
 2299SOL    HW2 7797   5.581   3.117   4.426
 2300SOL     OW 7798   4.859   6.935   2.235
 2300SOL    HW1 7799   4.950   6.972   2.255
 2300SOL    HW2 7800   4.812   6.996   2.172
 2301SOL     OW 7801   3.879   3.059   4.760
 2301SOL    HW1 7802   3.866   3.156   4.739
 2301SOL    HW2 7803   3.911   3.011   4.678
 2302SOL     OW 7804   6.343   3.035   6.076
 2302SOL    HW1 7805   6.330   2.953   6.021
 2302SOL    HW2 7806   6.300   3.113   6.030
 2303SOL     OW 7807   2.767   2.595   0.028
 2303SOL    HW1 7808   2.858   2.555   0.019
 2303SOL    HW2 7809   2.698   2.522   0.032
 2304SOL     OW 7810   6.635   6.124   2.438
 2304SOL    HW1 7811   6.717   6.180   2.447
 2304SOL    HW2 7812   6.629   6.060   2.514
 2305SOL     OW 7813   2.515   6.966   4.916
 2305SOL    HW1 7814   2.561   0.036   4.897
 2305SOL    HW2 7815   2.446   6.949   4.845
 2306SOL     OW 7816   1.669   4.871   4.500
 2306SOL    HW1 7817   1.648   4.968   4.511
 2306SOL    HW2 7818   1.720   4.839   4.580
 2307SOL     OW 7819   6.298   3.155   5.583
 2307SOL    HW1 7820   6.270   3.099   5.505
 2307SOL    HW2 7821   6.252   3.243   5.579
 2308SOL     OW 7822   1.292   5.156   2.066
 2308SOL    HW1 7823   1.350   5.123   2.141
 2308SOL    HW2 7824   1.260   5.249   2.086
 2309SOL     OW 7825   2.136   0.366   4.370
 2309SOL    HW1 7826   2.125   0.311   4.287
 2309SOL    HW2 7827   2.068   0.338   4.438
 2310SOL     OW 7828   4.416   6.775   1.145
 2310SOL    HW1 7829   4.502   6.729   1.165
 2310SOL    HW2 7830   4.380   6.817   1.229
 2311SOL     OW 7831   2.351   4.883   1.082
 2311SOL    HW1 7832   2.405   4.799   1.075
 2311SOL    HW2 7833   2.409   4.959   1.110
 2312SOL     OW 7834   3.158   4.842   1.915
 2312SOL    HW1 7835   3.203   4.778   1.853
 2312SOL    HW2 7836   3.228   4.892   1.966
 2313SOL     OW 7837   5.092   4.995   1.159
 2313SOL    HW1 7838   5.155   5.058   1.203
 2313SOL    HW2 7839   5.129   4.966   1.071
 2314SOL     OW 7840   2.625   4.775   4.266
 2314SOL    HW1 7841   2.589   4.757   4.357
 2314SOL    HW2 7842   2.722   4.798   4.272
 2315SOL     OW 7843   4.332   2.524   6.348
 2315SOL    HW1 7844   4.286   2.591   6.290
 2315SOL    HW2 7845   4.265   2.482   6.410
 2316SOL     OW 7846   5.445   3.760   1.915
 2316SOL    HW1 7847   5.424   3.682   1.856
 2316SOL    HW2 7848   5.374   3.769   1.984
 2317SOL     OW 7849   0.339   5.904   3.047
 2317SOL    HW1 7850   0.265   5.902   3.113
 2317SOL    HW2 7851   0.343   5.994   3.004
 2318SOL     OW 7852   6.786   0.698   4.159
 2318SOL    HW1 7853   6.778   0.756   4.078
 2318SOL    HW2 7854   6.732   0.615   4.146
 2319SOL     OW 7855   0.896   5.684   2.623
 2319SOL    HW1 7856   0.909   5.779   2.595
 2319SOL    HW2 7857   0.979   5.650   2.667
 2320SOL     OW 7858   6.270   4.776   5.184
 2320SOL    HW1 7859   6.232   4.853   5.235
 2320SOL    HW2 7860   6.357   4.750   5.224
 2321SOL     OW 7861   3.635   5.043   4.587
 2321SOL    HW1 7862   3.679   5.037   4.497
 2321SOL    HW2 7863   3.540   5.013   4.579
 2322SOL     OW 7864   3.108   0.458   5.021
 2322SOL    HW1 7865   3.105   0.551   5.057
 2322SOL    HW2 7866   3.110   0.461   4.921
 2323SOL     OW 7867   5.230   3.610   2.501
 2323SOL    HW1 7868   5.154   3.622   2.438
 2323SOL    HW2 7869   5.197   3.568   2.586
 2324SOL     OW 7870   0.074   4.993   3.276
 2324SOL    HW1 7871   0.040   5.062   3.339
 2324SOL    HW2 7872   0.140   4.935   3.324
 2325SOL     OW 7873   0.780   2.502   0.422
 2325SOL    HW1 7874   0.822   2.574   0.368
 2325SOL    HW2 7875   0.796   2.520   0.519
 2326SOL     OW 7876   1.007   4.240   0.675
 2326SOL    HW1 7877   0.920   4.222   0.721
 2326SOL    HW2 7878   0.995   4.315   0.610
 2327SOL     OW 7879   5.390   1.837   3.759
 2327SOL    HW1 7880   5.414   1.911   3.822
 2327SOL    HW2 7881   5.422   1.860   3.667
 2328SOL     OW 7882   5.899   6.674   3.425
 2328SOL    HW1 7883   5.843   6.607   3.473
 2328SOL    HW2 7884   5.981   6.694   3.478
 2329SOL     OW 7885   6.586   5.625   3.246
 2329SOL    HW1 7886   6.679   5.588   3.254
 2329SOL    HW2 7887   6.553   5.612   3.152
 2330SOL     OW 7888   0.424   3.690   1.356
 2330SOL    HW1 7889   0.490   3.742   1.409
 2330SOL    HW2 7890   0.449   3.692   1.259
 2331SOL     OW 7891   0.953   4.709   5.699
 2331SOL    HW1 7892   1.030   4.648   5.718
 2331SOL    HW2 7893   0.958   4.740   5.604
 2332SOL     OW 7894   5.143   2.257   5.115
 2332SOL    HW1 7895   5.125   2.276   5.018
 2332SOL    HW2 7896   5.066   2.287   5.170
 2333SOL     OW 7897   2.647   4.657   3.508
 2333SOL    HW1 7898   2.584   4.629   3.580
 2333SOL    HW2 7899   2.604   4.643   3.419
 2334SOL     OW 7900   2.889   0.108   0.107
 2334SOL    HW1 7901   2.855   0.129   0.015
 2334SOL    HW2 7902   2.866   0.184   0.168
 2335SOL     OW 7903   4.506   5.691   4.474
 2335SOL    HW1 7904   4.603   5.669   4.461
 2335SOL    HW2 7905   4.464   5.622   4.533
 2336SOL     OW 7906   3.879   2.784   5.642
 2336SOL    HW1 7907   3.780   2.780   5.658
 2336SOL    HW2 7908   3.898   2.849   5.568
 2337SOL     OW 7909   6.316   0.528   4.262
 2337SOL    HW1 7910   6.338   0.485   4.350
 2337SOL    HW2 7911   6.340   0.625   4.265
 2338SOL     OW 7912   1.169   0.532   6.554
 2338SOL    HW1 7913   1.158   0.552   6.457
 2338SOL    HW2 7914   1.198   0.616   6.601
 2339SOL     OW 7915   4.220   4.996   6.249
 2339SOL    HW1 7916   4.182   5.019   6.160
 2339SOL    HW2 7917   4.157   5.026   6.321
 2340SOL     OW 7918   4.105   4.907   3.393
 2340SOL    HW1 7919   4.137   4.812   3.397
 2340SOL    HW2 7920   4.008   4.910   3.419
 2341SOL     OW 7921   5.736   4.676   6.211
 2341SOL    HW1 7922   5.659   4.630   6.166
 2341SOL    HW2 7923   5.804   4.608   6.237
 2342SOL     OW 7924   6.839   0.018   5.554
 2342SOL    HW1 7925   6.857   0.032   5.457
 2342SOL    HW2 7926   6.779   6.956   5.566
 2343SOL     OW 7927   0.956   0.122   0.908
 2343SOL    HW1 7928   0.915   0.116   0.999
 2343SOL    HW2 7929   1.039   0.177   0.913
 2344SOL     OW 7930   2.688   1.559   3.096
 2344SOL    HW1 7931   2.651   1.470   3.123
 2344SOL    HW2 7932   2.779   1.571   3.135
 2345SOL     OW 7933   1.162   1.588   3.218
 2345SOL    HW1 7934   1.101   1.623   3.290
 2345SOL    HW2 7935   1.255   1.620   3.235
 2346SOL     OW 7936   4.933   3.162   5.466
 2346SOL    HW1 7937   4.887   3.202   5.386
 2346SOL    HW2 7938   4.966   3.236   5.526
 2347SOL     OW 7939   1.561   3.257   1.040
 2347SOL    HW1 7940   1.534   3.344   0.997
 2347SOL    HW2 7941   1.605   3.199   0.971
 2348SOL     OW 7942   2.638   6.251   1.706
 2348SOL    HW1 7943   2.544   6.245   1.741
 2348SOL    HW2 7944   2.656   6.172   1.648
 2349SOL     OW 7945   4.344   4.604   6.412
 2349SOL    HW1 7946   4.303   4.553   6.488
 2349SOL    HW2 7947   4.355   4.700   6.438
 2350SOL     OW 7948   2.396   5.525   5.351
 2350SOL    HW1 7949   2.376   5.622   5.364
 2350SOL    HW2 7950   2.481   5.515   5.299
 2351SOL     OW 7951   2.256   5.077   2.880
 2351SOL    HW1 7952   2.321   5.092   2.954
 2351SOL    HW2 7953   2.181   5.019   2.912
 2352SOL     OW 7954   6.207   4.369   1.528
 2352SOL    HW1 7955   6.213   4.359   1.628
 2352SOL    HW2 7956   6.293   4.405   1.493
 2353SOL     OW 7957   2.755   3.730   6.551
 2353SOL    HW1 7958   2.854   3.736   6.563
 2353SOL    HW2 7959   2.713   3.817   6.575
 2354SOL     OW 7960   3.910   2.434   1.637
 2354SOL    HW1 7961   3.849   2.364   1.599
 2354SOL    HW2 7962   3.981   2.389   1.692
 2355SOL     OW 7963   6.831   1.476   1.400
 2355SOL    HW1 7964   6.748   1.421   1.393
 2355SOL    HW2 7965   6.894   1.434   1.466
 2356SOL     OW 7966   2.753   5.302   3.277
 2356SOL    HW1 7967   2.682   5.315   3.346
 2356SOL    HW2 7968   2.819   5.234   3.309
 2357SOL     OW 7969   6.822   4.609   1.103
 2357SOL    HW1 7970   6.873   4.600   1.188
 2357SOL    HW2 7971   6.879   4.579   1.026
 2358SOL     OW 7972   3.349   1.469   5.197
 2358SOL    HW1 7973   3.420   1.540   5.198
 2358SOL    HW2 7974   3.327   1.446   5.102
 2359SOL     OW 7975   2.207   1.592   5.790
 2359SOL    HW1 7976   2.169   1.658   5.854
 2359SOL    HW2 7977   2.144   1.579   5.713
 2360SOL     OW 7978   3.069   5.024   6.963
 2360SOL    HW1 7979   3.092   5.120   6.950
 2360SOL    HW2 7980   3.088   4.974   6.879
 2361SOL     OW 7981   3.418   5.772   1.268
 2361SOL    HW1 7982   3.500   5.781   1.212
 2361SOL    HW2 7983   3.409   5.678   1.301
 2362SOL     OW 7984   3.454   4.902   3.644
 2362SOL    HW1 7985   3.355   4.912   3.631
 2362SOL    HW2 7986   3.473   4.816   3.691
 2363SOL     OW 7987   1.948   3.535   0.210
 2363SOL    HW1 7988   1.968   3.540   0.112
 2363SOL    HW2 7989   1.853   3.561   0.226
 2364SOL     OW 7990   3.833   1.576   2.710
 2364SOL    HW1 7991   3.914   1.610   2.756
 2364SOL    HW2 7992   3.834   1.606   2.614
 2365SOL     OW 7993   5.074   4.272   3.055
 2365SOL    HW1 7994   5.123   4.233   2.976
 2365SOL    HW2 7995   4.980   4.292   3.028
 2366SOL     OW 7996   2.942   4.932   5.351
 2366SOL    HW1 7997   2.957   4.952   5.448
 2366SOL    HW2 7998   2.992   4.849   5.326
 2367SOL     OW 7999   5.716   5.019   5.598
 2367SOL    HW1 8000   5.735   4.985   5.690
 2367SOL    HW2 8001   5.797   5.007   5.541
 2368SOL     OW 8002   5.917   6.976   5.109
 2368SOL    HW1 8003   6.011   6.985   5.141
 2368SOL    HW2 8004   5.871   6.905   5.161
 2369SOL     OW 8005   3.664   2.087   4.115
 2369SOL    HW1 8006   3.687   2.005   4.062
 2369SOL    HW2 8007   3.719   2.164   4.082
 2370SOL     OW 8008   5.328   2.279   1.794
 2370SOL    HW1 8009   5.237   2.249   1.820
 2370SOL    HW2 8010   5.368   2.213   1.730
 2371SOL     OW 8011   0.869   6.291   2.006
 2371SOL    HW1 8012   0.922   6.322   2.085
 2371SOL    HW2 8013   0.896   6.343   1.925
 2372SOL     OW 8014   6.575   6.654   0.086
 2372SOL    HW1 8015   6.521   6.647   0.169
 2372SOL    HW2 8016   6.519   6.632   0.006
 2373SOL     OW 8017   6.476   4.936   6.683
 2373SOL    HW1 8018   6.461   5.030   6.712
 2373SOL    HW2 8019   6.473   4.876   6.763
 2374SOL     OW 8020   5.543   6.408   2.439
 2374SOL    HW1 8021   5.518   6.401   2.343
 2374SOL    HW2 8022   5.625   6.352   2.456
 2375SOL     OW 8023   1.969   0.675   4.393
 2375SOL    HW1 8024   1.932   0.617   4.466
 2375SOL    HW2 8025   1.970   0.624   4.307
 2376SOL     OW 8026   5.097   2.345   2.728
 2376SOL    HW1 8027   5.062   2.292   2.651
 2376SOL    HW2 8028   5.197   2.353   2.721
 2377SOL     OW 8029   4.794   3.696   5.793
 2377SOL    HW1 8030   4.707   3.743   5.804
 2377SOL    HW2 8031   4.863   3.738   5.852
 2378SOL     OW 8032   0.396   1.376   0.377
 2378SOL    HW1 8033   0.367   1.453   0.320
 2378SOL    HW2 8034   0.405   1.295   0.320
 2379SOL     OW 8035   0.065   5.516   2.669
 2379SOL    HW1 8036   6.987   5.550   2.668
 2379SOL    HW2 8037   0.104   5.522   2.577
 2380SOL     OW 8038   4.943   5.646   6.185
 2380SOL    HW1 8039   4.943   5.562   6.239
 2380SOL    HW2 8040   5.000   5.715   6.231
 2381SOL     OW 8041   2.246   4.253   4.102
 2381SOL    HW1 8042   2.229   4.192   4.026
 2381SOL    HW2 8043   2.191   4.224   4.181
 2382SOL     OW 8044   6.749   5.226   2.769
 2382SOL    HW1 8045   6.690   5.254   2.693
 2382SOL    HW2 8046   6.693   5.202   2.848
 2383SOL     OW 8047   5.281   4.250   5.834
 2383SOL    HW1 8048   5.304   4.331   5.781
 2383SOL    HW2 8049   5.347   4.238   5.908
 2384SOL     OW 8050   6.921   1.566   2.885
 2384SOL    HW1 8051   6.972   1.648   2.858
 2384SOL    HW2 8052   6.860   1.539   2.810
 2385SOL     OW 8053   0.585   1.216   0.941
 2385SOL    HW1 8054   0.513   1.278   0.910
 2385SOL    HW2 8055   0.673   1.263   0.942
 2386SOL     OW 8056   5.770   5.747   4.987
 2386SOL    HW1 8057   5.749   5.805   5.065
 2386SOL    HW2 8058   5.869   5.751   4.968
 2387SOL     OW 8059   1.012   1.354   3.949
 2387SOL    HW1 8060   1.031   1.346   4.047
 2387SOL    HW2 8061   1.064   1.430   3.911
 2388SOL     OW 8062   0.528   2.785   5.664
 2388SOL    HW1 8063   0.493   2.722   5.734
 2388SOL    HW2 8064   0.462   2.793   5.590
 2389SOL     OW 8065   3.799   5.207   3.338
 2389SOL    HW1 8066   3.726   5.270   3.312
 2389SOL    HW2 8067   3.888   5.248   3.318
 2390SOL     OW 8068   4.485   2.723   6.084
 2390SOL    HW1 8069   4.499   2.818   6.057
 2390SOL    HW2 8070   4.393   2.713   6.123
 2391SOL     OW 8071   3.542   4.337   6.473
 2391SOL    HW1 8072   3.503   4.422   6.437
 2391SOL    HW2 8073   3.618   4.307   6.416
 2392SOL     OW 8074   4.267   4.082   5.598
 2392SOL    HW1 8075   4.226   4.019   5.664
 2392SOL    HW2 8076   4.348   4.124   5.639
 2393SOL     OW 8077   4.747   4.587   0.964
 2393SOL    HW1 8078   4.761   4.580   1.063
 2393SOL    HW2 8079   4.718   4.498   0.929
 2394SOL     OW 8080   0.361   1.752   3.415
 2394SOL    HW1 8081   0.435   1.690   3.440
 2394SOL    HW2 8082   0.398   1.844   3.399
 2395SOL     OW 8083   1.234   2.907   4.178
 2395SOL    HW1 8084   1.313   2.845   4.172
 2395SOL    HW2 8085   1.246   2.982   4.112
 2396SOL     OW 8086   1.123   0.340   5.923
 2396SOL    HW1 8087   1.150   0.383   5.837
 2396SOL    HW2 8088   1.024   0.346   5.934
 2397SOL     OW 8089   0.512   3.439   4.949
 2397SOL    HW1 8090   0.572   3.424   4.870
 2397SOL    HW2 8091   0.441   3.506   4.924
 2398SOL     OW 8092   4.074   6.947   3.714
 2398SOL    HW1 8093   4.071   6.851   3.739
 2398SOL    HW2 8094   4.137   6.960   3.637
 2399SOL     OW 8095   3.422   2.060   3.363
 2399SOL    HW1 8096   3.508   2.031   3.320
 2399SOL    HW2 8097   3.399   2.152   3.333
 2400SOL     OW 8098   1.803   3.565   0.622
 2400SOL    HW1 8099   1.739   3.593   0.693
 2400SOL    HW2 8100   1.761   3.579   0.532
 2401SOL     OW 8101   1.444   0.165   6.709
 2401SOL    HW1 8102   1.534   0.131   6.736
 2401SOL    HW2 8103   1.377   0.091   6.719
 2402SOL     OW 8104   1.020   3.947   2.164
 2402SOL    HW1 8105   0.927   3.910   2.170
 2402SOL    HW2 8106   1.051   3.974   2.255
 2403SOL     OW 8107   3.440   4.119   4.467
 2403SOL    HW1 8108   3.498   4.143   4.545
 2403SOL    HW2 8109   3.475   4.036   4.424
 2404SOL     OW 8110   5.942   1.505   0.932
 2404SOL    HW1 8111   5.866   1.440   0.927
 2404SOL    HW2 8112   5.946   1.558   0.847
 2405SOL     OW 8113   1.042   3.156   0.688
 2405SOL    HW1 8114   1.026   3.100   0.769
 2405SOL    HW2 8115   1.108   3.110   0.628
 2406SOL     OW 8116   2.626   6.002   4.221
 2406SOL    HW1 8117   2.552   6.038   4.277
 2406SOL    HW2 8118   2.599   6.004   4.124
 2407SOL     OW 8119   2.747   1.023   3.285
 2407SOL    HW1 8120   2.696   0.987   3.363
 2407SOL    HW2 8121   2.814   0.955   3.255
 2408SOL     OW 8122   2.910   6.249   5.544
 2408SOL    HW1 8123   2.855   6.266   5.626
 2408SOL    HW2 8124   2.963   6.165   5.556
 2409SOL     OW 8125   1.179   3.364   0.382
 2409SOL    HW1 8126   1.221   3.273   0.389
 2409SOL    HW2 8127   1.227   3.417   0.312
 2410SOL     OW 8128   0.063   2.478   4.527
 2410SOL    HW1 8129   0.009   2.495   4.610
 2410SOL    HW2 8130   0.007   2.498   4.446
 2411SOL     OW 8131   3.349   1.966   6.973
 2411SOL    HW1 8132   3.391   1.963   0.047
 2411SOL    HW2 8133   3.300   2.052   6.962
 2412SOL     OW 8134   2.984   1.619   5.503
 2412SOL    HW1 8135   3.048   1.644   5.430
 2412SOL    HW2 8136   2.936   1.700   5.534
 2413SOL     OW 8137   0.391   3.040   7.001
 2413SOL    HW1 8138   0.428   3.042   0.077
 2413SOL    HW2 8139   0.372   2.946   6.975
 2414SOL     OW 8140   6.734   1.376   4.889
 2414SOL    HW1 8141   6.702   1.307   4.825
 2414SOL    HW2 8142   6.666   1.388   4.962
 2415SOL     OW 8143   2.465   4.990   6.454
 2415SOL    HW1 8144   2.489   4.930   6.378
 2415SOL    HW2 8145   2.488   5.084   6.431
 2416SOL     OW 8146   6.877   2.962   2.840
 2416SOL    HW1 8147   6.858   2.880   2.893
 2416SOL    HW2 8148   6.917   3.032   2.899
 2417SOL     OW 8149   2.749   2.888   1.614
 2417SOL    HW1 8150   2.773   2.792   1.629
 2417SOL    HW2 8151   2.801   2.923   1.535
 2418SOL     OW 8152   4.880   3.707   6.746
 2418SOL    HW1 8153   4.891   3.764   6.828
 2418SOL    HW2 8154   4.959   3.646   6.737
 2419SOL     OW 8155   2.830   0.902   3.619
 2419SOL    HW1 8156   2.855   0.819   3.571
 2419SOL    HW2 8157   2.900   0.972   3.604
 2420SOL     OW 8158   1.632   3.995   2.553
 2420SOL    HW1 8159   1.548   3.942   2.544
 2420SOL    HW2 8160   1.709   3.942   2.518
 2421SOL     OW 8161   2.874   6.559   3.531
 2421SOL    HW1 8162   2.905   6.614   3.454
 2421SOL    HW2 8163   2.792   6.600   3.571
 2422SOL     OW 8164   4.186   5.189   1.339
 2422SOL    HW1 8165   4.133   5.133   1.275
 2422SOL    HW2 8166   4.136   5.196   1.425
 2423SOL     OW 8167   2.441   5.899   2.641
 2423SOL    HW1 8168   2.345   5.880   2.662
 2423SOL    HW2 8169   2.474   5.834   2.572
 2424SOL     OW 8170   5.250   6.894   6.332
 2424SOL    HW1 8171   5.232   6.990   6.311
 2424SOL    HW2 8172   5.320   6.888   6.403
 2425SOL     OW 8173   4.773   5.641   4.660
 2425SOL    HW1 8174   4.866   5.634   4.624
 2425SOL    HW2 8175   4.732   5.550   4.666
 2426SOL     OW 8176   2.252   2.825   5.377
 2426SOL    HW1 8177   2.303   2.768   5.312
 2426SOL    HW2 8178   2.274   2.797   5.470
 2427SOL     OW 8179   5.391   0.535   0.694
 2427SOL    HW1 8180   5.416   0.501   0.784
 2427SOL    HW2 8181   5.292   0.552   0.690
 2428SOL     OW 8182   0.961   1.050   2.926
 2428SOL    HW1 8183   1.009   1.052   3.014
 2428SOL    HW2 8184   0.873   1.096   2.934
 2429SOL     OW 8185   5.598   5.063   1.782
 2429SOL    HW1 8186   5.565   5.023   1.696
 2429SOL    HW2 8187   5.521   5.101   1.833
 2430SOL     OW 8188   5.928   0.919   6.551
 2430SOL    HW1 8189   5.988   0.905   6.472
 2430SOL    HW2 8190   5.980   0.959   6.626
 2431SOL     OW 8191   0.475   3.514   1.574
 2431SOL    HW1 8192   0.447   3.418   1.571
 2431SOL    HW2 8193   0.459   3.556   1.486
 2432SOL     OW 8194   2.054   5.379   1.854
 2432SOL    HW1 8195   2.117   5.389   1.776
 2432SOL    HW2 8196   1.985   5.451   1.850
 2433SOL     OW 8197   7.004   4.076   5.060
 2433SOL    HW1 8198   0.049   4.002   5.033
 2433SOL    HW2 8199   6.925   4.038   5.109
 2434SOL     OW 8200   4.074   0.414   2.444
 2434SOL    HW1 8201   3.996   0.474   2.459
 2434SOL    HW2 8202   4.047   0.319   2.462
 2435SOL     OW 8203   6.059   6.999   6.795
 2435SOL    HW1 8204   6.085   0.055   6.859
 2435SOL    HW2 8205   6.020   0.023   6.713
 2436SOL     OW 8206   1.178   2.517   1.662
 2436SOL    HW1 8207   1.178   2.584   1.736
 2436SOL    HW2 8208   1.089   2.474   1.656
 2437SOL     OW 8209   6.871   4.059   2.936
 2437SOL    HW1 8210   6.806   4.000   2.983
 2437SOL    HW2 8211   6.957   4.011   2.923
 2438SOL     OW 8212   3.786   1.725   4.768
 2438SOL    HW1 8213   3.841   1.792   4.718
 2438SOL    HW2 8214   3.786   1.747   4.865
 2439SOL     OW 8215   1.566   5.925   1.662
 2439SOL    HW1 8216   1.658   5.960   1.681
 2439SOL    HW2 8217   1.518   5.988   1.600
 2440SOL     OW 8218   6.135   1.496   5.491
 2440SOL    HW1 8219   6.042   1.532   5.494
 2440SOL    HW2 8220   6.180   1.513   5.579
 2441SOL     OW 8221   5.957   0.231   0.402
 2441SOL    HW1 8222   6.008   0.315   0.385
 2441SOL    HW2 8223   5.909   0.203   0.319
 2442SOL     OW 8224   5.491   3.014   1.322
 2442SOL    HW1 8225   5.392   3.006   1.325
 2442SOL    HW2 8226   5.531   2.924   1.302
 2443SOL     OW 8227   1.141   3.156   1.943
 2443SOL    HW1 8228   1.190   3.243   1.931
 2443SOL    HW2 8229   1.098   3.156   2.034
 2444SOL     OW 8230   3.365   5.698   2.241
 2444SOL    HW1 8231   3.320   5.613   2.214
 2444SOL    HW2 8232   3.463   5.690   2.226
 2445SOL     OW 8233   0.858   2.573   1.735
 2445SOL    HW1 8234   0.806   2.489   1.747
 2445SOL    HW2 8235   0.795   2.651   1.729
 2446SOL     OW 8236   1.009   5.614   2.041
 2446SOL    HW1 8237   1.019   5.575   1.950
 2446SOL    HW2 8238   0.954   5.697   2.036
 2447SOL     OW 8239   2.175   6.918   0.206
 2447SOL    HW1 8240   2.266   6.891   0.177
 2447SOL    HW2 8241   2.123   6.953   0.128
 2448SOL     OW 8242   5.679   1.255   4.671
 2448SOL    HW1 8243   5.720   1.188   4.609
 2448SOL    HW2 8244   5.738   1.267   4.751
 2449SOL     OW 8245   1.491   4.431   1.835
 2449SOL    HW1 8246   1.436   4.407   1.914
 2449SOL    HW2 8247   1.450   4.392   1.752
 2450SOL     OW 8248   1.104   6.855   5.417
 2450SOL    HW1 8249   1.079   6.864   5.513
 2450SOL    HW2 8250   1.126   6.945   5.379
 2451SOL     OW 8251   0.983   6.426   5.195
 2451SOL    HW1 8252   0.970   6.337   5.238
 2451SOL    HW2 8253   1.003   6.495   5.266
 2452SOL     OW 8254   2.164   2.325   3.311
 2452SOL    HW1 8255   2.076   2.282   3.331
 2452SOL    HW2 8256   2.229   2.255   3.280
 2453SOL     OW 8257   0.607   0.946   5.667
 2453SOL    HW1 8258   0.684   0.889   5.639
 2453SOL    HW2 8259   0.595   0.939   5.766
 2454SOL     OW 8260   3.534   5.529   0.760
 2454SOL    HW1 8261   3.611   5.593   0.748
 2454SOL    HW2 8262   3.455   5.563   0.710
 2455SOL     OW 8263   4.032   2.532   0.305
 2455SOL    HW1 8264   3.990   2.553   0.393
 2455SOL    HW2 8265   4.120   2.486   0.320
 2456SOL     OW 8266   0.888   3.134   6.228
 2456SOL    HW1 8267   0.815   3.143   6.160
 2456SOL    HW2 8268   0.891   3.039   6.261
 2457SOL     OW 8269   4.796   2.084   5.133
 2457SOL    HW1 8270   4.791   2.091   5.233
 2457SOL    HW2 8271   4.754   2.164   5.092
 2458SOL     OW 8272   0.663   0.336   2.798
 2458SOL    HW1 8273   0.575   0.383   2.800
 2458SOL    HW2 8274   0.717   0.363   2.878
 2459SOL     OW 8275   2.528   6.955   0.145
 2459SOL    HW1 8276   2.585   6.979   0.223
 2459SOL    HW2 8277   2.488   0.021   0.106
 2460SOL     OW 8278   1.202   1.309   4.737
 2460SOL    HW1 8279   1.164   1.401   4.735
 2460SOL    HW2 8280   1.135   1.245   4.774
 2461SOL     OW 8281   4.789   0.053   3.808
 2461SOL    HW1 8282   4.852   0.118   3.765
 2461SOL    HW2 8283   4.705   0.046   3.753
 2462SOL     OW 8284   0.157   4.726   0.262
 2462SOL    HW1 8285   0.096   4.710   0.184
 2462SOL    HW2 8286   0.116   4.793   0.324
 2463SOL     OW 8287   6.348   0.624   0.434
 2463SOL    HW1 8288   6.409   0.684   0.383
 2463SOL    HW2 8289   6.381   0.529   0.428
 2464SOL     OW 8290   0.729   2.447   4.199
 2464SOL    HW1 8291   0.662   2.467   4.271
 2464SOL    HW2 8292   0.818   2.482   4.225
 2465SOL     OW 8293   0.397   6.735   5.799
 2465SOL    HW1 8294   0.305   6.721   5.762
 2465SOL    HW2 8295   0.442   6.646   5.812
 2466SOL     OW 8296   0.600   2.090   2.054
 2466SOL    HW1 8297   0.694   2.082   2.089
 2466SOL    HW2 8298   0.554   2.166   2.099
 2467SOL     OW 8299   6.133   2.539   5.310
 2467SOL    HW1 8300   6.046   2.526   5.264
 2467SOL    HW2 8301   6.134   2.486   5.395
 2468SOL     OW 8302   3.284   6.447   5.188
 2468SOL    HW1 8303   3.322   6.520   5.243
 2468SOL    HW2 8304   3.194   6.421   5.224
 2469SOL     OW 8305   3.595   1.794   5.836
 2469SOL    HW1 8306   3.587   1.891   5.814
 2469SOL    HW2 8307   3.515   1.745   5.802
 2470SOL     OW 8308   2.873   4.536   6.519
 2470SOL    HW1 8309   2.821   4.480   6.584
 2470SOL    HW2 8310   2.953   4.575   6.566
 2471SOL     OW 8311   2.698   5.688   2.058
 2471SOL    HW1 8312   2.674   5.766   2.116
 2471SOL    HW2 8313   2.638   5.611   2.079
 2472SOL     OW 8314   5.058   1.746   3.421
 2472SOL    HW1 8315   5.149   1.711   3.398
 2472SOL    HW2 8316   5.009   1.768   3.337
 2473SOL     OW 8317   0.924   4.278   4.701
 2473SOL    HW1 8318   0.898   4.354   4.641
 2473SOL    HW2 8319   0.941   4.196   4.646
 2474SOL     OW 8320   1.270   6.131   1.794
 2474SOL    HW1 8321   1.199   6.099   1.856
 2474SOL    HW2 8322   1.360   6.109   1.832
 2475SOL     OW 8323   5.313   0.593   1.010
 2475SOL    HW1 8324   5.249   0.659   1.047
 2475SOL    HW2 8325   5.309   0.508   1.064
 2476SOL     OW 8326   5.270   0.750   0.148
 2476SOL    HW1 8327   5.173   0.726   0.161
 2476SOL    HW2 8328   5.289   0.757   0.050
 2477SOL     OW 8329   3.876   0.400   3.375
 2477SOL    HW1 8330   3.936   0.418   3.297
 2477SOL    HW2 8331   3.920   0.432   3.459
 2478SOL     OW 8332   4.470   6.797   4.774
 2478SOL    HW1 8333   4.396   6.862   4.793
 2478SOL    HW2 8334   4.455   6.713   4.828
 2479SOL     OW 8335   5.918   3.114   6.818
 2479SOL    HW1 8336   5.878   3.127   6.727
 2479SOL    HW2 8337   6.015   3.139   6.816
 2480SOL     OW 8338   3.366   2.529   1.585
 2480SOL    HW1 8339   3.372   2.624   1.557
 2480SOL    HW2 8340   3.281   2.515   1.637
 2481SOL     OW 8341   3.184   0.332   1.112
 2481SOL    HW1 8342   3.255   0.323   1.182
 2481SOL    HW2 8343   3.148   0.425   1.114
 2482SOL     OW 8344   6.035   2.997   6.473
 2482SOL    HW1 8345   6.032   2.898   6.468
 2482SOL    HW2 8346   6.108   3.032   6.413
 2483SOL     OW 8347   1.093   2.466   0.596
 2483SOL    HW1 8348   1.133   2.475   0.505
 2483SOL    HW2 8349   1.035   2.385   0.600
 2484SOL     OW 8350   5.105   1.231   1.030
 2484SOL    HW1 8351   5.115   1.272   1.121
 2484SOL    HW2 8352   5.034   1.160   1.034
 2485SOL     OW 8353   6.549   2.141   6.456
 2485SOL    HW1 8354   6.512   2.212   6.397
 2485SOL    HW2 8355   6.608   2.182   6.526
 2486SOL     OW 8356   6.901   4.629   5.390
 2486SOL    HW1 8357   6.966   4.704   5.403
 2486SOL    HW2 8358   6.878   4.589   5.479
 2487SOL     OW 8359   5.106   5.650   6.756
 2487SOL    HW1 8360   5.160   5.686   6.680
 2487SOL    HW2 8361   5.056   5.570   6.725
 2488SOL     OW 8362   6.566   4.066   0.925
 2488SOL    HW1 8363   6.567   4.015   1.012
 2488SOL    HW2 8364   6.473   4.068   0.889
 2489SOL     OW 8365   0.515   6.513   4.279
 2489SOL    HW1 8366   0.477   6.438   4.333
 2489SOL    HW2 8367   0.579   6.565   4.335
 2490SOL     OW 8368   2.724   5.940   2.375
 2490SOL    HW1 8369   2.663   5.865   2.399
 2490SOL    HW2 8370   2.679   6.001   2.309
 2491SOL     OW 8371   3.748   4.562   1.462
 2491SOL    HW1 8372   3.732   4.605   1.374
 2491SOL    HW2 8373   3.809   4.483   1.450
 2492SOL     OW 8374   0.042   4.561   1.875
 2492SOL    HW1 8375   0.106   4.628   1.838
 2492SOL    HW2 8376   0.080   4.469   1.866
 2493SOL     OW 8377   6.289   7.016   1.406
 2493SOL    HW1 8378   6.192   0.002   1.432
 2493SOL    HW2 8379   6.297   6.994   1.309
 2494SOL     OW 8380   6.266   3.625   2.120
 2494SOL    HW1 8381   6.275   3.708   2.175
 2494SOL    HW2 8382   6.172   3.615   2.090
 2495SOL     OW 8383   6.447   4.688   3.989
 2495SOL    HW1 8384   6.432   4.602   3.941
 2495SOL    HW2 8385   6.541   4.719   3.974
 2496SOL     OW 8386   6.119   4.866   6.245
 2496SOL    HW1 8387   6.193   4.851   6.179
 2496SOL    HW2 8388   6.156   4.867   6.338
 2497SOL     OW 8389   0.250   0.235   2.264
 2497SOL    HW1 8390   0.183   0.249   2.337
 2497SOL    HW2 8391   0.326   0.181   2.299
 2498SOL     OW 8392   1.950   3.612   5.948
 2498SOL    HW1 8393   2.031   3.591   6.004
 2498SOL    HW2 8394   1.952   3.709   5.922
 2499SOL     OW 8395   6.780   3.601   1.696
 2499SOL    HW1 8396   6.797   3.560   1.785
 2499SOL    HW2 8397   6.692   3.569   1.661
 2500SOL     OW 8398   3.829   4.006   6.855
 2500SOL    HW1 8399   3.870   4.090   6.891
 2500SOL    HW2 8400   3.835   3.934   6.924
 2501SOL     OW 8401   5.764   5.706   0.335
 2501SOL    HW1 8402   5.815   5.647   0.398
 2501SOL    HW2 8403   5.765   5.800   0.370
 2502SOL     OW 8404   2.862   5.086   4.116
 2502SOL    HW1 8405   2.841   5.017   4.046
 2502SOL    HW2 8406   2.934   5.147   4.083
 2503SOL     OW 8407   2.374   6.388   5.950
 2503SOL    HW1 8408   2.347   6.393   6.046
 2503SOL    HW2 8409   2.372   6.293   5.919
 2504SOL     OW 8410   3.416   6.154   2.922
 2504SOL    HW1 8411   3.453   6.162   2.829
 2504SOL    HW2 8412   3.475   6.094   2.976
 2505SOL     OW 8413   0.117   5.149   3.043
 2505SOL    HW1 8414   0.102   5.083   3.117
 2505SOL    HW2 8415   0.172   5.107   2.971
 2506SOL     OW 8416   5.193   5.393   5.738
 2506SOL    HW1 8417   5.103   5.433   5.721
 2506SOL    HW2 8418   5.259   5.466   5.760
 2507SOL     OW 8419   6.595   3.450   0.246
 2507SOL    HW1 8420   6.687   3.418   0.223
 2507SOL    HW2 8421   6.583   3.543   0.213
 2508SOL     OW 8422   4.590   1.929   4.151
 2508SOL    HW1 8423   4.601   1.867   4.073
 2508SOL    HW2 8424   4.597   2.023   4.120
 2509SOL     OW 8425   0.286   3.524   5.289
 2509SOL    HW1 8426   0.188   3.510   5.280
 2509SOL    HW2 8427   0.335   3.446   5.251
 2510SOL     OW 8428   3.366   4.093   1.837
 2510SOL    HW1 8429   3.376   4.127   1.931
 2510SOL    HW2 8430   3.288   4.137   1.794
 2511SOL     OW 8431   2.099   0.459   5.142
 2511SOL    HW1 8432   2.156   0.390   5.187
 2511SOL    HW2 8433   2.125   0.550   5.174
 2512SOL     OW 8434   3.878   4.915   4.163
 2512SOL    HW1 8435   3.890   5.013   4.183
 2512SOL    HW2 8436   3.915   4.896   4.072
 2513SOL     OW 8437   2.162   6.023   6.150
 2513SOL    HW1 8438   2.218   6.018   6.068
 2513SOL    HW2 8439   2.220   6.045   6.229
 2514SOL     OW 8440   1.250   3.008   3.245
 2514SOL    HW1 8441   1.286   2.932   3.190
 2514SOL    HW2 8442   1.326   3.054   3.292
 2515SOL     OW 8443   1.527   1.475   1.866
 2515SOL    HW1 8444   1.442   1.429   1.892
 2515SOL    HW2 8445   1.516   1.574   1.876
 2516SOL     OW 8446   5.725   1.754   3.810
 2516SOL    HW1 8447   5.655   1.713   3.868
 2516SOL    HW2 8448   5.699   1.849   3.789
 2517SOL     OW 8449   1.469   1.651   4.137
 2517SOL    HW1 8450   1.412   1.696   4.206
 2517SOL    HW2 8451   1.414   1.585   4.086
 2518SOL     OW 8452   2.919   4.201   1.447
 2518SOL    HW1 8453   2.872   4.251   1.520
 2518SOL    HW2 8454   2.957   4.117   1.484
 2519SOL     OW 8455   1.754   1.490   0.480
 2519SOL    HW1 8456   1.750   1.392   0.498
 2519SOL    HW2 8457   1.772   1.539   0.565
 2520SOL     OW 8458   3.465   2.354   1.021
 2520SOL    HW1 8459   3.497   2.307   1.104
 2520SOL    HW2 8460   3.543   2.388   0.970
 2521SOL     OW 8461   5.279   1.646   5.097
 2521SOL    HW1 8462   5.377   1.666   5.104
 2521SOL    HW2 8463   5.231   1.687   5.174
 2522SOL     OW 8464   0.786   1.958   5.518
 2522SOL    HW1 8465   0.852   1.932   5.589
 2522SOL    HW2 8466   0.802   1.901   5.437
 2523SOL     OW 8467   1.890   4.821   0.101
 2523SOL    HW1 8468   1.977   4.833   0.052
 2523SOL    HW2 8469   1.825   4.890   0.070
 2524SOL     OW 8470   1.314   6.522   3.904
 2524SOL    HW1 8471   1.253   6.478   3.969
 2524SOL    HW2 8472   1.292   6.490   3.811
 2525SOL     OW 8473   6.810   2.061   4.204
 2525SOL    HW1 8474   6.817   2.039   4.301
 2525SOL    HW2 8475   6.747   1.996   4.160
 2526SOL     OW 8476   1.434   6.616   0.773
 2526SOL    HW1 8477   1.527   6.581   0.763
 2526SOL    HW2 8478   1.393   6.577   0.855
 2527SOL     OW 8479   5.115   4.972   6.463
 2527SOL    HW1 8480   5.117   4.888   6.517
 2527SOL    HW2 8481   5.082   4.951   6.371
 2528SOL     OW 8482   4.693   5.083   6.297
 2528SOL    HW1 8483   4.739   5.109   6.381
 2528SOL    HW2 8484   4.630   5.155   6.269
 2529SOL     OW 8485   0.371   0.026   6.653
 2529SOL    HW1 8486   0.361   0.122   6.680
 2529SOL    HW2 8487   0.396   6.988   6.732
 2530SOL     OW 8488   2.307   5.783   5.425
 2530SOL    HW1 8489   2.277   5.754   5.516
 2530SOL    HW2 8490   2.349   5.874   5.430
 2531SOL     OW 8491   6.450   5.542   6.017
 2531SOL    HW1 8492   6.542   5.525   6.052
 2531SOL    HW2 8493   6.395   5.585   6.089
 2532SOL     OW 8494   6.987   6.595   1.375
 2532SOL    HW1 8495   6.921   6.657   1.418
 2532SOL    HW2 8496   6.992   6.614   1.277
 2533SOL     OW 8497   4.925   0.886   3.015
 2533SOL    HW1 8498   4.954   0.978   3.040
 2533SOL    HW2 8499   4.941   0.823   3.091
 2534SOL     OW 8500   4.655   1.944   2.304
 2534SOL    HW1 8501   4.572   1.921   2.355
 2534SOL    HW2 8502   4.637   2.023   2.246
 2535SOL     OW 8503   3.643   2.868   6.119
 2535SOL    HW1 8504   3.631   2.921   6.035
 2535SOL    HW2 8505   3.649   2.929   6.197
 2536SOL     OW 8506   1.547   0.690   6.733
 2536SOL    HW1 8507   1.562   0.606   6.680
 2536SOL    HW2 8508   1.580   0.675   6.827
 2537SOL     OW 8509   4.089   0.912   0.044
 2537SOL    HW1 8510   4.079   0.981   0.116
 2537SOL    HW2 8511   4.005   0.858   0.038
 2538SOL     OW 8512   6.774   3.433   4.221
 2538SOL    HW1 8513   6.868   3.463   4.211
 2538SOL    HW2 8514   6.751   3.372   4.145
 2539SOL     OW 8515   5.099   1.560   4.903
 2539SOL    HW1 8516   5.014   1.515   4.927
 2539SOL    HW2 8517   5.147   1.589   4.986
 2540SOL     OW 8518   3.885   1.416   2.186
 2540SOL    HW1 8519   3.892   1.494   2.123
 2540SOL    HW2 8520   3.791   1.410   2.221
 2541SOL     OW 8521   3.531   6.184   5.304
 2541SOL    HW1 8522   3.550   6.244   5.227
 2541SOL    HW2 8523   3.591   6.103   5.299
 2542SOL     OW 8524   0.949   5.079   6.444
 2542SOL    HW1 8525   0.920   4.989   6.476
 2542SOL    HW2 8526   1.018   5.116   6.505
 2543SOL     OW 8527   1.682   1.560   4.283
 2543SOL    HW1 8528   1.678   1.562   4.382
 2543SOL    HW2 8529   1.592   1.579   4.245
 2544SOL     OW 8530   0.828   5.525   0.290
 2544SOL    HW1 8531   0.848   5.433   0.322
 2544SOL    HW2 8532   0.756   5.522   0.221
 2545SOL     OW 8533   2.157   6.373   2.680
 2545SOL    HW1 8534   2.222   6.304   2.649
 2545SOL    HW2 8535   2.158   6.451   2.617
 2546SOL     OW 8536   6.162   1.894   0.854
 2546SOL    HW1 8537   6.175   1.911   0.756
 2546SOL    HW2 8538   6.143   1.980   0.901
 2547SOL     OW 8539   0.280   3.593   4.928
 2547SOL    HW1 8540   0.274   3.690   4.951
 2547SOL    HW2 8541   0.205   3.544   4.972
 2548SOL     OW 8542   0.402   6.075   4.136
 2548SOL    HW1 8543   0.397   6.149   4.069
 2548SOL    HW2 8544   0.447   5.996   4.095
 2549SOL     OW 8545   0.747   0.992   1.095
 2549SOL    HW1 8546   0.763   0.997   1.194
 2549SOL    HW2 8547   0.739   1.084   1.057
 2550SOL     OW 8548   5.789   6.389   0.808
 2550SOL    HW1 8549   5.771   6.327   0.732
 2550SOL    HW2 8550   5.796   6.483   0.773
 2551SOL     OW 8551   1.620   3.985   6.576
 2551SOL    HW1 8552   1.682   4.058   6.607
 2551SOL    HW2 8553   1.612   3.988   6.477
 2552SOL     OW 8554   2.275   5.493   3.045
 2552SOL    HW1 8555   2.207   5.428   3.012
 2552SOL    HW2 8556   2.348   5.503   2.977
 2553SOL     OW 8557   4.246   3.751   6.648
 2553SOL    HW1 8558   4.289   3.750   6.558
 2553SOL    HW2 8559   4.224   3.658   6.676
 2554SOL     OW 8560   1.553   1.581   0.275
 2554SOL    HW1 8561   1.558   1.504   0.211
 2554SOL    HW2 8562   1.587   1.552   0.364
 2555SOL     OW 8563   6.031   2.494   6.516
 2555SOL    HW1 8564   5.932   2.480   6.515
 2555SOL    HW2 8565   6.075   2.412   6.553
 2556SOL     OW 8566   3.453   6.000   0.914
 2556SOL    HW1 8567   3.542   5.961   0.937
 2556SOL    HW2 8568   3.410   6.036   0.997
 2557SOL     OW 8569   1.816   4.202   6.895
 2557SOL    HW1 8570   1.816   4.104   6.916
 2557SOL    HW2 8571   1.793   4.214   6.798
 2558SOL     OW 8572   4.575   0.759   5.585
 2558SOL    HW1 8573   4.603   0.680   5.531
 2558SOL    HW2 8574   4.641   0.775   5.658
 2559SOL     OW 8575   0.381   4.550   5.005
 2559SOL    HW1 8576   0.305   4.614   5.017
 2559SOL    HW2 8577   0.356   4.481   4.936
 2560SOL     OW 8578   5.928   2.051   6.043
 2560SOL    HW1 8579   5.879   2.132   6.076
 2560SOL    HW2 8580   5.993   2.022   6.113
 2561SOL     OW 8581   2.695   5.344   4.937
 2561SOL    HW1 8582   2.643   5.290   4.871
 2561SOL    HW2 8583   2.723   5.430   4.895
 2562SOL     OW 8584   1.672   3.602   0.093
 2562SOL    HW1 8585   1.583   3.615   0.051
 2562SOL    HW2 8586   1.725   3.535   0.040
 2563SOL     OW 8587   2.841   1.320   6.738
 2563SOL    HW1 8588   2.771   1.347   6.672
 2563SOL    HW2 8589   2.827   1.370   6.823
 2564SOL     OW 8590   1.360   5.428   1.755
 2564SOL    HW1 8591   1.412   5.374   1.822
 2564SOL    HW2 8592   1.398   5.520   1.750
 2565SOL     OW 8593   1.544   0.569   1.591
 2565SOL    HW1 8594   1.550   0.469   1.595
 2565SOL    HW2 8595   1.620   0.609   1.642
 2566SOL     OW 8596   1.855   6.826   0.010
 2566SOL    HW1 8597   1.875   6.794   0.103
 2566SOL    HW2 8598   1.908   6.908   7.007
 2567SOL     OW 8599   1.326   6.364   0.349
 2567SOL    HW1 8600   1.317   6.388   0.446
 2567SOL    HW2 8601   1.370   6.440   0.300
 2568SOL     OW 8602   4.665   2.345   6.983
 2568SOL    HW1 8603   4.661   2.434   0.011
 2568SOL    HW2 8604   4.733   2.347   6.910
 2569SOL     OW 8605   3.187   0.242   3.534
 2569SOL    HW1 8606   3.224   0.149   3.543
 2569SOL    HW2 8607   3.202   0.275   3.441
 2570SOL     OW 8608   5.403   1.605   6.052
 2570SOL    HW1 8609   5.325   1.577   6.108
 2570SOL    HW2 8610   5.383   1.586   5.956
 2571SOL     OW 8611   1.302   4.797   3.613
 2571SOL    HW1 8612   1.286   4.802   3.712
 2571SOL    HW2 8613   1.271   4.882   3.570
 2572SOL     OW 8614   2.194   4.734   2.927
 2572SOL    HW1 8615   2.194   4.731   3.027
 2572SOL    HW2 8616   2.194   4.641   2.891
 2573SOL     OW 8617   0.348   0.490   1.340
 2573SOL    HW1 8618   0.263   0.498   1.392
 2573SOL    HW2 8619   0.332   0.437   1.257
 2574SOL     OW 8620   6.374   3.532   0.084
 2574SOL    HW1 8621   6.378   3.616   0.028
 2574SOL    HW2 8622   6.409   3.455   0.031
 2575SOL     OW 8623   6.971   6.000   6.421
 2575SOL    HW1 8624   0.044   5.989   6.466
 2575SOL    HW2 8625   6.976   6.076   6.356
 2576SOL     OW 8626   4.484   6.526   3.849
 2576SOL    HW1 8627   4.537   6.471   3.784
 2576SOL    HW2 8628   4.432   6.464   3.909
 2577SOL     OW 8629   2.572   4.560   2.270
 2577SOL    HW1 8630   2.639   4.576   2.343
 2577SOL    HW2 8631   2.619   4.559   2.182
 2578SOL     OW 8632   4.076   1.869   3.525
 2578SOL    HW1 8633   4.038   1.858   3.433
 2578SOL    HW2 8634   4.002   1.887   3.590
 2579SOL     OW 8635   0.864   6.480   3.745
 2579SOL    HW1 8636   0.774   6.435   3.741
 2579SOL    HW2 8637   0.893   6.504   3.653
 2580SOL     OW 8638   2.254   2.693   0.114
 2580SOL    HW1 8639   2.347   2.720   0.087
 2580SOL    HW2 8640   2.195   2.774   0.110
 2581SOL     OW 8641   2.879   6.628   5.349
 2581SOL    HW1 8642   2.785   6.661   5.358
 2581SOL    HW2 8643   2.940   6.707   5.339
 2582SOL     OW 8644   0.084   3.209   1.287
 2582SOL    HW1 8645   0.066   3.251   1.376
 2582SOL    HW2 8646   0.182   3.190   1.279
 2583SOL     OW 8647   6.067   6.698   1.225
 2583SOL    HW1 8648   5.973   6.719   1.197
 2583SOL    HW2 8649   6.098   6.615   1.178
 2584SOL     OW 8650   4.441   4.736   5.357
 2584SOL    HW1 8651   4.449   4.829   5.321
 2584SOL    HW2 8652   4.529   4.707   5.395
 2585SOL     OW 8653   3.152   5.291   6.925
 2585SOL    HW1 8654   3.184   5.255   6.838
 2585SOL    HW2 8655   3.150   5.391   6.921
 2586SOL     OW 8656   1.989   0.684   4.835
 2586SOL    HW1 8657   2.063   0.625   4.868
 2586SOL    HW2 8658   1.976   0.759   4.899
 2587SOL     OW 8659   6.683   1.506   3.102
 2587SOL    HW1 8660   6.671   1.415   3.144
 2587SOL    HW2 8661   6.691   1.496   3.003
 2588SOL     OW 8662   4.612   0.992   5.302
 2588SOL    HW1 8663   4.583   1.081   5.265
 2588SOL    HW2 8664   4.532   0.941   5.333
 2589SOL     OW 8665   1.631   6.815   6.841
 2589SOL    HW1 8666   1.718   6.795   6.886
 2589SOL    HW2 8667   1.556   6.801   6.906
 2590SOL     OW 8668   2.955   4.890   0.185
 2590SOL    HW1 8669   3.004   4.933   0.109
 2590SOL    HW2 8670   2.906   4.959   0.237
 2591SOL     OW 8671   5.870   5.511   4.072
 2591SOL    HW1 8672   5.849   5.506   3.974
 2591SOL    HW2 8673   5.897   5.421   4.104
 2592SOL     OW 8674   2.345   4.738   0.083
 2592SOL    HW1 8675   2.410   4.670   0.116
 2592SOL    HW2 8676   2.273   4.692   0.029
 2593SOL     OW 8677   3.100   3.948   0.710
 2593SOL    HW1 8678   3.037   3.934   0.786
 2593SOL    HW2 8679   3.116   4.045   0.697
 2594SOL     OW 8680   1.661   3.880   4.462
 2594SOL    HW1 8681   1.640   3.859   4.557
 2594SOL    HW2 8682   1.759   3.900   4.453
 2595SOL     OW 8683   1.509   0.685   3.730
 2595SOL    HW1 8684   1.582   0.746   3.761
 2595SOL    HW2 8685   1.521   0.666   3.632
 2596SOL     OW 8686   1.204   2.258   0.004
 2596SOL    HW1 8687   1.247   2.205   0.077
 2596SOL    HW2 8688   1.115   2.218   6.998
 2597SOL     OW 8689   6.723   6.076   6.554
 2597SOL    HW1 8690   6.806   6.020   6.546
 2597SOL    HW2 8691   6.688   6.098   6.463
 2598SOL     OW 8692   5.571   2.979   2.557
 2598SOL    HW1 8693   5.548   3.008   2.464
 2598SOL    HW2 8694   5.488   2.963   2.609
 2599SOL     OW 8695   2.663   6.742   1.998
 2599SOL    HW1 8696   2.586   6.711   2.054
 2599SOL    HW2 8697   2.731   6.668   1.991
 2600SOL     OW 8698   6.165   3.823   4.230
 2600SOL    HW1 8699   6.232   3.863   4.292
 2600SOL    HW2 8700   6.212   3.765   4.163
 2601SOL     OW 8701   0.446   2.008   3.369
 2601SOL    HW1 8702   0.428   2.028   3.272
 2601SOL    HW2 8703   0.419   2.086   3.425
 2602SOL     OW 8704   1.568   5.177   3.984
 2602SOL    HW1 8705   1.566   5.078   3.967
 2602SOL    HW2 8706   1.660   5.211   3.968
 2603SOL     OW 8707   2.913   0.311   2.913
 2603SOL    HW1 8708   2.886   0.327   3.008
 2603SOL    HW2 8709   2.978   0.382   2.885
 2604SOL     OW 8710   4.433   2.293   2.812
 2604SOL    HW1 8711   4.448   2.387   2.842
 2604SOL    HW2 8712   4.409   2.236   2.891
 2605SOL     OW 8713   1.717   3.723   1.881
 2605SOL    HW1 8714   1.670   3.808   1.906
 2605SOL    HW2 8715   1.815   3.742   1.870
 2606SOL     OW 8716   4.300   3.660   1.021
 2606SOL    HW1 8717   4.253   3.716   1.088
 2606SOL    HW2 8718   4.271   3.565   1.030
 2607SOL     OW 8719   2.703   2.038   1.180
 2607SOL    HW1 8720   2.790   1.990   1.183
 2607SOL    HW2 8721   2.700   2.108   1.251
 2608SOL     OW 8722   2.342   5.387   5.971
 2608SOL    HW1 8723   2.328   5.329   5.892
 2608SOL    HW2 8724   2.439   5.385   5.997
 2609SOL     OW 8725   0.063   1.242   0.991
 2609SOL    HW1 8726   0.098   1.312   1.053
 2609SOL    HW2 8727   0.098   1.258   0.899
 2610SOL     OW 8728   1.270   4.502   4.445
 2610SOL    HW1 8729   1.366   4.517   4.469
 2610SOL    HW2 8730   1.247   4.405   4.461
 2611SOL     OW 8731   5.479   6.988   6.448
 2611SOL    HW1 8732   5.483   0.061   6.493
 2611SOL    HW2 8733   5.477   7.001   6.349
 2612SOL     OW 8734   6.346   0.088   5.664
 2612SOL    HW1 8735   6.269   0.036   5.701
 2612SOL    HW2 8736   6.349   0.076   5.565
 2613SOL     OW 8737   1.248   5.947   6.936
 2613SOL    HW1 8738   1.321   5.908   6.992
 2613SOL    HW2 8739   1.259   6.047   6.932
 2614SOL     OW 8740   6.905   1.303   6.450
 2614SOL    HW1 8741   6.937   1.213   6.482
 2614SOL    HW2 8742   6.882   1.297   6.353
 2615SOL     OW 8743   0.837   3.160   0.517
 2615SOL    HW1 8744   0.915   3.184   0.575
 2615SOL    HW2 8745   0.797   3.074   0.547
 2616SOL     OW 8746   1.568   0.137   5.520
 2616SOL    HW1 8747   1.633   0.179   5.457
 2616SOL    HW2 8748   1.487   0.195   5.529
 2617SOL     OW 8749   5.698   0.378   1.237
 2617SOL    HW1 8750   5.705   0.325   1.152
 2617SOL    HW2 8751   5.753   0.334   1.308
 2618SOL     OW 8752   1.141   6.596   6.296
 2618SOL    HW1 8753   1.084   6.519   6.326
 2618SOL    HW2 8754   1.186   6.573   6.211
 2619SOL     OW 8755   4.636   1.286   2.390
 2619SOL    HW1 8756   4.652   1.211   2.454
 2619SOL    HW2 8757   4.694   1.273   2.309
 2620SOL     OW 8758   6.432   0.568   1.134
 2620SOL    HW1 8759   6.422   0.667   1.147
 2620SOL    HW2 8760   6.519   0.550   1.089
 2621SOL     OW 8761   1.511   6.100   1.907
 2621SOL    HW1 8762   1.547   6.007   1.902
 2621SOL    HW2 8763   1.555   6.149   1.982
 2622SOL     OW 8764   3.490   3.267   6.573
 2622SOL    HW1 8765   3.564   3.200   6.569
 2622SOL    HW2 8766   3.454   3.273   6.666
 2623SOL     OW 8767   0.956   6.490   3.468
 2623SOL    HW1 8768   0.927   6.395   3.457
 2623SOL    HW2 8769   0.913   6.547   3.398
 2624SOL     OW 8770   0.342   1.703   4.909
 2624SOL    HW1 8771   0.432   1.680   4.871
 2624SOL    HW2 8772   0.337   1.802   4.924
 2625SOL     OW 8773   1.994   5.279   6.352
 2625SOL    HW1 8774   2.015   5.334   6.271
 2625SOL    HW2 8775   2.020   5.331   6.434
 2626SOL     OW 8776   6.759   5.476   6.629
 2626SOL    HW1 8777   6.808   5.417   6.565
 2626SOL    HW2 8778   6.776   5.572   6.607
 2627SOL     OW 8779   2.089   6.764   5.487
 2627SOL    HW1 8780   2.078   6.802   5.396
 2627SOL    HW2 8781   2.036   6.819   5.553
 2628SOL     OW 8782   0.375   5.133   2.291
 2628SOL    HW1 8783   0.369   5.229   2.261
 2628SOL    HW2 8784   0.308   5.118   2.364
 2629SOL     OW 8785   3.314   3.904   2.904
 2629SOL    HW1 8786   3.263   3.860   2.831
 2629SOL    HW2 8787   3.337   3.837   2.975
 2630SOL     OW 8788   3.696   0.832   3.603
 2630SOL    HW1 8789   3.718   0.750   3.656
 2630SOL    HW2 8790   3.772   0.897   3.608
 2631SOL     OW 8791   6.150   0.463   6.801
 2631SOL    HW1 8792   6.151   0.452   6.701
 2631SOL    HW2 8793   6.069   0.514   6.828
 2632SOL     OW 8794   5.217   4.403   2.204
 2632SOL    HW1 8795   5.243   4.408   2.108
 2632SOL    HW2 8796   5.152   4.328   2.218
 2633SOL     OW 8797   0.092   3.323   5.816
 2633SOL    HW1 8798   0.148   3.242   5.825
 2633SOL    HW2 8799   0.024   3.326   5.890
 2634SOL     OW 8800   0.247   1.115   5.902
 2634SOL    HW1 8801   0.270   1.092   5.807
 2634SOL    HW2 8802   0.232   1.214   5.909
 2635SOL     OW 8803   5.557   4.964   3.440
 2635SOL    HW1 8804   5.539   5.001   3.349
 2635SOL    HW2 8805   5.580   5.039   3.502
 2636SOL     OW 8806   3.651   5.518   5.173
 2636SOL    HW1 8807   3.677   5.601   5.222
 2636SOL    HW2 8808   3.728   5.487   5.116
 2637SOL     OW 8809   0.454   1.510   3.680
 2637SOL    HW1 8810   0.464   1.529   3.777
 2637SOL    HW2 8811   0.513   1.432   3.656
 2638SOL     OW 8812   1.086   6.146   4.323
 2638SOL    HW1 8813   1.048   6.091   4.398
 2638SOL    HW2 8814   1.014   6.165   4.257
 2639SOL     OW 8815   4.164   4.829   5.198
 2639SOL    HW1 8816   4.219   4.871   5.270
 2639SOL    HW2 8817   4.067   4.848   5.215
 2640SOL     OW 8818   1.676   6.832   3.821
 2640SOL    HW1 8819   1.582   6.805   3.843
 2640SOL    HW2 8820   1.727   6.752   3.788
 2641SOL     OW 8821   5.894   2.809   6.818
 2641SOL    HW1 8822   5.950   2.891   6.834
 2641SOL    HW2 8823   5.815   2.833   6.762
 2642SOL     OW 8824   5.932   1.537   3.633
 2642SOL    HW1 8825   5.951   1.441   3.611
 2642SOL    HW2 8826   5.890   1.543   3.723
 2643SOL     OW 8827   2.447   4.602   3.713
 2643SOL    HW1 8828   2.458   4.508   3.744
 2643SOL    HW2 8829   2.476   4.665   3.785
 2644SOL     OW 8830   4.655   5.366   4.702
 2644SOL    HW1 8831   4.696   5.298   4.763
 2644SOL    HW2 8832   4.562   5.386   4.733
 2645SOL     OW 8833   4.934   5.553   3.467
 2645SOL    HW1 8834   4.950   5.611   3.547
 2645SOL    HW2 8835   5.022   5.522   3.430
 2646SOL     OW 8836   0.759   2.532   6.254
 2646SOL    HW1 8837   0.839   2.572   6.209
 2646SOL    HW2 8838   0.717   2.599   6.315
 2647SOL     OW 8839   5.446   0.716   1.811
 2647SOL    HW1 8840   5.537   0.686   1.837
 2647SOL    HW2 8841   5.450   0.807   1.771
 2648SOL     OW 8842   0.936   0.279   6.815
 2648SOL    HW1 8843   0.876   0.349   6.778
 2648SOL    HW2 8844   1.019   0.272   6.760
 2649SOL     OW 8845   5.080   2.046   1.898
 2649SOL    HW1 8846   5.033   2.005   1.819
 2649SOL    HW2 8847   5.081   2.146   1.888
 2650SOL     OW 8848   2.636   6.402   4.205
 2650SOL    HW1 8849   2.619   6.498   4.228
 2650SOL    HW2 8850   2.735   6.385   4.206
 2651SOL     OW 8851   4.302   2.296   4.009
 2651SOL    HW1 8852   4.325   2.359   3.934
 2651SOL    HW2 8853   4.370   2.304   4.081
 2652SOL     OW 8854   4.838   4.094   5.647
 2652SOL    HW1 8855   4.748   4.054   5.632
 2652SOL    HW2 8856   4.888   4.041   5.715
 2653SOL     OW 8857   2.787   5.279   0.563
 2653SOL    HW1 8858   2.760   5.286   0.659
 2653SOL    HW2 8859   2.707   5.255   0.508
 2654SOL     OW 8860   6.634   1.087   0.107
 2654SOL    HW1 8861   6.652   1.183   0.128
 2654SOL    HW2 8862   6.719   1.041   0.081
 2655SOL     OW 8863   4.603   6.190   2.516
 2655SOL    HW1 8864   4.640   6.139   2.595
 2655SOL    HW2 8865   4.537   6.257   2.548
 2656SOL     OW 8866   3.594   6.409   3.169
 2656SOL    HW1 8867   3.663   6.340   3.148
 2656SOL    HW2 8868   3.521   6.405   3.100
 2657SOL     OW 8869   0.731   4.050   0.406
 2657SOL    HW1 8870   0.662   3.978   0.411
 2657SOL    HW2 8871   0.821   4.009   0.389
 2658SOL     OW 8872   3.390   5.338   0.120
 2658SOL    HW1 8873   3.352   5.276   0.051
 2658SOL    HW2 8874   3.451   5.403   0.076
 2659SOL     OW 8875   0.312   2.012   5.038
 2659SOL    HW1 8876   0.326   2.108   5.061
 2659SOL    HW2 8877   0.228   2.002   4.984
 2660SOL     OW 8878   0.405   1.824   2.010
 2660SOL    HW1 8879   0.310   1.823   2.041
 2660SOL    HW2 8880   0.466   1.822   2.090
 2661SOL     OW 8881   1.658   1.274   0.837
 2661SOL    HW1 8882   1.601   1.192   0.842
 2661SOL    HW2 8883   1.753   1.249   0.855
 2662SOL     OW 8884   2.651   1.433   2.265
 2662SOL    HW1 8885   2.570   1.376   2.247
 2662SOL    HW2 8886   2.629   1.529   2.249
 2663SOL     OW 8887   4.115   6.319   0.160
 2663SOL    HW1 8888   4.144   6.392   0.099
 2663SOL    HW2 8889   4.179   6.312   0.237
 2664SOL     OW 8890   4.256   3.917   5.811
 2664SOL    HW1 8891   4.292   3.909   5.904
 2664SOL    HW2 8892   4.229   3.827   5.777
 2665SOL     OW 8893   2.194   3.993   4.562
 2665SOL    HW1 8894   2.261   4.049   4.514
 2665SOL    HW2 8895   2.193   4.019   4.659
 2666SOL     OW 8896   2.114   3.829   2.322
 2666SOL    HW1 8897   2.088   3.780   2.239
 2666SOL    HW2 8898   2.153   3.918   2.298
 2667SOL     OW 8899   6.974   2.923   4.968
 2667SOL    HW1 8900   6.966   2.857   4.894
 2667SOL    HW2 8901   6.933   2.885   5.051
 2668SOL     OW 8902   6.491   0.569   3.551
 2668SOL    HW1 8903   6.571   0.602   3.501
 2668SOL    HW2 8904   6.412   0.567   3.489
 2669SOL     OW 8905   2.555   0.547   6.826
 2669SOL    HW1 8906   2.623   0.610   6.789
 2669SOL    HW2 8907   2.467   0.563   6.780
 2670SOL     OW 8908   0.555   0.377   0.159
 2670SOL    HW1 8909   0.478   0.337   0.110
 2670SOL    HW2 8910   0.631   0.392   0.095
 2671SOL     OW 8911   4.918   4.601   6.131
 2671SOL    HW1 8912   4.836   4.573   6.182
 2671SOL    HW2 8913   4.930   4.541   6.053
 2672SOL     OW 8914   3.620   1.039   1.982
 2672SOL    HW1 8915   3.560   1.056   2.060
 2672SOL    HW2 8916   3.579   0.970   1.922
 2673SOL     OW 8917   4.086   0.107   2.300
 2673SOL    HW1 8918   4.073   0.136   2.395
 2673SOL    HW2 8919   4.047   0.176   2.239
 2674SOL     OW 8920   0.332   5.353   2.502
 2674SOL    HW1 8921   0.299   5.330   2.594
 2674SOL    HW2 8922   0.351   5.451   2.497
 2675SOL     OW 8923   5.230   0.685   4.291
 2675SOL    HW1 8924   5.245   0.655   4.197
 2675SOL    HW2 8925   5.253   0.782   4.299
 2676SOL     OW 8926   4.045   3.755   2.995
 2676SOL    HW1 8927   4.087   3.666   2.981
 2676SOL    HW2 8928   4.058   3.783   3.090
 2677SOL     OW 8929   2.492   5.107   1.157
 2677SOL    HW1 8930   2.524   5.150   1.241
 2677SOL    HW2 8931   2.570   5.080   1.101
 2678SOL     OW 8932   4.257   1.858   3.073
 2678SOL    HW1 8933   4.189   1.800   3.029
 2678SOL    HW2 8934   4.319   1.802   3.128
 2679SOL     OW 8935   2.026   3.398   3.082
 2679SOL    HW1 8936   1.936   3.433   3.059
 2679SOL    HW2 8937   2.043   3.314   3.030
 2680SOL     OW 8938   5.862   1.585   0.159
 2680SOL    HW1 8939   5.959   1.607   0.167
 2680SOL    HW2 8940   5.850   1.486   0.155
 2681SOL     OW 8941   2.063   2.154   4.471
 2681SOL    HW1 8942   2.056   2.212   4.552
 2681SOL    HW2 8943   2.120   2.074   4.492
 2682SOL     OW 8944   4.039   4.115   1.571
 2682SOL    HW1 8945   3.982   4.088   1.649
 2682SOL    HW2 8946   4.133   4.131   1.603
 2683SOL     OW 8947   2.411   4.357   1.910
 2683SOL    HW1 8948   2.395   4.380   2.006
 2683SOL    HW2 8949   2.471   4.277   1.904
 2684SOL     OW 8950   6.492   6.874   3.722
 2684SOL    HW1 8951   6.411   6.837   3.767
 2684SOL    HW2 8952   6.574   6.850   3.775
 2685SOL     OW 8953   0.920   5.607   5.787
 2685SOL    HW1 8954   0.946   5.703   5.775
 2685SOL    HW2 8955   0.997   5.548   5.767
 2686SOL     OW 8956   0.345   1.455   5.461
 2686SOL    HW1 8957   0.418   1.428   5.524
 2686SOL    HW2 8958   0.264   1.483   5.513
 2687SOL     OW 8959   4.155   1.923   1.480
 2687SOL    HW1 8960   4.179   1.934   1.577
 2687SOL    HW2 8961   4.090   1.848   1.470
 2688SOL     OW 8962   3.753   3.013   6.360
 2688SOL    HW1 8963   3.779   3.110   6.367
 2688SOL    HW2 8964   3.834   2.959   6.334
 2689SOL     OW 8965   1.659   4.200   3.513
 2689SOL    HW1 8966   1.657   4.126   3.445
 2689SOL    HW2 8967   1.583   4.262   3.496
 2690SOL     OW 8968   4.115   1.451   5.561
 2690SOL    HW1 8969   4.199   1.505   5.550
 2690SOL    HW2 8970   4.136   1.355   5.546
 2691SOL     OW 8971   6.728   3.740   4.737
 2691SOL    HW1 8972   6.671   3.706   4.812
 2691SOL    HW2 8973   6.821   3.703   4.746
 2692SOL     OW 8974   2.435   6.305   2.057
 2692SOL    HW1 8975   2.404   6.317   1.963
 2692SOL    HW2 8976   2.362   6.262   2.111
 2693SOL     OW 8977   1.419   6.149   3.036
 2693SOL    HW1 8978   1.492   6.156   3.104
 2693SOL    HW2 8979   1.357   6.075   3.061
 2694SOL     OW 8980   3.094   0.463   2.773
 2694SOL    HW1 8981   3.100   0.428   2.680
 2694SOL    HW2 8982   3.122   0.559   2.774
 2695SOL     OW 8983   6.874   5.832   3.751
 2695SOL    HW1 8984   6.952   5.788   3.708
 2695SOL    HW2 8985   6.895   5.928   3.769
 2696SOL     OW 8986   5.242   4.755   6.134
 2696SOL    HW1 8987   5.301   4.828   6.168
 2696SOL    HW2 8988   5.152   4.763   6.178
 2697SOL     OW 8989   4.184   2.460   6.631
 2697SOL    HW1 8990   4.208   2.373   6.673
 2697SOL    HW2 8991   4.113   2.446   6.562
 2698SOL     OW 8992   1.603   4.899   5.790
 2698SOL    HW1 8993   1.600   4.803   5.818
 2698SOL    HW2 8994   1.574   4.957   5.866
 2699SOL     OW 8995   2.827   6.518   1.987
 2699SOL    HW1 8996   2.846   6.433   1.937
 2699SOL    HW2 8997   2.854   6.507   2.082
 2700SOL     OW 8998   3.716   1.824   1.782
 2700SOL    HW1 8999   3.758   1.751   1.728
 2700SOL    HW2 9000   3.782   1.859   1.848
 2701SOL     OW 9001   5.385   3.015   5.038
 2701SOL    HW1 9002   5.316   2.942   5.043
 2701SOL    HW2 9003   5.468   2.986   5.087
 2702SOL     OW 9004   2.630   0.958   4.872
 2702SOL    HW1 9005   2.674   0.881   4.827
 2702SOL    HW2 9006   2.549   0.986   4.820
 2703SOL     OW 9007   1.791   0.104   2.692
 2703SOL    HW1 9008   1.741   0.117   2.607
 2703SOL    HW2 9009   1.727   0.108   2.769
 2704SOL     OW 9010   5.443   0.987   3.703
 2704SOL    HW1 9011   5.533   0.948   3.688
 2704SOL    HW2 9012   5.378   0.914   3.725
 2705SOL     OW 9013   0.354   0.696   5.537
 2705SOL    HW1 9014   0.325   0.601   5.522
 2705SOL    HW2 9015   0.345   0.747   5.451
 2706SOL     OW 9016   6.842   3.854   3.574
 2706SOL    HW1 9017   6.924   3.910   3.558
 2706SOL    HW2 9018   6.869   3.760   3.596
 2707SOL     OW 9019   4.360   1.319   2.813
 2707SOL    HW1 9020   4.359   1.247   2.743
 2707SOL    HW2 9021   4.455   1.338   2.840
 2708SOL     OW 9022   5.644   3.861   6.243
 2708SOL    HW1 9023   5.680   3.767   6.242
 2708SOL    HW2 9024   5.675   3.909   6.161
 2709SOL     OW 9025   5.045   1.646   5.572
 2709SOL    HW1 9026   5.062   1.551   5.548
 2709SOL    HW2 9027   5.095   1.669   5.656
 2710SOL     OW 9028   0.603   2.545   4.448
 2710SOL    HW1 9029   0.505   2.565   4.440
 2710SOL    HW2 9030   0.652   2.630   4.471
 2711SOL     OW 9031   3.473   0.904   1.804
 2711SOL    HW1 9032   3.375   0.926   1.814
 2711SOL    HW2 9033   3.497   0.907   1.707
 2712SOL     OW 9034   3.457   6.262   2.084
 2712SOL    HW1 9035   3.450   6.210   2.169
 2712SOL    HW2 9036   3.501   6.205   2.015
 2713SOL     OW 9037   3.563   4.406   5.858
 2713SOL    HW1 9038   3.524   4.316   5.875
 2713SOL    HW2 9039   3.533   4.470   5.929
 2714SOL     OW 9040   3.259   4.748   6.365
 2714SOL    HW1 9041   3.166   4.780   6.350
 2714SOL    HW2 9042   3.283   4.760   6.462
 2715SOL     OW 9043   4.126   1.017   6.797
 2715SOL    HW1 9044   4.127   0.964   6.882
 2715SOL    HW2 9045   4.150   0.957   6.720
 2716SOL     OW 9046   4.143   1.496   2.743
 2716SOL    HW1 9047   4.116   1.481   2.647
 2716SOL    HW2 9048   4.217   1.433   2.767
 2717SOL     OW 9049   0.378   1.340   2.381
 2717SOL    HW1 9050   0.310   1.290   2.327
 2717SOL    HW2 9051   0.458   1.282   2.396
 2718SOL     OW 9052   0.436   0.651   5.788
 2718SOL    HW1 9053   0.431   0.676   5.692
 2718SOL    HW2 9054   0.347   0.664   5.831
 2719SOL     OW 9055   1.699   4.667   2.460
 2719SOL    HW1 9056   1.768   4.651   2.531
 2719SOL    HW2 9057   1.733   4.737   2.397
 2720SOL     OW 9058   2.195   6.276   6.616
 2720SOL    HW1 9059   2.245   6.362   6.630
 2720SOL    HW2 9060   2.221   6.211   6.687
 2721SOL     OW 9061   3.111   6.391   1.735
 2721SOL    HW1 9062   3.192   6.410   1.790
 2721SOL    HW2 9063   3.100   6.462   1.666
 2722SOL     OW 9064   4.124   5.901   7.005
 2722SOL    HW1 9065   4.147   5.828   0.052
 2722SOL    HW2 9066   4.108   5.862   6.914
 2723SOL     OW 9067   3.272   6.184   6.552
 2723SOL    HW1 9068   3.304   6.233   6.471
 2723SOL    HW2 9069   3.351   6.142   6.599
 2724SOL     OW 9070   0.842   6.673   1.099
 2724SOL    HW1 9071   0.748   6.654   1.128
 2724SOL    HW2 9072   0.887   6.731   1.167
 2725SOL     OW 9073   6.161   4.124   4.797
 2725SOL    HW1 9074   6.226   4.174   4.739
 2725SOL    HW2 9075   6.135   4.039   4.752
 2726SOL     OW 9076   5.741   1.887   2.586
 2726SOL    HW1 9077   5.741   1.886   2.686
 2726SOL    HW2 9078   5.813   1.827   2.552
 2727SOL     OW 9079   1.545   4.919   3.616
 2727SOL    HW1 9080   1.454   4.884   3.594
 2727SOL    HW2 9081   1.538   5.015   3.643
 2728SOL     OW 9082   5.133   5.277   5.140
 2728SOL    HW1 9083   5.096   5.365   5.111
 2728SOL    HW2 9084   5.198   5.290   5.214
 2729SOL     OW 9085   5.456   0.049   6.176
 2729SOL    HW1 9086   5.373   0.106   6.169
 2729SOL    HW2 9087   5.531   0.095   6.129
 2730SOL     OW 9088   1.051   6.068   1.984
 2730SOL    HW1 9089   1.033   6.014   2.067
 2730SOL    HW2 9090   0.972   6.125   1.964
 2731SOL     OW 9091   3.418   3.957   4.171
 2731SOL    HW1 9092   3.408   3.906   4.085
 2731SOL    HW2 9093   3.440   3.894   4.245
 2732SOL     OW 9094   5.737   0.690   1.819
 2732SOL    HW1 9095   5.747   0.609   1.762
 2732SOL    HW2 9096   5.703   0.766   1.763
 2733SOL     OW 9097   1.463   6.833   6.633
 2733SOL    HW1 9098   1.523   6.824   6.712
 2733SOL    HW2 9099   1.503   6.898   6.568
 2734SOL     OW 9100   3.247   6.697   2.459
 2734SOL    HW1 9101   3.206   6.751   2.532
 2734SOL    HW2 9102   3.232   6.599   2.477
 2735SOL     OW 9103   0.760   1.659   1.719
 2735SOL    HW1 9104   0.680   1.602   1.738
 2735SOL    HW2 9105   0.784   1.712   1.800
 2736SOL     OW 9106   5.275   4.592   2.989
 2736SOL    HW1 9107   5.182   4.613   2.960
 2736SOL    HW2 9108   5.316   4.527   2.924
 2737SOL     OW 9109   3.037   0.463   5.328
 2737SOL    HW1 9110   3.076   0.476   5.237
 2737SOL    HW2 9111   2.938   0.451   5.319
 2738SOL     OW 9112   4.911   6.439   1.674
 2738SOL    HW1 9113   4.881   6.492   1.753
 2738SOL    HW2 9114   4.831   6.403   1.626
 2739SOL     OW 9115   6.695   5.677   1.625
 2739SOL    HW1 9116   6.759   5.608   1.593
 2739SOL    HW2 9117   6.743   5.742   1.684
 2740SOL     OW 9118   6.608   5.897   3.683
 2740SOL    HW1 9119   6.699   5.866   3.711
 2740SOL    HW2 9120   6.562   5.824   3.634
 2741SOL     OW 9121   1.770   1.028   6.000
 2741SOL    HW1 9122   1.736   1.081   5.923
 2741SOL    HW2 9123   1.692   0.984   6.046
 2742SOL     OW 9124   2.986   5.803   1.565
 2742SOL    HW1 9125   3.010   5.806   1.662
 2742SOL    HW2 9126   3.025   5.883   1.518
 2743SOL     OW 9127   5.909   2.885   2.437
 2743SOL    HW1 9128   5.877   2.835   2.517
 2743SOL    HW2 9129   5.964   2.964   2.467
 2744SOL     OW 9130   3.382   3.863   2.599
 2744SOL    HW1 9131   3.308   3.930   2.599
 2744SOL    HW2 9132   3.469   3.909   2.585
 2745SOL     OW 9133   0.604   6.628   0.396
 2745SOL    HW1 9134   0.684   6.592   0.347
 2745SOL    HW2 9135   0.623   6.721   0.427
 2746SOL     OW 9136   0.687   1.370   3.637
 2746SOL    HW1 9137   0.738   1.295   3.595
 2746SOL    HW2 9138   0.743   1.453   3.634
 2747SOL     OW 9139   3.888   4.807   0.871
 2747SOL    HW1 9140   3.876   4.848   0.781
 2747SOL    HW2 9141   3.942   4.724   0.864
 2748SOL     OW 9142   3.644   6.930   0.925
 2748SOL    HW1 9143   3.741   6.952   0.921
 2748SOL    HW2 9144   3.622   6.865   0.852
 2749SOL     OW 9145   3.508   2.698   0.221
 2749SOL    HW1 9146   3.487   2.647   0.305
 2749SOL    HW2 9147   3.468   2.790   0.227
 2750SOL     OW 9148   2.814   6.082   2.004
 2750SOL    HW1 9149   2.900   6.045   2.038
 2750SOL    HW2 9150   2.833   6.150   1.933
 2751SOL     OW 9151   5.763   4.336   1.257
 2751SOL    HW1 9152   5.815   4.366   1.177
 2751SOL    HW2 9153   5.798   4.247   1.287
 2752SOL     OW 9154   4.068   5.249   0.077
 2752SOL    HW1 9155   4.070   5.156   0.113
 2752SOL    HW2 9156   3.985   5.261   0.022
 2753SOL     OW 9157   6.374   5.600   5.389
 2753SOL    HW1 9158   6.318   5.664   5.442
 2753SOL    HW2 9159   6.352   5.609   5.292
 2754SOL     OW 9160   1.310   6.779   6.161
 2754SOL    HW1 9161   1.235   6.752   6.221
 2754SOL    HW2 9162   1.326   6.707   6.093
 2755SOL     OW 9163   3.284   0.597   2.517
 2755SOL    HW1 9164   3.236   0.656   2.581
 2755SOL    HW2 9165   3.310   0.649   2.436
 2756SOL     OW 9166   4.705   6.241   0.814
 2756SOL    HW1 9167   4.756   6.175   0.759
 2756SOL    HW2 9168   4.609   6.216   0.815
 2757SOL     OW 9169   0.411   5.272   1.540
 2757SOL    HW1 9170   0.399   5.181   1.580
 2757SOL    HW2 9171   0.508   5.296   1.541
 2758SOL     OW 9172   4.877   0.506   5.963
 2758SOL    HW1 9173   4.781   0.532   5.957
 2758SOL    HW2 9174   4.929   0.579   6.007
 2759SOL     OW 9175   5.046   5.625   4.656
 2759SOL    HW1 9176   5.127   5.665   4.700
 2759SOL    HW2 9177   5.036   5.530   4.684
 2760SOL     OW 9178   2.603   5.739   3.291
 2760SOL    HW1 9179   2.637   5.808   3.227
 2760SOL    HW2 9180   2.680   5.688   3.329
 2761SOL     OW 9181   1.960   5.610   3.334
 2761SOL    HW1 9182   2.006   5.548   3.398
 2761SOL    HW2 9183   1.922   5.558   3.258
 2762SOL     OW 9184   1.134   6.598   4.840
 2762SOL    HW1 9185   1.190   6.516   4.837
 2762SOL    HW2 9186   1.181   6.669   4.893
 2763SOL     OW 9187   5.599   1.881   1.664
 2763SOL    HW1 9188   5.635   1.816   1.597
 2763SOL    HW2 9189   5.511   1.848   1.698
 2764SOL     OW 9190   6.405   1.206   2.158
 2764SOL    HW1 9191   6.449   1.245   2.077
 2764SOL    HW2 9192   6.381   1.111   2.141
 2765SOL     OW 9193   5.368   1.747   1.751
 2765SOL    HW1 9194   5.412   1.659   1.734
 2765SOL    HW2 9195   5.269   1.732   1.761
 2766SOL     OW 9196   5.812   0.659   2.513
 2766SOL    HW1 9197   5.812   0.705   2.424
 2766SOL    HW2 9198   5.756   0.711   2.578
 2767SOL     OW 9199   5.882   4.449   6.392
 2767SOL    HW1 9200   5.868   4.362   6.439
 2767SOL    HW2 9201   5.878   4.523   6.459
 2768SOL     OW 9202   6.025   1.314   6.792
 2768SOL    HW1 9203   5.926   1.312   6.807
 2768SOL    HW2 9204   6.054   1.409   6.774
 2769SOL     OW 9205   1.291   3.751   1.012
 2769SOL    HW1 9206   1.216   3.759   1.077
 2769SOL    HW2 9207   1.379   3.757   1.060
 2770SOL     OW 9208   6.841   5.632   1.213
 2770SOL    HW1 9209   6.848   5.595   1.120
 2770SOL    HW2 9210   6.923   5.608   1.265
 2771SOL     OW 9211   4.926   1.076   1.360
 2771SOL    HW1 9212   5.001   1.141   1.372
 2771SOL    HW2 9213   4.923   1.014   1.438
 2772SOL     OW 9214   3.388   2.647   5.967
 2772SOL    HW1 9215   3.361   2.743   5.961
 2772SOL    HW2 9216   3.442   2.633   6.050
 2773SOL     OW 9217   3.477   3.844   6.538
 2773SOL    HW1 9218   3.391   3.807   6.575
 2773SOL    HW2 9219   3.553   3.787   6.568
 2774SOL     OW 9220   5.683   3.644   2.551
 2774SOL    HW1 9221   5.653   3.736   2.575
 2774SOL    HW2 9222   5.614   3.602   2.492
 2775SOL     OW 9223   6.833   5.898   1.749
 2775SOL    HW1 9224   6.892   5.892   1.669
 2775SOL    HW2 9225   6.888   5.921   1.830
 2776SOL     OW 9226   2.950   5.916   5.976
 2776SOL    HW1 9227   2.892   5.933   5.897
 2776SOL    HW2 9228   3.001   5.831   5.962
 2777SOL     OW 9229   3.562   1.621   2.703
 2777SOL    HW1 9230   3.644   1.574   2.736
 2777SOL    HW2 9231   3.537   1.694   2.767
 2778SOL     OW 9232   2.271   1.836   5.445
 2778SOL    HW1 9233   2.294   1.850   5.541
 2778SOL    HW2 9234   2.172   1.829   5.434
 2779SOL     OW 9235   5.965   0.891   6.954
 2779SOL    HW1 9236   5.868   0.914   6.964
 2779SOL    HW2 9237   5.986   0.808   7.005
 2780SOL     OW 9238   5.139   5.211   6.851
 2780SOL    HW1 9239   5.129   5.310   6.863
 2780SOL    HW2 9240   5.191   5.173   6.927
 2781SOL     OW 9241   5.059   4.474   0.249
 2781SOL    HW1 9242   5.072   4.381   0.216
 2781SOL    HW2 9243   4.987   4.519   0.195
 2782SOL     OW 9244   3.037   2.451   6.371
 2782SOL    HW1 9245   3.109   2.441   6.302
 2782SOL    HW2 9246   2.950   2.469   6.325
 2783SOL     OW 9247   0.100   4.571   5.216
 2783SOL    HW1 9248   0.123   4.629   5.295
 2783SOL    HW2 9249   0.044   4.494   5.247
 2784SOL     OW 9250   2.297   1.809   2.105
 2784SOL    HW1 9251   2.353   1.859   2.171
 2784SOL    HW2 9252   2.245   1.874   2.049
 2785SOL     OW 9253   6.243   1.058   1.113
 2785SOL    HW1 9254   6.216   1.085   1.205
 2785SOL    HW2 9255   6.335   1.018   1.115
 2786SOL     OW 9256   3.937   0.023   1.364
 2786SOL    HW1 9257   3.916   6.946   1.392
 2786SOL    HW2 9258   3.884   0.046   1.282
 2787SOL     OW 9259   2.159   2.421   5.839
 2787SOL    HW1 9260   2.243   2.442   5.790
 2787SOL    HW2 9261   2.150   2.322   5.849
 2788SOL     OW 9262   1.117   3.820   0.602
 2788SOL    HW1 9263   1.120   3.721   0.593
 2788SOL    HW2 9264   1.110   3.862   0.511
 2789SOL     OW 9265   0.163   1.966   4.340
 2789SOL    HW1 9266   0.218   2.022   4.278
 2789SOL    HW2 9267   0.096   2.024   4.386
 2790SOL     OW 9268   3.688   5.494   3.337
 2790SOL    HW1 9269   3.613   5.548   3.299
 2790SOL    HW2 9270   3.689   5.505   3.437
 2791SOL     OW 9271   1.644   2.957   3.989
 2791SOL    HW1 9272   1.561   2.930   3.940
 2791SOL    HW2 9273   1.631   2.944   4.087
 2792SOL     OW 9274   0.911   2.288   5.492
 2792SOL    HW1 9275   0.904   2.281   5.393
 2792SOL    HW2 9276   0.965   2.212   5.527
 2793SOL     OW 9277   4.894   1.532   3.565
 2793SOL    HW1 9278   4.925   1.437   3.569
 2793SOL    HW2 9279   4.955   1.584   3.505
 2794SOL     OW 9280   0.955   0.669   1.197
 2794SOL    HW1 9281   1.008   0.708   1.121
 2794SOL    HW2 9282   0.891   0.601   1.161
 2795SOL     OW 9283   2.636   4.140   1.707
 2795SOL    HW1 9284   2.616   4.177   1.617
 2795SOL    HW2 9285   2.616   4.042   1.709
 2796SOL     OW 9286   5.448   4.169   2.632
 2796SOL    HW1 9287   5.430   4.081   2.588
 2796SOL    HW2 9288   5.533   4.164   2.683
 2797SOL     OW 9289   4.478   4.568   4.809
 2797SOL    HW1 9290   4.437   4.636   4.748
 2797SOL    HW2 9291   4.412   4.545   4.881
 2798SOL     OW 9292   1.326   3.755   4.125
 2798SOL    HW1 9293   1.365   3.704   4.202
 2798SOL    HW2 9294   1.308   3.849   4.153
 2799SOL     OW 9295   6.298   4.737   6.076
 2799SOL    HW1 9296   6.276   4.650   6.032
 2799SOL    HW2 9297   6.383   4.773   6.038
 2800SOL     OW 9298   3.032   3.731   6.837
 2800SOL    HW1 9299   3.009   3.759   6.930
 2800SOL    HW2 9300   3.017   3.633   6.827
 2801SOL     OW 9301   4.752   5.421   2.363
 2801SOL    HW1 9302   4.750   5.517   2.393
 2801SOL    HW2 9303   4.846   5.393   2.346
 2802SOL     OW 9304   4.729   0.868   6.053
 2802SOL    HW1 9305   4.683   0.892   6.139
 2802SOL    HW2 9306   4.801   0.800   6.071
 2803SOL     OW 9307   2.292   6.055   6.386
 2803SOL    HW1 9308   2.359   6.017   6.449
 2803SOL    HW2 9309   2.223   6.106   6.438
 2804SOL     OW 9310   6.929   4.463   3.299
 2804SOL    HW1 9311   6.870   4.416   3.234
 2804SOL    HW2 9312   6.889   4.458   3.390
 2805SOL     OW 9313   5.673   3.691   0.164
 2805SOL    HW1 9314   5.661   3.779   0.118
 2805SOL    HW2 9315   5.770   3.666   0.162
 2806SOL     OW 9316   6.399   6.053   3.779
 2806SOL    HW1 9317   6.466   5.985   3.750
 2806SOL    HW2 9318   6.311   6.034   3.735
 2807SOL     OW 9319   4.559   4.816   3.535
 2807SOL    HW1 9320   4.528   4.909   3.517
 2807SOL    HW2 9321   4.631   4.792   3.471
 2808SOL     OW 9322   4.965   0.316   4.215
 2808SOL    HW1 9323   4.956   0.295   4.118
 2808SOL    HW2 9324   5.059   0.299   4.244
 2809SOL     OW 9325   5.583   3.000   0.484
 2809SOL    HW1 9326   5.681   3.010   0.466
 2809SOL    HW2 9327   5.555   2.907   0.461
 2810SOL     OW 9328   1.754   0.246   5.355
 2810SOL    HW1 9329   1.758   0.322   5.289
 2810SOL    HW2 9330   1.845   0.207   5.366
 2811SOL     OW 9331   0.210   0.844   3.603
 2811SOL    HW1 9332   0.272   0.771   3.632
 2811SOL    HW2 9333   0.222   0.861   3.506
 2812SOL     OW 9334   4.936   3.828   2.451
 2812SOL    HW1 9335   4.983   3.769   2.385
 2812SOL    HW2 9336   4.936   3.784   2.541
 2813SOL     OW 9337   6.018   1.318   6.353
 2813SOL    HW1 9338   6.088   1.247   6.353
 2813SOL    HW2 9339   6.004   1.351   6.260
 2814SOL     OW 9340   4.961   4.072   5.075
 2814SOL    HW1 9341   4.980   4.092   5.171
 2814SOL    HW2 9342   4.934   4.156   5.028
 2815SOL     OW 9343   0.062   0.646   5.131
 2815SOL    HW1 9344   0.127   0.718   5.105
 2815SOL    HW2 9345   0.022   0.667   5.220
 2816SOL     OW 9346   5.649   0.039   3.151
 2816SOL    HW1 9347   5.575   0.059   3.215
 2816SOL    HW2 9348   5.725   7.013   3.201
 2817SOL     OW 9349   1.382   2.324   1.553
 2817SOL    HW1 9350   1.454   2.385   1.519
 2817SOL    HW2 9351   1.311   2.379   1.596
 2818SOL     OW 9352   0.076   4.760   4.975
 2818SOL    HW1 9353   0.049   4.687   5.038
 2818SOL    HW2 9354   0.068   4.848   5.022
 2819SOL     OW 9355   6.651   2.951   0.822
 2819SOL    HW1 9356   6.668   3.004   0.739
 2819SOL    HW2 9357   6.560   2.973   0.857
 2820SOL     OW 9358   6.572   3.207   4.994
 2820SOL    HW1 9359   6.603   3.134   4.933
 2820SOL    HW2 9360   6.643   3.278   4.999
 2821SOL     OW 9361   1.312   3.944   4.547
 2821SOL    HW1 9362   1.365   4.021   4.511
 2821SOL    HW2 9363   1.374   3.867   4.566
 2822SOL     OW 9364   3.985   1.603   0.188
 2822SOL    HW1 9365   3.953   1.697   0.194
 2822SOL    HW2 9366   4.085   1.601   0.192
 2823SOL     OW 9367   1.452   6.655   3.508
 2823SOL    HW1 9368   1.526   6.599   3.544
 2823SOL    HW2 9369   1.489   6.741   3.473
 2824SOL     OW 9370   3.360   1.569   4.514
 2824SOL    HW1 9371   3.404   1.657   4.494
 2824SOL    HW2 9372   3.269   1.568   4.472
 2825SOL     OW 9373   6.372   5.650   0.863
 2825SOL    HW1 9374   6.423   5.716   0.918
 2825SOL    HW2 9375   6.309   5.699   0.802
 2826SOL     OW 9376   4.971   2.268   4.524
 2826SOL    HW1 9377   4.972   2.171   4.548
 2826SOL    HW2 9378   5.055   2.290   4.475
 2827SOL     OW 9379   5.895   0.330   5.374
 2827SOL    HW1 9380   5.844   0.300   5.454
 2827SOL    HW2 9381   5.839   0.316   5.292
 2828SOL     OW 9382   3.624   1.563   5.522
 2828SOL    HW1 9383   3.548   1.592   5.464
 2828SOL    HW2 9384   3.589   1.522   5.606
 2829SOL     OW 9385   2.359   6.479   6.696
 2829SOL    HW1 9386   2.339   6.549   6.765
 2829SOL    HW2 9387   2.439   6.506   6.643
 2830SOL     OW 9388   3.542   3.676   6.911
 2830SOL    HW1 9389   3.604   3.628   6.973
 2830SOL    HW2 9390   3.522   3.767   6.948
 2831SOL     OW 9391   5.769   5.964   4.339
 2831SOL    HW1 9392   5.860   6.001   4.359
 2831SOL    HW2 9393   5.699   6.026   4.376
 2832SOL     OW 9394   0.048   0.964   1.874
 2832SOL    HW1 9395   0.033   1.021   1.793
 2832SOL    HW2 9396   0.096   0.880   1.847
 2833SOL     OW 9397   6.171   2.744   1.866
 2833SOL    HW1 9398   6.229   2.763   1.945
 2833SOL    HW2 9399   6.156   2.828   1.814
 2834SOL     OW 9400   3.556   1.033   5.354
 2834SOL    HW1 9401   3.457   1.029   5.338
 2834SOL    HW2 9402   3.603   1.060   5.270
 2835SOL     OW 9403   0.210   6.503   2.639
 2835SOL    HW1 9404   0.116   6.471   2.647
 2835SOL    HW2 9405   0.214   6.575   2.570
 2836SOL     OW 9406   6.825   0.943   1.155
 2836SOL    HW1 9407   6.924   0.937   1.146
 2836SOL    HW2 9408   6.799   1.034   1.187
 2837SOL     OW 9409   5.523   3.644   3.715
 2837SOL    HW1 9410   5.535   3.704   3.636
 2837SOL    HW2 9411   5.593   3.664   3.783
 2838SOL     OW 9412   3.363   5.330   2.897
 2838SOL    HW1 9413   3.323   5.290   2.980
 2838SOL    HW2 9414   3.428   5.402   2.923
 2839SOL     OW 9415   5.128   2.034   0.475
 2839SOL    HW1 9416   5.073   1.970   0.529
 2839SOL    HW2 9417   5.147   2.116   0.529
 2840SOL     OW 9418   6.831   1.590   5.252
 2840SOL    HW1 9419   6.920   1.637   5.251
 2840SOL    HW2 9420   6.759   1.657   5.270
 2841SOL     OW 9421   0.924   5.791   1.209
 2841SOL    HW1 9422   0.888   5.878   1.175
 2841SOL    HW2 9423   0.973   5.807   1.294
 2842SOL     OW 9424   6.326   2.991   3.150
 2842SOL    HW1 9425   6.344   2.943   3.236
 2842SOL    HW2 9426   6.330   2.926   3.074
 2843SOL     OW 9427   4.309   1.510   4.756
 2843SOL    HW1 9428   4.300   1.543   4.662
 2843SOL    HW2 9429   4.341   1.584   4.815
 2844SOL     OW 9430   6.843   4.311   6.011
 2844SOL    HW1 9431   6.782   4.323   6.090
 2844SOL    HW2 9432   6.919   4.252   6.037
 2845SOL     OW 9433   0.152   4.511   5.601
 2845SOL    HW1 9434   0.249   4.489   5.612
 2845SOL    HW2 9435   0.137   4.607   5.623
 2846SOL     OW 9436   4.626   1.809   6.672
 2846SOL    HW1 9437   4.675   1.725   6.646
 2846SOL    HW2 9438   4.691   1.876   6.707
 2847SOL     OW 9439   5.833   4.413   4.323
 2847SOL    HW1 9440   5.764   4.393   4.254
 2847SOL    HW2 9441   5.838   4.511   4.338
 2848SOL     OW 9442   0.635   5.384   4.336
 2848SOL    HW1 9443   0.668   5.290   4.330
 2848SOL    HW2 9444   0.535   5.384   4.326
 2849SOL     OW 9445   2.878   2.782   1.208
 2849SOL    HW1 9446   2.911   2.724   1.283
 2849SOL    HW2 9447   2.846   2.725   1.133
 2850SOL     OW 9448   3.802   1.162   6.909
 2850SOL    HW1 9449   3.810   1.087   6.976
 2850SOL    HW2 9450   3.830   1.248   6.952
 2851SOL     OW 9451   1.644   4.388   6.200
 2851SOL    HW1 9452   1.651   4.483   6.230
 2851SOL    HW2 9453   1.575   4.381   6.128
 2852SOL     OW 9454   0.154   3.337   6.580
 2852SOL    HW1 9455   0.168   3.421   6.527
 2852SOL    HW2 9456   0.232   3.276   6.566
 2853SOL     OW 9457   3.181   3.782   1.447
 2853SOL    HW1 9458   3.119   3.756   1.373
 2853SOL    HW2 9459   3.254   3.714   1.453
 2854SOL     OW 9460   2.298   1.974   3.921
 2854SOL    HW1 9461   2.366   1.948   3.989
 2854SOL    HW2 9462   2.208   1.942   3.949
 2855SOL     OW 9463   3.006   0.705   5.126
 2855SOL    HW1 9464   3.000   0.770   5.201
 2855SOL    HW2 9465   3.044   0.751   5.045
 2856SOL     OW 9466   2.382   2.683   5.194
 2856SOL    HW1 9467   2.371   2.773   5.151
 2856SOL    HW2 9468   2.459   2.687   5.258
 2857SOL     OW 9469   3.243   3.314   2.102
 2857SOL    HW1 9470   3.329   3.296   2.149
 2857SOL    HW2 9471   3.200   3.395   2.142
 2858SOL     OW 9472   6.640   3.417   2.822
 2858SOL    HW1 9473   6.672   3.336   2.772
 2858SOL    HW2 9474   6.662   3.407   2.919
 2859SOL     OW 9475   5.930   6.890   0.463
 2859SOL    HW1 9476   5.895   6.895   0.370
 2859SOL    HW2 9477   6.015   6.942   0.470
 2860SOL     OW 9478   4.541   1.396   1.796
 2860SOL    HW1 9479   4.617   1.364   1.853
 2860SOL    HW2 9480   4.563   1.380   1.700
 2861SOL     OW 9481   3.487   5.614   5.554
 2861SOL    HW1 9482   3.424   5.656   5.489
 2861SOL    HW2 9483   3.579   5.610   5.514
 2862SOL     OW 9484   5.692   1.482   4.305
 2862SOL    HW1 9485   5.683   1.581   4.310
 2862SOL    HW2 9486   5.771   1.459   4.248
 2863SOL     OW 9487   6.743   2.092   6.686
 2863SOL    HW1 9488   6.670   2.048   6.739
 2863SOL    HW2 9489   6.830   2.050   6.710
 2864SOL     OW 9490   3.517   1.638   0.013
 2864SOL    HW1 9491   3.559   1.557   6.988
 2864SOL    HW2 9492   3.448   1.609   0.079
 2865SOL     OW 9493   4.563   4.489   5.179
 2865SOL    HW1 9494   4.588   4.544   5.259
 2865SOL    HW2 9495   4.481   4.526   5.137
 2866SOL     OW 9496   0.381   6.881   6.901
 2866SOL    HW1 9497   0.359   6.793   6.859
 2866SOL    HW2 9498   0.300   6.920   6.943
 2867SOL     OW 9499   6.695   4.527   4.160
 2867SOL    HW1 9500   6.727   4.622   4.163
 2867SOL    HW2 9501   6.717   4.488   4.070
 2868SOL     OW 9502   1.715   4.231   5.676
 2868SOL    HW1 9503   1.794   4.192   5.630
 2868SOL    HW2 9504   1.631   4.190   5.640
 2869SOL     OW 9505   6.122   1.282   2.283
 2869SOL    HW1 9506   6.222   1.276   2.276
 2869SOL    HW2 9507   6.081   1.222   2.214
 2870SOL     OW 9508   5.241   2.034   2.172
 2870SOL    HW1 9509   5.292   1.968   2.227
 2870SOL    HW2 9510   5.165   2.070   2.225
 2871SOL     OW 9511   1.573   1.663   6.268
 2871SOL    HW1 9512   1.510   1.645   6.343
 2871SOL    HW2 9513   1.610   1.577   6.234
 2872SOL     OW 9514   2.735   6.977   3.781
 2872SOL    HW1 9515   2.802   0.025   3.745
 2872SOL    HW2 9516   2.643   7.015   3.771
 2873SOL     OW 9517   0.280   4.990   1.344
 2873SOL    HW1 9518   0.213   5.000   1.417
 2873SOL    HW2 9519   0.275   5.070   1.283
 2874SOL     OW 9520   5.481   2.700   2.447
 2874SOL    HW1 9521   5.575   2.668   2.456
 2874SOL    HW2 9522   5.480   2.788   2.400
 2875SOL     OW 9523   3.329   4.753   6.656
 2875SOL    HW1 9524   3.387   4.707   6.722
 2875SOL    HW2 9525   3.376   4.832   6.619
 2876SOL     OW 9526   0.166   1.377   1.759
 2876SOL    HW1 9527   0.257   1.340   1.777
 2876SOL    HW2 9528   0.164   1.416   1.667
 2877SOL     OW 9529   3.175   2.959   5.717
 2877SOL    HW1 9530   3.080   2.965   5.745
 2877SOL    HW2 9531   3.202   2.863   5.709
 2878SOL     OW 9532   2.949   4.769   6.346
 2878SOL    HW1 9533   2.937   4.867   6.358
 2878SOL    HW2 9534   2.892   4.720   6.412
 2879SOL     OW 9535   5.263   4.619   0.114
 2879SOL    HW1 9536   5.233   4.714   0.107
 2879SOL    HW2 9537   5.185   4.562   0.142
 2880SOL     OW 9538   1.310   6.125   1.296
 2880SOL    HW1 9539   1.407   6.145   1.284
 2880SOL    HW2 9540   1.300   6.042   1.352
 2881SOL     OW 9541   6.990   6.711   0.891
 2881SOL    HW1 9542   6.992   6.651   0.812
 2881SOL    HW2 9543   6.974   6.805   0.861
 2882SOL     OW 9544   0.089   2.936   3.580
 2882SOL    HW1 9545   0.183   2.941   3.612
 2882SOL    HW2 9546   0.035   2.882   3.645
 2883SOL     OW 9547   3.751   0.122   2.021
 2883SOL    HW1 9548   3.762   0.114   1.922
 2883SOL    HW2 9549   3.825   0.179   2.059
 2884SOL     OW 9550   0.912   6.313   3.002
 2884SOL    HW1 9551   0.906   6.407   2.967
 2884SOL    HW2 9552   0.832   6.294   3.059
 2885SOL     OW 9553   0.815   2.701   3.519
 2885SOL    HW1 9554   0.849   2.618   3.562
 2885SOL    HW2 9555   0.790   2.681   3.424
 2886SOL     OW 9556   2.563   1.972   6.087
 2886SOL    HW1 9557   2.654   1.977   6.128
 2886SOL    HW2 9558   2.567   1.917   6.004
 2887SOL     OW 9559   1.630   0.507   5.020
 2887SOL    HW1 9560   1.712   0.454   5.044
 2887SOL    HW2 9561   1.637   0.536   4.924
 2888SOL     OW 9562   5.890   5.046   6.959
 2888SOL    HW1 9563   5.891   5.079   0.037
 2888SOL    HW2 9564   5.803   5.069   6.916
 2889SOL     OW 9565   0.078   0.181   1.656
 2889SOL    HW1 9566   0.161   0.133   1.687
 2889SOL    HW2 9567   0.021   0.118   1.603
 2890SOL     OW 9568   3.974   0.203   1.581
 2890SOL    HW1 9569   4.050   0.260   1.550
 2890SOL    HW2 9570   3.944   0.144   1.505
 2891SOL     OW 9571   2.666   4.981   3.427
 2891SOL    HW1 9572   2.711   4.908   3.478
 2891SOL    HW2 9573   2.657   4.955   3.331
 2892SOL     OW 9574   4.809   3.886   6.106
 2892SOL    HW1 9575   4.884   3.821   6.122
 2892SOL    HW2 9576   4.722   3.838   6.115
 2893SOL     OW 9577   2.342   0.007   5.586
 2893SOL    HW1 9578   2.397   0.013   5.502
 2893SOL    HW2 9579   2.267   0.073   5.581
 2894SOL     OW 9580   3.815   2.871   0.418
 2894SOL    HW1 9581   3.885   2.835   0.357
 2894SOL    HW2 9582   3.855   2.895   0.506
 2895SOL     OW 9583   3.574   3.491   6.433
 2895SOL    HW1 9584   3.604   3.558   6.500
 2895SOL    HW2 9585   3.538   3.411   6.479
 2896SOL     OW 9586   2.795   4.884   1.246
 2896SOL    HW1 9587   2.772   4.955   1.179
 2896SOL    HW2 9588   2.894   4.870   1.246
 2897SOL     OW 9589   1.968   6.239   3.969
 2897SOL    HW1 9590   2.031   6.202   4.038
 2897SOL    HW2 9591   2.005   6.221   3.878
 2898SOL     OW 9592   3.247   5.329   2.032
 2898SOL    HW1 9593   3.231   5.259   1.962
 2898SOL    HW2 9594   3.314   5.394   1.998
 2899SOL     OW 9595   6.995   6.830   0.151
 2899SOL    HW1 9596   0.016   6.738   0.159
 2899SOL    HW2 9597   6.923   6.830   0.082
 2900SOL     OW 9598   2.096   5.335   5.039
 2900SOL    HW1 9599   2.163   5.326   5.114
 2900SOL    HW2 9600   2.078   5.432   5.023
 2901SOL     OW 9601   2.673   1.254   1.628
 2901SOL    HW1 9602   2.729   1.172   1.631
 2901SOL    HW2 9603   2.584   1.236   1.668
 2902SOL     OW 9604   5.720   5.929   1.663
 2902SOL    HW1 9605   5.781   6.007   1.667
 2902SOL    HW2 9606   5.743   5.871   1.585
 2903SOL     OW 9607   2.296   1.770   1.553
 2903SOL    HW1 9608   2.377   1.742   1.604
 2903SOL    HW2 9609   2.304   1.866   1.527
 2904SOL     OW 9610   1.682   2.941   4.904
 2904SOL    HW1 9611   1.658   2.930   5.000
 2904SOL    HW2 9612   1.736   2.862   4.874
 2905SOL     OW 9613   1.882   2.411   2.053
 2905SOL    HW1 9614   1.838   2.469   1.984
 2905SOL    HW2 9615   1.813   2.372   2.114
 2906SOL     OW 9616   5.596   5.581   2.256
 2906SOL    HW1 9617   5.552   5.646   2.317
 2906SOL    HW2 9618   5.684   5.554   2.294
 2907SOL     OW 9619   6.473   1.281   4.072
 2907SOL    HW1 9620   6.492   1.183   4.078
 2907SOL    HW2 9621   6.409   1.297   3.996
 2908SOL     OW 9622   3.320   6.172   4.585
 2908SOL    HW1 9623   3.318   6.074   4.566
 2908SOL    HW2 9624   3.232   6.200   4.623
 2909SOL     OW 9625   1.543   5.931   4.845
 2909SOL    HW1 9626   1.600   6.004   4.881
 2909SOL    HW2 9627   1.558   5.922   4.746
 2910SOL     OW 9628   5.967   5.941   6.564
 2910SOL    HW1 9629   5.930   5.899   6.646
 2910SOL    HW2 9630   6.052   5.988   6.587
 2911SOL     OW 9631   2.014   4.186   3.351
 2911SOL    HW1 9632   1.945   4.128   3.308
 2911SOL    HW2 9633   2.105   4.150   3.333
 2912SOL     OW 9634   2.842   6.085   0.754
 2912SOL    HW1 9635   2.801   6.100   0.844
 2912SOL    HW2 9636   2.785   6.023   0.701
 2913SOL     OW 9637   1.202   3.740   3.055
 2913SOL    HW1 9638   1.250   3.698   3.133
 2913SOL    HW2 9639   1.263   3.741   2.976
 2914SOL     OW 9640   5.923   5.524   6.070
 2914SOL    HW1 9641   5.998   5.466   6.102
 2914SOL    HW2 9642   5.846   5.516   6.134
 2915SOL     OW 9643   4.738   1.450   3.982
 2915SOL    HW1 9644   4.709   1.403   3.898
 2915SOL    HW2 9645   4.822   1.500   3.964
 2916SOL     OW 9646   5.625   5.860   4.768
 2916SOL    HW1 9647   5.676   5.848   4.682
 2916SOL    HW2 9648   5.675   5.817   4.843
 2917SOL     OW 9649   4.561   0.388   2.473
 2917SOL    HW1 9650   4.605   0.444   2.542
 2917SOL    HW2 9651   4.504   0.447   2.414
 2918SOL     OW 9652   0.306   4.234   3.574
 2918SOL    HW1 9653   0.256   4.255   3.490
 2918SOL    HW2 9654   0.254   4.267   3.653
 2919SOL     OW 9655   6.371   5.937   0.251
 2919SOL    HW1 9656   6.354   5.952   0.348
 2919SOL    HW2 9657   6.296   5.884   0.212
 2920SOL     OW 9658   4.189   2.288   3.294
 2920SOL    HW1 9659   4.205   2.330   3.383
 2920SOL    HW2 9660   4.119   2.217   3.302
 2921SOL     OW 9661   0.320   0.122   2.015
 2921SOL    HW1 9662   0.298   0.169   2.100
 2921SOL    HW2 9663   0.409   0.078   2.023
 2922SOL     OW 9664   4.451   6.227   5.380
 2922SOL    HW1 9665   4.367   6.215   5.432
 2922SOL    HW2 9666   4.451   6.165   5.302
 2923SOL     OW 9667   6.233   4.942   2.138
 2923SOL    HW1 9668   6.169   4.874   2.172
 2923SOL    HW2 9669   6.219   4.956   2.040
 2924SOL     OW 9670   6.796   0.945   5.230
 2924SOL    HW1 9671   6.834   0.985   5.147
 2924SOL    HW2 9672   6.863   0.884   5.272
 2925SOL     OW 9673   5.318   3.827   1.264
 2925SOL    HW1 9674   5.240   3.838   1.202
 2925SOL    HW2 9675   5.333   3.912   1.314
 2926SOL     OW 9676   0.440   1.258   4.672
 2926SOL    HW1 9677   0.447   1.216   4.762
 2926SOL    HW2 9678   0.483   1.199   4.604
 2927SOL     OW 9679   0.691   2.530   2.832
 2927SOL    HW1 9680   0.614   2.551   2.892
 2927SOL    HW2 9681   0.736   2.446   2.862
 2928SOL     OW 9682   6.367   6.501   0.908
 2928SOL    HW1 9683   6.466   6.512   0.913
 2928SOL    HW2 9684   6.332   6.557   0.833
 2929SOL     OW 9685   0.795   0.106   6.095
 2929SOL    HW1 9686   0.749   0.173   6.153
 2929SOL    HW2 9687   0.877   0.073   6.141
 2930SOL     OW 9688   3.589   6.544   4.623
 2930SOL    HW1 9689   3.600   6.450   4.655
 2930SOL    HW2 9690   3.520   6.591   4.678
 2931SOL     OW 9691   4.485   6.407   5.630
 2931SOL    HW1 9692   4.529   6.339   5.572
 2931SOL    HW2 9693   4.553   6.476   5.658
 2932SOL     OW 9694   1.173   4.324   1.449
 2932SOL    HW1 9695   1.216   4.413   1.465
 2932SOL    HW2 9696   1.153   4.313   1.352
 2933SOL     OW 9697   5.061   1.884   3.157
 2933SOL    HW1 9698   5.042   1.975   3.195
 2933SOL    HW2 9699   5.155   1.880   3.125
 2934SOL     OW 9700   2.577   0.680   0.090
 2934SOL    HW1 9701   2.539   0.619   0.021
 2934SOL    HW2 9702   2.511   0.690   0.165
 2935SOL     OW 9703   6.103   2.341   1.194
 2935SOL    HW1 9704   6.165   2.265   1.174
 2935SOL    HW2 9705   6.101   2.403   1.115
 2936SOL     OW 9706   4.703   5.830   0.591
 2936SOL    HW1 9707   4.622   5.802   0.538
 2936SOL    HW2 9708   4.723   5.760   0.660
 2937SOL     OW 9709   3.634   4.747   6.978
 2937SOL    HW1 9710   3.589   4.765   0.049
 2937SOL    HW2 9711   3.575   4.690   6.922
 2938SOL     OW 9712   4.655   5.475   5.499
 2938SOL    HW1 9713   4.742   5.439   5.466
 2938SOL    HW2 9714   4.669   5.567   5.537
 2939SOL     OW 9715   0.585   6.626   5.445
 2939SOL    HW1 9716   0.678   6.642   5.411
 2939SOL    HW2 9717   0.573   6.528   5.462
 2940SOL     OW 9718   4.789   6.946   5.067
 2940SOL    HW1 9719   4.768   6.961   4.971
 2940SOL    HW2 9720   4.730   6.874   5.104
 2941SOL     OW 9721   2.132   2.082   5.549
 2941SOL    HW1 9722   2.119   1.990   5.585
 2941SOL    HW2 9723   2.048   2.135   5.560
 2942SOL     OW 9724   3.409   6.411   2.987
 2942SOL    HW1 9725   3.431   6.323   2.946
 2942SOL    HW2 9726   3.313   6.434   2.969
 2943SOL     OW 9727   5.905   3.814   3.639
 2943SOL    HW1 9728   5.863   3.749   3.576
 2943SOL    HW2 9729   5.833   3.869   3.683
 2944SOL     OW 9730   4.238   5.806   5.887
 2944SOL    HW1 9731   4.257   5.708   5.879
 2944SOL    HW2 9732   4.150   5.819   5.932
 2945SOL     OW 9733   2.897   3.611   3.214
 2945SOL    HW1 9734   2.913   3.694   3.267
 2945SOL    HW2 9735   2.933   3.532   3.265
 2946SOL     OW 9736   0.088   6.178   6.909
 2946SOL    HW1 9737   0.031   6.256   6.885
 2946SOL    HW2 9738   0.032   6.095   6.908
 2947SOL     OW 9739   6.419   4.399   0.283
 2947SOL    HW1 9740   6.437   4.491   0.318
 2947SOL    HW2 9741   6.321   4.380   0.288
 2948SOL     OW 9742   5.940   4.230   4.509
 2948SOL    HW1 9743   5.894   4.271   4.587
 2948SOL    HW2 9744   5.942   4.295   4.433
 2949SOL     OW 9745   1.328   0.156   0.610
 2949SOL    HW1 9746   1.363   0.234   0.660
 2949SOL    HW2 9747   1.365   0.156   0.517
 2950SOL     OW 9748   4.859   3.399   4.255
 2950SOL    HW1 9749   4.873   3.484   4.307
 2950SOL    HW2 9750   4.868   3.321   4.316
 2951SOL     OW 9751   0.401   2.077   1.371
 2951SOL    HW1 9752   0.310   2.074   1.411
 2951SOL    HW2 9753   0.427   2.172   1.354
 2952SOL     OW 9754   1.812   3.961   2.119
 2952SOL    HW1 9755   1.741   3.991   2.182
 2952SOL    HW2 9756   1.802   4.008   2.032
 2953SOL     OW 9757   4.490   1.767   2.038
 2953SOL    HW1 9758   4.423   1.803   2.102
 2953SOL    HW2 9759   4.531   1.842   1.986
 2954SOL     OW 9760   6.297   6.163   2.151
 2954SOL    HW1 9761   6.370   6.098   2.171
 2954SOL    HW2 9762   6.308   6.244   2.210
 2955SOL     OW 9763   0.429   3.066   0.532
 2955SOL    HW1 9764   0.354   3.073   0.597
 2955SOL    HW2 9765   0.463   3.158   0.510
 2956SOL     OW 9766   6.713   5.618   2.209
 2956SOL    HW1 9767   6.746   5.633   2.116
 2956SOL    HW2 9768   6.742   5.527   2.240
 2957SOL     OW 9769   0.880   3.610   2.016
 2957SOL    HW1 9770   0.828   3.527   1.996
 2957SOL    HW2 9771   0.936   3.634   1.936
 2958SOL     OW 9772   1.952   4.596   6.246
 2958SOL    HW1 9773   1.931   4.601   6.343
 2958SOL    HW2 9774   1.916   4.676   6.199
 2959SOL     OW 9775   4.028   5.306   6.691
 2959SOL    HW1 9776   4.002   5.357   6.773
 2959SOL    HW2 9777   4.012   5.364   6.610
 2960SOL     OW 9778   1.904   1.864   0.294
 2960SOL    HW1 9779   1.994   1.888   0.257
 2960SOL    HW2 9780   1.893   1.903   0.385
 2961SOL     OW 9781   5.593   3.498   4.095
 2961SOL    HW1 9782   5.664   3.545   4.044
 2961SOL    HW2 9783   5.504   3.516   4.053
 2962SOL     OW 9784   4.533   0.902   3.558
 2962SOL    HW1 9785   4.589   0.930   3.480
 2962SOL    HW2 9786   4.577   0.930   3.643
 2963SOL     OW 9787   2.277   2.382   4.683
 2963SOL    HW1 9788   2.304   2.363   4.588
 2963SOL    HW2 9789   2.347   2.439   4.726
 2964SOL     OW 9790   3.504   6.212   0.734
 2964SOL    HW1 9791   3.424   6.264   0.705
 2964SOL    HW2 9792   3.475   6.138   0.795
 2965SOL     OW 9793   0.222   1.918   6.429
 2965SOL    HW1 9794   0.243   2.006   6.387
 2965SOL    HW2 9795   0.306   1.863   6.435
 2966SOL     OW 9796   4.426   4.493   3.805
 2966SOL    HW1 9797   4.446   4.492   3.903
 2966SOL    HW2 9798   4.391   4.403   3.778
 2967SOL     OW 9799   6.178   2.869   4.229
 2967SOL    HW1 9800   6.091   2.917   4.244
 2967SOL    HW2 9801   6.160   2.782   4.183
 2968SOL     OW 9802   0.275   4.253   3.299
 2968SOL    HW1 9803   0.281   4.159   3.265
 2968SOL    HW2 9804   0.204   4.302   3.249
 2969SOL     OW 9805   4.923   1.833   4.686
 2969SOL    HW1 9806   4.892   1.891   4.761
 2969SOL    HW2 9807   5.022   1.818   4.694
 2970SOL     OW 9808   0.916   4.277   6.035
 2970SOL    HW1 9809   0.876   4.231   6.114
 2970SOL    HW2 9810   0.882   4.235   5.951
 2971SOL     OW 9811   5.310   2.623   2.637
 2971SOL    HW1 9812   5.381   2.663   2.579
 2971SOL    HW2 9813   5.341   2.534   2.671
 2972SOL     OW 9814   6.810   3.678   5.268
 2972SOL    HW1 9815   6.802   3.739   5.346
 2972SOL    HW2 9816   6.719   3.657   5.233
 2973SOL     OW 9817   5.236   6.487   4.082
 2973SOL    HW1 9818   5.172   6.555   4.046
 2973SOL    HW2 9819   5.184   6.411   4.121
 2974SOL     OW 9820   0.142   3.941   2.304
 2974SOL    HW1 9821   0.125   3.859   2.248
 2974SOL    HW2 9822   0.216   3.994   2.263
 2975SOL     OW 9823   0.079   1.012   5.387
 2975SOL    HW1 9824   0.137   1.087   5.353
 2975SOL    HW2 9825   0.002   1.050   5.438
 2976SOL     OW 9826   3.284   0.480   2.125
 2976SOL    HW1 9827   3.375   0.489   2.085
 2976SOL    HW2 9828   3.239   0.400   2.087
 2977SOL     OW 9829   3.284   6.201   4.208
 2977SOL    HW1 9830   3.364   6.213   4.266
 2977SOL    HW2 9831   3.272   6.282   4.151
 2978SOL     OW 9832   4.697   5.257   6.879
 2978SOL    HW1 9833   4.750   5.340   6.899
 2978SOL    HW2 9834   4.759   5.183   6.855
 2979SOL     OW 9835   3.374   0.926   3.131
 2979SOL    HW1 9836   3.309   0.888   3.198
 2979SOL    HW2 9837   3.460   0.947   3.177
 2980SOL     OW 9838   0.555   6.009   4.376
 2980SOL    HW1 9839   0.626   5.955   4.330
 2980SOL    HW2 9840   0.488   6.039   4.308
 2981SOL     OW 9841   2.887   0.696   5.921
 2981SOL    HW1 9842   2.919   0.789   5.903
 2981SOL    HW2 9843   2.827   0.667   5.847
 2982SOL     OW 9844   5.092   6.522   2.374
 2982SOL    HW1 9845   5.000   6.509   2.337
 2982SOL    HW2 9846   5.093   6.602   2.434
 2983SOL     OW 9847   6.841   0.571   3.661
 2983SOL    HW1 9848   6.869   0.663   3.634
 2983SOL    HW2 9849   6.825   0.516   3.579
 2984SOL     OW 9850   5.225   5.674   1.830
 2984SOL    HW1 9851   5.196   5.766   1.802
 2984SOL    HW2 9852   5.324   5.675   1.845
 2985SOL     OW 9853   6.015   2.649   2.770
 2985SOL    HW1 9854   5.925   2.692   2.764
 2985SOL    HW2 9855   6.055   2.643   2.679
 2986SOL     OW 9856   2.078   3.844   5.332
 2986SOL    HW1 9857   2.036   3.818   5.246
 2986SOL    HW2 9858   2.008   3.875   5.396
 2987SOL     OW 9859   4.349   2.431   4.517
 2987SOL    HW1 9860   4.271   2.385   4.475
 2987SOL    HW2 9861   4.365   2.518   4.472
 2988SOL     OW 9862   0.738   0.596   1.868
 2988SOL    HW1 9863   0.661   0.655   1.892
 2988SOL    HW2 9864   0.704   0.512   1.826
 2989SOL     OW 9865   6.596   5.055   1.381
 2989SOL    HW1 9866   6.654   5.083   1.458
 2989SOL    HW2 9867   6.653   5.012   1.311
 2990SOL     OW 9868   3.974   1.085   1.687
 2990SOL    HW1 9869   3.890   1.077   1.632
 2990SOL    HW2 9870   3.953   1.131   1.773
 2991SOL     OW 9871   6.646   3.721   0.165
 2991SOL    HW1 9872   6.560   3.743   0.213
 2991SOL    HW2 9873   6.715   3.789   0.188
 2992SOL     OW 9874   3.559   4.906   6.512
 2992SOL    HW1 9875   3.575   4.810   6.489
 2992SOL    HW2 9876   3.642   4.945   6.551
 2993SOL     OW 9877   1.625   5.363   0.994
 2993SOL    HW1 9878   1.541   5.373   1.046
 2993SOL    HW2 9879   1.609   5.386   0.899
 2994SOL     OW 9880   4.594   6.564   7.008
 2994SOL    HW1 9881   4.666   6.594   0.054
 2994SOL    HW2 9882   4.627   6.570   6.914
 2995SOL     OW 9883   2.321   1.401   6.251
 2995SOL    HW1 9884   2.246   1.337   6.269
 2995SOL    HW2 9885   2.323   1.423   6.154
 2996SOL     OW 9886   3.869   5.125   5.990
 2996SOL    HW1 9887   3.863   5.041   5.936
 2996SOL    HW2 9888   3.965   5.145   6.008
 2997SOL     OW 9889   5.343   6.343   0.593
 2997SOL    HW1 9890   5.398   6.335   0.676
 2997SOL    HW2 9891   5.341   6.254   0.546
 2998SOL     OW 9892   6.568   5.833   5.288
 2998SOL    HW1 9893   6.523   5.793   5.207
 2998SOL    HW2 9894   6.622   5.762   5.334
 2999SOL     OW 9895   3.071   0.029   3.155
 2999SOL    HW1 9896   3.138   6.976   3.180
 2999SOL    HW2 9897   3.026   0.004   3.069
 3000SOL     OW 9898   1.090   2.985   5.223
 3000SOL    HW1 9899   1.133   3.074   5.243
 3000SOL    HW2 9900   1.055   2.986   5.130
 3001SOL     OW 9901   4.963   6.995   5.961
 3001SOL    HW1 9902   4.962   6.897   5.946
 3001SOL    HW2 9903   4.871   0.009   5.987
 3002SOL     OW 9904   3.932   0.435   5.823
 3002SOL    HW1 9905   4.016   0.478   5.855
 3002SOL    HW2 9906   3.951   0.340   5.797
 3003SOL     OW 9907   2.652   6.781   5.990
 3003SOL    HW1 9908   2.639   6.805   5.893
 3003SOL    HW2 9909   2.709   6.850   6.034
 3004SOL     OW 9910   5.736   2.835   4.537
 3004SOL    HW1 9911   5.791   2.765   4.583
 3004SOL    HW2 9912   5.654   2.854   4.591
 3005SOL     OW 9913   4.366   2.480   1.166
 3005SOL    HW1 9914   4.431   2.405   1.153
 3005SOL    HW2 9915   4.313   2.493   1.082
 3006SOL     OW 9916   5.708   0.857   1.599
 3006SOL    HW1 9917   5.746   0.949   1.589
 3006SOL    HW2 9918   5.717   0.808   1.513
 3007SOL     OW 9919   6.218   5.072   2.988
 3007SOL    HW1 9920   6.257   5.164   2.977
 3007SOL    HW2 9921   6.192   5.058   3.084
 3008SOL     OW 9922   3.088   6.180   5.992
 3008SOL    HW1 9923   3.187   6.179   5.981
 3008SOL    HW2 9924   3.053   6.087   5.994
 3009SOL     OW 9925   1.601   0.430   2.820
 3009SOL    HW1 9926   1.627   0.351   2.875
 3009SOL    HW2 9927   1.515   0.468   2.854
 3010SOL     OW 9928   3.485   6.347   2.441
 3010SOL    HW1 9929   3.482   6.401   2.357
 3010SOL    HW2 9930   3.489   6.249   2.418
 3011SOL     OW 9931   5.380   0.152   0.040
 3011SOL    HW1 9932   5.331   0.128   6.973
 3011SOL    HW2 9933   5.326   0.219   0.092
 3012SOL     OW 9934   0.008   3.693   3.130
 3012SOL    HW1 9935   6.958   3.732   3.067
 3012SOL    HW2 9936   0.089   3.750   3.132
 3013SOL     OW 9937   6.033   5.070   2.432
 3013SOL    HW1 9938   5.940   5.037   2.413
 3013SOL    HW2 9939   6.039   5.097   2.528
 3014SOL     OW 9940   4.631   0.815   4.701
 3014SOL    HW1 9941   4.689   0.864   4.637
 3014SOL    HW2 9942   4.642   0.855   4.793
 3015SOL     OW 9943   3.083   1.876   0.638
 3015SOL    HW1 9944   3.090   1.892   0.736
 3015SOL    HW2 9945   2.997   1.828   0.618
 3016SOL     OW 9946   3.977   6.596   3.426
 3016SOL    HW1 9947   4.028   6.524   3.473
 3016SOL    HW2 9948   3.879   6.579   3.436
 3017SOL     OW 9949   0.424   5.625   1.074
 3017SOL    HW1 9950   0.507   5.644   1.127
 3017SOL    HW2 9951   0.346   5.668   1.119
 3018SOL     OW 9952   3.998   6.164   6.910
 3018SOL    HW1 9953   3.957   6.080   6.874
 3018SOL    HW2 9954   4.044   6.144   6.997
 3019SOL     OW 9955   4.058   7.002   1.704
 3019SOL    HW1 9956   4.145   6.984   1.658
 3019SOL    HW2 9957   4.021   0.073   1.671
 3020SOL     OW 9958   1.677   2.523   0.993
 3020SOL    HW1 9959   1.620   2.443   1.008
 3020SOL    HW2 9960   1.773   2.500   1.012
 3021SOL     OW 9961   2.160   1.850   6.632
 3021SOL    HW1 9962   2.085   1.818   6.574
 3021SOL    HW2 9963   2.246   1.812   6.600
 3022SOL     OW 9964   4.874   0.002   3.297
 3022SOL    HW1 9965   4.824   6.990   3.379
 3022SOL    HW2 9966   4.875   6.944   3.230
 3023SOL     OW 9967   4.552   6.340   2.250
 3023SOL    HW1 9968   4.593   6.272   2.311
 3023SOL    HW2 9969   4.496   6.403   2.303
 3024SOL     OW 9970   3.442   6.659   6.534
 3024SOL    HW1 9971   3.362   6.600   6.542
 3024SOL    HW2 9972   3.494   6.655   6.619
 3025SOL     OW 9973   2.161   2.141   1.342
 3025SOL    HW1 9974   2.221   2.198   1.398
 3025SOL    HW2 9975   2.204   2.122   1.254
 3026SOL     OW 9976   2.004   4.135   0.866
 3026SOL    HW1 9977   2.037   4.065   0.802
 3026SOL    HW2 9978   2.059   4.131   0.949
 3027SOL     OW 9979   1.224   1.824   3.520
 3027SOL    HW1 9980   1.124   1.816   3.516
 3027SOL    HW2 9981   1.264   1.775   3.443
 3028SOL     OW 9982   1.178   6.614   5.330
 3028SOL    HW1 9983   1.151   6.704   5.363
 3028SOL    HW2 9984   1.206   6.558   5.408
 3029SOL     OW 9985   5.333   5.720   5.497
 3029SOL    HW1 9986   5.348   5.741   5.401
 3029SOL    HW2 9987   5.398   5.772   5.553
 3030SOL     OW 9988   1.793   2.132   5.290
 3030SOL    HW1 9989   1.796   2.104   5.386
 3030SOL    HW2 9990   1.719   2.198   5.277
 3031SOL     OW 9991   0.147   4.898   6.481
 3031SOL    HW1 9992   0.163   4.932   6.388
 3031SOL    HW2 9993   0.235   4.878   6.524
 3032SOL     OW 9994   4.896   0.217   5.596
 3032SOL    HW1 9995   4.967   0.153   5.626
 3032SOL    HW2 9996   4.905   0.303   5.646
 3033SOL     OW 9997   6.366   3.310   6.690
 3033SOL    HW1 9998   6.412   3.356   6.614
 3033SOL    HW2 9999   6.312   3.234   6.655
 3034SOL     OW10000   2.294   6.951   4.693
 3034SOL    HW110001   2.328   6.973   4.602
 3034SOL    HW210002   2.243   6.865   4.690
 3035SOL     OW10003   5.969   0.583   7.011
 3035SOL    HW110004   5.884   0.559   0.041
 3035SOL    HW210005   6.043   0.588   0.061
 3036SOL     OW10006   1.114   4.359   6.745
 3036SOL    HW110007   1.082   4.396   6.832
 3036SOL    HW210008   1.086   4.264   6.737
 3037SOL     OW10009   6.733   6.527   5.435
 3037SOL    HW110010   6.827   6.556   5.422
 3037SOL    HW210011   6.704   6.471   5.358
 3038SOL     OW10012   5.792   6.499   6.023
 3038SOL    HW110013   5.734   6.560   5.969
 3038SOL    HW210014   5.816   6.545   6.109
 3039SOL     OW10015   1.438   5.002   1.230
 3039SOL    HW110016   1.348   5.014   1.188
 3039SOL    HW210017   1.428   4.949   1.315
 3040SOL     OW10018   2.822   3.302   6.656
 3040SOL    HW110019   2.829   3.324   6.559
 3040SOL    HW210020   2.860   3.211   6.673
 3041SOL     OW10021   1.915   2.091   5.956
 3041SOL    HW110022   1.967   2.102   6.041
 3041SOL    HW210023   1.903   2.180   5.913
 3042SOL     OW10024   4.591   0.464   1.762
 3042SOL    HW110025   4.588   0.423   1.853
 3042SOL    HW210026   4.526   0.540   1.758
 3043SOL     OW10027   0.318   5.394   0.278
 3043SOL    HW110028   0.348   5.377   0.371
 3043SOL    HW210029   0.221   5.370   0.270
 3044SOL     OW10030   3.115   4.396   6.352
 3044SOL    HW110031   3.124   4.457   6.431
 3044SOL    HW210032   3.020   4.365   6.345
 3045SOL     OW10033   5.333   2.668   3.160
 3045SOL    HW110034   5.367   2.641   3.069
 3045SOL    HW210035   5.303   2.586   3.209
 3046SOL     OW10036   2.112   3.175   5.535
 3046SOL    HW110037   2.080   3.080   5.534
 3046SOL    HW210038   2.060   3.229   5.469
 3047SOL     OW10039   6.249   5.171   2.294
 3047SOL    HW110040   6.161   5.189   2.339
 3047SOL    HW210041   6.240   5.091   2.234
 3048SOL     OW10042   3.304   2.910   1.743
 3048SOL    HW110043   3.345   2.980   1.685
 3048SOL    HW210044   3.333   2.924   1.838
 3049SOL     OW10045   0.380   0.481   2.191
 3049SOL    HW110046   0.344   0.401   2.239
 3049SOL    HW210047   0.326   0.561   2.214
 3050SOL     OW10048   4.575   6.216   3.995
 3050SOL    HW110049   4.489   6.264   3.981
 3050SOL    HW210050   4.576   6.174   4.086
 3051SOL     OW10051   2.416   4.568   6.672
 3051SOL    HW110052   2.470   4.628   6.614
 3051SOL    HW210053   2.326   4.610   6.690
 3052SOL     OW10054   4.201   6.878   2.979
 3052SOL    HW110055   4.130   6.844   2.918
 3052SOL    HW210056   4.229   6.970   2.950
 3053SOL     OW10057   5.254   6.322   0.259
 3053SOL    HW110058   5.277   6.267   0.339
 3053SOL    HW210059   5.294   6.280   0.177
 3054SOL     OW10060   1.242   3.342   6.566
 3054SOL    HW110061   1.319   3.282   6.545
 3054SOL    HW210062   1.179   3.344   6.489
 3055SOL     OW10063   5.835   6.955   3.312
 3055SOL    HW110064   5.865   7.013   3.388
 3055SOL    HW210065   5.857   6.860   3.331
 3056SOL     OW10066   0.132   0.660   0.761
 3056SOL    HW110067   0.139   0.759   0.744
 3056SOL    HW210068   0.046   0.641   0.808
 3057SOL     OW10069   6.036   5.211   2.657
 3057SOL    HW110070   5.967   5.160   2.708
 3057SOL    HW210071   6.001   5.303   2.638
 3058SOL     OW10072   6.583   5.237   1.655
 3058SOL    HW110073   6.553   5.321   1.611
 3058SOL    HW210074   6.506   5.192   1.700
 3059SOL     OW10075   1.587   2.441   4.549
 3059SOL    HW110076   1.668   2.478   4.505
 3059SOL    HW210077   1.505   2.481   4.508
 3060SOL     OW10078   6.551   6.614   1.151
 3060SOL    HW110079   6.462   6.572   1.129
 3060SOL    HW210080   6.566   6.609   1.250
 3061SOL     OW10081   0.188   0.430   6.593
 3061SOL    HW110082   0.217   0.372   6.669
 3061SOL    HW210083   0.099   0.399   6.560
 3062SOL     OW10084   3.517   6.672   0.256
 3062SOL    HW110085   3.603   6.622   0.270
 3062SOL    HW210086   3.537   6.761   0.215
 3063SOL     OW10087   1.843   4.499   1.273
 3063SOL    HW110088   1.879   4.549   1.352
 3063SOL    HW210089   1.879   4.540   1.189
 3064SOL     OW10090   6.114   4.001   3.669
 3064SOL    HW110091   6.026   3.968   3.632
 3064SOL    HW210092   6.189   3.964   3.614
 3065SOL     OW10093   1.716   0.973   6.962
 3065SOL    HW110094   1.794   1.036   6.959
 3065SOL    HW210095   1.635   1.018   6.923
 3066SOL     OW10096   5.857   4.896   1.636
 3066SOL    HW110097   5.811   4.961   1.696
 3066SOL    HW210098   5.808   4.809   1.637
 3067SOL     OW10099   5.297   0.018   4.289
 3067SOL    HW110100   5.289   0.116   4.271
 3067SOL    HW210101   5.381   7.000   4.248
 3068SOL     OW10102   5.999   4.939   0.446
 3068SOL    HW110103   6.079   4.917   0.502
 3068SOL    HW210104   6.011   5.030   0.405
 3069SOL     OW10105   0.806   6.145   2.728
 3069SOL    HW110106   0.807   6.233   2.681
 3069SOL    HW210107   0.797   6.160   2.826
 3070SOL     OW10108   4.116   1.501   4.076
 3070SOL    HW110109   4.050   1.566   4.038
 3070SOL    HW210110   4.178   1.471   4.003
 3071SOL     OW10111   5.450   6.832   3.326
 3071SOL    HW110112   5.387   6.901   3.290
 3071SOL    HW210113   5.412   6.741   3.312
 3072SOL     OW10114   0.438   0.082   2.396
 3072SOL    HW110115   0.424   0.063   2.493
 3072SOL    HW210116   0.528   0.124   2.383
 3073SOL     OW10117   0.980   3.388   5.114
 3073SOL    HW110118   0.902   3.448   5.098
 3073SOL    HW210119   1.030   3.375   5.028
 3074SOL     OW10120   4.572   3.028   5.941
 3074SOL    HW110121   4.641   3.029   5.868
 3074SOL    HW210122   4.484   3.000   5.903
 3075SOL     OW10123   1.870   5.843   1.570
 3075SOL    HW110124   1.898   5.747   1.560
 3075SOL    HW210125   1.791   5.860   1.511
 3076SOL     OW10126   0.067   0.415   4.845
 3076SOL    HW110127   7.016   0.422   4.918
 3076SOL    HW210128   0.057   0.493   4.783
 3077SOL     OW10129   5.205   4.729   3.933
 3077SOL    HW110130   5.142   4.803   3.956
 3077SOL    HW210131   5.279   4.765   3.875
 3078SOL     OW10132   1.579   3.629   1.677
 3078SOL    HW110133   1.648   3.661   1.743
 3078SOL    HW210134   1.506   3.697   1.670
 3079SOL     OW10135   0.022   2.140   5.219
 3079SOL    HW110136   0.049   2.231   5.249
 3079SOL    HW210137   0.088   2.073   5.253
 3080SOL     OW10138   6.476   5.113   0.714
 3080SOL    HW110139   6.561   5.094   0.763
 3080SOL    HW210140   6.422   5.178   0.767
 3081SOL     OW10141   0.378   5.314   5.591
 3081SOL    HW110142   0.441   5.390   5.581
 3081SOL    HW210143   0.319   5.329   5.670
 3082SOL     OW10144   2.997   0.175   2.703
 3082SOL    HW110145   2.992   0.221   2.792
 3082SOL    HW210146   3.054   0.228   2.641
 3083SOL     OW10147   3.317   0.563   1.760
 3083SOL    HW110148   3.303   0.484   1.819
 3083SOL    HW210149   3.397   0.615   1.792
 3084SOL     OW10150   5.293   5.869   4.561
 3084SOL    HW110151   5.257   5.842   4.650
 3084SOL    HW210152   5.345   5.954   4.570
 3085SOL     OW10153   0.715   5.416   2.126
 3085SOL    HW110154   0.749   5.453   2.213
 3085SOL    HW210155   0.753   5.325   2.112
 3086SOL     OW10156   4.642   1.373   3.740
 3086SOL    HW110157   4.711   1.435   3.703
 3086SOL    HW210158   4.588   1.336   3.664
 3087SOL     OW10159   6.615   3.675   2.861
 3087SOL    HW110160   6.636   3.578   2.843
 3087SOL    HW210161   6.541   3.704   2.800
 3088SOL     OW10162   3.030   5.004   6.158
 3088SOL    HW110163   3.068   5.070   6.093
 3088SOL    HW210164   3.015   4.917   6.112
 3089SOL     OW10165   1.486   2.819   0.351
 3089SOL    HW110166   1.570   2.866   0.377
 3089SOL    HW210167   1.459   2.756   0.424
 3090SOL     OW10168   1.522   1.654   0.868
 3090SOL    HW110169   1.435   1.698   0.888
 3090SOL    HW210170   1.593   1.724   0.855
 3091SOL     OW10171   3.264   6.821   0.211
 3091SOL    HW110172   3.355   6.859   0.232
 3091SOL    HW210173   3.223   6.874   0.136
 3092SOL     OW10174   5.468   6.816   0.537
 3092SOL    HW110175   5.487   6.726   0.575
 3092SOL    HW210176   5.534   6.882   0.572
 3093SOL     OW10177   5.480   5.637   4.562
 3093SOL    HW110178   5.447   5.730   4.551
 3093SOL    HW210179   5.451   5.601   4.651
 3094SOL     OW10180   2.760   5.865   5.728
 3094SOL    HW110181   2.728   5.770   5.738
 3094SOL    HW210182   2.684   5.922   5.697
 3095SOL     OW10183   3.005   4.819   4.866
 3095SOL    HW110184   2.946   4.745   4.899
 3095SOL    HW210185   3.059   4.855   4.942
 3096SOL     OW10186   1.230   0.827   5.961
 3096SOL    HW110187   1.133   0.848   5.949
 3096SOL    HW210188   1.240   0.732   5.991
 3097SOL     OW10189   1.717   2.874   6.918
 3097SOL    HW110190   1.671   2.805   6.862
 3097SOL    HW210191   1.651   2.945   6.943
 3098SOL     OW10192   3.203   2.384   0.650
 3098SOL    HW110193   3.249   2.409   0.565
 3098SOL    HW210194   3.173   2.289   0.645
 3099SOL     OW10195   0.741   5.780   5.096
 3099SOL    HW110196   0.650   5.780   5.055
 3099SOL    HW210197   0.798   5.712   5.051
 3100SOL     OW10198   0.184   6.969   0.029
 3100SOL    HW110199   0.140   6.880   0.037
 3100SOL    HW210200   0.118   0.025   0.048
 3101SOL     OW10201   4.558   0.061   0.749
 3101SOL    HW110202   4.465   0.096   0.737
 3101SOL    HW210203   4.556   6.978   0.740
 3102SOL     OW10204   1.825   4.246   1.185
 3102SOL    HW110205   1.837   4.333   1.234
 3102SOL    HW210206   1.810   4.265   1.088
 3103SOL     OW10207   3.850   2.903   1.917
 3103SOL    HW110208   3.902   2.818   1.914
 3103SOL    HW210209   3.893   2.970   1.857
 3104SOL     OW10210   6.291   5.947   4.033
 3104SOL    HW110211   6.318   5.882   3.963
 3104SOL    HW210212   6.348   6.030   4.025
 3105SOL     OW10213   5.828   6.607   4.194
 3105SOL    HW110214   5.919   6.641   4.171
 3105SOL    HW210215   5.810   6.622   4.291
 3106SOL     OW10216   6.900   2.392   3.868
 3106SOL    HW110217   6.954   2.327   3.921
 3106SOL    HW210218   6.948   2.413   3.783
 3107SOL     OW10219   2.702   0.655   4.241
 3107SOL    HW110220   2.626   0.711   4.209
 3107SOL    HW210221   2.685   0.559   4.218
 3108SOL     OW10222   3.167   0.855   3.317
 3108SOL    HW110223   3.182   0.762   3.351
 3108SOL    HW210224   3.072   0.881   3.335
 3109SOL     OW10225   4.643   5.200   3.204
 3109SOL    HW110226   4.547   5.223   3.187
 3109SOL    HW210227   4.648   5.120   3.263
 3110SOL     OW10228   0.871   2.818   2.517
 3110SOL    HW110229   0.824   2.794   2.602
 3110SOL    HW210230   0.946   2.753   2.500
 3111SOL     OW10231   0.008   5.173   3.473
 3111SOL    HW110232   6.983   5.263   3.488
 3111SOL    HW210233   0.002   5.119   3.556
 3112SOL     OW10234   4.301   4.120   6.358
 3112SOL    HW110235   4.396   4.102   6.331
 3112SOL    HW210236   4.271   4.052   6.424
 3113SOL     OW10237   2.608   6.160   3.582
 3113SOL    HW110238   2.708   6.156   3.582
 3113SOL    HW210239   2.571   6.068   3.572
 3114SOL     OW10240   6.194   5.246   0.778
 3114SOL    HW110241   6.135   5.167   0.759
 3114SOL    HW210242   6.226   5.241   0.873
 3115SOL     OW10243   2.546   3.685   1.201
 3115SOL    HW110244   2.627   3.735   1.230
 3115SOL    HW210245   2.562   3.648   1.109
 3116SOL     OW10246   6.946   2.316   0.337
 3116SOL    HW110247   6.860   2.267   0.334
 3116SOL    HW210248   0.001   2.256   0.372
 3117SOL     OW10249   3.960   3.513   5.336
 3117SOL    HW110250   3.864   3.485   5.340
 3117SOL    HW210251   4.004   3.496   5.424
 3118SOL     OW10252   6.302   3.764   0.760
 3118SOL    HW110253   6.282   3.853   0.801
 3118SOL    HW210254   6.310   3.695   0.832
 3119SOL     OW10255   1.966   4.210   5.566
 3119SOL    HW110256   1.972   4.305   5.598
 3119SOL    HW210257   1.976   4.209   5.466
 3120SOL     OW10258   2.987   5.492   5.000
 3120SOL    HW110259   3.029   5.524   4.915
 3120SOL    HW210260   3.020   5.400   5.021
 3121SOL     OW10261   6.537   0.025   2.254
 3121SOL    HW110262   6.474   7.017   2.328
 3121SOL    HW210263   6.631   0.024   2.288
 3122SOL     OW10264   3.190   5.568   6.872
 3122SOL    HW110265   3.172   5.535   6.779
 3122SOL    HW210266   3.266   5.632   6.870
 3123SOL     OW10267   3.628   6.403   3.683
 3123SOL    HW110268   3.697   6.377   3.615
 3123SOL    HW210269   3.578   6.483   3.651
 3124SOL     OW10270   4.074   1.023   5.960
 3124SOL    HW110271   4.053   1.114   5.996
 3124SOL    HW210272   4.139   1.032   5.884
 3125SOL     OW10273   0.208   1.386   6.001
 3125SOL    HW110274   0.109   1.395   5.997
 3125SOL    HW210275   0.238   1.386   6.097
 3126SOL     OW10276   4.597   6.027   0.199
 3126SOL    HW110277   4.544   5.972   0.263
 3126SOL    HW210278   4.568   6.122   0.204
 3127SOL     OW10279   0.170   1.627   4.126
 3127SOL    HW110280   0.238   1.699   4.114
 3127SOL    HW210281   0.213   1.548   4.170
 3128SOL     OW10282   1.706   1.188   1.170
 3128SOL    HW110283   1.633   1.120   1.161
 3128SOL    HW210284   1.667   1.280   1.173
 3129SOL     OW10285   0.731   3.219   4.720
 3129SOL    HW110286   0.786   3.139   4.697
 3129SOL    HW210287   0.712   3.219   4.818
 3130SOL     OW10288   1.423   5.321   2.970
 3130SOL    HW110289   1.325   5.316   2.949
 3130SOL    HW210290   1.471   5.365   2.894
 3131SOL     OW10291   6.529   3.139   3.322
 3131SOL    HW110292   6.501   3.077   3.248
 3131SOL    HW210293   6.468   3.126   3.400
 3132SOL     OW10294   5.936   5.881   5.882
 3132SOL    HW110295   5.966   5.957   5.940
 3132SOL    HW210296   5.850   5.844   5.917
 3133SOL     OW10297   2.947   1.831   3.261
 3133SOL    HW110298   3.017   1.877   3.206
 3133SOL    HW210299   2.932   1.738   3.226
 3134SOL     OW10300   4.915   3.180   2.174
 3134SOL    HW110301   4.951   3.108   2.232
 3134SOL    HW210302   4.853   3.140   2.106
 3135SOL     OW10303   3.327   1.793   3.084
 3135SOL    HW110304   3.349   1.738   3.165
 3135SOL    HW210305   3.260   1.863   3.108
 3136SOL     OW10306   5.623   6.228   5.432
 3136SOL    HW110307   5.717   6.196   5.420
 3136SOL    HW210308   5.564   6.183   5.365
 3137SOL     OW10309   5.910   2.249   4.114
 3137SOL    HW110310   5.859   2.286   4.192
 3137SOL    HW210311   5.924   2.151   4.128
 3138SOL     OW10312   5.831   1.237   4.891
 3138SOL    HW110313   5.860   1.142   4.898
 3138SOL    HW210314   5.815   1.274   4.983
 3139SOL     OW10315   5.216   5.974   5.000
 3139SOL    HW110316   5.146   5.949   4.932
 3139SOL    HW210317   5.302   5.994   4.953
 3140SOL     OW10318   6.427   6.211   0.190
 3140SOL    HW110319   6.404   6.114   0.180
 3140SOL    HW210320   6.407   6.260   0.105
 3141SOL     OW10321   1.125   5.145   0.380
 3141SOL    HW110322   1.029   5.171   0.386
 3141SOL    HW210323   1.135   5.065   0.321
 3142SOL     OW10324   4.645   6.176   6.516
 3142SOL    HW110325   4.555   6.199   6.554
 3142SOL    HW210326   4.653   6.214   6.424
 3143SOL     OW10327   6.184   1.373   0.863
 3143SOL    HW110328   6.273   1.386   0.907
 3143SOL    HW210329   6.120   1.441   0.899
 3144SOL     OW10330   1.857   3.173   6.662
 3144SOL    HW110331   1.817   3.159   6.571
 3144SOL    HW210332   1.885   3.085   6.699
 3145SOL     OW10333   3.140   6.057   3.473
 3145SOL    HW110334   3.186   6.143   3.449
 3145SOL    HW210335   3.165   6.031   3.566
 3146SOL     OW10336   1.630   0.677   3.477
 3146SOL    HW110337   1.688   0.601   3.508
 3146SOL    HW210338   1.624   0.675   3.377
 3147SOL     OW10339   4.758   4.184   0.517
 3147SOL    HW110340   4.688   4.172   0.588
 3147SOL    HW210341   4.796   4.095   0.493
 3148SOL     OW10342   3.456   5.452   4.549
 3148SOL    HW110343   3.414   5.478   4.636
 3148SOL    HW210344   3.555   5.443   4.561
 3149SOL     OW10345   3.698   6.720   5.629
 3149SOL    HW110346   3.671   6.651   5.562
 3149SOL    HW210347   3.792   6.749   5.612
 3150SOL     OW10348   6.108   0.238   4.639
 3150SOL    HW110349   6.062   0.164   4.689
 3150SOL    HW210350   6.205   0.214   4.629
 3151SOL     OW10351   4.412   1.410   5.837
 3151SOL    HW110352   4.426   1.394   5.740
 3151SOL    HW210353   4.331   1.467   5.851
 3152SOL     OW10354   1.584   5.784   1.037
 3152SOL    HW110355   1.497   5.786   1.087
 3152SOL    HW210356   1.567   5.797   0.939
 3153SOL     OW10357   6.912   4.050   2.416
 3153SOL    HW110358   6.910   4.092   2.506
 3153SOL    HW210359   7.005   4.051   2.380
 3154SOL     OW10360   6.000   2.731   6.392
 3154SOL    HW110361   5.901   2.743   6.385
 3154SOL    HW210362   6.021   2.645   6.437
 3155SOL     OW10363   5.507   5.715   0.883
 3155SOL    HW110364   5.429   5.680   0.934
 3155SOL    HW210365   5.511   5.814   0.891
 3156SOL     OW10366   3.575   3.639   3.690
 3156SOL    HW110367   3.663   3.590   3.685
 3156SOL    HW210368   3.589   3.727   3.734
 3157SOL     OW10369   1.934   3.607   4.430
 3157SOL    HW110370   1.860   3.540   4.418
 3157SOL    HW210371   1.898   3.699   4.417
 3158SOL     OW10372   4.598   6.278   0.453
 3158SOL    HW110373   4.659   6.207   0.489
 3158SOL    HW210374   4.611   6.363   0.503
 3159SOL     OW10375   5.468   4.883   0.653
 3159SOL    HW110376   5.531   4.867   0.729
 3159SOL    HW210377   5.383   4.922   0.688
 3160SOL     OW10378   5.691   3.942   0.019
 3160SOL    HW110379   5.714   3.983   0.107
 3160SOL    HW210380   5.761   3.964   6.969
 3161SOL     OW10381   0.762   2.134   2.788
 3161SOL    HW110382   0.667   2.159   2.805
 3161SOL    HW210383   0.769   2.084   2.702
 3162SOL     OW10384   0.171   6.052   6.203
 3162SOL    HW110385   0.105   6.127   6.202
 3162SOL    HW210386   0.251   6.077   6.148
 3163SOL     OW10387   2.710   3.714   6.136
 3163SOL    HW110388   2.668   3.797   6.174
 3163SOL    HW210389   2.802   3.736   6.103
 3164SOL     OW10390   5.399   5.555   6.746
 3164SOL    HW110391   5.347   5.470   6.741
 3164SOL    HW210392   5.471   5.546   6.815
 3165SOL     OW10393   6.996   1.884   1.663
 3165SOL    HW110394   0.010   1.894   1.568
 3165SOL    HW210395   0.031   1.947   1.721
 3166SOL     OW10396   5.064   2.704   6.151
 3166SOL    HW110397   5.115   2.734   6.231
 3166SOL    HW210398   4.973   2.745   6.152
 3167SOL     OW10399   1.070   4.648   2.238
 3167SOL    HW110400   0.977   4.615   2.251
 3167SOL    HW210401   1.071   4.721   2.170
 3168SOL     OW10402   5.535   3.445   1.004
 3168SOL    HW110403   5.556   3.524   1.062
 3168SOL    HW210404   5.559   3.467   0.909
 3169SOL     OW10405   1.832   2.126   5.554
 3169SOL    HW110406   1.804   2.078   5.637
 3169SOL    HW210407   1.818   2.225   5.566
 3170SOL     OW10408   4.155   0.587   6.553
 3170SOL    HW110409   4.132   0.682   6.574
 3170SOL    HW210410   4.163   0.577   6.453
 3171SOL     OW10411   6.258   6.828   3.364
 3171SOL    HW110412   6.202   6.834   3.281
 3171SOL    HW210413   6.203   6.787   3.437
 3172SOL     OW10414   6.183   6.793   5.492
 3172SOL    HW110415   6.236   6.722   5.446
 3172SOL    HW210416   6.233   6.827   5.571
 3173SOL     OW10417   1.860   1.295   1.510
 3173SOL    HW110418   1.839   1.379   1.561
 3173SOL    HW210419   1.947   1.306   1.462
 3174SOL     OW10420   1.856   3.382   5.864
 3174SOL    HW110421   1.878   3.478   5.878
 3174SOL    HW210422   1.928   3.339   5.809
 3175SOL     OW10423   0.916   6.782   0.857
 3175SOL    HW110424   0.868   6.733   0.929
 3175SOL    HW210425   0.895   6.879   0.863
 3176SOL     OW10426   0.363   5.292   6.685
 3176SOL    HW110427   0.395   5.362   6.749
 3176SOL    HW210428   0.278   5.252   6.719
 3177SOL     OW10429   6.609   6.912   5.694
 3177SOL    HW110430   6.530   6.971   5.679
 3177SOL    HW210431   6.616   6.846   5.619
 3178SOL     OW10432   1.222   3.306   1.498
 3178SOL    HW110433   1.260   3.246   1.569
 3178SOL    HW210434   1.160   3.372   1.539
 3179SOL     OW10435   2.146   1.746   2.620
 3179SOL    HW110436   2.244   1.729   2.630
 3179SOL    HW210437   2.095   1.682   2.677
 3180SOL     OW10438   6.146   0.961   6.004
 3180SOL    HW110439   6.157   1.008   5.917
 3180SOL    HW210440   6.136   0.863   5.988
 3181SOL     OW10441   0.485   1.516   3.182
 3181SOL    HW110442   0.503   1.426   3.144
 3181SOL    HW210443   0.449   1.576   3.109
 3182SOL     OW10444   1.633   4.677   5.415
 3182SOL    HW110445   1.701   4.608   5.394
 3182SOL    HW210446   1.543   4.646   5.383
 3183SOL     OW10447   4.004   3.164   1.460
 3183SOL    HW110448   4.075   3.235   1.457
 3183SOL    HW210449   3.930   3.189   1.397
 3184SOL     OW10450   2.402   1.196   2.744
 3184SOL    HW110451   2.448   1.131   2.684
 3184SOL    HW210452   2.314   1.222   2.704
 3185SOL     OW10453   0.067   6.202   5.874
 3185SOL    HW110454   0.149   6.175   5.925
 3185SOL    HW210455   7.003   6.189   5.932
 3186SOL     OW10456   3.083   0.718   1.802
 3186SOL    HW110457   3.015   0.724   1.729
 3186SOL    HW210458   3.155   0.653   1.776
 3187SOL     OW10459   2.860   4.178   0.136
 3187SOL    HW110460   2.909   4.256   0.098
 3187SOL    HW210461   2.777   4.210   0.181
 3188SOL     OW10462   4.375   6.351   3.136
 3188SOL    HW110463   4.437   6.295   3.190
 3188SOL    HW210464   4.407   6.446   3.137
 3189SOL     OW10465   1.293   6.749   2.083
 3189SOL    HW110466   1.309   6.754   1.984
 3189SOL    HW210467   1.369   6.791   2.132
 3190SOL     OW10468   0.442   6.582   1.906
 3190SOL    HW110469   0.371   6.511   1.907
 3190SOL    HW210470   0.428   6.644   1.983
 3191SOL     OW10471   3.673   0.777   0.970
 3191SOL    HW110472   3.595   0.839   0.979
 3191SOL    HW210473   3.739   0.816   0.906
 3192SOL     OW10474   6.765   2.816   3.530
 3192SOL    HW110475   6.826   2.860   3.464
 3192SOL    HW210476   6.793   2.720   3.541
 3193SOL     OW10477   4.689   3.483   6.724
 3193SOL    HW110478   4.609   3.507   6.779
 3193SOL    HW210479   4.757   3.556   6.730
 3194SOL     OW10480   0.665   3.717   5.682
 3194SOL    HW110481   0.720   3.639   5.713
 3194SOL    HW210482   0.704   3.801   5.720
 3195SOL     OW10483   0.247   3.644   3.318
 3195SOL    HW110484   0.149   3.629   3.302
 3195SOL    HW210485   0.260   3.735   3.358
 3196SOL     OW10486   0.495   0.248   5.613
 3196SOL    HW110487   0.417   0.188   5.629
 3196SOL    HW210488   0.578   0.206   5.650
 3197SOL     OW10489   1.251   3.982   4.249
 3197SOL    HW110490   1.188   3.957   4.322
 3197SOL    HW210491   1.327   4.035   4.286
 3198SOL     OW10492   7.003   1.188   0.264
 3198SOL    HW110493   0.035   1.241   0.333
 3198SOL    HW210494   0.049   1.123   0.221
 3199SOL     OW10495   3.899   2.111   2.745
 3199SOL    HW110496   3.903   2.026   2.797
 3199SOL    HW210497   3.990   2.131   2.709
 3200SOL     OW10498   0.122   2.229   1.016
 3200SOL    HW110499   0.202   2.197   1.068
 3200SOL    HW210500   0.153   2.288   0.941
 3201SOL     OW10501   4.658   4.377   2.892
 3201SOL    HW110502   4.568   4.417   2.909
 3201SOL    HW210503   4.723   4.412   2.959
 3202SOL     OW10504   2.393   5.930   1.632
 3202SOL    HW110505   2.391   5.931   1.532
 3202SOL    HW210506   2.471   5.877   1.663
 3203SOL     OW10507   6.238   0.222   1.972
 3203SOL    HW110508   6.263   0.231   1.875
 3203SOL    HW210509   6.142   0.251   1.983
 3204SOL     OW10510   5.792   5.623   1.767
 3204SOL    HW110511   5.717   5.557   1.772
 3204SOL    HW210512   5.862   5.589   1.705
 3205SOL     OW10513   1.525   3.832   3.125
 3205SOL    HW110514   1.617   3.795   3.120
 3205SOL    HW210515   1.467   3.769   3.178
 3206SOL     OW10516   1.637   0.170   0.291
 3206SOL    HW110517   1.700   0.097   0.318
 3206SOL    HW210518   1.544   0.132   0.284
 3207SOL     OW10519   0.489   0.912   3.947
 3207SOL    HW110520   0.452   0.986   3.891
 3207SOL    HW210521   0.571   0.944   3.995
 3208SOL     OW10522   6.170   0.259   5.497
 3208SOL    HW110523   6.093   0.241   5.435
 3208SOL    HW210524   6.137   0.254   5.592
 3209SOL     OW10525   2.141   0.856   3.327
 3209SOL    HW110526   2.227   0.818   3.362
 3209SOL    HW210527   2.067   0.834   3.391
 3210SOL     OW10528   6.922   5.018   2.868
 3210SOL    HW110529   6.887   4.974   2.785
 3210SOL    HW210530   6.951   5.111   2.847
 3211SOL     OW10531   1.323   4.286   2.041
 3211SOL    HW110532   1.274   4.209   2.000
 3211SOL    HW210533   1.308   4.286   2.140
 3212SOL     OW10534   4.696   2.605   5.982
 3212SOL    HW110535   4.735   2.673   5.920
 3212SOL    HW210536   4.603   2.631   6.005
 3213SOL     OW10537   5.559   5.762   1.891
 3213SOL    HW110538   5.604   5.807   1.968
 3213SOL    HW210539   5.591   5.802   1.806
 3214SOL     OW10540   3.958   4.711   6.316
 3214SOL    HW110541   4.011   4.684   6.236
 3214SOL    HW210542   4.016   4.766   6.377
 3215SOL     OW10543   6.197   1.133   0.242
 3215SOL    HW110544   6.239   1.197   0.306
 3215SOL    HW210545   6.184   1.177   0.153
 3216SOL     OW10546   5.791   6.645   4.466
 3216SOL    HW110547   5.869   6.685   4.514
 3216SOL    HW210548   5.707   6.690   4.496
 3217SOL     OW10549   6.742   4.014   1.444
 3217SOL    HW110550   6.821   3.969   1.402
 3217SOL    HW210551   6.718   3.966   1.528
 3218SOL     OW10552   3.066   0.808   2.343
 3218SOL    HW110553   3.027   0.899   2.327
 3218SOL    HW210554   3.053   0.751   2.263
 3219SOL     OW10555   6.741   0.101   3.893
 3219SOL    HW110556   6.799   0.127   3.816
 3219SOL    HW210557   6.750   0.170   3.965
 3220SOL     OW10558   5.998   3.141   5.600
 3220SOL    HW110559   6.040   3.184   5.680
 3220SOL    HW210560   5.935   3.206   5.558
 3221SOL     OW10561   3.856   0.226   2.460
 3221SOL    HW110562   3.873   0.212   2.558
 3221SOL    HW210563   3.789   0.158   2.428
 3222SOL     OW10564   5.986   3.338   3.143
 3222SOL    HW110565   5.897   3.369   3.110
 3222SOL    HW210566   6.055   3.408   3.125
 3223SOL     OW10567   2.520   4.946   5.178
 3223SOL    HW110568   2.590   5.010   5.210
 3223SOL    HW210569   2.544   4.913   5.087
 3224SOL     OW10570   3.799   5.671   0.799
 3224SOL    HW110571   3.776   5.643   0.892
 3224SOL    HW210572   3.809   5.771   0.796
 3225SOL     OW10573   2.096   2.741   1.056
 3225SOL    HW110574   2.126   2.789   0.974
 3225SOL    HW210575   2.034   2.667   1.030
 3226SOL     OW10576   0.584   0.505   4.240
 3226SOL    HW110577   0.578   0.493   4.339
 3226SOL    HW210578   0.543   0.592   4.213
 3227SOL     OW10579   2.735   1.012   5.376
 3227SOL    HW110580   2.697   0.955   5.448
 3227SOL    HW210581   2.667   1.079   5.347
 3228SOL     OW10582   4.815   3.139   5.081
 3228SOL    HW110583   4.821   3.208   5.154
 3228SOL    HW210584   4.777   3.054   5.118
 3229SOL     OW10585   3.819   2.129   5.171
 3229SOL    HW110586   3.839   2.033   5.191
 3229SOL    HW210587   3.867   2.156   5.088
 3230SOL     OW10588   1.137   0.618   3.392
 3230SOL    HW110589   1.069   0.622   3.319
 3230SOL    HW210590   1.123   0.535   3.446
 3231SOL     OW10591   5.572   5.213   0.819
 3231SOL    HW110592   5.636   5.255   0.883
 3231SOL    HW210593   5.623   5.154   0.755
 3232SOL     OW10594   2.124   4.431   3.836
 3232SOL    HW110595   2.208   4.378   3.821
 3232SOL    HW210596   2.045   4.370   3.825
 3233SOL     OW10597   1.092   4.357   1.176
 3233SOL    HW110598   1.164   4.418   1.144
 3233SOL    HW210599   1.025   4.344   1.103
 3234SOL     OW10600   6.231   1.632   4.609
 3234SOL    HW110601   6.324   1.614   4.641
 3234SOL    HW210602   6.168   1.627   4.687
 3235SOL     OW10603   5.495   0.416   3.144
 3235SOL    HW110604   5.583   0.414   3.192
 3235SOL    HW210605   5.474   0.510   3.117
 3236SOL     OW10606   0.619   2.988   2.169
 3236SOL    HW110607   0.645   2.981   2.072
 3236SOL    HW210608   0.564   3.070   2.183
 3237SOL     OW10609   3.323   6.663   4.174
 3237SOL    HW110610   3.296   6.583   4.121
 3237SOL    HW210611   3.393   6.637   4.240
 3238SOL     OW10612   6.261   6.794   0.013
 3238SOL    HW110613   6.268   6.798   6.930
 3238SOL    HW210614   6.334   6.848   0.054
 3239SOL     OW10615   0.454   6.461   5.795
 3239SOL    HW110616   0.421   6.400   5.722
 3239SOL    HW210617   0.463   6.410   5.880
 3240SOL     OW10618   0.939   0.923   4.694
 3240SOL    HW110619   0.913   0.874   4.611
 3240SOL    HW210620   1.010   0.871   4.742
 3241SOL     OW10621   4.461   1.223   5.172
 3241SOL    HW110622   4.384   1.248   5.231
 3241SOL    HW210623   4.430   1.215   5.078
 3242SOL     OW10624   2.970   6.494   0.514
 3242SOL    HW110625   3.017   6.541   0.439
 3242SOL    HW210626   2.951   6.560   0.587
 3243SOL     OW10627   3.140   5.882   0.151
 3243SOL    HW110628   3.199   5.884   0.232
 3243SOL    HW210629   3.079   5.803   0.156
 3244SOL     OW10630   2.297   5.948   5.927
 3244SOL    HW110631   2.260   5.944   5.834
 3244SOL    HW210632   2.302   5.855   5.965
 3245SOL     OW10633   3.165   1.966   6.080
 3245SOL    HW110634   3.112   1.935   6.158
 3245SOL    HW210635   3.175   2.065   6.083
 3246SOL     OW10636   5.081   6.700   4.012
 3246SOL    HW110637   5.018   6.701   3.935
 3246SOL    HW210638   5.075   6.787   4.061
 3247SOL     OW10639   6.896   1.646   4.831
 3247SOL    HW110640   6.906   1.622   4.734
 3247SOL    HW210641   6.831   1.584   4.874
 3248SOL     OW10642   5.779   4.049   2.404
 3248SOL    HW110643   5.857   4.072   2.461
 3248SOL    HW210644   5.810   4.029   2.311
 3249SOL     OW10645   2.933   4.292   5.330
 3249SOL    HW110646   2.913   4.384   5.296
 3249SOL    HW210647   2.848   4.239   5.334
 3250SOL     OW10648   4.039   6.082   1.872
 3250SOL    HW110649   4.139   6.091   1.877
 3250SOL    HW210650   4.015   6.019   1.799
 3251SOL     OW10651   3.172   1.240   3.302
 3251SOL    HW110652   3.134   1.192   3.222
 3251SOL    HW210653   3.268   1.260   3.286
 3252SOL     OW10654   3.083   2.189   3.377
 3252SOL    HW110655   3.085   2.286   3.402
 3252SOL    HW210656   3.028   2.139   3.444
 3253SOL     OW10657   4.407   3.803   0.810
 3253SOL    HW110658   4.467   3.739   0.763
 3253SOL    HW210659   4.354   3.754   0.880
 3254SOL     OW10660   4.994   5.043   2.299
 3254SOL    HW110661   4.902   5.070   2.272
 3254SOL    HW210662   4.992   4.948   2.332
 3255SOL     OW10663   4.154   4.725   0.631
 3255SOL    HW110664   4.130   4.783   0.553
 3255SOL    HW210665   4.246   4.748   0.663
 3256SOL     OW10666   6.271   6.449   5.861
 3256SOL    HW110667   6.235   6.401   5.782
 3256SOL    HW210668   6.195   6.479   5.919
 3257SOL     OW10669   2.408   2.006   0.891
 3257SOL    HW110670   2.373   1.924   0.846
 3257SOL    HW210671   2.507   1.999   0.901
 3258SOL     OW10672   5.821   6.880   2.009
 3258SOL    HW110673   5.791   6.957   1.952
 3258SOL    HW210674   5.913   6.852   1.981
 3259SOL     OW10675   6.084   6.202   3.126
 3259SOL    HW110676   6.035   6.248   3.052
 3259SOL    HW210677   6.033   6.212   3.211
 3260SOL     OW10678   1.489   3.286   0.196
 3260SOL    HW110679   1.410   3.262   0.252
 3260SOL    HW210680   1.475   3.251   0.103
 3261SOL     OW10681   4.930   0.442   3.366
 3261SOL    HW110682   4.952   0.521   3.424
 3261SOL    HW210683   4.836   0.414   3.384
 3262SOL     OW10684   3.900   1.386   4.247
 3262SOL    HW110685   3.974   1.427   4.193
 3262SOL    HW210686   3.935   1.308   4.297
 3263SOL     OW10687   3.185   5.574   2.450
 3263SOL    HW110688   3.171   5.599   2.546
 3263SOL    HW210689   3.222   5.652   2.400
 3264SOL     OW10690   4.700   4.562   6.271
 3264SOL    HW110691   4.677   4.654   6.302
 3264SOL    HW210692   4.619   4.518   6.232
 3265SOL     OW10693   4.622   0.936   6.320
 3265SOL    HW110694   4.623   0.839   6.345
 3265SOL    HW210695   4.548   0.982   6.368
 3266SOL     OW10696   0.401   1.794   6.779
 3266SOL    HW110697   0.435   1.702   6.797
 3266SOL    HW210698   0.392   1.807   6.680
 3267SOL     OW10699   4.799   2.347   1.412
 3267SOL    HW110700   4.780   2.431   1.361
 3267SOL    HW210701   4.885   2.357   1.463
 3268SOL     OW10702   1.165   4.780   6.511
 3268SOL    HW110703   1.187   4.815   6.420
 3268SOL    HW210704   1.080   4.728   6.508
 3269SOL     OW10705   4.848   3.453   0.646
 3269SOL    HW110706   4.794   3.529   0.681
 3269SOL    HW210707   4.882   3.476   0.555
 3270SOL     OW10708   0.124   5.416   4.500
 3270SOL    HW110709   0.068   5.418   4.583
 3270SOL    HW210710   0.077   5.466   4.427
 3271SOL     OW10711   5.476   1.511   1.659
 3271SOL    HW110712   5.427   1.549   1.580
 3271SOL    HW210713   5.572   1.496   1.634
 3272SOL     OW10714   4.761   6.691   0.546
 3272SOL    HW110715   4.726   6.627   0.478
 3272SOL    HW210716   4.809   6.766   0.501
 3273SOL     OW10717   0.181   0.007   3.264
 3273SOL    HW110718   0.103   0.016   3.326
 3273SOL    HW210719   0.209   6.928   3.260
 3274SOL     OW10720   3.762   1.813   6.282
 3274SOL    HW110721   3.714   1.844   6.365
 3274SOL    HW210722   3.722   1.857   6.202
 3275SOL     OW10723   3.855   0.719   0.286
 3275SOL    HW110724   3.921   0.755   0.351
 3275SOL    HW210725   3.898   0.648   0.230
 3276SOL     OW10726   2.778   6.633   0.327
 3276SOL    HW110727   2.831   6.716   0.305
 3276SOL    HW210728   2.719   6.651   0.405
 3277SOL     OW10729   0.001   6.440   5.502
 3277SOL    HW110730   0.043   6.358   5.463
 3277SOL    HW210731   7.009   6.510   5.431
 3278SOL     OW10732   1.303   1.137   0.619
 3278SOL    HW110733   1.298   1.135   0.520
 3278SOL    HW210734   1.217   1.173   0.657
 3279SOL     OW10735   2.079   6.425   1.328
 3279SOL    HW110736   2.139   6.413   1.248
 3279SOL    HW210737   2.006   6.489   1.306
 3280SOL     OW10738   1.941   5.567   4.996
 3280SOL    HW110739   1.873   5.499   5.023
 3280SOL    HW210740   1.901   5.628   4.927
 3281SOL     OW10741   2.493   6.268   0.510
 3281SOL    HW110742   2.460   6.360   0.530
 3281SOL    HW210743   2.587   6.258   0.542
 3282SOL     OW10744   2.079   6.291   2.121
 3282SOL    HW110745   2.049   6.208   2.075
 3282SOL    HW210746   2.010   6.319   2.188
 3283SOL     OW10747   1.967   0.538   4.162
 3283SOL    HW110748   1.882   0.550   4.111
 3283SOL    HW210749   2.044   0.529   4.098
 3284SOL     OW10750   0.758   3.994   5.799
 3284SOL    HW110751   0.706   3.966   5.880
 3284SOL    HW210752   0.773   4.092   5.800
 3285SOL     OW10753   6.813   2.147   4.765
 3285SOL    HW110754   6.895   2.093   4.784
 3285SOL    HW210755   6.732   2.092   4.787
 3286SOL     OW10756   3.723   4.634   5.780
 3286SOL    HW110757   3.704   4.538   5.800
 3286SOL    HW210758   3.674   4.662   5.698
 3287SOL     OW10759   0.202   4.773   1.772
 3287SOL    HW110760   0.142   4.774   1.692
 3287SOL    HW210761   0.289   4.729   1.748
 3288SOL     OW10762   1.919   6.539   6.859
 3288SOL    HW110763   1.907   6.635   6.884
 3288SOL    HW210764   1.911   6.482   6.941
 3289SOL     OW10765   0.927   5.411   4.314
 3289SOL    HW110766   0.830   5.393   4.295
 3289SOL    HW210767   0.958   5.489   4.259
 3290SOL     OW10768   6.605   5.432   2.541
 3290SOL    HW110769   6.572   5.526   2.534
 3290SOL    HW210770   6.536   5.369   2.505
 3291SOL     OW10771   2.466   6.987   1.796
 3291SOL    HW110772   2.441   6.934   1.878
 3291SOL    HW210773   2.458   0.068   1.817
 3292SOL     OW10774   0.591   5.313   5.236
 3292SOL    HW110775   0.543   5.237   5.281
 3292SOL    HW210776   0.673   5.279   5.192
 3293SOL     OW10777   6.283   0.584   2.786
 3293SOL    HW110778   6.189   0.615   2.772
 3293SOL    HW210779   6.314   0.533   2.706
 3294SOL     OW10780   0.994   0.276   0.553
 3294SOL    HW110781   0.927   0.204   0.533
 3294SOL    HW210782   0.978   0.311   0.645
 3295SOL     OW10783   1.535   2.326   6.567
 3295SOL    HW110784   1.440   2.337   6.596
 3295SOL    HW210785   1.577   2.416   6.555
 3296SOL     OW10786   0.889   6.671   1.678
 3296SOL    HW110787   0.833   6.719   1.610
 3296SOL    HW210788   0.934   6.738   1.737
 3297SOL     OW10789   3.032   1.570   5.898
 3297SOL    HW110790   3.071   1.548   5.809
 3297SOL    HW210791   3.040   1.668   5.915
 3298SOL     OW10792   6.150   3.577   3.376
 3298SOL    HW110793   6.075   3.511   3.387
 3298SOL    HW210794   6.205   3.579   3.459
 3299SOL     OW10795   0.800   0.903   5.057
 3299SOL    HW110796   0.796   0.822   4.999
 3299SOL    HW210797   0.893   0.937   5.061
 3300SOL     OW10798   6.890   0.210   4.942
 3300SOL    HW110799   6.899   0.129   4.884
 3300SOL    HW210800   6.794   0.239   4.943
 3301SOL     OW10801   0.148   3.972   2.844
 3301SOL    HW110802   0.153   3.920   2.759
 3301SOL    HW210803   0.196   4.059   2.833
 3302SOL     OW10804   1.070   5.169   4.280
 3302SOL    HW110805   1.168   5.187   4.286
 3302SOL    HW210806   1.019   5.251   4.307
 3303SOL     OW10807   3.159   4.068   3.451
 3303SOL    HW110808   3.088   4.017   3.501
 3303SOL    HW210809   3.198   4.138   3.511
 3304SOL     OW10810   1.361   0.619   3.190
 3304SOL    HW110811   1.378   0.528   3.228
 3304SOL    HW210812   1.332   0.681   3.263
 3305SOL     OW10813   1.100   1.865   1.281
 3305SOL    HW110814   1.186   1.916   1.273
 3305SOL    HW210815   1.031   1.908   1.223
 3306SOL     OW10816   0.627   3.376   2.369
 3306SOL    HW110817   0.601   3.444   2.438
 3306SOL    HW210818   0.727   3.367   2.367
 3307SOL     OW10819   1.011   6.616   0.668
 3307SOL    HW110820   0.961   6.681   0.725
 3307SOL    HW210821   0.947   6.563   0.613
 3308SOL     OW10822   5.331   6.674   0.896
 3308SOL    HW110823   5.252   6.726   0.863
 3308SOL    HW210824   5.305   6.578   0.909
 3309SOL     OW10825   1.295   5.751   2.308
 3309SOL    HW110826   1.327   5.658   2.289
 3309SOL    HW210827   1.349   5.816   2.254
 3310SOL     OW10828   1.072   6.596   2.126
 3310SOL    HW110829   1.155   6.649   2.112
 3310SOL    HW210830   1.000   6.656   2.162
 3311SOL     OW10831   3.721   6.803   1.176
 3311SOL    HW110832   3.821   6.812   1.173
 3311SOL    HW210833   3.680   6.869   1.112
 3312SOL     OW10834   1.966   3.462   6.408
 3312SOL    HW110835   2.028   3.475   6.486
 3312SOL    HW210836   1.882   3.514   6.424
 3313SOL     OW10837   6.721   6.085   5.347
 3313SOL    HW110838   6.741   6.113   5.441
 3313SOL    HW210839   6.672   5.998   5.348
 3314SOL     OW10840   0.486   3.343   6.714
 3314SOL    HW110841   0.444   3.421   6.761
 3314SOL    HW210842   0.520   3.279   6.782
 3315SOL     OW10843   6.462   3.636   3.100
 3315SOL    HW110844   6.520   3.654   3.021
 3315SOL    HW210845   6.501   3.562   3.154
 3316SOL     OW10846   4.605   0.899   0.682
 3316SOL    HW110847   4.627   0.984   0.634
 3316SOL    HW210848   4.678   0.832   0.668
 3317SOL     OW10849   4.751   2.301   1.826
 3317SOL    HW110850   4.662   2.343   1.842
 3317SOL    HW210851   4.743   2.231   1.756
 3318SOL     OW10852   2.276   5.172   4.893
 3318SOL    HW110853   2.184   5.208   4.912
 3318SOL    HW210854   2.338   5.200   4.967
 3319SOL     OW10855   6.853   6.330   6.058
 3319SOL    HW110856   6.760   6.306   6.087
 3319SOL    HW210857   6.866   6.429   6.068
 3320SOL     OW10858   0.621   1.732   5.601
 3320SOL    HW110859   0.535   1.739   5.652
 3320SOL    HW210860   0.641   1.819   5.557
 3321SOL     OW10861   3.593   3.712   4.050
 3321SOL    HW110862   3.651   3.793   4.059
 3321SOL    HW210863   3.591   3.662   4.137
 3322SOL     OW10864   4.823   2.788   1.139
 3322SOL    HW110865   4.811   2.780   1.238
 3322SOL    HW210866   4.793   2.879   1.109
 3323SOL     OW10867   2.778   4.742   6.726
 3323SOL    HW110868   2.707   4.754   6.795
 3323SOL    HW210869   2.738   4.754   6.635
 3324SOL     OW10870   0.005   3.234   0.777
 3324SOL    HW110871   6.997   3.327   0.753
 3324SOL    HW210872   6.986   3.212   0.868
 3325SOL     OW10873   1.627   3.150   6.885
 3325SOL    HW110874   1.555   3.185   6.826
 3325SOL    HW210875   1.710   3.204   6.872
 3326SOL     OW10876   6.533   0.943   1.674
 3326SOL    HW110877   6.573   0.886   1.603
 3326SOL    HW210878   6.445   0.905   1.703
 3327SOL     OW10879   3.281   6.409   1.940
 3327SOL    HW110880   3.340   6.355   2.000
 3327SOL    HW210881   3.199   6.437   1.990
 3328SOL     OW10882   4.809   0.652   3.515
 3328SOL    HW110883   4.778   0.694   3.430
 3328SOL    HW210884   4.733   0.601   3.556
 3329SOL     OW10885   5.681   0.578   5.524
 3329SOL    HW110886   5.715   0.639   5.452
 3329SOL    HW210887   5.741   0.499   5.534
 3330SOL     OW10888   6.465   5.726   3.458
 3330SOL    HW110889   6.507   5.675   3.383
 3330SOL    HW210890   6.430   5.813   3.423
 3331SOL     OW10891   1.605   3.420   2.522
 3331SOL    HW110892   1.521   3.408   2.470
 3331SOL    HW210893   1.681   3.436   2.459
 3332SOL     OW10894   3.749   4.761   0.417
 3332SOL    HW110895   3.766   4.836   0.481
 3332SOL    HW210896   3.835   4.733   0.375
 3333SOL     OW10897   2.346   3.226   1.701
 3333SOL    HW110898   2.350   3.306   1.761
 3333SOL    HW210899   2.438   3.204   1.667
 3334SOL     OW10900   2.205   2.016   1.918
 3334SOL    HW110901   2.161   2.086   1.975
 3334SOL    HW210902   2.299   2.043   1.899
 3335SOL     OW10903   3.694   4.026   5.285
 3335SOL    HW110904   3.673   3.929   5.289
 3335SOL    HW210905   3.658   4.064   5.199
 3336SOL     OW10906   4.529   5.677   5.039
 3336SOL    HW110907   4.529   5.699   5.136
 3336SOL    HW210908   4.604   5.614   5.019
 3337SOL     OW10909   3.105   3.056   2.328
 3337SOL    HW110910   3.105   3.084   2.232
 3337SOL    HW210911   3.012   3.065   2.365
 3338SOL     OW10912   2.650   3.043   1.380
 3338SOL    HW110913   2.686   3.094   1.303
 3338SOL    HW210914   2.579   3.097   1.426
 3339SOL     OW10915   1.565   0.431   6.628
 3339SOL    HW110916   1.506   0.351   6.624
 3339SOL    HW210917   1.642   0.413   6.688
 3340SOL     OW10918   3.932   1.191   4.891
 3340SOL    HW110919   3.832   1.192   4.887
 3340SOL    HW210920   3.969   1.253   4.821
 3341SOL     OW10921   1.361   4.181   2.396
 3341SOL    HW110922   1.384   4.274   2.423
 3341SOL    HW210923   1.267   4.161   2.423
 3342SOL     OW10924   6.203   0.948   2.389
 3342SOL    HW110925   6.238   0.855   2.402
 3342SOL    HW210926   6.264   1.013   2.434
 3343SOL     OW10927   4.657   5.448   0.343
 3343SOL    HW110928   4.561   5.431   0.319
 3343SOL    HW210929   4.682   5.541   0.316
 3344SOL     OW10930   0.503   3.226   2.208
 3344SOL    HW110931   0.457   3.288   2.145
 3344SOL    HW210932   0.554   3.278   2.276
 3345SOL     OW10933   5.683   5.408   0.645
 3345SOL    HW110934   5.689   5.482   0.713
 3345SOL    HW210935   5.607   5.348   0.668
 3346SOL     OW10936   1.945   0.641   6.902
 3346SOL    HW110937   2.005   0.680   6.972
 3346SOL    HW210938   1.871   0.590   6.945
 3347SOL     OW10939   0.352   3.467   5.581
 3347SOL    HW110940   0.372   3.539   5.515
 3347SOL    HW210941   0.342   3.380   5.534
 3348SOL     OW10942   3.526   4.145   5.984
 3348SOL    HW110943   3.560   4.210   6.053
 3348SOL    HW210944   3.449   4.094   6.022
 3349SOL     OW10945   1.893   6.101   2.525
 3349SOL    HW110946   1.857   6.036   2.591
 3349SOL    HW210947   1.987   6.127   2.550
 3350SOL     OW10948   1.831   4.897   4.284
 3350SOL    HW110949   1.794   4.838   4.212
 3350SOL    HW210950   1.778   4.884   4.368
 3351SOL     OW10951   5.476   0.972   1.767
 3351SOL    HW110952   5.555   1.026   1.794
 3351SOL    HW210953   5.427   1.019   1.693
 3352SOL     OW10954   5.694   1.630   6.942
 3352SOL    HW110955   5.682   1.531   6.930
 3352SOL    HW210956   5.735   1.649   0.014
 3353SOL     OW10957   4.042   0.041   6.885
 3353SOL    HW110958   3.966   0.073   6.828
 3353SOL    HW210959   4.121   0.020   6.827
 3354SOL     OW10960   3.095   4.042   6.513
 3354SOL    HW110961   3.180   4.067   6.468
 3354SOL    HW210962   3.018   4.076   6.459
 3355SOL     OW10963   1.360   6.989   5.188
 3355SOL    HW110964   1.279   0.006   5.237
 3355SOL    HW210965   1.372   0.026   5.104
 3356SOL     OW10966   1.789   0.636   6.519
 3356SOL    HW110967   1.713   0.659   6.581
 3356SOL    HW210968   1.800   0.709   6.451
 3357SOL     OW10969   3.129   2.968   2.604
 3357SOL    HW110970   3.107   2.901   2.532
 3357SOL    HW210971   3.071   3.048   2.594
 3358SOL     OW10972   6.749   0.886   1.827
 3358SOL    HW110973   6.651   0.902   1.820
 3358SOL    HW210974   6.798   0.958   1.778
 3359SOL     OW10975   0.885   6.488   4.894
 3359SOL    HW110976   0.976   6.527   4.876
 3359SOL    HW210977   0.894   6.408   4.953
 3360SOL     OW10978   2.149   4.913   3.923
 3360SOL    HW110979   2.088   4.970   3.979
 3360SOL    HW210980   2.189   4.841   3.980
 3361SOL     OW10981   6.790   6.877   5.919
 3361SOL    HW110982   6.787   6.778   5.930
 3361SOL    HW210983   6.728   6.905   5.846
 3362SOL     OW10984   3.580   0.463   4.013
 3362SOL    HW110985   3.519   0.519   4.069
 3362SOL    HW210986   3.671   0.460   4.055
 3363SOL     OW10987   5.963   4.050   0.179
 3363SOL    HW110988   5.867   4.035   0.202
 3363SOL    HW210989   5.972   4.135   0.129
 3364SOL     OW10990   1.788   3.792   3.076
 3364SOL    HW110991   1.818   3.869   3.020
 3364SOL    HW210992   1.835   3.794   3.164
 3365SOL     OW10993   1.122   3.361   3.328
 3365SOL    HW110994   1.115   3.455   3.361
 3365SOL    HW210995   1.216   3.329   3.338
 3366SOL     OW10996   5.632   3.324   4.889
 3366SOL    HW110997   5.695   3.341   4.965
 3366SOL    HW210998   5.663   3.373   4.808
 3367SOL     OW10999   3.171   3.615   3.831
 3367SOL    HW111000   3.102   3.548   3.858
 3367SOL    HW211001   3.256   3.596   3.881
 3368SOL     OW11002   2.426   0.817   2.861
 3368SOL    HW111003   2.512   0.770   2.842
 3368SOL    HW211004   2.377   0.768   2.934
 3369SOL     OW11005   5.070   2.519   1.245
 3369SOL    HW111006   5.153   2.539   1.297
 3369SOL    HW211007   5.023   2.605   1.224
 3370SOL     OW11008   0.671   5.569   2.670
 3370SOL    HW111009   0.659   5.516   2.586
 3370SOL    HW211010   0.763   5.607   2.672
 3371SOL     OW11011   2.050   2.718   1.938
 3371SOL    HW111012   2.052   2.677   2.029
 3371SOL    HW211013   2.144   2.731   1.905
 3372SOL     OW11014   6.319   3.947   2.636
 3372SOL    HW111015   6.380   3.868   2.640
 3372SOL    HW211016   6.244   3.935   2.702
 3373SOL     OW11017   0.338   4.163   1.618
 3373SOL    HW111018   0.256   4.219   1.630
 3373SOL    HW211019   0.317   4.068   1.638
 3374SOL     OW11020   0.869   6.300   4.162
 3374SOL    HW111021   0.835   6.389   4.193
 3374SOL    HW211022   0.902   6.308   4.068
 3375SOL     OW11023   0.428   5.872   6.027
 3375SOL    HW111024   0.350   5.814   6.052
 3375SOL    HW211025   0.513   5.830   6.061
 3376SOL     OW11026   3.507   2.963   4.044
 3376SOL    HW111027   3.469   2.978   3.953
 3376SOL    HW211028   3.433   2.941   4.108
 3377SOL     OW11029   6.900   4.939   4.262
 3377SOL    HW111030   6.846   4.923   4.344
 3377SOL    HW211031   6.953   5.024   4.273
 3378SOL     OW11032   1.882   6.159   1.149
 3378SOL    HW111033   1.974   6.124   1.170
 3378SOL    HW211034   1.891   6.246   1.100
 3379SOL     OW11035   5.921   3.665   4.311
 3379SOL    HW111036   5.989   3.641   4.381
 3379SOL    HW211037   5.963   3.725   4.243
 3380SOL     OW11038   2.392   4.598   0.525
 3380SOL    HW111039   2.435   4.628   0.440
 3380SOL    HW211040   2.337   4.674   0.562
 3381SOL     OW11041   2.156   3.870   5.689
 3381SOL    HW111042   2.191   3.777   5.673
 3381SOL    HW211043   2.232   3.930   5.714
 3382SOL     OW11044   6.641   3.597   6.934
 3382SOL    HW111045   6.719   3.535   6.945
 3382SOL    HW211046   6.618   3.637   0.006
 3383SOL     OW11047   4.349   5.329   0.317
 3383SOL    HW111048   4.271   5.391   0.312
 3383SOL    HW211049   4.359   5.281   0.230
 3384SOL     OW11050   2.493   3.217   6.147
 3384SOL    HW111051   2.505   3.315   6.165
 3384SOL    HW211052   2.489   3.201   6.048
 3385SOL     OW11053   6.303   2.466   4.332
 3385SOL    HW111054   6.383   2.514   4.367
 3385SOL    HW211055   6.330   2.411   4.253
 3386SOL     OW11056   0.069   6.040   4.650
 3386SOL    HW111057   0.018   5.954   4.650
 3386SOL    HW211058   0.109   6.055   4.560
 3387SOL     OW11059   5.785   0.820   3.109
 3387SOL    HW111060   5.731   0.807   3.192
 3387SOL    HW211061   5.729   0.865   3.040
 3388SOL     OW11062   6.816   4.179   0.878
 3388SOL    HW111063   6.874   4.100   0.857
 3388SOL    HW211064   6.721   4.148   0.888
 3389SOL     OW11065   5.766   5.551   6.555
 3389SOL    HW111066   5.733   5.462   6.525
 3389SOL    HW211067   5.699   5.621   6.530
 3390SOL     OW11068   2.839   5.289   6.676
 3390SOL    HW111069   2.830   5.197   6.640
 3390SOL    HW211070   2.823   5.288   6.775
 3391SOL     OW11071   4.809   4.180   4.351
 3391SOL    HW111072   4.850   4.094   4.381
 3391SOL    HW211073   4.869   4.223   4.283
 3392SOL     OW11074   4.849   6.561   6.120
 3392SOL    HW111075   4.871   6.464   6.112
 3392SOL    HW211076   4.932   6.612   6.146
 3393SOL     OW11077   3.477   6.268   0.289
 3393SOL    HW111078   3.486   6.308   0.198
 3393SOL    HW211079   3.543   6.194   0.300
 3394SOL     OW11080   2.799   5.469   1.377
 3394SOL    HW111081   2.829   5.488   1.471
 3394SOL    HW211082   2.793   5.556   1.327
 3395SOL     OW11083   1.964   6.766   2.833
 3395SOL    HW111084   2.060   6.737   2.829
 3395SOL    HW211085   1.940   6.788   2.928
 3396SOL     OW11086   4.643   0.243   4.225
 3396SOL    HW111087   4.700   0.170   4.186
 3396SOL    HW211088   4.703   0.316   4.260
 3397SOL     OW11089   2.255   5.663   6.601
 3397SOL    HW111090   2.274   5.565   6.610
 3397SOL    HW211091   2.335   5.708   6.562
 3398SOL     OW11092   6.831   1.931   5.485
 3398SOL    HW111093   6.908   1.878   5.519
 3398SOL    HW211094   6.849   1.960   5.391
 3399SOL     OW11095   6.480   6.007   2.223
 3399SOL    HW111096   6.479   5.908   2.241
 3399SOL    HW211097   6.545   6.051   2.286
 3400SOL     OW11098   4.093   3.122   5.668
 3400SOL    HW111099   4.158   3.195   5.648
 3400SOL    HW211100   4.051   3.138   5.757
 3401SOL     OW11101   6.918   3.954   4.516
 3401SOL    HW111102   6.849   3.955   4.587
 3401SOL    HW211103   6.930   4.046   4.479
 3402SOL     OW11104   6.810   3.723   0.828
 3402SOL    HW111105   6.718   3.722   0.790
 3402SOL    HW211106   6.850   3.813   0.816
 3403SOL     OW11107   5.067   0.028   6.615
 3403SOL    HW111108   5.002   0.013   6.540
 3403SOL    HW211109   5.100   6.957   6.649
 3404SOL     OW11110   5.224   4.606   4.277
 3404SOL    HW111111   5.190   4.518   4.244
 3404SOL    HW211112   5.300   4.636   4.220
 3405SOL     OW11113   4.318   5.901   0.331
 3405SOL    HW111114   4.299   5.993   0.367
 3405SOL    HW211115   4.232   5.860   0.299
 3406SOL     OW11116   3.134   5.502   1.397
 3406SOL    HW111117   3.070   5.425   1.403
 3406SOL    HW211118   3.083   5.586   1.379
 3407SOL     OW11119   1.035   4.095   6.379
 3407SOL    HW111120   1.097   4.173   6.379
 3407SOL    HW211121   1.026   4.060   6.472
 3408SOL     OW11122   5.180   0.334   3.442
 3408SOL    HW111123   5.110   0.390   3.396
 3408SOL    HW211124   5.141   0.243   3.462
 3409SOL     OW11125   3.873   1.404   7.016
 3409SOL    HW111126   3.879   1.470   0.074
 3409SOL    HW211127   3.957   1.408   6.961
 3410SOL     OW11128   6.550   0.390   3.058
 3410SOL    HW111129   6.454   0.388   3.028
 3410SOL    HW211130   6.566   0.473   3.111
 3411SOL     OW11131   6.100   3.296   5.819
 3411SOL    HW111132   6.067   3.390   5.811
 3411SOL    HW211133   6.197   3.297   5.847
 3412SOL     OW11134   5.478   3.505   2.435
 3412SOL    HW111135   5.382   3.524   2.459
 3412SOL    HW211136   5.497   3.540   2.343
 3413SOL     OW11137   6.495   1.582   0.785
 3413SOL    HW111138   6.470   1.516   0.714
 3413SOL    HW211139   6.427   1.579   0.858
 3414SOL     OW11140   3.435   3.421   1.617
 3414SOL    HW111141   3.373   3.386   1.688
 3414SOL    HW211142   3.431   3.361   1.537
 3415SOL     OW11143   2.354   1.851   5.711
 3415SOL    HW111144   2.291   1.800   5.771
 3415SOL    HW211145   2.447   1.845   5.747
 3416SOL     OW11146   6.333   6.658   0.254
 3416SOL    HW111147   6.289   6.671   0.165
 3416SOL    HW211148   6.298   6.725   0.319
 3417SOL     OW11149   6.502   0.084   3.135
 3417SOL    HW111150   6.544   0.152   3.075
 3417SOL    HW211151   6.465   0.009   3.080
 3418SOL     OW11152   4.458   5.661   0.154
 3418SOL    HW111153   4.469   5.686   0.058
 3418SOL    HW211154   4.542   5.680   0.204
 3419SOL     OW11155   2.288   4.963   5.326
 3419SOL    HW111156   2.285   5.035   5.395
 3419SOL    HW211157   2.376   4.966   5.279
 3420SOL     OW11158   4.416   1.542   2.164
 3420SOL    HW111159   4.366   1.470   2.115
 3420SOL    HW211160   4.428   1.621   2.103
 3421SOL     OW11161   0.165   1.536   5.092
 3421SOL    HW111162   0.231   1.566   5.022
 3421SOL    HW211163   0.097   1.476   5.050
 3422SOL     OW11164   2.857   6.859   0.902
 3422SOL    HW111165   2.772   6.836   0.950
 3422SOL    HW211166   2.835   6.902   0.814
 3423SOL     OW11167   2.397   4.712   5.428
 3423SOL    HW111168   2.352   4.800   5.412
 3423SOL    HW211169   2.467   4.697   5.358
 3424SOL     OW11170   5.348   0.973   2.103
 3424SOL    HW111171   5.299   0.916   2.037
 3424SOL    HW211172   5.357   1.065   2.066
 3425SOL     OW11173   6.584   3.727   5.958
 3425SOL    HW111174   6.548   3.801   6.014
 3425SOL    HW211175   6.675   3.752   5.924
 3426SOL     OW11176   6.380   3.982   0.368
 3426SOL    HW111177   6.284   3.991   0.391
 3426SOL    HW211178   6.412   3.890   0.388
 3427SOL     OW11179   1.347   2.155   0.188
 3427SOL    HW111180   1.321   2.072   0.236
 3427SOL    HW211181   1.421   2.201   0.238
 3428SOL     OW11182   4.691   6.952   4.818
 3428SOL    HW111183   4.681   0.033   4.802
 3428SOL    HW211184   4.606   6.905   4.794
 3429SOL     OW11185   4.309   6.621   0.925
 3429SOL    HW111186   4.354   6.646   1.011
 3429SOL    HW211187   4.345   6.533   0.893
 3430SOL     OW11188   2.805   4.049   6.397
 3430SOL    HW111189   2.732   4.033   6.331
 3430SOL    HW211190   2.773   4.023   6.488
 3431SOL     OW11191   0.789   4.305   2.659
 3431SOL    HW111192   0.780   4.331   2.755
 3431SOL    HW211193   0.732   4.225   2.640
 3432SOL     OW11194   0.587   4.630   0.282
 3432SOL    HW111195   0.687   4.621   0.284
 3432SOL    HW211196   0.559   4.699   0.349
 3433SOL     OW11197   2.115   0.832   0.010
 3433SOL    HW111198   2.078   0.921   0.035
 3433SOL    HW211199   2.166   0.839   6.941
 3434SOL     OW11200   3.561   2.573   1.766
 3434SOL    HW111201   3.480   2.546   1.715
 3434SOL    HW211202   3.606   2.492   1.801
 3435SOL     OW11203   1.679   2.112   1.253
 3435SOL    HW111204   1.688   2.045   1.326
 3435SOL    HW211205   1.721   2.198   1.282
 3436SOL     OW11206   4.024   6.697   6.396
 3436SOL    HW111207   4.046   6.794   6.401
 3436SOL    HW211208   3.929   6.686   6.364
 3437SOL     OW11209   1.370   0.041   0.229
 3437SOL    HW111210   1.353   0.074   0.136
 3437SOL    HW211211   1.293   0.064   0.288
 3438SOL     OW11212   2.361   3.913   0.826
 3438SOL    HW111213   2.287   3.950   0.769
 3438SOL    HW211214   2.409   3.989   0.870
 3439SOL     OW11215   2.931   5.657   0.632
 3439SOL    HW111216   2.967   5.564   0.623
 3439SOL    HW211217   2.934   5.703   0.543
 3440SOL     OW11218   3.499   3.690   5.475
 3440SOL    HW111219   3.570   3.743   5.520
 3440SOL    HW211220   3.508   3.594   5.500
 3441SOL     OW11221   6.399   4.923   5.419
 3441SOL    HW111222   6.444   4.835   5.429
 3441SOL    HW211223   6.350   4.945   5.504
 3442SOL     OW11224   1.786   2.946   1.090
 3442SOL    HW111225   1.837   2.892   1.157
 3442SOL    HW211226   1.781   3.041   1.120
 3443SOL     OW11227   0.346   6.054   2.011
 3443SOL    HW111228   0.391   5.996   2.079
 3443SOL    HW211229   0.373   6.025   1.919
 3444SOL     OW11230   6.768   3.940   5.126
 3444SOL    HW111231   6.785   3.846   5.096
 3444SOL    HW211232   6.704   3.940   5.203
 3445SOL     OW11233   6.251   4.708   4.680
 3445SOL    HW111234   6.323   4.706   4.750
 3445SOL    HW211235   6.290   4.740   4.594
 3446SOL     OW11236   4.734   1.178   0.883
 3446SOL    HW111237   4.819   1.183   0.830
 3446SOL    HW211238   4.716   1.083   0.909
 3447SOL     OW11239   5.695   0.957   6.227
 3447SOL    HW111240   5.737   1.045   6.205
 3447SOL    HW211241   5.748   0.884   6.183
 3448SOL     OW11242   1.236   4.684   4.931
 3448SOL    HW111243   1.157   4.626   4.914
 3448SOL    HW211244   1.314   4.628   4.961
 3449SOL     OW11245   0.628   4.472   5.151
 3449SOL    HW111246   0.543   4.515   5.121
 3449SOL    HW211247   0.703   4.538   5.147
 3450SOL     OW11248   2.278   0.321   2.062
 3450SOL    HW111249   2.323   0.384   1.999
 3450SOL    HW211250   2.277   0.229   2.022
 3451SOL     OW11251   1.831   2.265   0.793
 3451SOL    HW111252   1.785   2.228   0.873
 3451SOL    HW211253   1.770   2.262   0.714
 3452SOL     OW11254   4.199   1.231   5.307
 3452SOL    HW111255   4.114   1.273   5.276
 3452SOL    HW211256   4.180   1.175   5.388
 3453SOL     OW11257   4.378   6.444   6.667
 3453SOL    HW111258   4.462   6.479   6.709
 3453SOL    HW211259   4.371   6.346   6.684
 3454SOL     OW11260   0.229   3.077   1.670
 3454SOL    HW111261   0.168   3.127   1.732
 3454SOL    HW211262   0.296   3.139   1.630
 3455SOL     OW11263   0.592   3.879   5.988
 3455SOL    HW111264   0.513   3.821   6.008
 3455SOL    HW211265   0.575   3.972   6.021
 3456SOL     OW11266   5.002   5.743   3.636
 3456SOL    HW111267   5.044   5.698   3.715
 3456SOL    HW211268   5.025   5.840   3.637
 3457SOL     OW11269   3.649   4.305   7.002
 3457SOL    HW111270   3.635   4.338   6.909
 3457SOL    HW211271   3.675   4.382   0.045
 3458SOL     OW11272   4.215   1.643   2.342
 3458SOL    HW111273   4.275   1.626   2.264
 3458SOL    HW211274   4.149   1.715   2.320
 3459SOL     OW11275   5.425   5.711   2.425
 3459SOL    HW111276   5.443   5.773   2.349
 3459SOL    HW211277   5.342   5.740   2.472
 3460SOL     OW11278   3.667   2.085   4.559
 3460SOL    HW111279   3.621   2.059   4.644
 3460SOL    HW211280   3.600   2.096   4.486
 3461SOL     OW11281   4.932   5.063   4.714
 3461SOL    HW111282   4.996   5.009   4.768
 3461SOL    HW211283   4.902   5.010   4.634
 3462SOL     OW11284   1.068   3.708   6.081
 3462SOL    HW111285   1.014   3.694   5.998
 3462SOL    HW211286   1.114   3.797   6.077
 3463SOL     OW11287   5.700   4.105   0.243
 3463SOL    HW111288   5.659   4.196   0.243
 3463SOL    HW211289   5.677   4.057   0.328
 3464SOL     OW11290   0.314   4.335   4.106
 3464SOL    HW111291   0.280   4.429   4.108
 3464SOL    HW211292   0.413   4.335   4.092
 3465SOL     OW11293   0.528   2.173   2.514
 3465SOL    HW111294   0.555   2.084   2.479
 3465SOL    HW211295   0.592   2.202   2.586
 3466SOL     OW11296   0.266   3.473   4.689
 3466SOL    HW111297   0.259   3.509   4.782
 3466SOL    HW211298   0.222   3.383   4.685
 3467SOL     OW11299   2.078   2.082   5.278
 3467SOL    HW111300   1.980   2.104   5.270
 3467SOL    HW211301   2.101   2.067   5.374
 3468SOL     OW11302   4.003   6.186   2.123
 3468SOL    HW111303   3.924   6.166   2.182
 3468SOL    HW211304   3.989   6.143   2.034
 3469SOL     OW11305   5.567   3.699   1.164
 3469SOL    HW111306   5.643   3.747   1.209
 3469SOL    HW211307   5.482   3.717   1.214
 3470SOL     OW11308   0.386   5.362   1.083
 3470SOL    HW111309   0.417   5.457   1.074
 3470SOL    HW211310   0.311   5.346   1.020
 3471SOL     OW11311   4.279   0.151   4.349
 3471SOL    HW111312   4.253   0.056   4.329
 3471SOL    HW211313   4.357   0.152   4.411
 3472SOL     OW11314   4.219   1.119   4.951
 3472SOL    HW111315   4.120   1.130   4.939
 3472SOL    HW211316   4.238   1.023   4.973
 3473SOL     OW11317   3.976   6.766   4.026
 3473SOL    HW111318   4.016   6.730   4.111
 3473SOL    HW211319   3.880   6.788   4.043
 3474SOL     OW11320   5.098   4.315   1.189
 3474SOL    HW111321   5.049   4.294   1.104
 3474SOL    HW211322   5.075   4.247   1.259
 3475SOL     OW11323   1.696   6.189   4.858
 3475SOL    HW111324   1.643   6.226   4.782
 3475SOL    HW211325   1.777   6.143   4.823
 3476SOL     OW11326   4.496   1.689   4.889
 3476SOL    HW111327   4.533   1.753   4.822
 3476SOL    HW211328   4.541   1.703   4.977
 3477SOL     OW11329   4.069   5.491   1.670
 3477SOL    HW111330   4.132   5.466   1.744
 3477SOL    HW211331   4.067   5.590   1.660
 3478SOL     OW11332   4.163   4.439   0.284
 3478SOL    HW111333   4.138   4.485   0.199
 3478SOL    HW211334   4.176   4.341   0.267
 3479SOL     OW11335   1.719   0.187   1.435
 3479SOL    HW111336   1.693   0.105   1.384
 3479SOL    HW211337   1.669   0.266   1.398
 3480SOL     OW11338   1.126   0.051   4.141
 3480SOL    HW111339   1.130   7.006   4.219
 3480SOL    HW211340   1.035   0.046   4.099
 3481SOL     OW11341   1.956   6.305   0.405
 3481SOL    HW111342   2.043   6.257   0.392
 3481SOL    HW211343   1.911   6.318   0.316
 3482SOL     OW11344   0.810   2.329   1.885
 3482SOL    HW111345   0.872   2.263   1.842
 3482SOL    HW211346   0.722   2.327   1.839
 3483SOL     OW11347   3.820   1.852   0.755
 3483SOL    HW111348   3.846   1.863   0.658
 3483SOL    HW211349   3.897   1.879   0.813
 3484SOL     OW11350   3.767   2.924   3.984
 3484SOL    HW111351   3.674   2.911   4.018
 3484SOL    HW211352   3.768   2.995   3.914
 3485SOL     OW11353   6.334   1.855   4.965
 3485SOL    HW111354   6.420   1.816   4.999
 3485SOL    HW211355   6.265   1.784   4.957
 3486SOL     OW11356   5.225   1.122   2.524
 3486SOL    HW111357   5.274   1.045   2.484
 3486SOL    HW211358   5.168   1.090   2.599
 3487SOL     OW11359   0.578   0.917   0.498
 3487SOL    HW111360   0.501   0.951   0.443
 3487SOL    HW211361   0.648   0.880   0.437
 3488SOL     OW11362   6.304   3.513   4.165
 3488SOL    HW111363   6.330   3.578   4.237
 3488SOL    HW211364   6.298   3.421   4.203
 3489SOL     OW11365   1.969   5.494   0.825
 3489SOL    HW111366   1.876   5.522   0.801
 3489SOL    HW211367   2.033   5.532   0.758
 3490SOL     OW11368   4.739   3.024   1.061
 3490SOL    HW111369   4.813   3.059   1.003
 3490SOL    HW211370   4.709   3.095   1.124
 3491SOL     OW11371   0.575   3.011   5.814
 3491SOL    HW111372   0.543   3.092   5.764
 3491SOL    HW211373   0.566   2.931   5.755
 3492SOL     OW11374   5.776   4.512   0.218
 3492SOL    HW111375   5.815   4.580   0.280
 3492SOL    HW211376   5.676   4.509   0.229
 3493SOL     OW11377   7.000   5.157   1.805
 3493SOL    HW111378   6.949   5.075   1.829
 3493SOL    HW211379   6.974   5.232   1.866
 3494SOL     OW11380   2.657   6.862   1.098
 3494SOL    HW111381   2.649   6.780   1.153
 3494SOL    HW211382   2.722   6.925   1.141
 3495SOL     OW11383   6.088   4.380   0.337
 3495SOL    HW111384   6.079   4.467   0.289
 3495SOL    HW211385   6.019   4.316   0.303
 3496SOL     OW11386   0.790   4.637   0.673
 3496SOL    HW111387   0.743   4.719   0.707
 3496SOL    HW211388   0.838   4.593   0.750
 3497SOL     OW11389   4.498   6.371   4.297
 3497SOL    HW111390   4.435   6.305   4.256
 3497SOL    HW211391   4.486   6.460   4.252
 3498SOL     OW11392   1.339   1.178   0.939
 3498SOL    HW111393   1.414   1.115   0.921
 3498SOL    HW211394   1.348   1.259   0.881
 3499SOL     OW11395   0.102   3.791   4.576
 3499SOL    HW111396   0.022   3.849   4.591
 3499SOL    HW211397   0.116   3.778   4.477
 3500SOL     OW11398   6.589   3.336   0.710
 3500SOL    HW111399   6.492   3.313   0.720
 3500SOL    HW211400   6.627   3.356   0.800
 3501SOL     OW11401   1.032   4.072   3.234
 3501SOL    HW111402   1.070   4.144   3.292
 3501SOL    HW211403   1.102   4.041   3.170
 3502SOL     OW11404   1.142   4.895   1.795
 3502SOL    HW111405   1.114   4.837   1.718
 3502SOL    HW211406   1.206   4.965   1.763
 3503SOL     OW11407   3.483   6.651   3.577
 3503SOL    HW111408   3.447   6.703   3.655
 3503SOL    HW211409   3.570   6.690   3.548
 3504SOL     OW11410   2.190   2.884   2.714
 3504SOL    HW111411   2.229   2.859   2.803
 3504SOL    HW211412   2.095   2.914   2.727
 3505SOL     OW11413   4.404   6.308   4.815
 3505SOL    HW111414   4.379   6.386   4.759
 3505SOL    HW211415   4.499   6.282   4.795
 3506SOL     OW11416   5.722   5.038   2.116
 3506SOL    HW111417   5.628   5.065   2.136
 3506SOL    HW211418   5.728   4.938   2.109
 3507SOL     OW11419   0.633   0.562   6.428
 3507SOL    HW111420   0.715   0.522   6.470
 3507SOL    HW211421   0.655   0.593   6.335
 3508SOL     OW11422   5.984   3.869   6.893
 3508SOL    HW111423   6.014   3.789   6.945
 3508SOL    HW211424   6.062   3.929   6.876
 3509SOL     OW11425   5.871   0.665   0.471
 3509SOL    HW111426   5.969   0.684   0.466
 3509SOL    HW211427   5.847   0.639   0.565
 3510SOL     OW11428   2.328   2.471   2.362
 3510SOL    HW111429   2.422   2.454   2.330
 3510SOL    HW211430   2.330   2.509   2.454
 3511SOL     OW11431   0.606   0.876   5.268
 3511SOL    HW111432   0.641   0.900   5.177
 3511SOL    HW211433   0.670   0.813   5.312
 3512SOL     OW11434   3.119   2.724   1.020
 3512SOL    HW111435   3.028   2.687   1.037
 3512SOL    HW211436   3.112   2.820   0.995
 3513SOL     OW11437   5.014   4.667   1.089
 3513SOL    HW111438   4.971   4.749   1.051
 3513SOL    HW211439   5.032   4.602   1.014
 3514SOL     OW11440   1.748   6.925   1.799
 3514SOL    HW111441   1.841   6.888   1.800
 3514SOL    HW211442   1.747   7.009   1.745
 3515SOL     OW11443   3.751   6.340   3.431
 3515SOL    HW111444   3.707   6.378   3.349
 3515SOL    HW211445   3.731   6.243   3.437
 3516SOL     OW11446   2.202   1.246   0.436
 3516SOL    HW111447   2.279   1.215   0.381
 3516SOL    HW211448   2.231   1.320   0.497
 3517SOL     OW11449   0.933   0.402   6.224
 3517SOL    HW111450   0.905   0.401   6.128
 3517SOL    HW211451   0.958   0.495   6.250
 3518SOL     OW11452   4.415   3.675   6.042
 3518SOL    HW111453   4.361   3.747   6.087
 3518SOL    HW211454   4.428   3.599   6.106
 3519SOL     OW11455   3.414   6.496   0.443
 3519SOL    HW111456   3.455   6.568   0.388
 3519SOL    HW211457   3.429   6.407   0.399
 3520SOL     OW11458   3.802   5.022   1.023
 3520SOL    HW111459   3.841   4.955   0.960
 3520SOL    HW211460   3.705   5.004   1.035
 3521SOL     OW11461   5.423   2.556   6.245
 3521SOL    HW111462   5.395   2.590   6.155
 3521SOL    HW211463   5.521   2.536   6.244
 3522SOL     OW11464   2.828   0.067   1.203
 3522SOL    HW111465   2.889   0.086   1.280
 3522SOL    HW211466   2.862   0.113   1.121
 3523SOL     OW11467   2.616   4.668   5.238
 3523SOL    HW111468   2.609   4.768   5.234
 3523SOL    HW211469   2.707   4.640   5.207
 3524SOL     OW11470   2.039   0.235   1.748
 3524SOL    HW111471   2.049   0.197   1.840
 3524SOL    HW211472   1.944   0.228   1.719
 3525SOL     OW11473   1.382   3.691   2.813
 3525SOL    HW111474   1.425   3.621   2.870
 3525SOL    HW211475   1.372   3.656   2.720
 3526SOL     OW11476   3.765   0.161   3.502
 3526SOL    HW111477   3.810   0.241   3.462
 3526SOL    HW211478   3.780   0.160   3.601
 3527SOL     OW11479   5.434   2.985   6.289
 3527SOL    HW111480   5.386   2.935   6.217
 3527SOL    HW211481   5.530   2.996   6.263
 3528SOL     OW11482   1.071   0.021   4.446
 3528SOL    HW111483   1.144   6.987   4.491
 3528SOL    HW211484   1.093   0.119   4.446
 3529SOL     OW11485   3.867   6.242   0.277
 3529SOL    HW111486   3.952   6.267   0.229
 3529SOL    HW211487   3.824   6.325   0.313
 3530SOL     OW11488   1.311   6.627   2.889
 3530SOL    HW111489   1.270   6.535   2.895
 3530SOL    HW211490   1.343   6.654   2.980
 3531SOL     OW11491   4.866   4.475   6.652
 3531SOL    HW111492   4.872   4.555   6.592
 3531SOL    HW211493   4.917   4.492   6.736
 3532SOL     OW11494   1.867   6.539   0.521
 3532SOL    HW111495   1.927   6.554   0.600
 3532SOL    HW211496   1.874   6.444   0.492
 3533SOL     OW11497   1.260   1.266   3.671
 3533SOL    HW111498   1.290   1.270   3.576
 3533SOL    HW211499   1.196   1.341   3.689
 3534SOL     OW11500   5.228   0.616   5.037
 3534SOL    HW111501   5.305   0.650   5.091
 3534SOL    HW211502   5.152   0.680   5.044
 3535SOL     OW11503   4.657   6.258   6.776
 3535SOL    HW111504   4.660   6.235   6.679
 3535SOL    HW211505   4.616   6.182   6.827
 3536SOL     OW11506   0.758   4.031   2.844
 3536SOL    HW111507   0.670   4.018   2.889
 3536SOL    HW211508   0.801   4.114   2.879
 3537SOL     OW11509   2.647   4.285   1.207
 3537SOL    HW111510   2.565   4.306   1.260
 3537SOL    HW211511   2.706   4.366   1.205
 3538SOL     OW11512   3.937   0.971   3.606
 3538SOL    HW111513   4.007   0.901   3.618
 3538SOL    HW211514   3.978   1.062   3.611
 3539SOL     OW11515   5.402   6.015   6.637
 3539SOL    HW111516   5.478   5.974   6.687
 3539SOL    HW211517   5.428   6.029   6.542
 3540SOL     OW11518   2.401   4.366   6.221
 3540SOL    HW111519   2.348   4.325   6.147
 3540SOL    HW211520   2.462   4.435   6.183
 3541SOL     OW11521   1.586   2.496   1.732
 3541SOL    HW111522   1.546   2.438   1.803
 3541SOL    HW211523   1.686   2.492   1.740
 3542SOL     OW11524   6.137   1.622   6.873
 3542SOL    HW111525   6.144   1.611   6.972
 3542SOL    HW211526   6.045   1.653   6.849
 3543SOL     OW11527   0.552   1.904   3.882
 3543SOL    HW111528   0.620   1.911   3.955
 3543SOL    HW211529   0.580   1.960   3.804
 3544SOL     OW11530   3.107   3.613   0.360
 3544SOL    HW111531   3.076   3.521   0.381
 3544SOL    HW211532   3.138   3.617   0.264
 3545SOL     OW11533   3.801   0.176   0.199
 3545SOL    HW111534   3.825   0.079   0.197
 3545SOL    HW211535   3.729   0.192   0.267
 3546SOL     OW11536   7.003   4.275   2.048
 3546SOL    HW111537   6.903   4.276   2.052
 3546SOL    HW211538   0.023   4.341   2.114
 3547SOL     OW11539   1.214   3.797   4.752
 3547SOL    HW111540   1.252   3.861   4.685
 3547SOL    HW211541   1.119   3.777   4.729
 3548SOL     OW11542   5.959   0.123   6.026
 3548SOL    HW111543   5.866   0.099   6.055
 3548SOL    HW211544   5.956   0.206   5.971
 3549SOL     OW11545   2.703   6.760   6.844
 3549SOL    HW111546   2.647   6.842   6.852
 3549SOL    HW211547   2.689   6.701   6.924
 3550SOL     OW11548   5.427   1.056   5.422
 3550SOL    HW111549   5.361   1.019   5.357
 3550SOL    HW211550   5.395   1.145   5.455
 3551SOL     OW11551   5.100   1.992   4.467
 3551SOL    HW111552   5.155   1.937   4.405
 3551SOL    HW211553   5.160   2.039   4.532
 3552SOL     OW11554   6.177   0.146   3.557
 3552SOL    HW111555   6.177   0.123   3.460
 3552SOL    HW211556   6.240   0.222   3.574
 3553SOL     OW11557   6.051   6.137   6.884
 3553SOL    HW111558   6.069   6.181   6.796
 3553SOL    HW211559   6.123   6.071   6.904
 3554SOL     OW11560   5.058   4.524   6.883
 3554SOL    HW111561   4.983   4.559   6.940
 3554SOL    HW211562   5.144   4.564   6.915
 3555SOL     OW11563   2.800   1.962   5.259
 3555SOL    HW111564   2.735   2.012   5.203
 3555SOL    HW211565   2.891   2.005   5.251
 3556SOL     OW11566   5.726   1.129   0.654
 3556SOL    HW111567   5.732   1.062   0.580
 3556SOL    HW211568   5.777   1.211   0.629
 3557SOL     OW11569   5.459   6.966   1.439
 3557SOL    HW111570   5.543   0.003   1.429
 3557SOL    HW211571   5.384   7.012   1.391
 3558SOL     OW11572   3.663   5.486   2.350
 3558SOL    HW111573   3.717   5.424   2.405
 3558SOL    HW211574   3.705   5.577   2.350
 3559SOL     OW11575   4.558   6.549   6.345
 3559SOL    HW111576   4.488   6.593   6.400
 3559SOL    HW211577   4.517   6.476   6.291
 3560SOL     OW11578   0.926   5.315   4.034
 3560SOL    HW111579   1.003   5.369   4.001
 3560SOL    HW211580   0.953   5.267   4.118
 3561SOL     OW11581   4.598   3.538   5.410
 3561SOL    HW111582   4.533   3.462   5.403
 3561SOL    HW211583   4.648   3.548   5.325
 3562SOL     OW11584   3.293   1.823   0.448
 3562SOL    HW111585   3.370   1.788   0.502
 3562SOL    HW211586   3.213   1.835   0.506
 3563SOL     OW11587   6.642   2.284   6.140
 3563SOL    HW111588   6.683   2.337   6.214
 3563SOL    HW211589   6.612   2.345   6.067
 3564SOL     OW11590   6.205   3.685   2.483
 3564SOL    HW111591   6.216   3.593   2.445
 3564SOL    HW211592   6.236   3.752   2.415
 3565SOL     OW11593   4.713   5.889   5.851
 3565SOL    HW111594   4.705   5.980   5.810
 3565SOL    HW211595   4.663   5.887   5.938
 3566SOL     OW11596   1.129   0.814   4.861
 3566SOL    HW111597   1.099   0.861   4.944
 3566SOL    HW211598   1.175   0.729   4.886
 3567SOL     OW11599   6.788   3.509   6.512
 3567SOL    HW111600   6.839   3.525   6.597
 3567SOL    HW211601   6.691   3.496   6.533
 3568SOL     OW11602   5.874   3.644   6.563
 3568SOL    HW111603   5.867   3.562   6.506
 3568SOL    HW211604   5.946   3.631   6.632
 3569SOL     OW11605   1.426   0.157   3.799
 3569SOL    HW111606   1.404   0.135   3.704
 3569SOL    HW211607   1.441   0.255   3.808
 3570SOL     OW11608   5.484   1.325   4.386
 3570SOL    HW111609   5.514   1.251   4.446
 3570SOL    HW211610   5.562   1.382   4.362
 3571SOL     OW11611   6.682   6.880   5.205
 3571SOL    HW111612   6.668   6.834   5.292
 3571SOL    HW211613   6.634   6.831   5.132
 3572SOL     OW11614   6.506   6.492   5.775
 3572SOL    HW111615   6.423   6.483   5.829
 3572SOL    HW211616   6.496   6.441   5.690
 3573SOL     OW11617   0.307   1.954   2.423
 3573SOL    HW111618   0.314   1.979   2.520
 3573SOL    HW211619   0.315   2.036   2.367
 3574SOL     OW11620   6.088   3.950   0.430
 3574SOL    HW111621   6.019   3.894   0.473
 3574SOL    HW211622   6.046   4.006   0.358
 3575SOL     OW11623   6.519   5.808   1.771
 3575SOL    HW111624   6.464   5.874   1.720
 3575SOL    HW211625   6.575   5.754   1.708
 3576SOL     OW11626   0.531   1.562   6.859
 3576SOL    HW111627   0.579   1.500   6.796
 3576SOL    HW211628   0.489   1.509   6.933
 3577SOL     OW11629   2.101   3.477   6.658
 3577SOL    HW111630   2.120   3.560   6.711
 3577SOL    HW211631   2.109   3.397   6.718
 3578SOL     OW11632   3.283   4.658   1.744
 3578SOL    HW111633   3.377   4.625   1.740
 3578SOL    HW211634   3.221   4.586   1.711
 3579SOL     OW11635   1.613   4.261   5.299
 3579SOL    HW111636   1.515   4.247   5.311
 3579SOL    HW211637   1.652   4.184   5.249
 3580SOL     OW11638   6.748   2.767   1.249
 3580SOL    HW111639   6.688   2.788   1.327
 3580SOL    HW211640   6.817   2.700   1.277
 3581SOL     OW11641   5.566   1.286   3.199
 3581SOL    HW111642   5.649   1.275   3.143
 3581SOL    HW211643   5.512   1.362   3.162
 3582SOL     OW11644   0.193   0.373   5.224
 3582SOL    HW111645   0.200   0.456   5.168
 3582SOL    HW211646   0.276   0.362   5.278
 3583SOL     OW11647   2.191   5.203   1.415
 3583SOL    HW111648   2.258   5.235   1.482
 3583SOL    HW211649   2.189   5.266   1.337
 3584SOL     OW11650   5.640   6.664   5.829
 3584SOL    HW111651   5.612   6.743   5.775
 3584SOL    HW211652   5.603   6.581   5.789
 3585SOL     OW11653   2.719   4.864   3.909
 3585SOL    HW111654   2.679   4.912   3.832
 3585SOL    HW211655   2.664   4.784   3.932
 3586SOL     OW11656   0.764   1.545   5.999
 3586SOL    HW111657   0.847   1.581   5.957
 3586SOL    HW211658   0.693   1.536   5.929
 3587SOL     OW11659   3.889   0.249   6.712
 3587SOL    HW111660   3.820   0.315   6.741
 3587SOL    HW211661   3.888   0.242   6.613
 3588SOL     OW11662   2.149   1.124   4.985
 3588SOL    HW111663   2.123   1.220   4.995
 3588SOL    HW211664   2.165   1.104   4.888
 3589SOL     OW11665   3.293   0.225   4.758
 3589SOL    HW111666   3.200   0.200   4.733
 3589SOL    HW211667   3.350   0.228   4.676
 3590SOL     OW11668   1.327   5.016   6.871
 3590SOL    HW111669   1.292   4.979   6.956
 3590SOL    HW211670   1.399   5.083   6.891
 3591SOL     OW11671   5.342   2.297   5.873
 3591SOL    HW111672   5.272   2.270   5.940
 3591SOL    HW211673   5.429   2.311   5.920
 3592SOL     OW11674   5.341   2.524   1.917
 3592SOL    HW111675   5.323   2.434   1.877
 3592SOL    HW211676   5.277   2.541   1.992
 3593SOL     OW11677   0.552   4.722   4.036
 3593SOL    HW111678   0.603   4.648   3.992
 3593SOL    HW211679   0.476   4.684   4.088
 3594SOL     OW11680   4.101   1.316   4.695
 3594SOL    HW111681   4.039   1.369   4.637
 3594SOL    HW211682   4.167   1.378   4.738
 3595SOL     OW11683   1.907   6.116   6.122
 3595SOL    HW111684   1.866   6.181   6.188
 3595SOL    HW211685   2.003   6.102   6.145
 3596SOL     OW11686   0.371   3.868   3.468
 3596SOL    HW111687   0.377   3.930   3.546
 3596SOL    HW211688   0.443   3.798   3.474
 3597SOL     OW11689   3.256   6.283   3.420
 3597SOL    HW111690   3.301   6.368   3.447
 3597SOL    HW211691   3.293   6.252   3.333
 3598SOL     OW11692   1.787   0.156   0.599
 3598SOL    HW111693   1.792   0.088   0.525
 3598SOL    HW211694   1.878   0.168   0.638
 3599SOL     OW11695   6.810   1.462   3.833
 3599SOL    HW111696   6.811   1.447   3.932
 3599SOL    HW211697   6.832   1.557   3.814
 3600SOL     OW11698   6.382   0.901   1.380
 3600SOL    HW111699   6.435   0.955   1.315
 3600SOL    HW211700   6.325   0.962   1.435
 3601SOL     OW11701   6.229   3.416   5.537
 3601SOL    HW111702   6.299   3.477   5.575
 3601SOL    HW211703   6.143   3.466   5.528
 3602SOL     OW11704   2.481   1.850   0.498
 3602SOL    HW111705   2.547   1.917   0.464
 3602SOL    HW211706   2.526   1.791   0.565
 3603SOL     OW11707   4.676   4.748   4.520
 3603SOL    HW111708   4.718   4.668   4.476
 3603SOL    HW211709   4.606   4.787   4.460
 3604SOL     OW11710   0.198   3.502   3.574
 3604SOL    HW111711   0.231   3.565   3.505
 3604SOL    HW211712   0.235   3.527   3.664
 3605SOL     OW11713   6.638   3.087   6.417
 3605SOL    HW111714   6.679   3.021   6.479
 3605SOL    HW211715   6.617   3.042   6.330
 3606SOL     OW11716   1.639   4.124   4.049
 3606SOL    HW111717   1.720   4.157   3.999
 3606SOL    HW211718   1.635   4.024   4.043
 3607SOL     OW11719   4.198   6.788   6.959
 3607SOL    HW111720   4.198   6.803   0.041
 3607SOL    HW211721   4.110   6.818   6.921
 3608SOL     OW11722   0.379   2.726   2.525
 3608SOL    HW111723   0.308   2.677   2.576
 3608SOL    HW211724   0.452   2.662   2.500
 3609SOL     OW11725   6.589   6.764   5.432
 3609SOL    HW111726   6.493   6.737   5.419
 3609SOL    HW211727   6.645   6.683   5.449
 3610SOL     OW11728   1.899   5.727   5.367
 3610SOL    HW111729   1.988   5.686   5.346
 3610SOL    HW211730   1.835   5.706   5.294
 3611SOL     OW11731   4.071   5.277   5.046
 3611SOL    HW111732   4.091   5.193   4.994
 3611SOL    HW211733   4.156   5.318   5.077
 3612SOL     OW11734   1.835   6.537   1.247
 3612SOL    HW111735   1.817   6.456   1.302
 3612SOL    HW211736   1.774   6.611   1.275
 3613SOL     OW11737   5.212   5.181   6.586
 3613SOL    HW111738   5.167   5.101   6.545
 3613SOL    HW211739   5.205   5.176   6.685
 3614SOL     OW11740   4.131   3.512   3.944
 3614SOL    HW111741   4.120   3.562   3.858
 3614SOL    HW211742   4.130   3.414   3.926
 3615SOL     OW11743   6.700   6.104   6.296
 3615SOL    HW111744   6.690   6.195   6.256
 3615SOL    HW211745   6.666   6.036   6.231
 3616SOL     OW11746   6.489   0.385   5.122
 3616SOL    HW111747   6.533   0.317   5.181
 3616SOL    HW211748   6.402   0.349   5.089
 3617SOL     OW11749   6.602   0.675   6.916
 3617SOL    HW111750   6.519   0.729   6.908
 3617SOL    HW211751   6.584   0.581   6.889
 3618SOL     OW11752   3.070   0.341   5.844
 3618SOL    HW111753   3.129   0.392   5.906
 3618SOL    HW211754   2.975   0.350   5.874
 3619SOL     OW11755   5.184   3.274   4.184
 3619SOL    HW111756   5.203   3.289   4.281
 3619SOL    HW211757   5.089   3.245   4.174
 3620SOL     OW11758   6.410   0.769   5.409
 3620SOL    HW111759   6.446   0.752   5.317
 3620SOL    HW211760   6.401   0.683   5.458
 3621SOL     OW11761   1.703   3.162   5.831
 3621SOL    HW111762   1.645   3.187   5.753
 3621SOL    HW211763   1.740   3.244   5.874
 3622SOL     OW11764   0.509   2.644   0.737
 3622SOL    HW111765   0.423   2.666   0.784
 3622SOL    HW211766   0.503   2.674   0.642
 3623SOL     OW11767   6.939   5.507   4.126
 3623SOL    HW111768   6.906   5.477   4.216
 3623SOL    HW211769   0.014   5.469   4.110
 3624SOL     OW11770   1.887   1.217   1.793
 3624SOL    HW111771   1.853   1.291   1.734
 3624SOL    HW211772   1.847   1.227   1.884
 3625SOL     OW11773   0.540   3.142   4.426
 3625SOL    HW111774   0.491   3.222   4.460
 3625SOL    HW211775   0.631   3.169   4.395
 3626SOL     OW11776   2.479   3.697   5.313
 3626SOL    HW111777   2.483   3.780   5.257
 3626SOL    HW211778   2.384   3.679   5.339
 3627SOL     OW11779   2.966   3.826   3.874
 3627SOL    HW111780   2.974   3.832   3.973
 3627SOL    HW211781   3.022   3.750   3.841
 3628SOL     OW11782   3.253   5.192   2.700
 3628SOL    HW111783   3.304   5.238   2.773
 3628SOL    HW211784   3.155   5.206   2.714
 3629SOL     OW11785   5.958   2.216   5.251
 3629SOL    HW111786   5.885   2.277   5.282
 3629SOL    HW211787   5.997   2.250   5.166
 3630SOL     OW11788   5.888   1.963   4.913
 3630SOL    HW111789   5.805   1.962   4.970
 3630SOL    HW211790   5.891   1.881   4.857
 3631SOL     OW11791   2.178   1.065   4.272
 3631SOL    HW111792   2.241   1.000   4.315
 3631SOL    HW211793   2.178   1.050   4.173
 3632SOL     OW11794   4.145   0.284   6.322
 3632SOL    HW111795   4.151   0.381   6.297
 3632SOL    HW211796   4.165   0.228   6.242
 3633SOL     OW11797   2.101   3.291   5.804
 3633SOL    HW111798   2.158   3.235   5.864
 3633SOL    HW211799   2.089   3.244   5.716
 3634SOL     OW11800   2.371   5.815   5.141
 3634SOL    HW111801   2.273   5.795   5.137
 3634SOL    HW211802   2.406   5.791   5.231
 3635SOL     OW11803   2.413   1.089   5.106
 3635SOL    HW111804   2.324   1.094   5.062
 3635SOL    HW211805   2.479   1.143   5.053
 3636SOL     OW11806   1.467   5.503   6.481
 3636SOL    HW111807   1.434   5.525   6.389
 3636SOL    HW211808   1.460   5.404   6.495
 3637SOL     OW11809   5.567   1.755   2.061
 3637SOL    HW111810   5.516   1.825   2.012
 3637SOL    HW211811   5.617   1.796   2.137
 3638SOL     OW11812   6.456   4.451   4.326
 3638SOL    HW111813   6.476   4.496   4.412
 3638SOL    HW211814   6.521   4.480   4.256
 3639SOL     OW11815   2.417   4.997   0.153
 3639SOL    HW111816   2.352   5.043   0.214
 3639SOL    HW211817   2.393   4.900   0.145
 3640SOL     OW11818   3.380   6.089   1.153
 3640SOL    HW111819   3.463   6.051   1.193
 3640SOL    HW211820   3.327   6.137   1.223
 3641SOL     OW11821   2.603   0.209   4.819
 3641SOL    HW111822   2.626   0.290   4.872
 3641SOL    HW211823   2.677   0.191   4.753
 3642SOL     OW11824   5.903   0.182   3.480
 3642SOL    HW111825   5.808   0.211   3.483
 3642SOL    HW211826   5.962   0.256   3.512
 3643SOL     OW11827   2.839   4.555   5.460
 3643SOL    HW111828   2.868   4.571   5.366
 3643SOL    HW211829   2.740   4.566   5.466
 3644SOL     OW11830   0.268   1.245   0.604
 3644SOL    HW111831   0.309   1.269   0.516
 3644SOL    HW211832   0.329   1.184   0.654
 3645SOL     OW11833   3.235   6.832   3.202
 3645SOL    HW111834   3.318   6.888   3.207
 3645SOL    HW211835   3.260   6.735   3.209
 3646SOL     OW11836   6.749   5.137   4.629
 3646SOL    HW111837   6.725   5.223   4.674
 3646SOL    HW211838   6.746   5.149   4.530
 3647SOL     OW11839   2.363   2.804   1.543
 3647SOL    HW111840   2.301   2.880   1.521
 3647SOL    HW211841   2.414   2.778   1.461
 3648SOL     OW11842   2.743   5.850   3.098
 3648SOL    HW111843   2.831   5.883   3.064
 3648SOL    HW211844   2.684   5.827   3.020
 3649SOL     OW11845   3.125   3.597   2.179
 3649SOL    HW111846   3.026   3.587   2.181
 3649SOL    HW211847   3.156   3.647   2.260
 3650SOL     OW11848   6.790   6.644   1.830
 3650SOL    HW111849   6.698   6.671   1.860
 3650SOL    HW211850   6.789   6.549   1.799
 3651SOL     OW11851   1.388   5.817   2.563
 3651SOL    HW111852   1.332   5.883   2.614
 3651SOL    HW211853   1.346   5.802   2.473
 3652SOL     OW11854   4.366   5.294   3.273
 3652SOL    HW111855   4.334   5.381   3.235
 3652SOL    HW211856   4.292   5.251   3.324
 3653SOL     OW11857   0.288   2.811   4.299
 3653SOL    HW111858   0.258   2.787   4.207
 3653SOL    HW211859   0.223   2.875   4.340
 3654SOL     OW11860   1.632   6.160   1.226
 3654SOL    HW111861   1.607   6.141   1.131
 3654SOL    HW211862   1.731   6.152   1.237
 3655SOL     OW11863   1.622   0.634   4.354
 3655SOL    HW111864   1.692   0.575   4.394
 3655SOL    HW211865   1.573   0.681   4.427
 3656SOL     OW11866   2.436   1.989   2.246
 3656SOL    HW111867   2.372   2.061   2.274
 3656SOL    HW211868   2.522   2.001   2.294
 3657SOL     OW11869   3.865   5.650   1.378
 3657SOL    HW111870   3.800   5.630   1.451
 3657SOL    HW211871   3.899   5.565   1.338
 3658SOL     OW11872   1.356   5.335   6.236
 3658SOL    HW111873   1.287   5.310   6.168
 3658SOL    HW211874   1.346   5.432   6.260
 3659SOL     OW11875   1.438   4.529   6.856
 3659SOL    HW111876   1.406   4.491   6.943
 3659SOL    HW211877   1.495   4.609   6.873
 3660SOL     OW11878   4.675   5.764   1.177
 3660SOL    HW111879   4.748   5.749   1.243
 3660SOL    HW211880   4.715   5.796   1.091
 3661SOL     OW11881   5.247   1.309   0.369
 3661SOL    HW111882   5.342   1.322   0.340
 3661SOL    HW211883   5.238   1.332   0.466
 3662SOL     OW11884   3.373   6.611   5.403
 3662SOL    HW111885   3.314   6.554   5.459
 3662SOL    HW211886   3.396   6.695   5.452
 3663SOL     OW11887   0.756   3.403   6.062
 3663SOL    HW111888   0.751   3.416   6.161
 3663SOL    HW211889   0.694   3.329   6.035
 3664SOL     OW11890   3.856   1.344   0.919
 3664SOL    HW111891   3.862   1.365   0.822
 3664SOL    HW211892   3.913   1.263   0.939
 3665SOL     OW11893   1.284   6.787   5.872
 3665SOL    HW111894   1.223   6.782   5.952
 3665SOL    HW211895   1.242   6.846   5.803
 3666SOL     OW11896   0.945   5.316   3.720
 3666SOL    HW111897   0.860   5.350   3.762
 3666SOL    HW211898   0.979   5.384   3.656
 3667SOL     OW11899   6.545   1.829   6.603
 3667SOL    HW111900   6.526   1.752   6.543
 3667SOL    HW211901   6.459   1.862   6.643
 3668SOL     OW11902   0.674   6.081   1.958
 3668SOL    HW111903   0.748   6.147   1.970
 3668SOL    HW211904   0.681   6.039   1.867
 3669SOL     OW11905   6.448   2.430   2.979
 3669SOL    HW111906   6.357   2.459   3.010
 3669SOL    HW211907   6.508   2.418   3.058
 3670SOL     OW11908   1.765   5.496   5.898
 3670SOL    HW111909   1.667   5.488   5.916
 3670SOL    HW211910   1.809   5.551   5.969
 3671SOL     OW11911   0.621   0.957   3.063
 3671SOL    HW111912   0.575   0.904   2.991
 3671SOL    HW211913   0.657   0.894   3.132
 3672SOL     OW11914   0.220   0.419   0.865
 3672SOL    HW111915   0.188   0.503   0.821
 3672SOL    HW211916   0.303   0.387   0.819
 3673SOL     OW11917   4.721   0.291   7.009
 3673SOL    HW111918   4.726   0.353   0.070
 3673SOL    HW211919   4.730   0.343   6.924
 3674SOL     OW11920   0.908   6.867   1.279
 3674SOL    HW111921   0.978   6.906   1.340
 3674SOL    HW211922   0.857   6.942   1.236
 3675SOL     OW11923   1.593   1.870   5.298
 3675SOL    HW111924   1.561   1.795   5.356
 3675SOL    HW211925   1.660   1.836   5.233
 3676SOL     OW11926   2.095   5.298   2.866
 3676SOL    HW111927   2.000   5.280   2.890
 3676SOL    HW211928   2.147   5.213   2.866
 3677SOL     OW11929   6.274   7.014   4.297
 3677SOL    HW111930   6.360   6.970   4.270
 3677SOL    HW211931   6.221   0.019   4.215
 3678SOL     OW11932   0.909   1.845   3.949
 3678SOL    HW111933   0.950   1.901   3.877
 3678SOL    HW211934   0.860   1.768   3.908
 3679SOL     OW11935   0.717   1.001   1.961
 3679SOL    HW111936   0.749   0.979   1.868
 3679SOL    HW211937   0.792   1.045   2.012
 3680SOL     OW11938   6.702   3.254   4.490
 3680SOL    HW111939   6.681   3.240   4.394
 3680SOL    HW211940   6.704   3.165   4.537
 3681SOL     OW11941   6.531   6.367   5.523
 3681SOL    HW111942   6.567   6.274   5.534
 3681SOL    HW211943   6.605   6.428   5.494
 3682SOL     OW11944   0.564   1.503   6.304
 3682SOL    HW111945   0.631   1.459   6.243
 3682SOL    HW211946   0.605   1.585   6.345
 3683SOL     OW11947   5.372   6.673   4.243
 3683SOL    HW111948   5.321   6.622   4.174
 3683SOL    HW211949   5.309   6.726   4.299
 3684SOL     OW11950   1.314   3.075   0.638
 3684SOL    HW111951   1.345   3.163   0.676
 3684SOL    HW211952   1.352   3.000   0.692
 3685SOL     OW11953   6.793   6.797   7.005
 3685SOL    HW111954   6.715   6.739   0.010
 3685SOL    HW211955   6.772   6.854   6.926
 3686SOL     OW11956   6.461   4.500   1.529
 3686SOL    HW111957   6.528   4.479   1.458
 3686SOL    HW211958   6.479   4.591   1.566
 3687SOL     OW11959   2.984   1.011   0.021
 3687SOL    HW111960   2.910   1.014   6.970
 3687SOL    HW211961   2.990   1.098   0.069
 3688SOL     OW11962   0.932   3.438   0.411
 3688SOL    HW111963   0.858   3.388   0.367
 3688SOL    HW211964   1.019   3.392   0.392
 3689SOL     OW11965   2.434   1.120   3.699
 3689SOL    HW111966   2.392   1.154   3.783
 3689SOL    HW211967   2.520   1.169   3.684
 3690SOL     OW11968   5.974   6.419   5.482
 3690SOL    HW111969   5.947   6.510   5.515
 3690SOL    HW211970   5.977   6.421   5.382
 3691SOL     OW11971   3.467   2.268   6.935
 3691SOL    HW111972   3.515   2.351   6.965
 3691SOL    HW211973   3.527   2.216   6.873
 3692SOL     OW11974   1.980   0.382   5.892
 3692SOL    HW111975   1.947   0.335   5.810
 3692SOL    HW211976   1.921   0.461   5.911
 3693SOL     OW11977   2.936   2.154   2.863
 3693SOL    HW111978   2.953   2.248   2.893
 3693SOL    HW211979   2.840   2.131   2.880
 3694SOL     OW11980   1.951   6.283   2.844
 3694SOL    HW111981   1.935   6.188   2.815
 3694SOL    HW211982   2.017   6.326   2.783
 3695SOL     OW11983   1.785   2.221   2.253
 3695SOL    HW111984   1.758   2.241   2.347
 3695SOL    HW211985   1.859   2.153   2.254
 3696SOL     OW11986   3.276   6.438   5.612
 3696SOL    HW111987   3.180   6.459   5.630
 3696SOL    HW211988   3.329   6.453   5.695
 3697SOL     OW11989   5.967   0.235   4.319
 3697SOL    HW111990   6.032   0.218   4.244
 3697SOL    HW211991   5.942   0.148   4.361
 3698SOL     OW11992   3.142   6.749   5.579
 3698SOL    HW111993   3.126   6.787   5.488
 3698SOL    HW211994   3.083   6.669   5.592
 3699SOL     OW11995   0.963   3.593   2.463
 3699SOL    HW111996   1.031   3.658   2.498
 3699SOL    HW211997   0.878   3.604   2.515
 3700SOL     OW11998   0.420   6.781   4.100
 3700SOL    HW111999   0.346   6.753   4.161
 3700SOL    HW212000   0.472   6.701   4.071
 3701SOL     OW12001   6.259   0.535   3.411
 3701SOL    HW112002   6.264   0.463   3.342
 3701SOL    HW212003   6.190   0.511   3.479
 3702SOL     OW12004   3.533   1.102   6.859
 3702SOL    HW112005   3.529   1.189   6.908
 3702SOL    HW212006   3.622   1.059   6.875
 3703SOL     OW12007   4.152   4.660   6.796
 3703SOL    HW112008   4.103   4.715   6.728
 3703SOL    HW212009   4.174   4.571   6.757
 3704SOL     OW12010   2.024   0.799   2.451
 3704SOL    HW112011   1.957   0.856   2.497
 3704SOL    HW212012   2.014   0.810   2.352
 3705SOL     OW12013   5.539   0.828   4.133
 3705SOL    HW112014   5.444   0.808   4.157
 3705SOL    HW212015   5.546   0.844   4.035
 3706SOL     OW12016   2.061   2.201   4.001
 3706SOL    HW112017   2.007   2.130   4.048
 3706SOL    HW212018   2.013   2.229   3.918
 3707SOL     OW12019   4.269   2.744   5.336
 3707SOL    HW112020   4.257   2.677   5.263
 3707SOL    HW212021   4.228   2.710   5.420
 3708SOL     OW12022   6.167   6.957   6.081
 3708SOL    HW112023   6.136   6.880   6.026
 3708SOL    HW212024   6.100   0.015   6.076
 3709SOL     OW12025   3.924   0.649   6.993
 3709SOL    HW112026   3.884   0.690   6.911
 3709SOL    HW212027   3.869   0.572   0.006
 3710SOL     OW12028   0.473   4.958   0.999
 3710SOL    HW112029   0.461   4.898   1.077
 3710SOL    HW212030   0.388   5.008   0.981
 3711SOL     OW12031   6.498   4.702   2.777
 3711SOL    HW112032   6.591   4.698   2.812
 3711SOL    HW212033   6.433   4.693   2.853
 3712SOL     OW12034   2.325   6.742   0.622
 3712SOL    HW112035   2.235   6.744   0.577
 3712SOL    HW212036   2.360   6.835   0.631
 3713SOL     OW12037   3.917   6.098   5.746
 3713SOL    HW112038   3.854   6.092   5.668
 3713SOL    HW212039   3.892   6.177   5.803
 3714SOL     OW12040   3.560   0.538   4.715
 3714SOL    HW112041   3.568   0.625   4.763
 3714SOL    HW212042   3.463   0.519   4.697
 3715SOL     OW12043   5.660   3.764   4.800
 3715SOL    HW112044   5.691   3.828   4.870
 3715SOL    HW212045   5.625   3.814   4.721
 3716SOL     OW12046   0.527   1.062   4.223
 3716SOL    HW112047   0.605   1.040   4.165
 3716SOL    HW212048   0.558   1.071   4.318
 3717SOL     OW12049   5.246   6.784   0.149
 3717SOL    HW112050   5.212   6.844   0.077
 3717SOL    HW212051   5.227   6.824   0.238
 3718SOL     OW12052   0.522   5.550   0.209
 3718SOL    HW112053   0.495   5.635   0.163
 3718SOL    HW212054   0.441   5.499   0.235
 3719SOL     OW12055   3.579   4.679   5.575
 3719SOL    HW112056   3.494   4.661   5.624
 3719SOL    HW212057   3.558   4.693   5.478
 3720SOL     OW12058   6.976   2.138   5.601
 3720SOL    HW112059   7.009   2.094   5.685
 3720SOL    HW212060   6.881   2.112   5.586
 3721SOL     OW12061   5.071   3.427   0.918
 3721SOL    HW112062   5.087   3.375   0.835
 3721SOL    HW212063   4.973   3.443   0.930
 3722SOL     OW12064   6.498   5.759   2.293
 3722SOL    HW112065   6.581   5.720   2.255
 3722SOL    HW212066   6.418   5.719   2.248
 3723SOL     OW12067   4.346   1.447   0.870
 3723SOL    HW112068   4.318   1.535   0.833
 3723SOL    HW212069   4.423   1.412   0.817
 3724SOL     OW12070   0.571   6.014   5.441
 3724SOL    HW112071   0.579   6.021   5.341
 3724SOL    HW212072   0.661   6.028   5.482
 3725SOL     OW12073   6.667   6.743   0.943
 3725SOL    HW112074   6.609   6.741   1.025
 3725SOL    HW212075   6.666   6.653   0.899
 3726SOL     OW12076   5.595   3.349   1.849
 3726SOL    HW112077   5.654   3.356   1.768
 3726SOL    HW212078   5.644   3.385   1.928
 3727SOL     OW12079   2.196   3.339   5.160
 3727SOL    HW112080   2.193   3.240   5.175
 3727SOL    HW212081   2.197   3.357   5.061
 3728SOL     OW12082   1.231   3.461   6.801
 3728SOL    HW112083   1.182   3.544   6.775
 3728SOL    HW212084   1.234   3.397   6.724
 3729SOL     OW12085   0.415   2.809   3.363
 3729SOL    HW112086   0.361   2.737   3.407
 3729SOL    HW212087   0.492   2.833   3.422
 3730SOL     OW12088   2.811   0.584   0.240
 3730SOL    HW112089   2.720   0.603   0.202
 3730SOL    HW212090   2.878   0.644   0.196
 3731SOL     OW12091   3.845   6.423   6.619
 3731SOL    HW112092   3.944   6.434   6.621
 3731SOL    HW212093   3.812   6.404   6.711
 3732SOL     OW12094   2.055   3.931   5.039
 3732SOL    HW112095   2.040   3.837   5.007
 3732SOL    HW212096   2.153   3.949   5.044
 3733SOL     OW12097   2.374   3.455   1.428
 3733SOL    HW112098   2.391   3.428   1.333
 3733SOL    HW212099   2.459   3.487   1.470
 3734SOL     OW12100   5.081   0.336   2.338
 3734SOL    HW112101   5.008   0.401   2.359
 3734SOL    HW212102   5.161   0.357   2.394
 3735SOL     OW12103   3.460   1.474   2.064
 3735SOL    HW112104   3.454   1.443   1.969
 3735SOL    HW212105   3.431   1.570   2.069
 3736SOL     OW12106   5.309   1.226   6.698
 3736SOL    HW112107   5.249   1.255   6.624
 3736SOL    HW212108   5.254   1.187   6.772
 3737SOL     OW12109   4.716   6.932   3.476
 3737SOL    HW112110   4.651   6.959   3.547
 3737SOL    HW212111   4.688   6.845   3.435
 3738SOL     OW12112   0.186   6.995   3.697
 3738SOL    HW112113   0.244   6.916   3.716
 3738SOL    HW212114   0.209   0.052   3.761
 3739SOL     OW12115   0.564   4.376   2.359
 3739SOL    HW112116   0.541   4.324   2.276
 3739SOL    HW212117   0.607   4.463   2.333
 3740SOL     OW12118   5.140   1.055   0.102
 3740SOL    HW112119   5.142   0.980   0.036
 3740SOL    HW212120   5.234   1.084   0.122
 3741SOL     OW12121   3.737   2.378   6.197
 3741SOL    HW112122   3.659   2.314   6.201
 3741SOL    HW212123   3.777   2.387   6.288
 3742SOL     OW12124   3.664   3.464   5.367
 3742SOL    HW112125   3.650   3.467   5.466
 3742SOL    HW212126   3.579   3.435   5.323
 3743SOL     OW12127   0.423   6.028   6.455
 3743SOL    HW112128   0.459   6.012   6.363
 3743SOL    HW212129   0.492   6.074   6.510
 3744SOL     OW12130   0.033   5.912   2.807
 3744SOL    HW112131   6.985   5.915   2.730
 3744SOL    HW212132   0.100   5.840   2.792
 3745SOL     OW12133   4.317   6.353   2.418
 3745SOL    HW112134   4.313   6.435   2.475
 3745SOL    HW212135   4.247   6.358   2.346
 3746SOL     OW12136   4.124   2.174   2.607
 3746SOL    HW112137   4.132   2.229   2.524
 3746SOL    HW212138   4.204   2.114   2.615
 3747SOL     OW12139   3.009   6.894   0.480
 3747SOL    HW112140   2.976   6.829   0.412
 3747SOL    HW212141   3.032   6.981   0.436
 3748SOL     OW12142   5.583   1.224   2.413
 3748SOL    HW112143   5.505   1.256   2.360
 3748SOL    HW212144   5.668   1.242   2.362
 3749SOL     OW12145   1.642   6.971   5.286
 3749SOL    HW112146   1.650   0.043   5.330
 3749SOL    HW212147   1.548   6.959   5.252
 3750SOL     OW12148   0.415   4.292   6.758
 3750SOL    HW112149   0.354   4.252   6.690
 3750SOL    HW212150   0.506   4.302   6.719
 3751SOL     OW12151   1.309   3.852   2.132
 3751SOL    HW112152   1.225   3.906   2.142
 3751SOL    HW212153   1.286   3.755   2.132
 3752SOL     OW12154   5.741   6.920   6.506
 3752SOL    HW112155   5.651   6.962   6.516
 3752SOL    HW212156   5.731   6.820   6.510
 3753SOL     OW12157   6.488   0.302   3.844
 3753SOL    HW112158   6.486   0.283   3.942
 3753SOL    HW212159   6.572   0.351   3.821
 3754SOL     OW12160   2.831   1.639   1.099
 3754SOL    HW112161   2.752   1.580   1.084
 3754SOL    HW212162   2.872   1.617   1.188
 3755SOL     OW12163   2.953   5.140   3.428
 3755SOL    HW112164   2.920   5.110   3.517
 3755SOL    HW212165   2.946   5.065   3.362
 3756SOL     OW12166   2.262   6.481   0.344
 3756SOL    HW112167   2.241   6.406   0.407
 3756SOL    HW212168   2.360   6.481   0.325
 3757SOL     OW12169   6.832   4.694   1.909
 3757SOL    HW112170   6.845   4.778   1.961
 3757SOL    HW212171   6.913   4.636   1.918
 3758SOL     OW12172   2.154   0.212   3.823
 3758SOL    HW112173   2.145   0.130   3.766
 3758SOL    HW212174   2.147   0.186   3.919
 3759SOL     OW12175   5.245   0.356   4.279
 3759SOL    HW112176   5.310   0.351   4.203
 3759SOL    HW212177   5.287   0.404   4.355
 3760SOL     OW12178   0.803   1.009   3.362
 3760SOL    HW112179   0.799   1.065   3.280
 3760SOL    HW212180   0.855   1.057   3.433
 3761SOL     OW12181   5.243   0.967   4.274
 3761SOL    HW112182   5.274   0.985   4.180
 3761SOL    HW212183   5.238   1.053   4.325
 3762SOL     OW12184   0.023   2.397   3.610
 3762SOL    HW112185   0.059   2.348   3.689
 3762SOL    HW212186   0.094   2.456   3.572
 3763SOL     OW12187   0.506   4.360   0.228
 3763SOL    HW112188   0.537   4.446   0.267
 3763SOL    HW212189   0.571   4.330   0.158
 3764SOL     OW12190   2.337   0.991   3.120
 3764SOL    HW112191   2.404   1.025   3.054
 3764SOL    HW212192   2.370   1.005   3.213
 3765SOL     OW12193   5.672   3.265   2.689
 3765SOL    HW112194   5.671   3.188   2.624
 3765SOL    HW212195   5.590   3.262   2.746
 3766SOL     OW12196   1.168   3.727   2.651
 3766SOL    HW112197   1.249   3.683   2.612
 3766SOL    HW212198   1.193   3.771   2.737
 3767SOL     OW12199   1.167   5.271   6.058
 3767SOL    HW112200   1.114   5.343   6.013
 3767SOL    HW212201   1.108   5.222   6.122
 3768SOL     OW12202   0.735   7.009   2.952
 3768SOL    HW112203   0.644   0.030   2.969
 3768SOL    HW212204   0.758   0.002   2.855
 3769SOL     OW12205   5.483   5.233   4.811
 3769SOL    HW112206   5.497   5.283   4.726
 3769SOL    HW212207   5.570   5.224   4.859
 3770SOL     OW12208   1.998   0.940   1.199
 3770SOL    HW112209   2.063   1.011   1.174
 3770SOL    HW212210   1.933   0.976   1.266
 3771SOL     OW12211   6.325   5.312   5.588
 3771SOL    HW112212   6.334   5.338   5.684
 3771SOL    HW212213   6.243   5.355   5.550
 3772SOL     OW12214   1.641   6.410   0.781
 3772SOL    HW112215   1.561   6.408   0.842
 3772SOL    HW212216   1.639   6.329   0.722
 3773SOL     OW12217   5.136   4.742   6.605
 3773SOL    HW112218   5.190   4.687   6.542
 3773SOL    HW212219   5.193   4.815   6.643
 3774SOL     OW12220   6.870   5.455   1.632
 3774SOL    HW112221   6.838   5.383   1.571
 3774SOL    HW212222   6.874   5.421   1.726
 3775SOL     OW12223   4.765   4.839   5.201
 3775SOL    HW112224   4.740   4.810   5.294
 3775SOL    HW212225   4.815   4.925   5.206
 3776SOL     OW12226   3.740   2.374   5.816
 3776SOL    HW112227   3.795   2.447   5.856
 3776SOL    HW212228   3.759   2.287   5.863
 3777SOL     OW12229   2.858   5.493   4.326
 3777SOL    HW112230   2.773   5.531   4.289
 3777SOL    HW212231   2.934   5.517   4.265
 3778SOL     OW12232   3.312   5.719   6.500
 3778SOL    HW112233   3.330   5.748   6.406
 3778SOL    HW212234   3.213   5.707   6.512
 3779SOL     OW12235   6.830   4.515   0.405
 3779SOL    HW112236   6.852   4.423   0.373
 3779SOL    HW212237   6.816   4.513   0.504
 3780SOL     OW12238   5.215   4.346   1.575
 3780SOL    HW112239   5.122   4.354   1.613
 3780SOL    HW212240   5.245   4.436   1.543
 3781SOL     OW12241   2.645   6.683   4.810
 3781SOL    HW112242   2.630   6.699   4.713
 3781SOL    HW212243   2.559   6.692   4.860
 3782SOL     OW12244   4.538   5.096   0.979
 3782SOL    HW112245   4.460   5.050   1.021
 3782SOL    HW212246   4.583   5.154   1.046
 3783SOL     OW12247   4.761   5.603   4.329
 3783SOL    HW112248   4.758   5.511   4.290
 3783SOL    HW212249   4.846   5.615   4.380
 3784SOL     OW12250   5.831   2.228   4.772
 3784SOL    HW112251   5.887   2.155   4.811
 3784SOL    HW212252   5.794   2.197   4.684
 3785SOL     OW12253   1.765   3.201   3.959
 3785SOL    HW112254   1.829   3.181   4.032
 3785SOL    HW212255   1.702   3.123   3.948
 3786SOL     OW12256   2.163   2.829   4.624
 3786SOL    HW112257   2.232   2.827   4.552
 3786SOL    HW212258   2.207   2.836   4.713
 3787SOL     OW12259   4.550   6.910   4.210
 3787SOL    HW112260   4.596   6.964   4.140
 3787SOL    HW212261   4.585   6.816   4.208
 3788SOL     OW12262   5.693   2.956   5.361
 3788SOL    HW112263   5.733   2.865   5.354
 3788SOL    HW212264   5.682   2.981   5.457
 3789SOL     OW12265   2.123   3.105   2.307
 3789SOL    HW112266   2.023   3.108   2.303
 3789SOL    HW212267   2.153   3.011   2.291
 3790SOL     OW12268   0.199   6.734   1.790
 3790SOL    HW112269   0.289   6.695   1.807
 3790SOL    HW212270   0.136   6.708   1.864
 3791SOL     OW12271   5.271   1.257   5.728
 3791SOL    HW112272   5.292   1.161   5.745
 3791SOL    HW212273   5.301   1.282   5.636
 3792SOL     OW12274   6.784   0.407   4.456
 3792SOL    HW112275   6.702   0.385   4.403
 3792SOL    HW212276   6.781   0.503   4.484
 3793SOL     OW12277   4.504   4.838   0.412
 3793SOL    HW112278   4.560   4.861   0.492
 3793SOL    HW212279   4.492   4.739   0.407
 3794SOL     OW12280   0.208   4.228   6.583
 3794SOL    HW112281   0.229   4.221   6.485
 3794SOL    HW212282   0.201   4.324   6.608
 3795SOL     OW12283   2.912   5.828   1.120
 3795SOL    HW112284   2.871   5.842   1.029
 3795SOL    HW212285   3.009   5.851   1.117
 3796SOL     OW12286   4.898   1.095   6.962
 3796SOL    HW112287   4.865   1.186   6.985
 3796SOL    HW212288   4.971   1.069   0.008
 3797SOL     OW12289   0.943   4.295   2.048
 3797SOL    HW112290   1.032   4.249   2.050
 3797SOL    HW212291   0.873   4.231   2.017
 3798SOL     OW12292   1.369   5.691   3.832
 3798SOL    HW112293   1.401   5.696   3.927
 3798SOL    HW212294   1.446   5.710   3.770
 3799SOL     OW12295   6.563   0.969   3.527
 3799SOL    HW112296   6.489   0.938   3.587
 3799SOL    HW212297   6.629   1.022   3.580
 3800SOL     OW12298   4.842   2.453   2.965
 3800SOL    HW112299   4.804   2.394   2.893
 3800SOL    HW212300   4.772   2.468   3.035
 3801SOL     OW12301   6.216   1.614   1.408
 3801SOL    HW112302   6.138   1.619   1.471
 3801SOL    HW212303   6.293   1.666   1.446
 3802SOL     OW12304   6.806   3.088   1.759
 3802SOL    HW112305   6.749   3.170   1.751
 3802SOL    HW212306   6.750   3.012   1.791
 3803SOL     OW12307   3.241   3.403   4.228
 3803SOL    HW112308   3.291   3.317   4.240
 3803SOL    HW212309   3.142   3.384   4.228
 3804SOL     OW12310   4.547   5.859   3.509
 3804SOL    HW112311   4.535   5.926   3.582
 3804SOL    HW212312   4.610   5.895   3.441
 3805SOL     OW12313   2.523   2.723   0.037
 3805SOL    HW112314   2.523   2.807   6.999
 3805SOL    HW212315   2.615   2.684   0.039
 3806SOL     OW12316   2.480   4.637   0.978
 3806SOL    HW112317   2.561   4.634   1.037
 3806SOL    HW212318   2.495   4.578   0.899
 3807SOL     OW12319   2.121   4.352   4.612
 3807SOL    HW112320   2.078   4.281   4.668
 3807SOL    HW212321   2.060   4.431   4.606
 3808SOL     OW12322   2.523   6.773   6.443
 3808SOL    HW112323   2.565   6.713   6.511
 3808SOL    HW212324   2.441   6.730   6.406
 3809SOL     OW12325   5.239   1.647   1.197
 3809SOL    HW112326   5.248   1.698   1.112
 3809SOL    HW212327   5.147   1.609   1.204
 3810SOL     OW12328   5.695   2.709   1.984
 3810SOL    HW112329   5.664   2.728   1.891
 3810SOL    HW212330   5.617   2.710   2.047
 3811SOL     OW12331   0.412   5.538   5.250
 3811SOL    HW112332   0.424   5.576   5.159
 3811SOL    HW212333   0.466   5.454   5.259
 3812SOL     OW12334   4.700   6.078   1.090
 3812SOL    HW112335   4.789   6.120   1.071
 3812SOL    HW212336   4.655   6.054   1.004
 3813SOL     OW12337   6.194   4.049   6.863
 3813SOL    HW112338   6.218   4.120   6.797
 3813SOL    HW212339   6.253   4.057   6.944
 3814SOL     OW12340   6.911   0.353   5.271
 3814SOL    HW112341   7.006   0.380   5.288
 3814SOL    HW212342   6.906   0.304   5.184
 3815SOL     OW12343   6.348   3.698   5.512
 3815SOL    HW112344   6.358   3.697   5.612
 3815SOL    HW212345   6.269   3.755   5.488
 3816SOL     OW12346   0.421   5.978   0.746
 3816SOL    HW112347   0.324   5.957   0.737
 3816SOL    HW212348   0.469   5.900   0.786
 3817SOL     OW12349   4.629   3.818   1.725
 3817SOL    HW112350   4.597   3.769   1.643
 3817SOL    HW212351   4.668   3.906   1.697
 3818SOL     OW12352   5.757   5.881   2.945
 3818SOL    HW112353   5.817   5.801   2.943
 3818SOL    HW212354   5.665   5.854   2.971
 3819SOL     OW12355   6.246   4.298   3.940
 3819SOL    HW112356   6.251   4.208   3.983
 3819SOL    HW212357   6.178   4.353   3.987
 3820SOL     OW12358   3.125   6.333   4.434
 3820SOL    HW112359   3.074   6.376   4.360
 3820SOL    HW212360   3.201   6.281   4.396
 3821SOL     OW12361   2.033   0.260   0.108
 3821SOL    HW112362   2.108   0.306   0.062
 3821SOL    HW212363   2.020   0.299   0.199
 3822SOL     OW12364   4.638   0.313   2.198
 3822SOL    HW112365   4.570   0.335   2.129
 3822SOL    HW212366   4.607   0.346   2.287
 3823SOL     OW12367   5.606   5.908   6.782
 3823SOL    HW112368   5.655   5.996   6.786
 3823SOL    HW212369   5.620   5.859   6.867
 3824SOL     OW12370   2.653   2.758   0.413
 3824SOL    HW112371   2.720   2.761   0.339
 3824SOL    HW212372   2.699   2.772   0.501
 3825SOL     OW12373   1.036   4.419   5.279
 3825SOL    HW112374   1.120   4.395   5.230
 3825SOL    HW212375   0.982   4.481   5.222
 3826SOL     OW12376   5.415   4.117   4.104
 3826SOL    HW112377   5.405   4.159   4.014
 3826SOL    HW212378   5.508   4.081   4.114
 3827SOL     OW12379   0.904   1.964   1.149
 3827SOL    HW112380   0.922   2.041   1.087
 3827SOL    HW212381   0.834   1.904   1.109
 3828SOL     OW12382   3.551   3.532   4.242
 3828SOL    HW112383   3.617   3.458   4.250
 3828SOL    HW212384   3.467   3.507   4.292
 3829SOL     OW12385   0.556   3.737   2.275
 3829SOL    HW112386   0.584   3.672   2.346
 3829SOL    HW212387   0.520   3.688   2.196
 3830SOL     OW12388   5.942   0.914   3.992
 3830SOL    HW112389   6.025   0.863   4.016
 3830SOL    HW212390   5.877   0.853   3.946
 3831SOL     OW12391   5.026   2.052   3.913
 3831SOL    HW112392   5.007   2.020   3.820
 3831SOL    HW212393   4.943   2.089   3.954
 3832SOL     OW12394   6.088   0.670   3.781
 3832SOL    HW112395   6.163   0.643   3.842
 3832SOL    HW212396   6.004   0.680   3.835
 3833SOL     OW12397   1.972   1.696   5.448
 3833SOL    HW112398   1.945   1.606   5.483
 3833SOL    HW212399   1.973   1.695   5.348
 3834SOL     OW12400   5.065   4.101   0.716
 3834SOL    HW112401   5.081   4.104   0.617
 3834SOL    HW212402   5.132   4.040   0.758
 3835SOL     OW12403   3.618   5.250   4.999
 3835SOL    HW112404   3.632   5.241   5.098
 3835SOL    HW212405   3.599   5.160   4.960
 3836SOL     OW12406   0.404   6.375   5.507
 3836SOL    HW112407   0.467   6.362   5.430
 3836SOL    HW212408   0.309   6.365   5.474
 3837SOL     OW12409   4.387   4.465   5.705
 3837SOL    HW112410   4.310   4.470   5.769
 3837SOL    HW212411   4.357   4.498   5.615
 3838SOL     OW12412   0.754   1.332   3.889
 3838SOL    HW112413   0.852   1.350   3.897
 3838SOL    HW212414   0.729   1.323   3.793
 3839SOL     OW12415   4.128   0.829   4.159
 3839SOL    HW112416   4.148   0.897   4.088
 3839SOL    HW212417   4.033   0.838   4.188
 3840SOL     OW12418   2.540   1.519   6.837
 3840SOL    HW112419   2.579   1.500   6.748
 3840SOL    HW212420   2.608   1.503   6.908
 3841SOL     OW12421   5.893   4.667   4.366
 3841SOL    HW112422   5.909   4.764   4.351
 3841SOL    HW212423   5.916   4.643   4.460
 3842SOL     OW12424   1.663   3.248   5.118
 3842SOL    HW112425   1.579   3.297   5.142
 3842SOL    HW212426   1.679   3.255   5.020
 3843SOL     OW12427   5.200   2.675   0.221
 3843SOL    HW112428   5.144   2.748   0.260
 3843SOL    HW212429   5.164   2.587   0.249
 3844SOL     OW12430   1.331   0.016   1.423
 3844SOL    HW112431   1.345   0.081   1.348
 3844SOL    HW212432   1.361   6.942   1.394
 3845SOL     OW12433   2.334   5.469   0.795
 3845SOL    HW112434   2.411   5.518   0.836
 3845SOL    HW212435   2.285   5.419   0.866
 3846SOL     OW12436   0.686   2.668   3.219
 3846SOL    HW112437   0.754   2.596   3.208
 3846SOL    HW212438   0.606   2.648   3.162
 3847SOL     OW12439   6.935   1.756   6.980
 3847SOL    HW112440   6.910   1.718   0.052
 3847SOL    HW212441   0.017   1.766   6.975
 3848SOL     OW12442   5.640   3.903   2.599
 3848SOL    HW112443   5.542   3.912   2.581
 3848SOL    HW212444   5.690   3.974   2.549
 3849SOL     OW12445   6.776   5.108   0.035
 3849SOL    HW112446   6.846   5.065   0.092
 3849SOL    HW212447   6.690   5.110   0.085
 3850SOL     OW12448   2.590   2.765   1.364
 3850SOL    HW112449   2.634   2.738   1.278
 3850SOL    HW212450   2.638   2.844   1.402
 3851SOL     OW12451   0.524   5.991   2.500
 3851SOL    HW112452   0.565   5.998   2.409
 3851SOL    HW212453   0.475   6.075   2.521
 3852SOL     OW12454   2.500   6.562   5.651
 3852SOL    HW112455   2.453   6.648   5.634
 3852SOL    HW212456   2.490   6.537   5.747
 3853SOL     OW12457   2.477   0.712   3.441
 3853SOL    HW112458   2.520   0.678   3.524
 3853SOL    HW212459   2.398   0.770   3.465
 3854SOL     OW12460   1.630   2.340   2.474
 3854SOL    HW112461   1.676   2.422   2.509
 3854SOL    HW212462   1.654   2.261   2.530
 3855SOL     OW12463   3.800   6.917   0.263
 3855SOL    HW112464   3.871   6.934   0.331
 3855SOL    HW212465   3.780   6.820   0.260
 3856SOL     OW12466   0.668   2.352   6.838
 3856SOL    HW112467   0.753   2.400   6.860
 3856SOL    HW212468   0.669   2.261   6.880
 3857SOL     OW12469   2.562   0.269   5.509
 3857SOL    HW112470   2.564   0.173   5.481
 3857SOL    HW212471   2.612   0.324   5.442
 3858SOL     OW12472   4.189   0.391   4.914
 3858SOL    HW112473   4.279   0.415   4.951
 3858SOL    HW212474   4.163   0.459   4.846
 3859SOL     OW12475   5.976   0.359   1.961
 3859SOL    HW112476   5.980   0.425   2.035
 3859SOL    HW212477   5.914   0.285   1.985
 3860SOL     OW12478   1.147   6.784   4.160
 3860SOL    HW112479   1.120   6.805   4.066
 3860SOL    HW212480   1.073   6.736   4.207
 3861SOL     OW12481   3.414   5.909   1.786
 3861SOL    HW112482   3.420   5.848   1.865
 3861SOL    HW212483   3.334   5.886   1.732
 3862SOL     OW12484   1.711   0.215   3.895
 3862SOL    HW112485   1.617   0.189   3.878
 3862SOL    HW212486   1.764   0.135   3.923
 3863SOL     OW12487   3.887   0.132   0.670
 3863SOL    HW112488   3.956   0.202   0.651
 3863SOL    HW212489   3.802   0.176   0.698
 3864SOL     OW12490   2.412   0.040   4.435
 3864SOL    HW112491   2.412   0.132   4.475
 3864SOL    HW212492   2.506   0.013   4.414
 3865SOL     OW12493   3.840   0.646   0.645
 3865SOL    HW112494   3.895   0.566   0.621
 3865SOL    HW212495   3.743   0.620   0.647
 3866SOL     OW12496   2.799   3.008   6.662
 3866SOL    HW112497   2.703   2.984   6.678
 3866SOL    HW212498   2.809   3.045   6.570
 3867SOL     OW12499   0.387   3.703   1.799
 3867SOL    HW112500   0.394   3.699   1.899
 3867SOL    HW212501   0.350   3.617   1.765
 3868SOL     OW12502   4.245   0.671   0.081
 3868SOL    HW112503   4.155   0.709   0.103
 3868SOL    HW212504   4.242   0.629   7.007
 3869SOL     OW12505   5.886   3.177   3.778
 3869SOL    HW112506   5.845   3.105   3.722
 3869SOL    HW212507   5.818   3.214   3.841
 3870SOL     OW12508   0.234   0.390   4.029
 3870SOL    HW112509   0.202   0.451   3.955
 3870SOL    HW212510   0.165   0.389   4.102
 3871SOL     OW12511   2.888   5.100   4.387
 3871SOL    HW112512   2.893   5.087   4.288
 3871SOL    HW212513   2.923   5.191   4.410
 3872SOL     OW12514   3.058   3.650   5.654
 3872SOL    HW112515   3.005   3.642   5.570
 3872SOL    HW212516   3.017   3.593   5.725
 3873SOL     OW12517   4.650   1.953   0.299
 3873SOL    HW112518   4.727   1.918   0.352
 3873SOL    HW212519   4.665   2.049   0.276
 3874SOL     OW12520   2.961   0.803   0.185
 3874SOL    HW112521   3.049   0.761   0.210
 3874SOL    HW212522   2.978   0.887   0.133
 3875SOL     OW12523   1.638   2.131   6.068
 3875SOL    HW112524   1.735   2.108   6.072
 3875SOL    HW212525   1.613   2.184   6.149
 3876SOL     OW12526   3.860   5.299   1.050
 3876SOL    HW112527   3.841   5.201   1.057
 3876SOL    HW212528   3.861   5.326   0.954
 3877SOL     OW12529   6.751   1.958   0.101
 3877SOL    HW112530   6.798   1.871   0.081
 3877SOL    HW212531   6.695   1.984   0.022
 3878SOL     OW12532   4.387   0.462   3.875
 3878SOL    HW112533   4.346   0.549   3.847
 3878SOL    HW212534   4.332   0.421   3.948
 3879SOL     OW12535   5.295   5.019   0.008
 3879SOL    HW112536   5.227   4.956   0.046
 3879SOL    HW212537   5.384   4.974   0.004
 3880SOL     OW12538   4.928   3.891   4.179
 3880SOL    HW112539   4.934   3.795   4.150
 3880SOL    HW212540   4.919   3.895   4.279
 3881SOL     OW12541   1.308   4.108   0.091
 3881SOL    HW112542   1.344   4.033   0.036
 3881SOL    HW212543   1.367   4.123   0.170
 3882SOL     OW12544   1.029   1.671   1.000
 3882SOL    HW112545   1.014   1.599   0.932
 3882SOL    HW212546   1.050   1.629   1.088
 3883SOL     OW12547   4.838   6.372   3.362
 3883SOL    HW112548   4.844   6.273   3.349
 3883SOL    HW212549   4.754   6.394   3.413
 3884SOL     OW12550   1.052   5.092   2.243
 3884SOL    HW112551   1.131   5.133   2.198
 3884SOL    HW212552   0.969   5.113   2.192
 3885SOL     OW12553   5.464   6.103   3.191
 3885SOL    HW112554   5.404   6.038   3.237
 3885SOL    HW212555   5.411   6.157   3.125
 3886SOL     OW12556   3.797   6.299   5.946
 3886SOL    HW112557   3.752   6.311   5.858
 3886SOL    HW212558   3.790   6.384   5.999
 3887SOL     OW12559   0.030   5.946   1.917
 3887SOL    HW112560   0.102   5.995   1.869
 3887SOL    HW212561   0.057   5.931   2.012
 3888SOL     OW12562   5.645   6.197   4.390
 3888SOL    HW112563   5.655   6.262   4.315
 3888SOL    HW212564   5.647   6.246   4.478
 3889SOL     OW12565   5.620   3.443   6.644
 3889SOL    HW112566   5.556   3.366   6.642
 3889SOL    HW212567   5.584   3.514   6.705
 3890SOL     OW12568   5.161   3.265   4.717
 3890SOL    HW112569   5.193   3.324   4.791
 3890SOL    HW212570   5.196   3.172   4.732
 3891SOL     OW12571   5.913   4.895   3.260
 3891SOL    HW112572   5.826   4.942   3.244
 3891SOL    HW212573   5.902   4.828   3.333
 3892SOL     OW12574   0.175   2.722   1.368
 3892SOL    HW112575   0.190   2.784   1.445
 3892SOL    HW212576   0.140   2.635   1.402
 3893SOL     OW12577   4.126   3.789   1.224
 3893SOL    HW112578   4.106   3.785   1.321
 3893SOL    HW212579   4.047   3.755   1.172
 3894SOL     OW12580   4.885   0.419   6.245
 3894SOL    HW112581   4.946   0.493   6.274
 3894SOL    HW212582   4.896   0.403   6.147
 3895SOL     OW12583   1.708   6.785   4.491
 3895SOL    HW112584   1.619   6.774   4.448
 3895SOL    HW212585   1.738   6.698   4.531
 3896SOL     OW12586   1.498   1.060   6.765
 3896SOL    HW112587   1.435   1.040   6.690
 3896SOL    HW212588   1.447   1.092   6.845
 3897SOL     OW12589   4.108   5.799   2.035
 3897SOL    HW112590   4.156   5.865   2.094
 3897SOL    HW212591   4.170   5.769   1.962
 3898SOL     OW12592   4.018   2.886   6.475
 3898SOL    HW112593   3.994   2.794   6.443
 3898SOL    HW212594   4.110   2.910   6.443
 3899SOL     OW12595   4.466   6.373   6.162
 3899SOL    HW112596   4.537   6.307   6.187
 3899SOL    HW212597   4.388   6.324   6.122
 3900SOL     OW12598   5.141   4.130   2.825
 3900SOL    HW112599   5.223   4.122   2.881
 3900SOL    HW212600   5.158   4.193   2.749
 3901SOL     OW12601   3.035   0.378   6.921
 3901SOL    HW112602   3.058   0.403   7.015
 3901SOL    HW212603   3.005   0.283   6.918
 3902SOL     OW12604   6.329   3.227   2.610
 3902SOL    HW112605   6.387   3.162   2.659
 3902SOL    HW212606   6.300   3.299   2.672
 3903SOL     OW12607   3.731   5.464   6.618
 3903SOL    HW112608   3.666   5.538   6.598
 3903SOL    HW212609   3.746   5.460   6.717
 3904SOL     OW12610   1.289   0.609   0.289
 3904SOL    HW112611   1.232   0.531   0.316
 3904SOL    HW212612   1.382   0.596   0.322
 3905SOL     OW12613   7.005   6.138   5.613
 3905SOL    HW112614   0.035   6.173   5.694
 3905SOL    HW212615   0.048   6.145   5.534
 3906SOL     OW12616   5.648   6.422   5.628
 3906SOL    HW112617   5.735   6.422   5.678
 3906SOL    HW212618   5.659   6.373   5.542
 3907SOL     OW12619   5.762   1.939   4.086
 3907SOL    HW112620   5.748   1.936   3.987
 3907SOL    HW212621   5.859   1.928   4.107
 3908SOL     OW12622   1.604   2.095   5.783
 3908SOL    HW112623   1.553   2.178   5.760
 3908SOL    HW212624   1.619   2.092   5.882
 3909SOL     OW12625   5.549   5.320   4.169
 3909SOL    HW112626   5.475   5.302   4.234
 3909SOL    HW212627   5.610   5.390   4.207
 3910SOL     OW12628   3.650   3.908   2.812
 3910SOL    HW112629   3.663   3.923   2.714
 3910SOL    HW212630   3.597   3.983   2.851
 3911SOL     OW12631   5.848   1.607   5.513
 3911SOL    HW112632   5.751   1.583   5.518
 3911SOL    HW212633   5.861   1.701   5.546
 3912SOL     OW12634   5.702   2.086   5.551
 3912SOL    HW112635   5.639   2.161   5.575
 3912SOL    HW212636   5.722   2.090   5.453
 3913SOL     OW12637   1.196   6.739   0.335
 3913SOL    HW112638   1.288   6.761   0.302
 3913SOL    HW212639   1.202   6.684   0.418
 3914SOL     OW12640   3.772   6.678   6.323
 3914SOL    HW112641   3.717   6.752   6.360
 3914SOL    HW212642   3.736   6.590   6.355
 3915SOL     OW12643   5.175   5.378   1.673
 3915SOL    HW112644   5.152   5.429   1.756
 3915SOL    HW212645   5.261   5.412   1.636
 3916SOL     OW12646   1.226   0.107   3.080
 3916SOL    HW112647   1.261   0.199   3.095
 3916SOL    HW212648   1.140   0.095   3.129
 3917SOL     OW12649   1.761   0.237   0.027
 3917SOL    HW112650   1.852   0.268   0.056
 3917SOL    HW212651   1.703   0.225   0.108
 3918SOL     OW12652   5.294   4.386   1.933
 3918SOL    HW112653   5.284   4.307   1.872
 3918SOL    HW212654   5.381   4.380   1.982
 3919SOL     OW12655   3.373   0.097   0.449
 3919SOL    HW112656   3.313   0.137   0.380
 3919SOL    HW212657   3.466   0.089   0.412
 3920SOL     OW12658   2.080   2.712   6.472
 3920SOL    HW112659   2.167   2.716   6.520
 3920SOL    HW212660   2.059   2.616   6.451
 3921SOL     OW12661   1.159   4.020   1.567
 3921SOL    HW112662   1.256   4.000   1.551
 3921SOL    HW212663   1.115   4.042   1.480
 3922SOL     OW12664   0.607   3.852   1.472
 3922SOL    HW112665   0.651   3.872   1.385
 3922SOL    HW212666   0.615   3.930   1.533
 3923SOL     OW12667   0.865   0.584   0.576
 3923SOL    HW112668   0.909   0.637   0.502
 3923SOL    HW212669   0.803   0.644   0.627
 3924SOL     OW12670   6.497   4.603   4.540
 3924SOL    HW112671   6.488   4.613   4.639
 3924SOL    HW212672   6.466   4.687   4.495
 3925SOL     OW12673   1.760   5.226   2.223
 3925SOL    HW112674   1.839   5.238   2.162
 3925SOL    HW212675   1.746   5.129   2.242
 3926SOL     OW12676   4.567   4.416   2.263
 3926SOL    HW112677   4.522   4.504   2.249
 3926SOL    HW212678   4.552   4.357   2.183
 3927SOL     OW12679   0.394   3.126   6.148
 3927SOL    HW112680   0.441   3.127   6.236
 3927SOL    HW212681   0.409   3.038   6.103
 3928SOL     OW12682   5.150   5.809   6.987
 3928SOL    HW112683   5.129   5.770   0.060
 3928SOL    HW212684   5.091   5.766   6.918
 3929SOL     OW12685   0.758   1.232   4.983
 3929SOL    HW112686   0.776   1.229   5.081
 3929SOL    HW212687   0.673   1.183   4.963
 3930SOL     OW12688   2.162   1.719   3.285
 3930SOL    HW112689   2.243   1.746   3.337
 3930SOL    HW212690   2.173   1.625   3.253
 3931SOL     OW12691   6.392   1.770   1.508
 3931SOL    HW112692   6.485   1.803   1.490
 3931SOL    HW212693   6.391   1.722   1.596
 3932SOL     OW12694   0.834   2.197   4.163
 3932SOL    HW112695   0.785   2.284   4.172
 3932SOL    HW212696   0.768   2.123   4.147
 3933SOL     OW12697   1.379   0.573   6.276
 3933SOL    HW112698   1.433   0.503   6.322
 3933SOL    HW212699   1.408   0.664   6.308
 3934SOL     OW12700   5.934   0.356   5.877
 3934SOL    HW112701   6.032   0.361   5.895
 3934SOL    HW212702   5.889   0.437   5.916
 3935SOL     OW12703   4.280   0.373   0.891
 3935SOL    HW112704   4.308   0.423   0.809
 3935SOL    HW212705   4.321   0.415   0.972
 3936SOL     OW12706   6.340   5.531   4.271
 3936SOL    HW112707   6.276   5.608   4.271
 3936SOL    HW212708   6.321   5.472   4.349
 3937SOL     OW12709   0.385   1.270   2.662
 3937SOL    HW112710   0.349   1.333   2.593
 3937SOL    HW212711   0.410   1.184   2.619
 3938SOL     OW12712   6.945   1.147   3.047
 3938SOL    HW112713   7.007   1.225   3.034
 3938SOL    HW212714   6.994   1.062   3.027
 3939SOL     OW12715   2.986   1.767   2.013
 3939SOL    HW112716   2.923   1.726   2.079
 3939SOL    HW212717   2.945   1.850   1.975
 3940SOL     OW12718   3.463   3.639   1.101
 3940SOL    HW112719   3.448   3.649   1.003
 3940SOL    HW212720   3.515   3.718   1.135
 3941SOL     OW12721   3.950   4.510   6.589
 3941SOL    HW112722   3.968   4.606   6.565
 3941SOL    HW212723   3.987   4.450   6.518
 3942SOL     OW12724   6.295   6.832   6.747
 3942SOL    HW112725   6.382   6.865   6.713
 3942SOL    HW212726   6.222   6.893   6.717
 3943SOL     OW12727   0.863   2.998   4.555
 3943SOL    HW112728   0.837   3.063   4.484
 3943SOL    HW212729   0.813   2.912   4.542
 3944SOL     OW12730   5.111   2.285   4.851
 3944SOL    HW112731   5.036   2.223   4.828
 3944SOL    HW212732   5.115   2.360   4.785
 3945SOL     OW12733   0.177   1.784   1.122
 3945SOL    HW112734   0.223   1.695   1.124
 3945SOL    HW212735   0.218   1.842   1.052
 3946SOL     OW12736   4.645   4.641   3.262
 3946SOL    HW112737   4.720   4.605   3.318
 3946SOL    HW212738   4.578   4.569   3.246
 3947SOL     OW12739   4.777   6.099   0.544
 3947SOL    HW112740   4.733   6.010   0.560
 3947SOL    HW212741   4.843   6.091   0.469
 3948SOL     OW12742   6.057   4.614   1.523
 3948SOL    HW112743   6.117   4.535   1.516
 3948SOL    HW212744   5.962   4.583   1.517
 3949SOL     OW12745   4.532   5.785   3.028
 3949SOL    HW112746   4.513   5.755   3.121
 3949SOL    HW212747   4.462   5.748   2.966
 3950SOL     OW12748   2.034   5.596   1.079
 3950SOL    HW112749   2.035   5.535   1.000
 3950SOL    HW212750   1.940   5.627   1.096
 3951SOL     OW12751   5.314   0.537   1.679
 3951SOL    HW112752   5.362   0.607   1.731
 3951SOL    HW212753   5.219   0.531   1.710
 3952SOL     OW12754   6.870   3.029   0.625
 3952SOL    HW112755   6.937   2.966   0.664
 3952SOL    HW212756   6.860   3.109   0.684
 3953SOL     OW12757   4.204   3.467   1.818
 3953SOL    HW112758   4.161   3.376   1.816
 3953SOL    HW212759   4.199   3.504   1.911
 3954SOL     OW12760   4.085   4.470   5.682
 3954SOL    HW112761   3.993   4.437   5.705
 3954SOL    HW212762   4.131   4.503   5.764
 3955SOL     OW12763   3.549   0.529   5.613
 3955SOL    HW112764   3.486   0.606   5.610
 3955SOL    HW212765   3.566   0.496   5.520
 3956SOL     OW12766   0.859   0.953   2.272
 3956SOL    HW112767   0.939   0.898   2.248
 3956SOL    HW212768   0.781   0.893   2.291
 3957SOL     OW12769   3.701   0.151   4.313
 3957SOL    HW112770   3.607   0.182   4.296
 3957SOL    HW212771   3.706   0.052   4.298
 3958SOL     OW12772   5.890   1.705   4.792
 3958SOL    HW112773   5.885   1.606   4.807
 3958SOL    HW212774   5.873   1.725   4.696
 3959SOL     OW12775   4.891   5.332   0.247
 3959SOL    HW112776   4.966   5.396   0.266
 3959SOL    HW212777   4.819   5.343   0.316
 3960SOL     OW12778   5.409   2.277   5.381
 3960SOL    HW112779   5.321   2.244   5.414
 3960SOL    HW212780   5.396   2.362   5.330
 3961SOL     OW12781   5.205   7.012   3.264
 3961SOL    HW112782   5.267   0.071   3.244
 3961SOL    HW212783   5.164   0.009   3.354
 3962SOL     OW12784   0.566   5.530   5.609
 3962SOL    HW112785   0.536   5.583   5.689
 3962SOL    HW212786   0.625   5.587   5.552
 3963SOL     OW12787   4.391   6.564   2.157
 3963SOL    HW112788   4.425   6.558   2.251
 3963SOL    HW212789   4.317   6.498   2.145
 3964SOL     OW12790   4.802   3.940   3.002
 3964SOL    HW112791   4.741   4.004   3.050
 3964SOL    HW212792   4.851   3.884   3.069
 3965SOL     OW12793   5.236   3.584   4.445
 3965SOL    HW112794   5.224   3.486   4.455
 3965SOL    HW212795   5.272   3.605   4.354
 3966SOL     OW12796   3.061   5.620   6.550
 3966SOL    HW112797   2.966   5.596   6.568
 3966SOL    HW212798   3.119   5.539   6.558
 3967SOL     OW12799   1.703   4.918   2.244
 3967SOL    HW112800   1.617   4.870   2.227
 3967SOL    HW212801   1.777   4.868   2.200
 3968SOL     OW12802   4.013   0.443   0.606
 3968SOL    HW112803   4.078   0.510   0.570
 3968SOL    HW212804   4.020   0.359   0.553
 3969SOL     OW12805   1.758   5.858   2.216
 3969SOL    HW112806   1.828   5.809   2.165
 3969SOL    HW212807   1.776   5.851   2.314
 3970SOL     OW12808   5.784   6.090   2.248
 3970SOL    HW112809   5.859   6.127   2.192
 3970SOL    HW212810   5.798   6.116   2.343
 3971SOL     OW12811   3.067   5.576   4.192
 3971SOL    HW112812   3.111   5.523   4.120
 3971SOL    HW212813   3.033   5.662   4.154
 3972SOL     OW12814   1.833   3.907   6.943
 3972SOL    HW112815   1.774   3.858   6.878
 3972SOL    HW212816   1.925   3.868   6.940
 3973SOL     OW12817   1.157   5.769   0.922
 3973SOL    HW112818   1.110   5.856   0.912
 3973SOL    HW212819   1.103   5.708   0.981
 3974SOL     OW12820   2.197   0.507   6.079
 3974SOL    HW112821   2.232   0.415   6.097
 3974SOL    HW212822   2.199   0.526   5.981
 3975SOL     OW12823   5.196   2.244   6.480
 3975SOL    HW112824   5.228   2.257   6.574
 3975SOL    HW212825   5.146   2.325   6.451
 3976SOL     OW12826   1.481   6.108   2.377
 3976SOL    HW112827   1.567   6.123   2.426
 3976SOL    HW212828   1.412   6.072   2.441
 3977SOL     OW12829   1.078   3.675   6.690
 3977SOL    HW112830   0.989   3.660   6.646
 3977SOL    HW212831   1.120   3.758   6.653
 3978SOL     OW12832   6.856   5.009   3.854
 3978SOL    HW112833   6.915   4.982   3.930
 3978SOL    HW212834   6.837   5.107   3.861
 3979SOL     OW12835   3.537   0.684   6.137
 3979SOL    HW112836   3.628   0.668   6.099
 3979SOL    HW212837   3.468   0.650   6.073
 3980SOL     OW12838   6.215   6.377   6.277
 3980SOL    HW112839   6.120   6.346   6.281
 3980SOL    HW212840   6.218   6.476   6.286
 3981SOL     OW12841   4.752   6.474   0.336
 3981SOL    HW112842   4.690   6.400   0.362
 3981SOL    HW212843   4.720   6.514   0.249
 3982SOL     OW12844   2.487   0.126   2.222
 3982SOL    HW112845   2.452   0.200   2.279
 3982SOL    HW212846   2.585   0.138   2.208
 3983SOL     OW12847   4.183   5.511   3.775
 3983SOL    HW112848   4.278   5.503   3.743
 3983SOL    HW212849   4.139   5.586   3.725
 3984SOL     OW12850   5.566   1.797   2.819
 3984SOL    HW112851   5.592   1.700   2.824
 3984SOL    HW212852   5.467   1.804   2.811
 3985SOL     OW12853   2.763   5.435   6.390
 3985SOL    HW112854   2.765   5.404   6.485
 3985SOL    HW212855   2.702   5.513   6.382
 3986SOL     OW12856   5.054   1.808   2.079
 3986SOL    HW112857   5.085   1.901   2.063
 3986SOL    HW212858   5.076   1.781   2.173
 3987SOL     OW12859   3.373   4.966   4.822
 3987SOL    HW112860   3.304   4.963   4.893
 3987SOL    HW212861   3.329   4.962   4.732
 3988SOL     OW12862   4.726   5.358   0.607
 3988SOL    HW112863   4.647   5.306   0.639
 3988SOL    HW212864   4.708   5.391   0.514
 3989SOL     OW12865   6.139   2.233   0.071
 3989SOL    HW112866   6.059   2.178   0.097
 3989SOL    HW212867   6.124   2.328   0.097
 3990SOL     OW12868   5.000   2.735   1.829
 3990SOL    HW112869   4.981   2.833   1.826
 3990SOL    HW212870   4.952   2.694   1.907
 3991SOL     OW12871   0.046   0.814   3.149
 3991SOL    HW112872   0.036   0.823   3.050
 3991SOL    HW212873   0.132   0.855   3.178
 3992SOL     OW12874   2.848   2.362   1.181
 3992SOL    HW112875   2.879   2.276   1.141
 3992SOL    HW212876   2.926   2.411   1.220
 3993SOL     OW12877   1.558   3.583   2.289
 3993SOL    HW112878   1.633   3.640   2.253
 3993SOL    HW212879   1.520   3.528   2.215
 3994SOL     OW12880   2.801   0.003   5.025
 3994SOL    HW112881   2.894   0.005   4.988
 3994SOL    HW212882   2.742   6.965   4.965
 3995SOL     OW12883   1.402   2.726   5.078
 3995SOL    HW112884   1.420   2.825   5.078
 3995SOL    HW212885   1.472   2.680   5.133
 3996SOL     OW12886   0.536   6.509   5.141
 3996SOL    HW112887   0.482   6.526   5.058
 3996SOL    HW212888   0.629   6.544   5.128
 3997SOL     OW12889   5.518   0.867   4.654
 3997SOL    HW112890   5.436   0.815   4.632
 3997SOL    HW212891   5.491   0.957   4.690
 3998SOL     OW12892   3.919   2.023   3.767
 3998SOL    HW112893   3.968   2.098   3.810
 3998SOL    HW212894   3.857   2.059   3.698
 3999SOL     OW12895   6.028   2.345   4.988
 3999SOL    HW112896   5.943   2.306   4.952
 3999SOL    HW212897   6.094   2.356   4.913
 4000SOL     OW12898   4.039   0.440   3.654
 4000SOL    HW112899   4.074   0.359   3.701
 4000SOL    HW212900   4.000   0.503   3.720
 4001SOL     OW12901   1.371   1.773   3.310
 4001SOL    HW112902   1.356   1.860   3.263
 4001SOL    HW212903   1.465   1.769   3.344
 4002SOL     OW12904   2.097   3.222   2.039
 4002SOL    HW112905   2.108   3.194   2.135
 4002SOL    HW212906   2.101   3.322   2.032
 4003SOL     OW12907   3.504   0.267   4.564
 4003SOL    HW112908   3.601   0.291   4.578
 4003SOL    HW212909   3.471   0.312   4.481
 4004SOL     OW12910   6.657   1.805   5.212
 4004SOL    HW112911   6.592   1.819   5.287
 4004SOL    HW212912   6.710   1.888   5.198
 4005SOL     OW12913   5.565   5.084   6.033
 4005SOL    HW112914   5.647   5.140   6.031
 4005SOL    HW212915   5.513   5.098   5.949
 4006SOL     OW12916   3.857   5.347   2.497
 4006SOL    HW112917   3.806   5.275   2.544
 4006SOL    HW212918   3.955   5.331   2.510
 4007SOL     OW12919   6.905   2.195   6.903
 4007SOL    HW112920   6.980   2.182   6.967
 4007SOL    HW212921   6.926   2.271   6.841
 4008SOL     OW12922   2.563   2.432   4.966
 4008SOL    HW112923   2.618   2.349   4.955
 4008SOL    HW212924   2.490   2.415   5.032
 4009SOL     OW12925   4.053   3.388   2.347
 4009SOL    HW112926   3.977   3.453   2.343
 4009SOL    HW212927   4.108   3.395   2.264
 4010SOL     OW12928   2.096   3.008   0.221
 4010SOL    HW112929   2.079   2.943   0.295
 4010SOL    HW212930   2.053   3.095   0.243
 4011SOL     OW12931   1.045   2.739   1.821
 4011SOL    HW112932   0.980   2.663   1.830
 4011SOL    HW212933   1.025   2.790   1.737
 4012SOL     OW12934   6.668   4.228   3.789
 4012SOL    HW112935   6.691   4.182   3.875
 4012SOL    HW212936   6.682   4.165   3.712
 4013SOL     OW12937   4.645   2.534   3.227
 4013SOL    HW112938   4.592   2.541   3.311
 4013SOL    HW212939   4.743   2.535   3.249
 4014SOL     OW12940   5.235   5.966   2.956
 4014SOL    HW112941   5.231   5.871   2.926
 4014SOL    HW212942   5.242   6.026   2.876
 4015SOL     OW12943   5.305   4.011   6.204
 4015SOL    HW112944   5.328   4.106   6.186
 4015SOL    HW212945   5.283   3.999   6.300
 4016SOL     OW12946   2.566   6.248   5.371
 4016SOL    HW112947   2.660   6.212   5.365
 4016SOL    HW212948   2.505   6.192   5.315
 4017SOL     OW12949   6.430   5.649   0.075
 4017SOL    HW112950   6.335   5.679   0.077
 4017SOL    HW212951   6.472   5.677   7.006
 4018SOL     OW12952   3.152   5.615   0.850
 4018SOL    HW112953   3.172   5.707   0.818
 4018SOL    HW212954   3.069   5.581   0.806
 4019SOL     OW12955   5.402   5.320   3.571
 4019SOL    HW112956   5.398   5.414   3.537
 4019SOL    HW212957   5.313   5.294   3.608
 4020SOL     OW12958   5.276   1.846   5.731
 4020SOL    HW112959   5.310   1.795   5.652
 4020SOL    HW212960   5.309   1.940   5.727
 4021SOL     OW12961   3.229   4.217   5.734
 4021SOL    HW112962   3.267   4.132   5.698
 4021SOL    HW212963   3.161   4.253   5.670
 4022SOL     OW12964   5.128   0.397   1.231
 4022SOL    HW112965   5.197   0.326   1.216
 4022SOL    HW212966   5.156   0.455   1.308
 4023SOL     OW12967   6.570   0.501   5.906
 4023SOL    HW112968   6.616   0.473   5.990
 4023SOL    HW212969   6.541   0.421   5.855
 4024SOL     OW12970   4.017   4.867   3.938
 4024SOL    HW112971   4.116   4.870   3.947
 4024SOL    HW212972   3.992   4.870   3.841
 4025SOL     OW12973   1.101   4.640   2.883
 4025SOL    HW112974   1.186   4.666   2.837
 4025SOL    HW212975   1.026   4.693   2.845
 4026SOL     OW12976   5.544   6.792   4.539
 4026SOL    HW112977   5.554   6.843   4.625
 4026SOL    HW212978   5.468   6.728   4.547
 4027SOL     OW12979   3.963   5.255   1.552
 4027SOL    HW112980   3.974   5.179   1.615
 4027SOL    HW212981   4.026   5.329   1.578
 4028SOL     OW12982   2.393   0.377   3.719
 4028SOL    HW112983   2.408   0.339   3.810
 4028SOL    HW212984   2.298   0.409   3.712
 4029SOL     OW12985   2.369   4.343   4.738
 4029SOL    HW112986   2.277   4.376   4.716
 4029SOL    HW212987   2.408   4.400   4.810
 4030SOL     OW12988   0.519   2.048   5.438
 4030SOL    HW112989   0.603   2.033   5.490
 4030SOL    HW212990   0.530   2.013   5.345
 4031SOL     OW12991   4.154   5.705   4.454
 4031SOL    HW112992   4.217   5.661   4.518
 4031SOL    HW212993   4.088   5.638   4.420
 4032SOL     OW12994   5.233   0.281   4.597
 4032SOL    HW112995   5.302   0.210   4.590
 4032SOL    HW212996   5.228   0.314   4.691
 4033SOL     OW12997   2.641   3.845   5.559
 4033SOL    HW112998   2.650   3.862   5.461
 4033SOL    HW212999   2.728   3.810   5.595
 4034SOL     OW13000   6.648   2.285   4.019
 4034SOL    HW113001   6.739   2.321   3.998
 4034SOL    HW213002   6.641   2.190   3.988
 4035SOL     OW13003   0.266   5.167   0.663
 4035SOL    HW113004   0.323   5.248   0.681
 4035SOL    HW213005   0.172   5.195   0.648
 4036SOL     OW13006   6.553   6.766   3.205
 4036SOL    HW113007   6.551   6.839   3.137
 4036SOL    HW213008   6.560   6.807   3.296
 4037SOL     OW13009   6.621   4.083   6.266
 4037SOL    HW113010   6.666   4.125   6.345
 4037SOL    HW213011   6.604   3.986   6.285
 4038SOL     OW13012   6.041   4.955   4.106
 4038SOL    HW113013   6.115   4.900   4.145
 4038SOL    HW213014   6.018   5.029   4.170
 4039SOL     OW13015   4.117   6.129   1.296
 4039SOL    HW113016   4.141   6.180   1.378
 4039SOL    HW213017   4.092   6.035   1.320
 4040SOL     OW13018   3.723   6.435   1.439
 4040SOL    HW113019   3.669   6.508   1.397
 4040SOL    HW213020   3.729   6.358   1.375
 4041SOL     OW13021   1.292   6.997   3.943
 4041SOL    HW113022   1.255   0.016   4.029
 4041SOL    HW213023   1.351   0.050   3.901
 4042SOL     OW13024   6.008   5.463   2.224
 4042SOL    HW113025   5.923   5.426   2.261
 4042SOL    HW213026   5.989   5.509   2.136
 4043SOL     OW13027   6.567   3.128   1.451
 4043SOL    HW113028   6.480   3.153   1.408
 4043SOL    HW213029   6.571   3.028   1.462
 4044SOL     OW13030   6.403   5.980   3.325
 4044SOL    HW113031   6.419   6.002   3.229
 4044SOL    HW213032   6.304   5.981   3.343
 4045SOL     OW13033   2.244   5.216   5.785
 4045SOL    HW113034   2.146   5.221   5.806
 4045SOL    HW213035   2.256   5.185   5.691
 4046SOL     OW13036   1.303   3.091   1.058
 4046SOL    HW113037   1.389   3.138   1.040
 4046SOL    HW213038   1.320   3.009   1.113
 4047SOL     OW13039   3.537   4.027   1.652
 4047SOL    HW113040   3.480   4.029   1.734
 4047SOL    HW213041   3.486   3.986   1.577
 4048SOL     OW13042   5.304   1.738   0.941
 4048SOL    HW113043   5.345   1.828   0.926
 4048SOL    HW213044   5.230   1.724   0.875
 4049SOL     OW13045   6.892   0.757   6.024
 4049SOL    HW113046   6.961   0.741   6.095
 4049SOL    HW213047   6.878   0.856   6.013
 4050SOL     OW13048   2.373   0.966   1.245
 4050SOL    HW113049   2.441   1.032   1.214
 4050SOL    HW213050   2.294   1.014   1.282
 4051SOL     OW13051   1.669   3.759   0.888
 4051SOL    HW113052   1.638   3.784   0.797
 4051SOL    HW213053   1.768   3.767   0.894
 4052SOL     OW13054   1.645   5.873   1.972
 4052SOL    HW113055   1.626   5.781   1.939
 4052SOL    HW213056   1.684   5.868   2.064
 4053SOL     OW13057   3.011   4.879   3.315
 4053SOL    HW113058   2.959   4.839   3.390
 4053SOL    HW213059   3.109   4.873   3.335
 4054SOL     OW13060   5.397   1.766   6.542
 4054SOL    HW113061   5.384   1.831   6.616
 4054SOL    HW213062   5.311   1.719   6.522
 4055SOL     OW13063   4.059   2.221   0.451
 4055SOL    HW113064   3.960   2.225   0.461
 4055SOL    HW213065   4.101   2.218   0.542
 4056SOL     OW13066   3.821   3.052   0.920
 4056SOL    HW113067   3.848   2.982   0.985
 4056SOL    HW213068   3.871   3.137   0.940
 4057SOL     OW13069   6.172   2.287   6.772
 4057SOL    HW113070   6.251   2.347   6.769
 4057SOL    HW213071   6.102   2.327   6.833
 4058SOL     OW13072   1.357   0.730   4.999
 4058SOL    HW113073   1.323   0.782   5.077
 4058SOL    HW213074   1.456   0.718   5.008
 4059SOL     OW13075   6.487   1.578   4.701
 4059SOL    HW113076   6.529   1.489   4.680
 4059SOL    HW213077   6.495   1.596   4.799
 4060SOL     OW13078   4.022   5.797   4.761
 4060SOL    HW113079   4.097   5.864   4.766
 4060SOL    HW213080   3.985   5.796   4.668
 4061SOL     OW13081   2.601   3.120   1.700
 4061SOL    HW113082   2.659   3.182   1.646
 4061SOL    HW213083   2.638   3.027   1.694
 4062SOL     OW13084   2.883   6.562   2.917
 4062SOL    HW113085   2.925   6.627   2.981
 4062SOL    HW213086   2.811   6.511   2.964
 4063SOL     OW13087   2.745   5.284   6.047
 4063SOL    HW113088   2.820   5.305   6.110
 4063SOL    HW213089   2.779   5.291   5.953
 4064SOL     OW13090   6.391   0.298   4.132
 4064SOL    HW113091   6.303   0.274   4.090
 4064SOL    HW213092   6.387   0.391   4.167
 4065SOL     OW13093   5.954   4.786   6.967
 4065SOL    HW113094   5.910   4.876   6.963
 4065SOL    HW213095   6.041   4.794   7.016
 4066SOL     OW13096   5.831   5.108   1.882
 4066SOL    HW113097   5.742   5.103   1.836
 4066SOL    HW213098   5.821   5.080   1.977
 4067SOL     OW13099   6.037   1.012   1.808
 4067SOL    HW113100   6.099   1.054   1.742
 4067SOL    HW213101   6.045   0.912   1.803
 4068SOL     OW13102   5.349   1.000   3.989
 4068SOL    HW113103   5.375   1.091   4.020
 4068SOL    HW213104   5.316   1.005   3.894
 4069SOL     OW13105   0.141   5.943   1.365
 4069SOL    HW113106   0.092   5.856   1.371
 4069SOL    HW213107   0.088   6.014   1.410
 4070SOL     OW13108   0.474   3.836   2.723
 4070SOL    HW113109   0.398   3.803   2.667
 4070SOL    HW213110   0.539   3.761   2.739
 4071SOL     OW13111   2.283   0.884   3.548
 4071SOL    HW113112   2.331   0.902   3.634
 4071SOL    HW213113   2.223   0.961   3.527
 4072SOL     OW13114   0.673   0.228   4.223
 4072SOL    HW113115   0.634   0.305   4.173
 4072SOL    HW213116   0.631   0.143   4.193
 4073SOL     OW13117   2.992   5.230   1.459
 4073SOL    HW113118   2.957   5.151   1.510
 4073SOL    HW213119   2.989   5.211   1.361
 4074SOL     OW13120   0.969   2.986   0.910
 4074SOL    HW113121   0.975   2.895   0.870
 4074SOL    HW213122   1.015   2.987   0.999
 4075SOL     OW13123   5.263   0.812   3.811
 4075SOL    HW113124   5.242   0.801   3.908
 4075SOL    HW213125   5.226   0.735   3.760
 4076SOL     OW13126   1.403   2.635   3.387
 4076SOL    HW113127   1.324   2.611   3.444
 4076SOL    HW213128   1.443   2.551   3.349
 4077SOL     OW13129   2.937   1.896   0.973
 4077SOL    HW113130   2.901   1.802   0.979
 4077SOL    HW213131   3.037   1.893   0.969
 4078SOL     OW13132   5.384   3.917   2.561
 4078SOL    HW113133   5.367   3.875   2.472
 4078SOL    HW213134   5.345   3.860   2.633
 4079SOL     OW13135   6.379   0.870   3.693
 4079SOL    HW113136   6.434   0.868   3.776
 4079SOL    HW213137   6.295   0.818   3.708
 4080SOL     OW13138   3.673   2.945   2.546
 4080SOL    HW113139   3.747   2.931   2.482
 4080SOL    HW213140   3.585   2.926   2.502
 4081SOL     OW13141   2.177   2.074   6.421
 4081SOL    HW113142   2.123   2.078   6.506
 4081SOL    HW213143   2.203   1.980   6.403
 4082SOL     OW13144   1.494   2.518   5.617
 4082SOL    HW113145   1.403   2.508   5.576
 4082SOL    HW213146   1.564   2.489   5.551
 4083SOL     OW13147   5.657   5.516   2.791
 4083SOL    HW113148   5.585   5.585   2.791
 4083SOL    HW213149   5.637   5.445   2.723
 4084SOL     OW13150   4.453   0.582   2.775
 4084SOL    HW113151   4.372   0.567   2.718
 4084SOL    HW213152   4.424   0.619   2.863
 4085SOL     OW13153   3.078   4.839   2.198
 4085SOL    HW113154   2.986   4.810   2.224
 4085SOL    HW213155   3.093   4.818   2.101
 4086SOL     OW13156   6.256   4.513   5.087
 4086SOL    HW113157   6.169   4.529   5.039
 4086SOL    HW213158   6.270   4.586   5.154
 4087SOL     OW13159   1.631   0.396   2.264
 4087SOL    HW113160   1.535   0.369   2.272
 4087SOL    HW213161   1.689   0.315   2.258
 4088SOL     OW13162   0.165   1.905   5.273
 4088SOL    HW113163   0.122   1.815   5.262
 4088SOL    HW213164   0.264   1.895   5.272
 4089SOL     OW13165   0.834   0.863   2.588
 4089SOL    HW113166   0.865   0.812   2.508
 4089SOL    HW213167   0.734   0.859   2.593
 4090SOL     OW13168   2.902   2.166   5.823
 4090SOL    HW113169   2.838   2.105   5.777
 4090SOL    HW213170   2.977   2.189   5.762
 4091SOL     OW13171   3.451   5.493   1.961
 4091SOL    HW113172   3.406   5.550   1.892
 4091SOL    HW213173   3.537   5.536   1.988
 4092SOL     OW13174   5.305   2.669   5.665
 4092SOL    HW113175   5.239   2.724   5.614
 4092SOL    HW213176   5.389   2.660   5.611
 4093SOL     OW13177   5.256   4.369   3.621
 4093SOL    HW113178   5.200   4.291   3.644
 4093SOL    HW213179   5.337   4.372   3.681
 4094SOL     OW13180   0.325   6.042   6.814
 4094SOL    HW113181   0.251   6.093   6.856
 4094SOL    HW213182   0.292   5.999   6.730
 4095SOL     OW13183   0.771   5.196   0.632
 4095SOL    HW113184   0.815   5.112   0.662
 4095SOL    HW213185   0.715   5.178   0.551
 4096SOL     OW13186   0.665   0.605   6.942
 4096SOL    HW113187   0.639   0.694   6.980
 4096SOL    HW213188   0.608   0.586   6.861
 4097SOL     OW13189   6.392   3.876   4.888
 4097SOL    HW113190   6.297   3.877   4.856
 4097SOL    HW213191   6.395   3.856   4.985
 4098SOL     OW13192   1.309   4.731   2.726
 4098SOL    HW113193   1.348   4.689   2.644
 4098SOL    HW213194   1.378   4.732   2.799
 4099SOL     OW13195   5.821   4.246   6.043
 4099SOL    HW113196   5.879   4.324   6.070
 4099SOL    HW213197   5.854   4.208   5.957
 4100SOL     OW13198   1.941   1.456   3.248
 4100SOL    HW113199   1.930   1.510   3.332
 4100SOL    HW213200   2.038   1.434   3.235
 4101SOL     OW13201   6.638   5.281   6.815
 4101SOL    HW113202   6.703   5.206   6.821
 4101SOL    HW213203   6.671   5.349   6.750
 4102SOL     OW13204   1.626   6.197   0.595
 4102SOL    HW113205   1.620   6.228   0.500
 4102SOL    HW213206   1.571   6.114   0.606
 4103SOL     OW13207   2.028   6.972   3.744
 4103SOL    HW113208   2.044   6.878   3.715
 4103SOL    HW213209   1.961   6.974   3.818
 4104SOL     OW13210   2.399   5.538   4.980
 4104SOL    HW113211   2.339   5.465   4.945
 4104SOL    HW213212   2.351   5.587   5.053
 4105SOL     OW13213   4.436   0.359   2.031
 4105SOL    HW113214   4.343   0.394   2.045
 4105SOL    HW213215   4.433   0.259   2.027
 4106SOL     OW13216   1.128   1.173   2.733
 4106SOL    HW113217   1.083   1.110   2.796
 4106SOL    HW213218   1.064   1.245   2.707
 4107SOL     OW13219   1.601   0.399   1.346
 4107SOL    HW113220   1.504   0.425   1.344
 4107SOL    HW213221   1.651   0.453   1.279
 4108SOL     OW13222   6.584   5.922   5.621
 4108SOL    HW113223   6.645   6.000   5.613
 4108SOL    HW213224   6.491   5.953   5.640
 4109SOL     OW13225   5.282   6.352   3.564
 4109SOL    HW113226   5.361   6.376   3.508
 4109SOL    HW213227   5.203   6.337   3.505
 4110SOL     OW13228   5.141   2.753   0.620
 4110SOL    HW113229   5.172   2.748   0.715
 4110SOL    HW213230   5.139   2.661   0.581
 4111SOL     OW13231   5.947   3.844   4.049
 4111SOL    HW113232   5.981   3.843   3.955
 4111SOL    HW213233   6.020   3.872   4.111
 4112SOL     OW13234   3.970   6.164   4.190
 4112SOL    HW113235   3.933   6.157   4.282
 4112SOL    HW213236   3.977   6.073   4.149
 4113SOL     OW13237   4.364   5.081   4.601
 4113SOL    HW113238   4.286   5.079   4.538
 4113SOL    HW213239   4.378   4.989   4.639
 4114SOL     OW13240   6.928   1.098   1.673
 4114SOL    HW113241   6.982   1.179   1.648
 4114SOL    HW213242   6.893   1.054   1.590
 4115SOL     OW13243   4.436   5.304   3.592
 4115SOL    HW113244   4.507   5.288   3.660
 4115SOL    HW213245   4.428   5.402   3.575
 4116SOL     OW13246   4.902   3.761   2.819
 4116SOL    HW113247   4.865   3.681   2.867
 4116SOL    HW213248   4.853   3.843   2.847
 4117SOL     OW13249   1.163   1.553   3.788
 4117SOL    HW113250   1.195   1.594   3.703
 4117SOL    HW213251   1.239   1.547   3.853
 4118SOL     OW13252   0.734   6.853   0.495
 4118SOL    HW113253   0.808   6.842   0.429
 4118SOL    HW213254   0.771   6.882   0.583
 4119SOL     OW13255   0.553   0.465   4.511
 4119SOL    HW113256   0.567   0.508   4.601
 4119SOL    HW213257   0.489   0.389   4.521
 4120SOL     OW13258   2.255   0.896   6.776
 4120SOL    HW113259   2.331   0.960   6.783
 4120SOL    HW213260   2.289   0.807   6.748
 4121SOL     OW13261   6.759   0.279   2.193
 4121SOL    HW113262   6.710   0.266   2.107
 4121SOL    HW213263   6.797   0.192   2.224
 4122SOL     OW13264   0.825   4.257   2.965
 4122SOL    HW113265   0.921   4.284   2.971
 4122SOL    HW213266   0.767   4.338   2.974
 4123SOL     OW13267   5.276   4.730   1.145
 4123SOL    HW113268   5.283   4.640   1.187
 4123SOL    HW213269   5.182   4.747   1.117
 4124SOL     OW13270   6.501   5.776   6.860
 4124SOL    HW113271   6.510   5.863   6.812
 4124SOL    HW213272   6.585   5.723   6.850
 4125SOL     OW13273   6.259   2.641   0.608
 4125SOL    HW113274   6.259   2.680   0.699
 4125SOL    HW213275   6.203   2.558   0.607
 4126SOL     OW13276   0.539   3.163   3.239
 4126SOL    HW113277   0.447   3.124   3.244
 4126SOL    HW213278   0.607   3.089   3.234
 4127SOL     OW13279   4.581   2.606   4.280
 4127SOL    HW113280   4.643   2.683   4.270
 4127SOL    HW213281   4.563   2.589   4.377
 4128SOL     OW13282   6.991   2.863   6.508
 4128SOL    HW113283   0.070   2.872   6.536
 4128SOL    HW213284   6.937   2.936   6.549
 4129SOL     OW13285   3.208   1.873   0.903
 4129SOL    HW113286   3.280   1.935   0.872
 4129SOL    HW213287   3.249   1.791   0.943
 4130SOL     OW13288   6.250   3.077   0.767
 4130SOL    HW113289   6.161   3.089   0.722
 4130SOL    HW213290   6.320   3.057   0.698
 4131SOL     OW13291   5.066   6.763   3.275
 4131SOL    HW113292   5.097   6.855   3.299
 4131SOL    HW213293   5.086   6.745   3.179
 4132SOL     OW13294   6.507   4.926   3.210
 4132SOL    HW113295   6.533   5.008   3.260
 4132SOL    HW213296   6.413   4.901   3.233
 4133SOL     OW13297   5.572   0.132   2.847
 4133SOL    HW113298   5.656   0.162   2.894
 4133SOL    HW213299   5.497   0.129   2.913
 4134SOL     OW13300   1.553   3.538   1.258
 4134SOL    HW113301   1.590   3.524   1.166
 4134SOL    HW213302   1.513   3.453   1.291
 4135SOL     OW13303   6.323   0.895   1.862
 4135SOL    HW113304   6.320   0.929   1.956
 4135SOL    HW213305   6.268   0.811   1.855
 4136SOL     OW13306   0.990   5.151   0.991
 4136SOL    HW113307   0.961   5.177   1.084
 4136SOL    HW213308   0.971   5.226   0.928
 4137SOL     OW13309   0.580   2.160   6.318
 4137SOL    HW113310   0.544   2.160   6.412
 4137SOL    HW213311   0.589   2.255   6.287
 4138SOL     OW13312   4.465   0.239   0.073
 4138SOL    HW113313   4.405   0.300   0.021
 4138SOL    HW213314   4.559   0.251   0.043
 4139SOL     OW13315   2.222   4.094   3.155
 4139SOL    HW113316   2.226   4.151   3.073
 4139SOL    HW213317   2.208   3.999   3.129
 4140SOL     OW13318   2.244   0.529   6.361
 4140SOL    HW113319   2.234   0.431   6.378
 4140SOL    HW213320   2.214   0.550   6.268
 4141SOL     OW13321   5.629   0.724   5.826
 4141SOL    HW113322   5.647   0.709   5.729
 4141SOL    HW213323   5.652   0.818   5.850
 4142SOL     OW13324   6.908   5.763   2.372
 4142SOL    HW113325   6.841   5.731   2.304
 4142SOL    HW213326   6.905   5.704   2.452
 4143SOL     OW13327   6.649   3.235   6.721
 4143SOL    HW113328   6.656   3.227   6.621
 4143SOL    HW213329   6.569   3.291   6.744
 4144SOL     OW13330   5.411   1.383   1.188
 4144SOL    HW113331   5.317   1.383   1.220
 4144SOL    HW213332   5.416   1.431   1.100
 4145SOL     OW13333   6.938   0.627   1.660
 4145SOL    HW113334   6.872   0.598   1.730
 4145SOL    HW213335   7.002   0.693   1.700
 4146SOL     OW13336   4.836   6.439   2.287
 4146SOL    HW113337   4.775   6.514   2.261
 4146SOL    HW213338   4.803   6.397   2.371
 4147SOL     OW13339   4.705   4.801   6.707
 4147SOL    HW113340   4.750   4.782   6.620
 4147SOL    HW213341   4.636   4.872   6.694
 4148SOL     OW13342   2.918   1.143   5.179
 4148SOL    HW113343   2.953   1.103   5.264
 4148SOL    HW213344   2.820   1.160   5.188
 4149SOL     OW13345   1.369   3.778   6.357
 4149SOL    HW113346   1.362   3.737   6.266
 4149SOL    HW213347   1.433   3.855   6.354
 4150SOL     OW13348   5.528   1.394   6.736
 4150SOL    HW113349   5.450   1.332   6.738
 4150SOL    HW213350   5.540   1.430   6.643
 4151SOL     OW13351   2.749   6.110   4.553
 4151SOL    HW113352   2.711   6.063   4.633
 4151SOL    HW213353   2.799   6.044   4.497
 4152SOL     OW13354   2.457   4.386   1.390
 4152SOL    HW113355   2.407   4.345   1.466
 4152SOL    HW213356   2.409   4.468   1.358
 4153SOL     OW13357   6.622   6.157   1.745
 4153SOL    HW113358   6.617   6.108   1.657
 4153SOL    HW213359   6.586   6.099   1.817
 4154SOL     OW13360   1.167   6.452   4.152
 4154SOL    HW113361   1.238   6.408   4.206
 4154SOL    HW213362   1.097   6.490   4.212
 4155SOL     OW13363   0.143   0.721   1.804
 4155SOL    HW113364   0.162   0.685   1.895
 4155SOL    HW213365   0.211   0.686   1.740
 4156SOL     OW13366   0.434   5.116   5.907
 4156SOL    HW113367   0.457   5.176   5.984
 4156SOL    HW213368   0.353   5.062   5.931
 4157SOL     OW13369   5.384   5.848   1.525
 4157SOL    HW113370   5.295   5.868   1.565
 4157SOL    HW213371   5.456   5.864   1.593
 4158SOL     OW13372   0.704   3.273   1.613
 4158SOL    HW113373   0.791   3.229   1.636
 4158SOL    HW213374   0.704   3.367   1.647
 4159SOL     OW13375   2.581   0.386   4.436
 4159SOL    HW113376   2.635   0.376   4.352
 4159SOL    HW213377   2.520   0.464   4.427
 4160SOL     OW13378   0.633   0.240   6.561
 4160SOL    HW113379   0.549   0.284   6.529
 4160SOL    HW213380   0.702   0.243   6.488
 4161SOL     OW13381   3.634   3.457   2.995
 4161SOL    HW113382   3.711   3.420   3.046
 4161SOL    HW213383   3.561   3.389   2.990
 4162SOL     OW13384   5.427   5.598   1.422
 4162SOL    HW113385   5.408   5.681   1.476
 4162SOL    HW213386   5.474   5.532   1.480
 4163SOL     OW13387   3.354   5.937   2.086
 4163SOL    HW113388   3.338   5.867   2.156
 4163SOL    HW213389   3.270   5.989   2.072
 4164SOL     OW13390   6.968   1.151   6.174
 4164SOL    HW113391   6.948   1.064   6.130
 4164SOL    HW213392   0.049   1.158   6.193
 4165SOL     OW13393   4.396   0.695   4.590
 4165SOL    HW113394   4.384   0.745   4.504
 4165SOL    HW213395   4.481   0.725   4.634
 4166SOL     OW13396   5.722   1.882   1.187
 4166SOL    HW113397   5.778   1.829   1.122
 4166SOL    HW213398   5.733   1.980   1.168
 4167SOL     OW13399   3.530   5.444   4.098
 4167SOL    HW113400   3.574   5.354   4.097
 4167SOL    HW213401   3.569   5.502   4.027
 4168SOL     OW13402   5.300   3.510   6.966
 4168SOL    HW113403   5.220   3.554   6.926
 4168SOL    HW213404   5.273   3.460   0.032
 4169SOL     OW13405   5.315   2.654   5.987
 4169SOL    HW113406   5.319   2.619   5.894
 4169SOL    HW213407   5.221   2.644   6.022
 4170SOL     OW13408   0.596   2.269   4.496
 4170SOL    HW113409   0.586   2.365   4.471
 4170SOL    HW213410   0.690   2.252   4.528
 4171SOL     OW13411   0.856   1.334   6.886
 4171SOL    HW113412   0.865   1.410   6.950
 4171SOL    HW213413   0.880   1.248   6.932
 4172SOL     OW13414   2.713   3.214   0.753
 4172SOL    HW113415   2.685   3.221   0.657
 4172SOL    HW213416   2.793   3.273   0.768
 4173SOL     OW13417   4.821   1.986   6.712
 4173SOL    HW113418   4.829   2.081   6.681
 4173SOL    HW213419   4.903   1.961   6.763
 4174SOL     OW13420   4.114   0.238   4.705
 4174SOL    HW113421   4.106   0.225   4.804
 4174SOL    HW213422   4.123   0.336   4.686
 4175SOL     OW13423   0.711   4.257   6.469
 4175SOL    HW113424   0.713   4.330   6.537
 4175SOL    HW213425   0.743   4.172   6.511
 4176SOL     OW13426   5.864   6.739   6.191
 4176SOL    HW113427   5.944   6.711   6.139
 4176SOL    HW213428   5.838   6.665   6.254
 4177SOL     OW13429   3.995   4.840   2.977
 4177SOL    HW113430   3.932   4.914   2.952
 4177SOL    HW213431   4.033   4.799   2.894
 4178SOL     OW13432   3.609   6.026   1.638
 4178SOL    HW113433   3.601   6.126   1.638
 4178SOL    HW213434   3.531   5.986   1.685
 4179SOL     OW13435   5.158   3.280   6.219
 4179SOL    HW113436   5.217   3.343   6.169
 4179SOL    HW213437   5.206   3.247   6.301
 4180SOL     OW13438   4.129   3.430   1.186
 4180SOL    HW113439   4.180   3.443   1.271
 4180SOL    HW213440   4.058   3.499   1.179
 4181SOL     OW13441   4.963   6.864   5.552
 4181SOL    HW113442   5.003   6.939   5.605
 4181SOL    HW213443   4.951   6.894   5.457
 4182SOL     OW13444   0.640   6.689   4.882
 4182SOL    HW113445   0.543   6.694   4.908
 4182SOL    HW213446   0.647   6.652   4.789
 4183SOL     OW13447   4.417   1.772   0.484
 4183SOL    HW113448   4.320   1.759   0.504
 4183SOL    HW213449   4.429   1.789   0.387
 4184SOL     OW13450   3.561   5.650   3.860
 4184SOL    HW113451   3.616   5.708   3.920
 4184SOL    HW213452   3.476   5.696   3.837
 4185SOL     OW13453   4.966   3.316   3.269
 4185SOL    HW113454   4.955   3.323   3.170
 4185SOL    HW213455   4.912   3.240   3.304
 4186SOL     OW13456   1.741   6.040   0.258
 4186SOL    HW113457   1.686   5.993   0.190
 4186SOL    HW213458   1.782   5.973   0.320
 4187SOL     OW13459   1.805   3.081   6.395
 4187SOL    HW113460   1.753   3.105   6.313
 4187SOL    HW213461   1.787   2.985   6.418
 4188SOL     OW13462   4.403   6.979   0.090
 4188SOL    HW113463   4.365   6.976   0.183
 4188SOL    HW213464   4.438   0.054   0.072
 4189SOL     OW13465   4.439   4.997   3.743
 4189SOL    HW113466   4.345   5.002   3.710
 4189SOL    HW213467   4.497   4.954   3.674
 4190SOL     OW13468   6.579   6.082   1.280
 4190SOL    HW113469   6.666   6.042   1.312
 4190SOL    HW213470   6.579   6.180   1.299
 4191SOL     OW13471   4.580   3.759   6.756
 4191SOL    HW113472   4.632   3.812   6.824
 4191SOL    HW213473   4.643   3.726   6.686
 4192SOL     OW13474   1.710   3.173   0.144
 4192SOL    HW113475   1.661   3.119   0.076
 4192SOL    HW213476   1.646   3.234   0.192
 4193SOL     OW13477   0.310   0.668   0.378
 4193SOL    HW113478   0.236   0.649   0.314
 4193SOL    HW213479   0.350   0.581   0.409
 4194SOL     OW13480   5.097   1.675   5.852
 4194SOL    HW113481   5.167   1.742   5.828
 4194SOL    HW213482   5.045   1.708   5.932
 4195SOL     OW13483   3.618   6.754   0.698
 4195SOL    HW113484   3.581   6.661   0.696
 4195SOL    HW213485   3.585   6.805   0.619
 4196SOL     OW13486   6.490   2.937   2.333
 4196SOL    HW113487   6.452   3.029   2.343
 4196SOL    HW213488   6.576   2.931   2.385
 4197SOL     OW13489   3.875   1.119   6.655
 4197SOL    HW113490   3.959   1.065   6.644
 4197SOL    HW213491   3.833   1.097   6.743
 4198SOL     OW13492   6.406   2.246   2.077
 4198SOL    HW113493   6.423   2.149   2.057
 4198SOL    HW213494   6.312   2.269   2.051
 4199SOL     OW13495   0.322   4.196   6.339
 4199SOL    HW113496   0.389   4.268   6.320
 4199SOL    HW213497   0.302   4.147   6.254
 4200SOL     OW13498   4.476   1.099   4.067
 4200SOL    HW113499   4.549   1.155   4.106
 4200SOL    HW213500   4.390   1.150   4.070
 4201SOL     OW13501   5.875   6.774   3.829
 4201SOL    HW113502   5.881   6.839   3.753
 4201SOL    HW213503   5.822   6.694   3.800
 4202SOL     OW13504   4.960   3.988   1.501
 4202SOL    HW113505   4.905   3.970   1.419
 4202SOL    HW213506   5.048   4.026   1.474
 4203SOL     OW13507   6.407   4.309   5.213
 4203SOL    HW113508   6.439   4.226   5.166
 4203SOL    HW213509   6.337   4.353   5.157
 4204SOL     OW13510   1.680   3.520   6.172
 4204SOL    HW113511   1.627   3.523   6.087
 4204SOL    HW213512   1.716   3.611   6.192
 4205SOL     OW13513   4.190   6.281   6.466
 4205SOL    HW113514   4.202   6.373   6.430
 4205SOL    HW213515   4.114   6.235   6.420
 4206SOL     OW13516   1.935   1.923   4.837
 4206SOL    HW113517   1.896   1.854   4.897
 4206SOL    HW213518   1.867   1.994   4.819
 4207SOL     OW13519   0.507   1.758   2.311
 4207SOL    HW113520   0.435   1.827   2.313
 4207SOL    HW213521   0.470   1.672   2.277
 4208SOL     OW13522   1.899   2.888   3.911
 4208SOL    HW113523   1.800   2.876   3.908
 4208SOL    HW213524   1.940   2.810   3.958
 4209SOL     OW13525   6.444   6.406   2.268
 4209SOL    HW113526   6.495   6.365   2.192
 4209SOL    HW213527   6.451   6.347   2.349
 4210SOL     OW13528   3.895   4.151   5.062
 4210SOL    HW113529   3.982   4.112   5.091
 4210SOL    HW213530   3.888   4.245   5.095
 4211SOL     OW13531   4.011   2.573   5.366
 4211SOL    HW113532   4.035   2.606   5.275
 4211SOL    HW213533   3.929   2.620   5.398
 4212SOL     OW13534   6.421   2.247   3.264
 4212SOL    HW113535   6.385   2.212   3.178
 4212SOL    HW213536   6.351   2.242   3.335
 4213SOL     OW13537   2.808   0.857   4.111
 4213SOL    HW113538   2.768   0.774   4.150
 4213SOL    HW213539   2.838   0.838   4.018
 4214SOL     OW13540   6.780   6.265   3.349
 4214SOL    HW113541   6.713   6.204   3.389
 4214SOL    HW213542   6.870   6.221   3.348
 4215SOL     OW13543   5.200   6.733   5.505
 4215SOL    HW113544   5.103   6.757   5.516
 4215SOL    HW213545   5.234   6.692   5.589
 4216SOL     OW13546   2.376   5.981   2.198
 4216SOL    HW113547   2.430   6.043   2.255
 4216SOL    HW213548   2.433   5.945   2.125
 4217SOL     OW13549   0.864   0.743   2.856
 4217SOL    HW113550   0.875   0.805   2.934
 4217SOL    HW213551   0.841   0.796   2.774
 4218SOL     OW13552   3.465   1.164   0.560
 4218SOL    HW113553   3.465   1.064   0.560
 4218SOL    HW213554   3.539   1.197   0.618
 4219SOL     OW13555   4.222   5.407   2.920
 4219SOL    HW113556   4.140   5.419   2.863
 4219SOL    HW213557   4.216   5.468   3.000
 4220SOL     OW13558   5.959   1.640   1.561
 4220SOL    HW113559   6.000   1.698   1.632
 4220SOL    HW213560   5.867   1.672   1.541
 4221SOL     OW13561   1.300   6.272   0.650
 4221SOL    HW113562   1.226   6.319   0.698
 4221SOL    HW213563   1.381   6.331   0.647
 4222SOL     OW13564   5.026   2.887   4.494
 4222SOL    HW113565   5.064   2.875   4.586
 4222SOL    HW213566   5.100   2.907   4.430
 4223SOL     OW13567   4.067   3.592   2.080
 4223SOL    HW113568   3.995   3.525   2.099
 4223SOL    HW213569   4.075   3.655   2.157
 4224SOL     OW13570   4.929   4.375   4.502
 4224SOL    HW113571   4.885   4.309   4.441
 4224SOL    HW213572   4.859   4.436   4.541
 4225SOL     OW13573   0.742   2.135   5.784
 4225SOL    HW113574   0.751   2.144   5.684
 4225SOL    HW213575   0.647   2.152   5.810
 4226SOL     OW13576   0.678   5.942   4.754
 4226SOL    HW113577   0.708   5.865   4.698
 4226SOL    HW213578   0.624   5.909   4.831
 4227SOL     OW13579   4.270   5.106   2.131
 4227SOL    HW113580   4.249   5.009   2.118
 4227SOL    HW213581   4.364   5.123   2.102
 4228SOL     OW13582   1.229   5.374   3.726
 4228SOL    HW113583   1.185   5.423   3.651
 4228SOL    HW213584   1.206   5.418   3.813
 4229SOL     OW13585   6.784   5.146   5.684
 4229SOL    HW113586   6.827   5.056   5.689
 4229SOL    HW213587   6.687   5.138   5.707
 4230SOL     OW13588   6.808   0.952   2.085
 4230SOL    HW113589   6.837   0.939   1.990
 4230SOL    HW213590   6.838   0.873   2.139
 4231SOL     OW13591   6.654   1.422   6.193
 4231SOL    HW113592   6.729   1.486   6.209
 4231SOL    HW213593   6.664   1.381   6.102
 4232SOL     OW13594   1.488   5.657   4.099
 4232SOL    HW113595   1.580   5.690   4.119
 4232SOL    HW213596   1.423   5.703   4.159
 4233SOL     OW13597   4.098   5.062   2.673
 4233SOL    HW113598   4.007   5.029   2.698
 4233SOL    HW213599   4.137   5.002   2.604
 4234SOL     OW13600   3.039   5.239   5.875
 4234SOL    HW113601   3.131   5.213   5.903
 4234SOL    HW213602   2.981   5.159   5.873
 4235SOL     OW13603   6.923   5.853   5.636
 4235SOL    HW113604   6.992   5.795   5.592
 4235SOL    HW213605   6.959   5.946   5.645
 4236SOL     OW13606   0.581   5.235   2.559
 4236SOL    HW113607   0.496   5.253   2.510
 4236SOL    HW213608   0.562   5.229   2.657
 4237SOL     OW13609   6.781   4.467   3.910
 4237SOL    HW113610   6.751   4.384   3.862
 4237SOL    HW213611   6.745   4.548   3.864
 4238SOL     OW13612   2.728   6.405   3.071
 4238SOL    HW113613   2.751   6.361   3.158
 4238SOL    HW213614   2.631   6.429   3.071
 4239SOL     OW13615   4.235   0.998   3.680
 4239SOL    HW113616   4.246   1.025   3.584
 4239SOL    HW213617   4.325   0.985   3.721
 4240SOL     OW13618   6.428   6.919   2.021
 4240SOL    HW113619   6.442   6.987   2.093
 4240SOL    HW213620   6.331   6.909   2.002
 4241SOL     OW13621   6.204   3.698   0.508
 4241SOL    HW113622   6.190   3.780   0.453
 4241SOL    HW213623   6.228   3.723   0.601
 4242SOL     OW13624   2.661   1.815   3.253
 4242SOL    HW113625   2.759   1.830   3.239
 4242SOL    HW213626   2.633   1.730   3.208
 4243SOL     OW13627   4.969   0.643   2.745
 4243SOL    HW113628   4.952   0.739   2.767
 4243SOL    HW213629   4.884   0.591   2.754
 4244SOL     OW13630   3.462   3.087   3.354
 4244SOL    HW113631   3.467   3.183   3.383
 4244SOL    HW213632   3.509   3.077   3.266
 4245SOL     OW13633   6.210   1.656   6.466
 4245SOL    HW113634   6.309   1.666   6.457
 4245SOL    HW213635   6.177   1.590   6.398
 4246SOL     OW13636   0.693   3.439   0.634
 4246SOL    HW113637   0.758   3.364   0.623
 4246SOL    HW213638   0.737   3.515   0.681
 4247SOL     OW13639   0.377   5.752   5.433
 4247SOL    HW113640   0.387   5.668   5.379
 4247SOL    HW213641   0.435   5.746   5.514
 4248SOL     OW13642   1.342   2.999   4.986
 4248SOL    HW113643   1.396   3.065   4.933
 4248SOL    HW213644   1.344   3.025   5.082
 4249SOL     OW13645   5.466   3.961   6.006
 4249SOL    HW113646   5.424   3.974   6.096
 4249SOL    HW213647   5.566   3.960   6.016
 4250SOL     OW13648   0.657   4.489   2.958
 4250SOL    HW113649   0.587   4.427   2.922
 4250SOL    HW213650   0.617   4.548   3.027
 4251SOL     OW13651   5.876   3.865   0.563
 4251SOL    HW113652   5.864   3.769   0.589
 4251SOL    HW213653   5.910   3.916   0.641
 4252SOL     OW13654   0.489   5.772   5.782
 4252SOL    HW113655   0.394   5.803   5.777
 4252SOL    HW213656   0.527   5.796   5.872
 4253SOL     OW13657   3.758   6.226   2.957
 4253SOL    HW113658   3.806   6.310   2.982
 4253SOL    HW213659   3.719   6.236   2.865
 4254SOL     OW13660   2.521   4.139   0.929
 4254SOL    HW113661   2.541   4.139   1.027
 4254SOL    HW213662   2.604   4.162   0.878
 4255SOL     OW13663   6.803   1.938   4.512
 4255SOL    HW113664   6.706   1.964   4.511
 4255SOL    HW213665   6.812   1.842   4.536
 4256SOL     OW13666   2.166   1.067   2.166
 4256SOL    HW113667   2.222   1.053   2.084
 4256SOL    HW213668   2.090   1.002   2.166
 4257SOL     OW13669   4.112   2.286   4.422
 4257SOL    HW113670   4.040   2.265   4.487
 4257SOL    HW213671   4.089   2.248   4.333
 4258SOL     OW13672   5.353   6.399   2.688
 4258SOL    HW113673   5.359   6.379   2.590
 4258SOL    HW213674   5.442   6.385   2.731
 4259SOL     OW13675   2.022   3.081   0.520
 4259SOL    HW113676   1.974   3.018   0.459
 4259SOL    HW213677   2.116   3.049   0.535
 4260SOL     OW13678   5.227   5.722   3.375
 4260SOL    HW113679   5.155   5.722   3.445
 4260SOL    HW213680   5.295   5.653   3.397
 4261SOL     OW13681   2.154   0.678   2.679
 4261SOL    HW113682   2.128   0.699   2.585
 4261SOL    HW213683   2.116   0.747   2.740
 4262SOL     OW13684   0.698   6.206   6.519
 4262SOL    HW113685   0.779   6.150   6.504
 4262SOL    HW213686   0.678   6.209   6.617
 4263SOL     OW13687   3.338   5.443   5.692
 4263SOL    HW113688   3.252   5.426   5.643
 4263SOL    HW213689   3.400   5.494   5.633
 4264SOL     OW13690   6.983   0.488   0.533
 4264SOL    HW113691   6.930   0.456   0.611
 4264SOL    HW213692   0.042   0.545   0.565
 4265SOL     OW13693   6.907   2.143   0.870
 4265SOL    HW113694   6.974   2.151   0.944
 4265SOL    HW213695   6.866   2.232   0.853
 4266SOL     OW13696   2.787   4.871   0.528
 4266SOL    HW113697   2.817   4.777   0.546
 4266SOL    HW213698   2.830   4.903   0.443
 4267SOL     OW13699   1.917   3.940   5.555
 4267SOL    HW113700   1.980   3.887   5.612
 4267SOL    HW213701   1.939   4.037   5.563
 4268SOL     OW13702   1.831   1.069   1.360
 4268SOL    HW113703   1.781   1.123   1.292
 4268SOL    HW213704   1.832   1.118   1.447
 4269SOL     OW13705   3.672   3.224   0.565
 4269SOL    HW113706   3.663   3.178   0.653
 4269SOL    HW213707   3.582   3.256   0.535
 4270SOL     OW13708   3.387   2.650   5.278
 4270SOL    HW113709   3.313   2.718   5.287
 4270SOL    HW213710   3.347   2.561   5.258
 4271SOL     OW13711   1.477   6.751   0.311
 4271SOL    HW113712   1.488   6.850   0.297
 4271SOL    HW213713   1.555   6.717   0.364
 4272SOL     OW13714   6.859   4.497   4.390
 4272SOL    HW113715   6.957   4.492   4.372
 4272SOL    HW213716   6.809   4.498   4.303
 4273SOL     OW13717   6.005   6.511   5.218
 4273SOL    HW113718   5.913   6.551   5.211
 4273SOL    HW213719   6.072   6.574   5.180
 4274SOL     OW13720   1.897   0.369   3.781
 4274SOL    HW113721   1.971   0.305   3.760
 4274SOL    HW213722   1.829   0.323   3.838
 4275SOL     OW13723   0.819   0.238   6.389
 4275SOL    HW113724   0.885   0.185   6.441
 4275SOL    HW213725   0.867   0.303   6.330
 4276SOL     OW13726   2.161   4.213   2.586
 4276SOL    HW113727   2.085   4.215   2.520
 4276SOL    HW213728   2.145   4.141   2.652
 4277SOL     OW13729   0.148   5.509   3.623
 4277SOL    HW113730   0.187   5.496   3.532
 4277SOL    HW213731   0.221   5.504   3.691
 4278SOL     OW13732   0.297   6.714   5.184
 4278SOL    HW113733   0.247   6.720   5.271
 4278SOL    HW213734   0.371   6.648   5.193
 4279SOL     OW13735   3.648   5.808   4.094
 4279SOL    HW113736   3.674   5.905   4.102
 4279SOL    HW213737   3.710   5.752   4.149
 4280SOL     OW13738   4.962   2.947   4.105
 4280SOL    HW113739   5.053   2.912   4.127
 4280SOL    HW213740   4.968   3.044   4.082
 4281SOL     OW13741   2.277   4.309   5.352
 4281SOL    HW113742   2.288   4.211   5.368
 4281SOL    HW213743   2.345   4.340   5.286
 4282SOL     OW13744   1.805   2.331   1.365
 4282SOL    HW113745   1.864   2.406   1.334
 4282SOL    HW213746   1.844   2.291   1.448
 4283SOL     OW13747   1.721   0.180   4.326
 4283SOL    HW113748   1.722   0.189   4.426
 4283SOL    HW213749   1.631   0.149   4.296
 4284SOL     OW13750   5.997   1.999   2.823
 4284SOL    HW113751   6.080   1.982   2.769
 4284SOL    HW213752   6.013   1.975   2.918
 4285SOL     OW13753   1.427   6.252   6.389
 4285SOL    HW113754   1.480   6.195   6.452
 4285SOL    HW213755   1.428   6.347   6.421
 4286SOL     OW13756   5.748   5.282   0.333
 4286SOL    HW113757   5.809   5.350   0.373
 4286SOL    HW213758   5.654   5.315   0.337
 4287SOL     OW13759   5.060   6.713   4.930
 4287SOL    HW113760   4.969   6.740   4.898
 4287SOL    HW213761   5.061   6.615   4.950
 4288SOL     OW13762   1.469   6.971   3.092
 4288SOL    HW113763   1.521   6.958   3.007
 4288SOL    HW213764   1.398   0.022   3.077
 4289SOL     OW13765   5.633   3.591   1.664
 4289SOL    HW113766   5.578   3.652   1.607
 4289SOL    HW213767   5.644   3.632   1.755
 4290SOL     OW13768   2.404   1.204   1.666
 4290SOL    HW113769   2.385   1.106   1.667
 4290SOL    HW213770   2.319   1.255   1.680
 4291SOL     OW13771   6.607   4.446   1.257
 4291SOL    HW113772   6.702   4.461   1.285
 4291SOL    HW213773   6.604   4.420   1.161
 4292SOL     OW13774   5.988   5.338   6.653
 4292SOL    HW113775   5.952   5.386   6.573
 4292SOL    HW213776   5.914   5.320   6.717
 4293SOL     OW13777   6.824   2.490   0.022
 4293SOL    HW113778   6.899   2.435   0.059
 4293SOL    HW213779   6.757   2.431   6.995
 4294SOL     OW13780   4.833   1.999   5.920
 4294SOL    HW113781   4.813   2.035   6.011
 4294SOL    HW213782   4.751   2.004   5.863
 4295SOL     OW13783   3.779   6.712   4.479
 4295SOL    HW113784   3.717   6.657   4.536
 4295SOL    HW213785   3.869   6.667   4.476
 4296SOL     OW13786   2.580   1.639   0.687
 4296SOL    HW113787   2.504   1.652   0.751
 4296SOL    HW213788   2.599   1.542   0.676
 4297SOL     OW13789   5.768   0.269   5.614
 4297SOL    HW113790   5.748   0.172   5.631
 4297SOL    HW213791   5.807   0.310   5.696
 4298SOL     OW13792   2.877   5.288   0.911
 4298SOL    HW113793   2.900   5.381   0.939
 4298SOL    HW213794   2.781   5.282   0.886
 4299SOL     OW13795   0.661   3.817   6.452
 4299SOL    HW113796   0.570   3.842   6.422
 4299SOL    HW213797   0.721   3.806   6.372
 4300SOL     OW13798   5.336   0.520   6.854
 4300SOL    HW113799   5.360   0.617   6.849
 4300SOL    HW213800   5.390   0.475   6.925
 4301SOL     OW13801   3.210   1.519   0.603
 4301SOL    HW113802   3.202   1.498   0.701
 4301SOL    HW213803   3.119   1.537   0.565
 4302SOL     OW13804   0.924   6.273   6.843
 4302SOL    HW113805   0.963   6.280   6.935
 4302SOL    HW213806   0.886   6.181   6.830
 4303SOL     OW13807   0.008   2.954   1.892
 4303SOL    HW113808   6.972   2.871   1.909
 4303SOL    HW213809   6.980   3.008   1.821
 4304SOL     OW13810   2.992   3.415   3.891
 4304SOL    HW113811   2.930   3.452   3.960
 4304SOL    HW213812   2.983   3.316   3.888
 4305SOL     OW13813   6.037   2.002   3.766
 4305SOL    HW113814   6.123   1.981   3.720
 4305SOL    HW213815   6.054   2.054   3.849
 4306SOL     OW13816   6.557   5.343   5.738
 4306SOL    HW113817   6.567   5.243   5.732
 4306SOL    HW213818   6.624   5.379   5.802
 4307SOL     OW13819   5.265   3.773   6.071
 4307SOL    HW113820   5.298   3.852   6.123
 4307SOL    HW213821   5.271   3.792   5.974
 4308SOL     OW13822   5.397   6.147   4.582
 4308SOL    HW113823   5.363   6.213   4.515
 4308SOL    HW213824   5.478   6.183   4.628
 4309SOL     OW13825   1.897   1.630   0.959
 4309SOL    HW113826   1.902   1.574   1.041
 4309SOL    HW213827   1.920   1.725   0.981
 4310SOL     OW13828   1.363   1.156   2.289
 4310SOL    HW113829   1.373   1.134   2.192
 4310SOL    HW213830   1.307   1.087   2.334
 4311SOL     OW13831   1.835   6.652   3.716
 4311SOL    HW113832   1.925   6.650   3.758
 4311SOL    HW213833   1.815   6.564   3.674
 4312SOL     OW13834   2.249   4.995   1.883
 4312SOL    HW113835   2.326   5.016   1.822
 4312SOL    HW213836   2.187   4.930   1.838
 4313SOL     OW13837   4.665   0.737   2.536
 4313SOL    HW113838   4.717   0.788   2.605
 4313SOL    HW213839   4.581   0.702   2.576
 4314SOL     OW13840   4.735   2.762   2.614
 4314SOL    HW113841   4.745   2.843   2.672
 4314SOL    HW213842   4.804   2.694   2.640
 4315SOL     OW13843   2.383   1.323   2.360
 4315SOL    HW113844   2.301   1.287   2.317
 4315SOL    HW213845   2.401   1.416   2.328
 4316SOL     OW13846   6.149   0.046   2.582
 4316SOL    HW113847   6.094   0.052   2.499
 4316SOL    HW213848   6.097   7.016   2.653
 4317SOL     OW13849   4.421   1.544   3.331
 4317SOL    HW113850   4.371   1.459   3.317
 4317SOL    HW213851   4.402   1.580   3.423
 4318SOL     OW13852   0.319   2.280   4.300
 4318SOL    HW113853   0.398   2.231   4.337
 4318SOL    HW213854   0.238   2.260   4.356
 4319SOL     OW13855   2.433   3.459   5.742
 4319SOL    HW113856   2.440   3.538   5.681
 4319SOL    HW213857   2.410   3.489   5.834
 4320SOL     OW13858   0.253   5.785   2.741
 4320SOL    HW113859   0.330   5.845   2.762
 4320SOL    HW213860   0.282   5.689   2.749
 4321SOL     OW13861   0.845   0.411   5.561
 4321SOL    HW113862   0.889   0.321   5.559
 4321SOL    HW213863   0.776   0.413   5.634
 4322SOL     OW13864   6.121   0.758   0.465
 4322SOL    HW113865   6.128   0.828   0.537
 4322SOL    HW213866   6.208   0.708   0.459
 4323SOL     OW13867   6.543   2.947   3.594
 4323SOL    HW113868   6.566   3.039   3.626
 4323SOL    HW213869   6.627   2.897   3.573
 4324SOL     OW13870   5.732   3.975   6.015
 4324SOL    HW113871   5.771   3.986   5.923
 4324SOL    HW213872   5.725   4.064   6.059
 4325SOL     OW13873   1.893   2.079   6.585
 4325SOL    HW113874   1.904   2.165   6.636
 4325SOL    HW213875   1.815   2.029   6.620
 4326SOL     OW13876   6.453   1.959   5.435
 4326SOL    HW113877   6.395   1.878   5.441
 4326SOL    HW213878   6.531   1.948   5.498
 4327SOL     OW13879   5.959   6.695   2.677
 4327SOL    HW113880   5.915   6.781   2.651
 4327SOL    HW213881   5.993   6.649   2.595
 4328SOL     OW13882   5.526   4.835   6.930
 4328SOL    HW113883   5.559   4.808   0.003
 4328SOL    HW213884   5.578   4.914   6.897
 4329SOL     OW13885   3.335   1.699   5.787
 4329SOL    HW113886   3.314   1.601   5.791
 4329SOL    HW213887   3.252   1.752   5.805
 4330SOL     OW13888   1.741   0.913   6.374
 4330SOL    HW113889   1.744   0.945   6.469
 4330SOL    HW213890   1.824   0.943   6.327
 4331SOL     OW13891   6.084   2.503   0.055
 4331SOL    HW113892   6.106   2.544   6.983
 4331SOL    HW213893   6.135   2.550   0.127
 4332SOL     OW13894   5.277   3.121   1.603
 4332SOL    HW113895   5.299   3.192   1.670
 4332SOL    HW213896   5.317   3.147   1.515
 4333SOL     OW13897   5.662   0.962   5.336
 4333SOL    HW113898   5.729   1.024   5.374
 4333SOL    HW213899   5.570   0.989   5.367
 4334SOL     OW13900   4.493   0.805   1.925
 4334SOL    HW113901   4.544   0.888   1.902
 4334SOL    HW213902   4.470   0.807   2.023
 4335SOL     OW13903   3.332   4.232   5.168
 4335SOL    HW113904   3.377   4.145   5.145
 4335SOL    HW213905   3.273   4.219   5.247
 4336SOL     OW13906   1.308   5.882   4.258
 4336SOL    HW113907   1.402   5.914   4.272
 4336SOL    HW213908   1.263   5.940   4.189
 4337SOL     OW13909   0.166   5.460   0.919
 4337SOL    HW113910   0.078   5.411   0.913
 4337SOL    HW213911   0.177   5.519   0.840
 4338SOL     OW13912   6.718   6.501   4.160
 4338SOL    HW113913   6.716   6.490   4.061
 4338SOL    HW213914   6.813   6.501   4.192
 4339SOL     OW13915   6.447   1.225   6.139
 4339SOL    HW113916   6.506   1.301   6.164
 4339SOL    HW213917   6.384   1.253   6.067
 4340SOL     OW13918   4.541   3.661   1.512
 4340SOL    HW113919   4.488   3.596   1.566
 4340SOL    HW213920   4.616   3.613   1.465
 4341SOL     OW13921   0.866   4.470   0.476
 4341SOL    HW113922   0.922   4.511   0.404
 4341SOL    HW213923   0.842   4.538   0.544
 4342SOL     OW13924   6.986   3.162   2.977
 4342SOL    HW113925   6.961   3.222   3.053
 4342SOL    HW213926   0.068   3.144   2.980
 4343SOL     OW13927   2.519   1.615   1.268
 4343SOL    HW113928   2.493   1.710   1.285
 4343SOL    HW213929   2.578   1.610   1.187
 4344SOL     OW13930   2.076   4.876   3.452
 4344SOL    HW113931   1.989   4.896   3.497
 4344SOL    HW213932   2.148   4.869   3.520
 4345SOL     OW13933   1.871   1.853   5.847
 4345SOL    HW113934   1.861   1.944   5.886
 4345SOL    HW213935   1.821   1.787   5.904
 4346SOL     OW13936   1.821   3.291   1.713
 4346SOL    HW113937   1.863   3.382   1.705
 4346SOL    HW213938   1.833   3.242   1.627
 4347SOL     OW13939   5.757   6.143   2.906
 4347SOL    HW113940   5.837   6.194   2.939
 4347SOL    HW213941   5.772   6.045   2.921
 4348SOL     OW13942   0.980   3.942   0.020
 4348SOL    HW113943   0.907   3.893   6.989
 4348SOL    HW213944   1.012   4.018   6.979
 4349SOL     OW13945   6.820   0.314   3.493
 4349SOL    HW113946   6.759   0.236   3.481
 4349SOL    HW213947   6.886   0.293   3.566
 4350SOL     OW13948   4.935   1.997   3.672
 4350SOL    HW113949   4.851   2.045   3.647
 4350SOL    HW213950   4.918   1.898   3.673
 4351SOL     OW13951   2.827   6.208   1.067
 4351SOL    HW113952   2.830   6.235   1.164
 4351SOL    HW213953   2.921   6.199   1.032
 4352SOL     OW13954   6.377   1.276   1.710
 4352SOL    HW113955   6.329   1.325   1.783
 4352SOL    HW213956   6.465   1.320   1.692
 4353SOL     OW13957   4.171   5.700   0.197
 4353SOL    HW113958   4.138   5.607   0.211
 4353SOL    HW213959   4.267   5.698   0.168
 4354SOL     OW13960   1.776   0.621   0.936
 4354SOL    HW113961   1.752   0.571   0.852
 4354SOL    HW213962   1.873   0.646   0.933
 4355SOL     OW13963   5.260   1.070   0.843
 4355SOL    HW113964   5.335   1.117   0.795
 4355SOL    HW213965   5.219   1.132   0.910
 4356SOL     OW13966   3.852   4.398   0.610
 4356SOL    HW113967   3.872   4.457   0.688
 4356SOL    HW213968   3.770   4.432   0.563
 4357SOL     OW13969   6.284   0.828   6.678
 4357SOL    HW113970   6.213   0.897   6.690
 4357SOL    HW213971   6.358   0.866   6.621
 4358SOL     OW13972   0.780   0.227   2.075
 4358SOL    HW113973   0.871   0.214   2.036
 4358SOL    HW213974   0.720   0.268   2.006
 4359SOL     OW13975   6.397   2.364   4.050
 4359SOL    HW113976   6.487   2.326   4.033
 4359SOL    HW213977   6.372   2.426   3.975
 4360SOL     OW13978   1.445   3.281   1.329
 4360SOL    HW113979   1.369   3.295   1.393
 4360SOL    HW213980   1.489   3.193   1.348
 4361SOL     OW13981   4.986   1.935   1.662
 4361SOL    HW113982   5.031   1.847   1.677
 4361SOL    HW213983   5.021   1.976   1.578
 4362SOL     OW13984   5.814   4.826   4.058
 4362SOL    HW113985   5.898   4.876   4.076
 4362SOL    HW213986   5.823   4.777   3.971
 4363SOL     OW13987   5.226   1.463   6.203
 4363SOL    HW113988   5.187   1.377   6.172
 4363SOL    HW213989   5.239   1.459   6.303
 4364SOL     OW13990   3.671   3.785   5.181
 4364SOL    HW113991   3.762   3.744   5.189
 4364SOL    HW213992   3.604   3.715   5.156
 4365SOL     OW13993   3.581   1.232   1.410
 4365SOL    HW113994   3.489   1.253   1.377
 4365SOL    HW213995   3.634   1.192   1.335
 4366SOL     OW13996   5.412   5.049   1.011
 4366SOL    HW113997   5.337   5.008   0.958
 4366SOL    HW213998   5.477   5.093   0.950
 4367SOL     OW13999   1.083   6.234   6.611
 4367SOL    HW114000   1.010   6.261   6.673
 4367SOL    HW214001   1.058   6.149   6.564
 4368SOL     OW14002   5.288   3.871   1.653
 4368SOL    HW114003   5.318   3.891   1.746
 4368SOL    HW214004   5.222   3.941   1.623
 4369SOL     OW14005   3.833   5.859   1.982
 4369SOL    HW114006   3.817   5.822   1.891
 4369SOL    HW214007   3.931   5.857   2.003
 4370SOL     OW14008   5.580   5.092   2.803
 4370SOL    HW114009   5.503   5.115   2.862
 4370SOL    HW214010   5.659   5.147   2.830
 4371SOL     OW14011   6.187   1.802   2.231
 4371SOL    HW114012   6.258   1.781   2.298
 4371SOL    HW214013   6.148   1.717   2.196
 4372SOL     OW14014   4.549   0.152   3.364
 4372SOL    HW114015   4.456   0.183   3.381
 4372SOL    HW214016   4.583   0.102   3.444
 4373SOL     OW14017   6.828   2.099   6.235
 4373SOL    HW114018   6.804   2.002   6.241
 4373SOL    HW214019   6.744   2.153   6.227
 4374SOL     OW14020   2.571   2.533   1.505
 4374SOL    HW114021   2.607   2.450   1.462
 4374SOL    HW214022   2.593   2.612   1.448
 4375SOL     OW14023   2.861   6.661   4.060
 4375SOL    HW114024   2.897   6.655   3.966
 4375SOL    HW214025   2.801   6.740   4.068
 4376SOL     OW14026   5.703   1.595   3.487
 4376SOL    HW114027   5.786   1.597   3.543
 4376SOL    HW214028   5.725   1.620   3.393
 4377SOL     OW14029   5.305   4.577   6.422
 4377SOL    HW114030   5.234   4.535   6.366
 4377SOL    HW214031   5.368   4.628   6.364
 4378SOL     OW14032   1.939   0.920   3.985
 4378SOL    HW114033   1.939   0.920   4.085
 4378SOL    HW214034   2.030   0.943   3.952
 4379SOL     OW14035   2.547   1.771   5.399
 4379SOL    HW114036   2.452   1.792   5.423
 4379SOL    HW214037   2.553   1.750   5.302
 4380SOL     OW14038   0.221   1.196   2.173
 4380SOL    HW114039   0.208   1.283   2.125
 4380SOL    HW214040   0.287   1.140   2.122
 4381SOL     OW14041   1.697   6.029   6.429
 4381SOL    HW114042   1.666   5.968   6.356
 4381SOL    HW214043   1.661   5.997   6.517
 4382SOL     OW14044   0.153   2.993   5.145
 4382SOL    HW114045   0.082   2.983   5.076
 4382SOL    HW214046   0.112   2.989   5.236
 4383SOL     OW14047   6.467   2.750   0.487
 4383SOL    HW114048   6.533   2.697   0.435
 4383SOL    HW214049   6.401   2.687   0.529
 4384SOL     OW14050   5.612   6.772   4.068
 4384SOL    HW114051   5.528   6.746   4.117
 4384SOL    HW214052   5.690   6.726   4.109
 4385SOL     OW14053   4.693   1.408   5.147
 4385SOL    HW114054   4.625   1.346   5.186
 4385SOL    HW214055   4.773   1.411   5.207
 4386SOL     OW14056   1.254   3.283   4.317
 4386SOL    HW114057   1.205   3.360   4.358
 4386SOL    HW214058   1.249   3.204   4.377
 4387SOL     OW14059   6.842   1.778   0.504
 4387SOL    HW114060   6.904   1.855   0.518
 4387SOL    HW214061   6.803   1.749   0.591
 4388SOL     OW14062   5.689   2.816   6.645
 4388SOL    HW114063   5.603   2.787   6.688
 4388SOL    HW214064   5.677   2.815   6.545
 4389SOL     OW14065   0.510   3.679   1.106
 4389SOL    HW114066   0.554   3.589   1.113
 4389SOL    HW214067   0.573   3.743   1.061
 4390SOL     OW14068   6.708   1.145   1.287
 4390SOL    HW114069   6.649   1.218   1.323
 4390SOL    HW214070   6.760   1.105   1.362
 4391SOL     OW14071   2.238   6.184   0.418
 4391SOL    HW114072   2.327   6.212   0.453
 4391SOL    HW214073   2.251   6.125   0.338
 4392SOL     OW14074   1.557   2.575   5.249
 4392SOL    HW114075   1.653   2.560   5.272
 4392SOL    HW214076   1.513   2.487   5.230
 4393SOL     OW14077   4.894   1.033   1.944
 4393SOL    HW114078   4.810   1.061   1.898
 4393SOL    HW214079   4.961   1.004   1.875
 4394SOL     OW14080   1.175   0.416   2.151
 4394SOL    HW114081   1.096   0.389   2.095
 4394SOL    HW214082   1.232   0.479   2.099
 4395SOL     OW14083   3.068   5.387   1.688
 4395SOL    HW114084   3.095   5.309   1.744
 4395SOL    HW214085   3.057   5.358   1.593
 4396SOL     OW14086   2.860   0.374   3.607
 4396SOL    HW114087   2.936   0.321   3.569
 4396SOL    HW214088   2.777   0.354   3.555
 4397SOL     OW14089   3.308   1.674   3.998
 4397SOL    HW114090   3.380   1.730   4.040
 4397SOL    HW214091   3.348   1.588   3.967
 4398SOL     OW14092   1.983   2.730   5.148
 4398SOL    HW114093   2.080   2.736   5.126
 4398SOL    HW214094   1.945   2.822   5.156
 4399SOL     OW14095   2.894   0.003   2.482
 4399SOL    HW114096   2.802   6.996   2.452
 4399SOL    HW214097   2.890   0.065   2.560
 4400SOL     OW14098   1.605   5.458   4.848
 4400SOL    HW114099   1.608   5.423   4.942
 4400SOL    HW214100   1.671   5.533   4.839
 4401SOL     OW14101   3.894   6.982   6.301
 4401SOL    HW114102   3.810   6.948   6.341
 4401SOL    HW214103   3.907   0.062   6.327
 4402SOL     OW14104   1.359   1.062   3.327
 4402SOL    HW114105   1.369   0.999   3.404
 4402SOL    HW214106   1.432   1.044   3.260
 4403SOL     OW14107   1.501   5.054   1.891
 4403SOL    HW114108   1.452   5.120   1.949
 4403SOL    HW214109   1.597   5.082   1.884
 4404SOL     OW14110   0.766   6.832   6.225
 4404SOL    HW114111   0.752   6.924   6.189
 4404SOL    HW214112   0.795   6.837   6.321
 4405SOL     OW14113   1.727   5.987   3.012
 4405SOL    HW114114   1.687   6.048   2.944
 4405SOL    HW214115   1.698   6.014   3.103
 4406SOL     OW14116   6.265   3.933   1.922
 4406SOL    HW114117   6.236   3.864   1.987
 4406SOL    HW214118   6.247   4.024   1.960
 4407SOL     OW14119   5.467   5.881   2.178
 4407SOL    HW114120   5.558   5.854   2.148
 4407SOL    HW214121   5.454   5.979   2.163
 4408SOL     OW14122   4.382   0.613   0.309
 4408SOL    HW114123   4.472   0.654   0.326
 4408SOL    HW214124   4.365   0.610   0.211
 4409SOL     OW14125   2.868   0.414   3.226
 4409SOL    HW114126   2.912   0.330   3.258
 4409SOL    HW214127   2.769   0.402   3.227
 4410SOL     OW14128   1.299   6.596   1.101
 4410SOL    HW114129   1.246   6.538   1.163
 4410SOL    HW214130   1.236   6.648   1.043
 4411SOL     OW14131   3.519   4.405   5.257
 4411SOL    HW114132   3.619   4.397   5.258
 4411SOL    HW214133   3.482   4.343   5.188
 4412SOL     OW14134   4.232   6.195   2.959
 4412SOL    HW114135   4.284   6.249   3.025
 4412SOL    HW214136   4.204   6.252   2.882
 4413SOL     OW14137   4.437   6.795   3.856
 4413SOL    HW114138   4.372   6.814   3.930
 4413SOL    HW214139   4.452   6.697   3.849
 4414SOL     OW14140   4.381   4.231   1.410
 4414SOL    HW114141   4.471   4.212   1.370
 4414SOL    HW214142   4.337   4.305   1.358
 4415SOL     OW14143   2.082   2.685   1.605
 4415SOL    HW114144   2.052   2.759   1.666
 4415SOL    HW214145   2.169   2.710   1.563
 4416SOL     OW14146   4.501   2.540   3.451
 4416SOL    HW114147   4.418   2.485   3.456
 4416SOL    HW214148   4.546   2.542   3.540
 4417SOL     OW14149   0.205   3.858   3.088
 4417SOL    HW114150   0.165   3.894   3.004
 4417SOL    HW214151   0.277   3.920   3.120
 4418SOL     OW14152   6.609   6.635   6.131
 4418SOL    HW114153   6.538   6.704   6.117
 4418SOL    HW214154   6.644   6.604   6.043
 4419SOL     OW14155   6.216   5.199   6.485
 4419SOL    HW114156   6.130   5.200   6.536
 4419SOL    HW214157   6.290   5.230   6.545
 4420SOL     OW14158   3.208   2.277   0.928
 4420SOL    HW114159   3.282   2.338   0.959
 4420SOL    HW214160   3.166   2.315   0.846
 4421SOL     OW14161   1.973   2.478   6.381
 4421SOL    HW114162   1.891   2.509   6.428
 4421SOL    HW214163   1.959   2.483   6.282
 4422SOL     OW14164   6.579   3.808   6.311
 4422SOL    HW114165   6.670   3.769   6.297
 4422SOL    HW214166   6.560   3.816   6.409
 4423SOL     OW14167   5.675   4.303   4.913
 4423SOL    HW114168   5.734   4.372   4.872
 4423SOL    HW214169   5.691   4.215   4.869
 4424SOL     OW14170   4.681   5.463   3.329
 4424SOL    HW114171   4.764   5.445   3.380
 4424SOL    HW214172   4.664   5.389   3.265
 4425SOL     OW14173   1.839   5.394   1.243
 4425SOL    HW114174   1.785   5.384   1.160
 4425SOL    HW214175   1.778   5.389   1.323
 4426SOL     OW14176   0.525   0.545   5.056
 4426SOL    HW114177   0.548   0.526   5.152
 4426SOL    HW214178   0.469   0.471   5.020
 4427SOL     OW14179   2.248   6.246   3.066
 4427SOL    HW114180   2.284   6.157   3.092
 4427SOL    HW214181   2.197   6.239   2.980
 4428SOL     OW14182   5.189   6.541   3.779
 4428SOL    HW114183   5.255   6.526   3.705
 4428SOL    HW214184   5.219   6.617   3.836
 4429SOL     OW14185   2.425   6.006   2.955
 4429SOL    HW114186   2.522   6.029   2.950
 4429SOL    HW214187   2.407   5.923   2.901
 4430SOL     OW14188   4.585   3.968   5.653
 4430SOL    HW114189   4.544   3.905   5.719
 4430SOL    HW214190   4.545   4.059   5.664
 4431SOL     OW14191   2.921   6.256   3.587
 4431SOL    HW114192   3.013   6.259   3.550
 4431SOL    HW214193   2.881   6.348   3.587
 4432SOL     OW14194   0.787   3.507   5.777
 4432SOL    HW114195   0.782   3.491   5.876
 4432SOL    HW214196   0.794   3.420   5.729
 4433SOL     OW14197   0.291   0.960   5.653
 4433SOL    HW114198   0.373   0.902   5.646
 4433SOL    HW214199   0.290   1.024   5.576
 4434SOL     OW14200   0.455   0.522   2.782
 4434SOL    HW114201   0.365   0.554   2.752
 4434SOL    HW214202   0.471   0.551   2.876
 4435SOL     OW14203   2.298   4.120   0.188
 4435SOL    HW114204   2.344   4.201   0.152
 4435SOL    HW214205   2.364   4.064   0.239
 4436SOL     OW14206   4.203   1.671   1.747
 4436SOL    HW114207   4.186   1.699   1.841
 4436SOL    HW214208   4.166   1.579   1.731
 4437SOL     OW14209   6.826   3.899   0.325
 4437SOL    HW114210   6.877   3.984   0.337
 4437SOL    HW214211   6.749   3.898   0.389
 4438SOL     OW14212   3.606   0.154   5.436
 4438SOL    HW114213   3.622   0.136   5.533
 4438SOL    HW214214   3.519   0.202   5.425
 4439SOL     OW14215   2.737   0.130   2.696
 4439SOL    HW114216   2.836   0.136   2.711
 4439SOL    HW214217   2.707   0.209   2.642
 4440SOL     OW14218   1.453   5.060   0.107
 4440SOL    HW114219   1.516   5.029   0.179
 4440SOL    HW214220   1.387   5.123   0.146
 4441SOL     OW14221   0.272   1.780   0.457
 4441SOL    HW114222   0.334   1.793   0.534
 4441SOL    HW214223   0.179   1.767   0.491
 4442SOL     OW14224   1.635   4.745   6.556
 4442SOL    HW114225   1.555   4.684   6.561
 4442SOL    HW214226   1.628   4.814   6.628
 4443SOL     OW14227   1.152   5.634   6.243
 4443SOL    HW114228   1.122   5.573   6.316
 4443SOL    HW214229   1.126   5.596   6.154
 4444SOL     OW14230   5.880   4.527   6.992
 4444SOL    HW114231   5.899   4.622   6.968
 4444SOL    HW214232   5.815   4.524   0.051
 4445SOL     OW14233   0.398   5.015   0.473
 4445SOL    HW114234   0.358   5.058   0.554
 4445SOL    HW214235   0.449   4.933   0.500
 4446SOL     OW14236   5.005   1.373   0.827
 4446SOL    HW114237   4.978   1.290   0.778
 4446SOL    HW214238   5.059   1.348   0.907
 4447SOL     OW14239   4.760   5.508   6.054
 4447SOL    HW114240   4.774   5.423   6.106
 4447SOL    HW214241   4.823   5.578   6.087
 4448SOL     OW14242   3.705   6.328   1.916
 4448SOL    HW114243   3.673   6.236   1.937
 4448SOL    HW214244   3.689   6.388   1.995
 4449SOL     OW14245   3.221   1.310   5.393
 4449SOL    HW114246   3.234   1.396   5.344
 4449SOL    HW214247   3.301   1.251   5.379
 4450SOL     OW14248   3.429   0.101   7.008
 4450SOL    HW114249   3.352   0.108   0.055
 4450SOL    HW214250   3.443   0.006   6.981
 4451SOL     OW14251   5.047   4.567   2.808
 4451SOL    HW114252   4.994   4.649   2.831
 4451SOL    HW214253   4.989   4.502   2.760
 4452SOL     OW14254   4.335   6.452   4.607
 4452SOL    HW114255   4.358   6.488   4.516
 4452SOL    HW214256   4.270   6.512   4.652
 4453SOL     OW14257   6.324   4.058   0.830
 4453SOL    HW114258   6.288   4.089   0.742
 4453SOL    HW214259   6.293   4.119   0.902
 4454SOL     OW14260   1.351   2.787   6.938
 4454SOL    HW114261   1.261   2.828   6.919
 4454SOL    HW214262   1.404   2.785   6.853
 4455SOL     OW14263   0.898   6.618   5.711
 4455SOL    HW114264   0.818   6.677   5.726
 4455SOL    HW214265   0.903   6.549   5.782
 4456SOL     OW14266   2.401   0.254   4.600
 4456SOL    HW114267   2.443   0.255   4.691
 4456SOL    HW214268   2.456   0.308   4.537
 4457SOL     OW14269   1.355   2.187   4.907
 4457SOL    HW114270   1.290   2.154   4.975
 4457SOL    HW214271   1.448   2.166   4.936
 4458SOL     OW14272   1.688   3.569   6.532
 4458SOL    HW114273   1.589   3.559   6.522
 4458SOL    HW214274   1.727   3.606   6.448
 4459SOL     OW14275   0.494   2.581   3.032
 4459SOL    HW114276   0.463   2.540   3.118
 4459SOL    HW214277   0.427   2.649   3.002
 4460SOL     OW14278   6.629   2.511   4.473
 4460SOL    HW114279   6.605   2.421   4.507
 4460SOL    HW214280   6.605   2.517   4.376
 4461SOL     OW14281   1.978   1.098   0.503
 4461SOL    HW114282   2.000   1.124   0.597
 4461SOL    HW214283   2.046   1.138   0.441
 4462SOL     OW14284   6.579   4.305   3.368
 4462SOL    HW114285   6.617   4.328   3.457
 4462SOL    HW214286   6.488   4.263   3.379
 4463SOL     OW14287   5.551   1.681   0.736
 4463SOL    HW114288   5.512   1.699   0.827
 4463SOL    HW214289   5.640   1.638   0.745
 4464SOL     OW14290   0.100   5.190   1.121
 4464SOL    HW114291   0.035   5.263   1.101
 4464SOL    HW214292   0.141   5.205   1.211
 4465SOL     OW14293   3.338   5.651   0.603
 4465SOL    HW114294   3.366   5.687   0.514
 4465SOL    HW214295   3.332   5.725   0.669
 4466SOL     OW14296   1.838   2.427   3.043
 4466SOL    HW114297   1.828   2.457   2.948
 4466SOL    HW214298   1.925   2.459   3.079
 4467SOL     OW14299   4.588   6.188   3.211
 4467SOL    HW114300   4.608   6.092   3.228
 4467SOL    HW214301   4.644   6.220   3.134
 4468SOL     OW14302   1.834   2.608   1.835
 4468SOL    HW114303   1.920   2.644   1.871
 4468SOL    HW214304   1.763   2.678   1.841
 4469SOL     OW14305   3.175   5.904   1.024
 4469SOL    HW114306   3.253   5.955   1.061
 4469SOL    HW214307   3.201   5.863   0.936
 4470SOL     OW14308   2.186   0.088   2.962
 4470SOL    HW114309   2.195   0.072   2.863
 4470SOL    HW214310   2.273   0.065   3.007
 4471SOL     OW14311   1.250   0.794   6.636
 4471SOL    HW114312   1.288   0.877   6.595
 4471SOL    HW214313   1.287   0.782   6.727
 4472SOL     OW14314   1.972   2.471   1.058
 4472SOL    HW114315   1.985   2.512   1.149
 4472SOL    HW214316   2.000   2.376   1.061
 4473SOL     OW14317   0.339   2.604   4.522
 4473SOL    HW114318   0.256   2.549   4.530
 4473SOL    HW214319   0.315   2.698   4.498
 4474SOL     OW14320   2.623   5.553   0.841
 4474SOL    HW114321   2.708   5.594   0.809
 4474SOL    HW214322   2.577   5.615   0.905
 4475SOL     OW14323   1.313   3.859   0.774
 4475SOL    HW114324   1.282   3.815   0.858
 4475SOL    HW214325   1.253   3.834   0.698
 4476SOL     OW14326   5.092   1.007   3.423
 4476SOL    HW114327   5.187   1.038   3.431
 4476SOL    HW214328   5.046   1.017   3.511
 4477SOL     OW14329   1.507   0.970   4.894
 4477SOL    HW114330   1.428   0.909   4.889
 4477SOL    HW214331   1.477   1.061   4.922
 4478SOL     OW14332   2.245   0.168   0.808
 4478SOL    HW114333   2.157   0.208   0.835
 4478SOL    HW214334   2.312   0.242   0.796
 4479SOL     OW14335   1.445   2.621   0.108
 4479SOL    HW114336   1.404   2.685   0.043
 4479SOL    HW214337   1.484   2.673   0.185
 4480SOL     OW14338   1.182   6.194   3.805
 4480SOL    HW114339   1.119   6.263   3.840
 4480SOL    HW214340   1.248   6.170   3.876
 4481SOL     OW14341   1.937   3.859   5.865
 4481SOL    HW114342   1.896   3.950   5.869
 4481SOL    HW214343   2.022   3.863   5.813
 4482SOL     OW14344   2.618   6.473   0.698
 4482SOL    HW114345   2.632   6.473   0.797
 4482SOL    HW214346   2.676   6.403   0.657
 4483SOL     OW14347   1.316   3.146   0.368
 4483SOL    HW114348   1.330   3.118   0.463
 4483SOL    HW214349   1.296   3.066   0.312
 4484SOL     OW14350   2.626   1.387   0.354
 4484SOL    HW114351   2.641   1.305   0.299
 4484SOL    HW214352   2.632   1.468   0.296
 4485SOL     OW14353   6.553   2.718   5.323
 4485SOL    HW114354   6.561   2.670   5.236
 4485SOL    HW214355   6.458   2.746   5.337
 4486SOL     OW14356   4.573   4.872   4.904
 4486SOL    HW114357   4.584   4.875   4.805
 4486SOL    HW214358   4.484   4.834   4.927
 4487SOL     OW14359   0.638   2.784   6.726
 4487SOL    HW114360   0.549   2.774   6.681
 4487SOL    HW214361   0.636   2.739   6.815
 4488SOL     OW14362   0.156   4.156   3.978
 4488SOL    HW114363   0.201   4.223   4.038
 4488SOL    HW214364   0.072   4.124   4.022
 4489SOL     OW14365   4.659   6.147   5.718
 4489SOL    HW114366   4.642   6.215   5.790
 4489SOL    HW214367   4.704   6.191   5.641
 4490SOL     OW14368   5.331   1.614   1.448
 4490SOL    HW114369   5.250   1.644   1.498
 4490SOL    HW214370   5.310   1.610   1.350
 4491SOL     OW14371   0.858   3.290   3.473
 4491SOL    HW114372   0.947   3.296   3.428
 4491SOL    HW214373   0.785   3.313   3.408
 4492SOL     OW14374   6.302   0.698   2.377
 4492SOL    HW114375   6.355   0.684   2.293
 4492SOL    HW214376   6.263   0.610   2.406
 4493SOL     OW14377   5.535   1.803   5.183
 4493SOL    HW114378   5.462   1.868   5.203
 4493SOL    HW214379   5.622   1.839   5.218
 4494SOL     OW14380   1.365   0.932   1.406
 4494SOL    HW114381   1.414   0.850   1.375
 4494SOL    HW214382   1.412   0.970   1.486
 4495SOL     OW14383   4.288   6.161   1.082
 4495SOL    HW114384   4.369   6.145   1.139
 4495SOL    HW214385   4.207   6.164   1.141
 4496SOL     OW14386   3.600   6.142   6.398
 4496SOL    HW114387   3.509   6.174   6.372
 4496SOL    HW214388   3.623   6.060   6.346
 4497SOL     OW14389   4.268   1.059   5.751
 4497SOL    HW114390   4.321   1.094   5.828
 4497SOL    HW214391   4.330   1.023   5.681
 4498SOL     OW14392   0.066   5.495   4.826
 4498SOL    HW114393   7.003   5.549   4.853
 4498SOL    HW214394   0.067   5.410   4.879
 4499SOL     OW14395   5.577   2.203   2.387
 4499SOL    HW114396   5.632   2.166   2.312
 4499SOL    HW214397   5.524   2.281   2.354
 4500SOL     OW14398   3.756   5.486   6.884
 4500SOL    HW114399   3.769   5.390   6.909
 4500SOL    HW214400   3.718   5.536   6.962
 4501SOL     OW14401   5.608   0.415   2.851
 4501SOL    HW114402   5.536   0.347   2.859
 4501SOL    HW214403   5.647   0.412   2.759
 4502SOL     OW14404   6.920   3.936   6.392
 4502SOL    HW114405   6.879   3.852   6.355
 4502SOL    HW214406   6.986   3.911   6.464
 4503SOL     OW14407   3.255   1.010   2.683
 4503SOL    HW114408   3.329   0.953   2.718
 4503SOL    HW214409   3.284   1.052   2.597
 4504SOL     OW14410   6.982   1.382   2.539
 4504SOL    HW114411   6.976   1.380   2.639
 4504SOL    HW214412   6.907   1.328   2.500
 4505SOL     OW14413   5.652   4.844   4.280
 4505SOL    HW114414   5.712   4.848   4.200
 4505SOL    HW214415   5.669   4.760   4.331
 4506SOL     OW14416   5.516   2.859   5.747
 4506SOL    HW114417   5.431   2.841   5.797
 4506SOL    HW214418   5.537   2.782   5.687
 4507SOL     OW14419   5.924   2.585   3.287
 4507SOL    HW114420   5.899   2.495   3.322
 4507SOL    HW214421   5.855   2.616   3.222
 4508SOL     OW14422   0.217   5.041   0.925
 4508SOL    HW114423   0.208   5.091   0.839
 4508SOL    HW214424   0.165   5.089   0.996
 4509SOL     OW14425   4.944   2.999   1.842
 4509SOL    HW114426   4.850   2.997   1.875
 4509SOL    HW214427   5.006   3.004   1.920
 4510SOL     OW14428   4.072   1.042   3.908
 4510SOL    HW114429   4.118   1.028   3.820
 4510SOL    HW214430   3.973   1.041   3.894
 4511SOL     OW14431   0.368   4.234   0.024
 4511SOL    HW114432   0.403   4.280   6.960
 4511SOL    HW214433   0.390   4.288   0.105
 4512SOL     OW14434   3.145   3.397   5.324
 4512SOL    HW114435   3.082   3.358   5.257
 4512SOL    HW214436   3.111   3.487   5.353
 4513SOL     OW14437   1.171   6.792   0.922
 4513SOL    HW114438   1.076   6.794   0.891
 4513SOL    HW214439   1.228   6.844   0.858
 4514SOL     OW14440   3.633   4.660   6.543
 4514SOL    HW114441   3.642   4.581   6.604
 4514SOL    HW214442   3.667   4.636   6.452
 4515SOL     OW14443   4.187   0.537   5.897
 4515SOL    HW114444   4.239   0.538   5.982
 4515SOL    HW214445   4.245   0.568   5.822
 4516SOL     OW14446   3.140   1.970   5.585
 4516SOL    HW114447   3.098   2.046   5.536
 4516SOL    HW214448   3.201   1.921   5.523
 4517SOL     OW14449   4.042   0.603   5.282
 4517SOL    HW114450   4.121   0.665   5.281
 4517SOL    HW214451   3.958   0.655   5.295
 4518SOL     OW14452   0.964   6.426   1.121
 4518SOL    HW114453   0.951   6.524   1.111
 4518SOL    HW214454   0.882   6.378   1.089
 4519SOL     OW14455   4.661   6.873   6.990
 4519SOL    HW114456   4.727   6.813   0.017
 4519SOL    HW214457   4.709   6.936   6.929
 4520SOL     OW14458   4.239   5.270   5.423
 4520SOL    HW114459   4.271   5.353   5.377
 4520SOL    HW214460   4.146   5.250   5.394
 4521SOL     OW14461   4.613   2.711   3.909
 4521SOL    HW114462   4.676   2.783   3.880
 4521SOL    HW214463   4.627   2.691   4.006
 4522SOL     OW14464   5.966   4.397   3.772
 4522SOL    HW114465   5.890   4.365   3.714
 4522SOL    HW214466   6.048   4.344   3.751
 4523SOL     OW14467   0.741   3.282   5.633
 4523SOL    HW114468   0.786   3.212   5.578
 4523SOL    HW214469   0.642   3.271   5.627
 4524SOL     OW14470   1.795   3.704   2.246
 4524SOL    HW114471   1.791   3.769   2.170
 4524SOL    HW214472   1.841   3.746   2.324
 4525SOL     OW14473   3.370   2.193   5.283
 4525SOL    HW114474   3.320   2.248   5.216
 4525SOL    HW214475   3.408   2.253   5.354
 4526SOL     OW14476   1.033   6.813   6.052
 4526SOL    HW114477   1.026   6.908   6.021
 4526SOL    HW214478   0.965   6.796   6.122
 4527SOL     OW14479   6.732   1.128   2.722
 4527SOL    HW114480   6.750   1.031   2.739
 4527SOL    HW214481   6.758   1.151   2.629
 4528SOL     OW14482   5.269   0.932   5.220
 4528SOL    HW114483   5.181   0.887   5.206
 4528SOL    HW214484   5.306   0.960   5.132
 4529SOL     OW14485   2.350   1.217   3.933
 4529SOL    HW114486   2.280   1.276   3.972
 4529SOL    HW214487   2.439   1.241   3.973
 4530SOL     OW14488   4.047   5.875   6.421
 4530SOL    HW114489   4.049   5.870   6.321
 4530SOL    HW214490   3.980   5.944   6.450
 4531SOL     OW14491   1.270   5.713   5.903
 4531SOL    HW114492   1.233   5.741   5.815
 4531SOL    HW214493   1.303   5.793   5.953
 4532SOL     OW14494   5.555   0.916   2.966
 4532SOL    HW114495   5.504   0.928   2.880
 4532SOL    HW214496   5.531   0.990   3.029
 4533SOL     OW14497   3.029   0.208   1.326
 4533SOL    HW114498   2.957   0.266   1.365
 4533SOL    HW214499   3.071   0.255   1.249
 4534SOL     OW14500   4.453   1.567   4.057
 4534SOL    HW114501   4.366   1.602   4.091
 4534SOL    HW214502   4.527   1.630   4.082
 4535SOL     OW14503   2.106   0.555   0.861
 4535SOL    HW114504   2.079   0.598   0.947
 4535SOL    HW214505   2.179   0.489   0.879
 4536SOL     OW14506   3.188   0.136   5.491
 4536SOL    HW114507   3.208   0.116   5.587
 4536SOL    HW214508   3.090   0.127   5.476
 4537SOL     OW14509   3.027   3.898   3.626
 4537SOL    HW114510   2.966   3.891   3.705
 4537SOL    HW214511   3.076   3.812   3.614
 4538SOL     OW14512   0.743   2.309   1.019
 4538SOL    HW114513   0.676   2.325   0.946
 4538SOL    HW214514   0.835   2.324   0.983
 4539SOL     OW14515   1.421   6.011   5.617
 4539SOL    HW114516   1.519   5.998   5.601
 4539SOL    HW214517   1.378   5.922   5.636
 4540SOL     OW14518   1.032   1.913   0.516
 4540SOL    HW114519   1.097   1.876   0.582
 4540SOL    HW214520   1.055   1.880   0.425
 4541SOL     OW14521   4.202   2.866   5.605
 4541SOL    HW114522   4.145   2.942   5.638
 4541SOL    HW214523   4.247   2.893   5.520
 4542SOL     OW14524   0.524   1.758   0.094
 4542SOL    HW114525   0.542   1.728   0.001
 4542SOL    HW214526   0.572   1.699   0.159
 4543SOL     OW14527   3.725   2.131   0.347
 4543SOL    HW114528   3.766   2.199   0.287
 4543SOL    HW214529   3.700   2.050   0.295
 4544SOL     OW14530   5.488   6.598   0.704
 4544SOL    HW114531   5.433   6.639   0.777
 4544SOL    HW214532   5.437   6.524   0.661
 4545SOL     OW14533   1.936   3.042   5.162
 4545SOL    HW114534   1.977   3.058   5.251
 4545SOL    HW214535   1.844   3.082   5.160
 4546SOL     OW14536   3.283   0.507   4.779
 4546SOL    HW114537   3.202   0.556   4.748
 4546SOL    HW214538   3.274   0.410   4.758
 4547SOL     OW14539   0.003   0.001   0.350
 4547SOL    HW114540   0.097   0.004   0.382
 4547SOL    HW214541   7.009   6.943   0.284
 4548SOL     OW14542   2.871   1.627   2.606
 4548SOL    HW114543   2.938   1.628   2.532
 4548SOL    HW214544   2.881   1.544   2.660
 4549SOL     OW14545   0.179   3.287   4.305
 4549SOL    HW114546   0.249   3.307   4.373
 4549SOL    HW214547   0.092   3.326   4.334
 4550SOL     OW14548   2.259   5.155   3.783
 4550SOL    HW114549   2.188   5.106   3.834
 4550SOL    HW214550   2.235   5.252   3.776
 4551SOL     OW14551   2.310   2.335   5.404
 4551SOL    HW114552   2.325   2.382   5.317
 4551SOL    HW214553   2.316   2.237   5.390
 4552SOL     OW14554   5.464   1.210   0.717
 4552SOL    HW114555   5.553   1.168   0.698
 4552SOL    HW214556   5.463   1.304   0.684
 4553SOL     OW14557   0.325   5.489   6.991
 4553SOL    HW114558   0.247   5.523   0.027
 4553SOL    HW214559   0.366   5.565   6.939
 4554SOL     OW14560   6.329   6.612   3.088
 4554SOL    HW114561   6.416   6.661   3.074
 4554SOL    HW214562   6.326   6.575   3.181
 4555SOL     OW14563   1.561   1.020   0.852
 4555SOL    HW114564   1.639   0.989   0.906
 4555SOL    HW214565   1.544   0.956   0.778
 4556SOL     OW14566   5.449   4.857   4.501
 4556SOL    HW114567   5.524   4.876   4.437
 4556SOL    HW214568   5.381   4.929   4.495
 4557SOL     OW14569   0.321   4.593   4.151
 4557SOL    HW114570   0.244   4.652   4.178
 4557SOL    HW214571   0.352   4.541   4.231
 4558SOL     OW14572   1.476   3.725   4.612
 4558SOL    HW114573   1.460   3.636   4.655
 4558SOL    HW214574   1.485   3.714   4.513
 4559SOL     OW14575   6.920   2.612   4.053
 4559SOL    HW114576   6.889   2.605   3.958
 4559SOL    HW214577   6.894   2.530   4.103
 4560SOL     OW14578   5.568   3.933   2.882
 4560SOL    HW114579   5.500   3.869   2.919
 4560SOL    HW214580   5.591   3.906   2.789
 4561SOL     OW14581   4.433   2.448   3.807
 4561SOL    HW114582   4.417   2.544   3.831
 4561SOL    HW214583   4.530   2.434   3.789
 4562SOL     OW14584   3.983   1.098   0.957
 4562SOL    HW114585   3.939   1.045   0.884
 4562SOL    HW214586   4.082   1.084   0.952
 4563SOL     OW14587   0.800   4.581   2.282
 4563SOL    HW114588   0.749   4.601   2.199
 4563SOL    HW214589   0.802   4.661   2.341
 4564SOL     OW14590   2.096   3.691   2.078
 4564SOL    HW114591   2.041   3.732   2.006
 4564SOL    HW214592   2.146   3.612   2.042
 4565SOL     OW14593   1.833   6.253   6.732
 4565SOL    HW114594   1.751   6.308   6.713
 4565SOL    HW214595   1.914   6.301   6.700
 4566SOL     OW14596   6.608   4.732   3.483
 4566SOL    HW114597   6.672   4.737   3.407
 4566SOL    HW214598   6.521   4.774   3.456
 4567SOL     OW14599   0.274   0.263   6.807
 4567SOL    HW114600   0.319   0.233   6.891
 4567SOL    HW214601   0.199   0.200   6.785
 4568SOL     OW14602   1.572   5.098   2.969
 4568SOL    HW114603   1.500   5.168   2.965
 4568SOL    HW214604   1.553   5.035   3.044
 4569SOL     OW14605   1.873   1.022   3.603
 4569SOL    HW114606   1.951   1.064   3.557
 4569SOL    HW214607   1.788   1.053   3.560
 4570SOL     OW14608   4.873   5.887   1.721
 4570SOL    HW114609   4.793   5.828   1.727
 4570SOL    HW214610   4.848   5.979   1.750
 4571SOL     OW14611   2.419   3.122   6.391
 4571SOL    HW114612   2.346   3.173   6.437
 4571SOL    HW214613   2.447   3.172   6.309
 4572SOL     OW14614   3.006   3.205   2.115
 4572SOL    HW114615   2.948   3.194   2.034
 4572SOL    HW214616   3.100   3.223   2.085
 4573SOL     OW14617   3.155   5.383   1.071
 4573SOL    HW114618   3.181   5.400   1.166
 4573SOL    HW214619   3.190   5.456   1.013
 4574SOL     OW14620   4.926   0.902   1.562
 4574SOL    HW114621   4.996   0.920   1.631
 4574SOL    HW214622   4.849   0.854   1.604
 4575SOL     OW14623   0.851   0.345   5.913
 4575SOL    HW114624   0.814   0.254   5.932
 4575SOL    HW214625   0.793   0.390   5.844
 4576SOL     OW14626   2.915   4.737   5.658
 4576SOL    HW114627   2.903   4.679   5.578
 4576SOL    HW214628   3.012   4.758   5.669
 4577SOL     OW14629   0.540   1.804   2.572
 4577SOL    HW114630   0.447   1.769   2.582
 4577SOL    HW214631   0.566   1.805   2.476
 4578SOL     OW14632   1.357   2.039   2.238
 4578SOL    HW114633   1.262   2.013   2.223
 4578SOL    HW214634   1.415   1.958   2.232
 4579SOL     OW14635   4.884   0.742   3.246
 4579SOL    HW114636   4.841   0.674   3.185
 4579SOL    HW214637   4.982   0.723   3.253
 4580SOL     OW14638   0.612   1.915   0.989
 4580SOL    HW114639   0.568   1.831   0.958
 4580SOL    HW214640   0.609   1.984   0.917
 4581SOL     OW14641   3.471   0.974   1.024
 4581SOL    HW114642   3.489   1.071   1.011
 4581SOL    HW214643   3.377   0.953   0.997
 4582SOL     OW14644   6.342   1.567   3.833
 4582SOL    HW114645   6.272   1.599   3.768
 4582SOL    HW214646   6.348   1.631   3.910
 4583SOL     OW14647   2.020   0.458   0.618
 4583SOL    HW114648   2.064   0.513   0.548
 4583SOL    HW214649   2.048   0.490   0.709
 4584SOL     OW14650   0.892   1.173   4.281
 4584SOL    HW114651   0.824   1.155   4.211
 4584SOL    HW214652   0.965   1.105   4.276
 4585SOL     OW14653   1.925   3.052   3.417
 4585SOL    HW114654   1.868   3.041   3.498
 4585SOL    HW214655   2.021   3.058   3.445
 4586SOL     OW14656   5.669   4.894   6.650
 4586SOL    HW114657   5.769   4.886   6.660
 4586SOL    HW214658   5.641   4.854   6.563
 4587SOL     OW14659   3.292   2.936   4.956
 4587SOL    HW114660   3.222   2.867   4.976
 4587SOL    HW214661   3.364   2.933   5.026
 4588SOL     OW14662   3.193   3.832   6.226
 4588SOL    HW114663   3.236   3.910   6.272
 4588SOL    HW214664   3.237   3.748   6.258
 4589SOL     OW14665   6.050   6.241   2.079
 4589SOL    HW114666   6.129   6.179   2.086
 4589SOL    HW214667   6.016   6.242   1.985
 4590SOL     OW14668   3.206   5.085   0.961
 4590SOL    HW114669   3.191   5.175   1.002
 4590SOL    HW214670   3.259   5.095   0.877
 4591SOL     OW14671   1.922   0.171   4.979
 4591SOL    HW114672   2.002   0.127   4.940
 4591SOL    HW214673   1.840   0.141   4.929
 4592SOL     OW14674   1.417   1.475   3.906
 4592SOL    HW114675   1.446   1.519   3.821
 4592SOL    HW214676   1.496   1.460   3.964
 4593SOL     OW14677   1.589   5.435   4.575
 4593SOL    HW114678   1.590   5.443   4.674
 4593SOL    HW214679   1.495   5.433   4.542
 4594SOL     OW14680   1.822   0.177   3.423
 4594SOL    HW114681   1.902   0.148   3.476
 4594SOL    HW214682   1.743   0.121   3.449
 4595SOL     OW14683   5.427   1.881   6.108
 4595SOL    HW114684   5.475   1.879   6.196
 4595SOL    HW214685   5.430   1.790   6.067
 4596SOL     OW14686   6.486   0.706   2.173
 4596SOL    HW114687   6.558   0.638   2.186
 4596SOL    HW214688   6.521   0.797   2.194
 4597SOL     OW14689   2.656   5.830   0.026
 4597SOL    HW114690   2.639   5.920   7.003
 4597SOL    HW214691   2.585   5.767   7.014
 4598SOL     OW14692   1.112   4.431   0.328
 4598SOL    HW114693   1.070   4.344   0.302
 4598SOL    HW214694   1.199   4.413   0.373
 4599SOL     OW14695   2.880   6.285   1.850
 4599SOL    HW114696   2.795   6.264   1.802
 4599SOL    HW214697   2.946   6.323   1.786
 4600SOL     OW14698   0.654   6.618   6.474
 4600SOL    HW114699   0.620   6.542   6.420
 4600SOL    HW214700   0.578   6.660   6.524
 4601SOL     OW14701   1.832   0.969   5.258
 4601SOL    HW114702   1.753   0.910   5.239
 4601SOL    HW214703   1.897   0.964   5.182
 4602SOL     OW14704   3.199   2.219   6.019
 4602SOL    HW114705   3.175   2.315   6.033
 4602SOL    HW214706   3.200   2.199   5.921
 4603SOL     OW14707   4.959   0.141   1.302
 4603SOL    HW114708   5.020   0.186   1.367
 4603SOL    HW214709   4.992   0.157   1.209
 4604SOL     OW14710   6.610   6.663   5.014
 4604SOL    HW114711   6.617   6.682   4.916
 4604SOL    HW214712   6.554   6.582   5.028
 4605SOL     OW14713   3.945   0.465   1.290
 4605SOL    HW114714   4.009   0.439   1.361
 4605SOL    HW214715   3.852   0.438   1.317
 4606SOL     OW14716   6.950   6.624   5.290
 4606SOL    HW114717   0.002   6.695   5.308
 4606SOL    HW214718   6.931   6.621   5.191
 4607SOL     OW14719   2.323   2.109   0.443
 4607SOL    HW114720   2.339   2.133   0.539
 4607SOL    HW214721   2.374   2.026   0.421
 4608SOL     OW14722   6.604   2.265   4.600
 4608SOL    HW114723   6.587   2.212   4.516
 4608SOL    HW214724   6.686   2.230   4.644
 4609SOL     OW14725   5.102   5.688   6.421
 4609SOL    HW114726   5.153   5.602   6.425
 4609SOL    HW214727   5.023   5.682   6.482
 4610SOL     OW14728   5.012   4.221   6.949
 4610SOL    HW114729   4.951   4.188   6.878
 4610SOL    HW214730   5.044   4.313   6.926
 4611SOL     OW14731   1.055   0.650   6.261
 4611SOL    HW114732   1.083   0.735   6.306
 4611SOL    HW214733   1.113   0.634   6.181
 4612SOL     OW14734   1.946   1.753   1.465
 4612SOL    HW114735   1.960   1.748   1.564
 4612SOL    HW214736   1.920   1.663   1.430
 4613SOL     OW14737   1.770   4.376   1.862
 4613SOL    HW114738   1.678   4.389   1.825
 4613SOL    HW214739   1.782   4.430   1.945
 4614SOL     OW14740   6.599   4.218   4.542
 4614SOL    HW114741   6.607   4.279   4.621
 4614SOL    HW214742   6.641   4.130   4.564
 4615SOL     OW14743   1.116   3.450   6.005
 4615SOL    HW114744   1.021   3.455   5.972
 4615SOL    HW214745   1.144   3.539   6.040
 4616SOL     OW14746   6.993   2.789   5.573
 4616SOL    HW114747   6.987   2.690   5.586
 4616SOL    HW214748   6.902   2.825   5.550
 4617SOL     OW14749   6.917   2.312   3.383
 4617SOL    HW114750   6.822   2.282   3.391
 4617SOL    HW214751   6.956   2.322   3.475
 4618SOL     OW14752   2.383   3.992   6.264
 4618SOL    HW114753   2.316   3.999   6.337
 4618SOL    HW214754   2.370   4.067   6.199
 4619SOL     OW14755   4.952   6.295   6.150
 4619SOL    HW114756   4.957   6.199   6.123
 4619SOL    HW214757   5.027   6.316   6.213
 4620SOL     OW14758   1.049   4.945   2.489
 4620SOL    HW114759   1.114   4.973   2.560
 4620SOL    HW214760   1.039   5.019   2.422
 4621SOL     OW14761   3.581   0.051   2.812
 4621SOL    HW114762   3.588   0.120   2.740
 4621SOL    HW214763   3.653   7.000   2.800
 4622SOL     OW14764   5.247   6.366   0.934
 4622SOL    HW114765   5.196   6.405   1.010
 4622SOL    HW214766   5.183   6.326   0.868
 4623SOL     OW14767   2.797   4.544   1.140
 4623SOL    HW114768   2.766   4.629   1.184
 4623SOL    HW214769   2.892   4.526   1.166
 4624SOL     OW14770   4.084   1.170   2.037
 4624SOL    HW114771   4.119   1.250   1.990
 4624SOL    HW214772   4.062   1.194   2.132
 4625SOL     OW14773   2.503   6.407   1.444
 4625SOL    HW114774   2.580   6.424   1.505
 4625SOL    HW214775   2.506   6.312   1.413
 4626SOL     OW14776   4.223   3.863   1.719
 4626SOL    HW114777   4.259   3.957   1.722
 4626SOL    HW214778   4.300   3.799   1.716
 4627SOL     OW14779   5.386   0.121   5.014
 4627SOL    HW114780   5.324   0.200   5.007
 4627SOL    HW214781   5.480   0.152   5.003
 4628SOL     OW14782   5.405   5.482   3.792
 4628SOL    HW114783   5.434   5.565   3.839
 4628SOL    HW214784   5.470   5.460   3.719
 4629SOL     OW14785   2.337   5.443   0.074
 4629SOL    HW114786   2.306   5.412   0.163
 4629SOL    HW214787   2.260   5.479   0.022
 4630SOL     OW14788   1.835   3.129   1.934
 4630SOL    HW114789   1.806   3.194   1.864
 4630SOL    HW214790   1.932   3.145   1.956
 4631SOL     OW14791   7.011   0.531   2.926
 4631SOL    HW114792   0.040   0.443   2.944
 4631SOL    HW214793   6.954   0.556   3.004
 4632SOL     OW14794   3.621   4.897   2.676
 4632SOL    HW114795   3.542   4.863   2.727
 4632SOL    HW214796   3.592   4.931   2.587
 4633SOL     OW14797   4.633   1.102   4.792
 4633SOL    HW114798   4.549   1.155   4.800
 4633SOL    HW214799   4.690   1.139   4.719
 4634SOL     OW14800   3.165   4.180   5.361
 4634SOL    HW114801   3.144   4.100   5.418
 4634SOL    HW214802   3.080   4.229   5.340
 4635SOL     OW14803   4.301   6.383   1.867
 4635SOL    HW114804   4.212   6.426   1.884
 4635SOL    HW214805   4.342   6.422   1.785
 4636SOL     OW14806   1.672   5.316   0.358
 4636SOL    HW114807   1.670   5.379   0.280
 4636SOL    HW214808   1.739   5.348   0.425
 4637SOL     OW14809   2.943   1.564   3.170
 4637SOL    HW114810   2.973   1.534   3.080
 4637SOL    HW214811   2.917   1.485   3.225
 4638SOL     OW14812   3.788   5.224   6.935
 4638SOL    HW114813   3.748   5.179   7.015
 4638SOL    HW214814   3.734   5.202   6.854
 4639SOL     OW14815   3.695   2.280   1.571
 4639SOL    HW114816   3.686   2.328   1.658
 4639SOL    HW214817   3.652   2.190   1.577
 4640SOL     OW14818   6.558   2.834   6.863
 4640SOL    HW114819   6.552   2.872   6.956
 4640SOL    HW214820   6.626   2.760   6.862
 4641SOL     OW14821   1.027   6.058   4.581
 4641SOL    HW114822   1.040   6.006   4.666
 4641SOL    HW214823   1.030   6.156   4.601
 4642SOL     OW14824   6.354   0.795   4.216
 4642SOL    HW114825   6.433   0.831   4.266
 4642SOL    HW214826   6.306   0.870   4.170
 4643SOL     OW14827   0.635   2.098   0.204
 4643SOL    HW114828   0.571   2.022   0.211
 4643SOL    HW214829   0.584   2.184   0.197
 4644SOL     OW14830   1.510   0.901   0.607
 4644SOL    HW114831   1.474   0.994   0.605
 4644SOL    HW214832   1.543   0.876   0.516
 4645SOL     OW14833   6.931   1.668   4.540
 4645SOL    HW114834   6.963   1.703   4.452
 4645SOL    HW214835   6.876   1.586   4.525
 4646SOL     OW14836   2.271   4.761   4.104
 4646SOL    HW114837   2.304   4.670   4.079
 4646SOL    HW214838   2.213   4.754   4.185
 4647SOL     OW14839   1.264   6.378   1.654
 4647SOL    HW114840   1.282   6.285   1.685
 4647SOL    HW214841   1.291   6.387   1.558
 4648SOL     OW14842   2.814   1.677   4.145
 4648SOL    HW114843   2.884   1.661   4.076
 4648SOL    HW214844   2.756   1.596   4.153
 4649SOL     OW14845   6.625   1.693   0.333
 4649SOL    HW114846   6.667   1.683   0.243
 4649SOL    HW214847   6.695   1.720   0.399
 4650SOL     OW14848   5.008   5.942   1.041
 4650SOL    HW114849   5.014   5.896   1.129
 4650SOL    HW214850   4.991   6.039   1.055
 4651SOL     OW14851   6.776   3.170   6.155
 4651SOL    HW114852   6.813   3.186   6.246
 4651SOL    HW214853   6.695   3.110   6.162
 4652SOL     OW14854   0.733   6.393   5.526
 4652SOL    HW114855   0.832   6.384   5.529
 4652SOL    HW214856   0.699   6.363   5.437
 4653SOL     OW14857   6.264   5.307   0.225
 4653SOL    HW114858   6.319   5.283   0.305
 4653SOL    HW214859   6.324   5.345   0.154
 4654SOL     OW14860   1.620   0.450   5.757
 4654SOL    HW114861   1.586   0.530   5.709
 4654SOL    HW214862   1.590   0.452   5.852
 4655SOL     OW14863   4.693   2.740   1.406
 4655SOL    HW114864   4.617   2.763   1.345
 4655SOL    HW214865   4.703   2.812   1.475
 4656SOL     OW14866   0.051   1.847   1.372
 4656SOL    HW114867   0.114   1.827   1.297
 4656SOL    HW214868   6.985   1.888   1.335
 4657SOL     OW14869   4.089   0.993   2.664
 4657SOL    HW114870   4.177   1.033   2.689
 4657SOL    HW214871   4.022   1.065   2.648
 4658SOL     OW14872   1.451   2.700   5.812
 4658SOL    HW114873   1.491   2.781   5.767
 4658SOL    HW214874   1.454   2.622   5.750
 4659SOL     OW14875   1.530   4.451   0.267
 4659SOL    HW114876   1.489   4.362   0.284
 4659SOL    HW214877   1.614   4.460   0.322
 4660SOL     OW14878   0.861   6.008   3.291
 4660SOL    HW114879   0.923   5.932   3.271
 4660SOL    HW214880   0.774   5.994   3.243
 4661SOL     OW14881   0.911   1.917   5.125
 4661SOL    HW114882   0.848   1.991   5.149
 4661SOL    HW214883   0.941   1.928   5.030
 4662SOL     OW14884   2.126   0.177   5.526
 4662SOL    HW114885   2.111   0.146   5.432
 4662SOL    HW214886   2.148   0.275   5.526
 4663SOL     OW14887   1.787   6.986   0.402
 4663SOL    HW114888   1.857   6.938   0.351
 4663SOL    HW214889   1.748   6.924   0.471
 4664SOL     OW14890   6.476   6.969   6.965
 4664SOL    HW114891   6.543   6.930   6.903
 4664SOL    HW214892   6.423   0.023   6.918
 4665SOL     OW14893   1.517   0.531   4.107
 4665SOL    HW114894   1.576   0.593   4.159
 4665SOL    HW214895   1.458   0.481   4.170
 4666SOL     OW14896   2.452   1.780   4.740
 4666SOL    HW114897   2.465   1.832   4.824
 4666SOL    HW214898   2.363   1.803   4.700
 4667SOL     OW14899   6.940   3.869   1.322
 4667SOL    HW114900   0.002   3.893   1.266
 4667SOL    HW214901   6.945   3.773   1.349
 4668SOL     OW14902   4.943   1.790   4.094
 4668SOL    HW114903   4.949   1.889   4.097
 4668SOL    HW214904   4.890   1.757   4.172
 4669SOL     OW14905   5.443   6.774   6.101
 4669SOL    HW114906   5.413   6.859   6.145
 4669SOL    HW214907   5.482   6.795   6.011
 4670SOL     OW14908   0.530   2.801   0.511
 4670SOL    HW114909   0.501   2.896   0.516
 4670SOL    HW214910   0.515   2.766   0.418
 4671SOL     OW14911   0.531   3.807   0.715
 4671SOL    HW114912   0.495   3.782   0.625
 4671SOL    HW214913   0.619   3.762   0.729
 4672SOL     OW14914   2.677   3.990   6.634
 4672SOL    HW114915   2.709   3.974   6.727
 4672SOL    HW214916   2.585   4.027   6.636
 4673SOL     OW14917   5.944   1.306   0.483
 4673SOL    HW114918   6.024   1.342   0.530
 4673SOL    HW214919   5.959   1.210   0.458
 4674SOL     OW14920   1.128   2.474   1.353
 4674SOL    HW114921   1.120   2.375   1.365
 4674SOL    HW214922   1.042   2.518   1.379
 4675SOL     OW14923   2.191   5.845   6.857
 4675SOL    HW114924   2.221   5.940   6.854
 4675SOL    HW214925   2.223   5.797   6.775
 4676SOL     OW14926   0.792   6.077   4.029
 4676SOL    HW114927   0.804   6.173   4.055
 4676SOL    HW214928   0.777   6.022   4.111
 4677SOL     OW14929   4.311   6.828   6.546
 4677SOL    HW114930   4.322   6.786   6.456
 4677SOL    HW214931   4.284   6.924   6.536
 4678SOL     OW14932   1.809   4.544   6.480
 4678SOL    HW114933   1.749   4.618   6.512
 4678SOL    HW214934   1.753   4.465   6.455
 4679SOL     OW14935   3.210   6.598   5.964
 4679SOL    HW114936   3.199   6.693   5.934
 4679SOL    HW214937   3.120   6.553   5.968
 4680SOL     OW14938   1.947   4.577   0.761
 4680SOL    HW114939   2.037   4.615   0.744
 4680SOL    HW214940   1.877   4.640   0.726
 4681SOL     OW14941   6.843   6.188   5.116
 4681SOL    HW114942   6.900   6.116   5.077
 4681SOL    HW214943   6.773   6.147   5.176
 4682SOL     OW14944   4.004   6.490   0.540
 4682SOL    HW114945   3.956   6.559   0.595
 4682SOL    HW214946   3.937   6.434   0.491
 4683SOL     OW14947   0.059   4.270   3.757
 4683SOL    HW114948   0.095   4.238   3.844
 4683SOL    HW214949   0.067   4.370   3.752
 4684SOL     OW14950   1.401   1.219   4.941
 4684SOL    HW114951   1.430   1.272   5.020
 4684SOL    HW214952   1.359   1.280   4.873
 4685SOL     OW14953   4.890   4.303   5.315
 4685SOL    HW114954   4.792   4.314   5.301
 4685SOL    HW214955   4.938   4.322   5.229
 4686SOL     OW14956   4.469   6.118   0.872
 4686SOL    HW114957   4.418   6.063   0.805
 4686SOL    HW214958   4.424   6.111   0.961
 4687SOL     OW14959   5.315   6.627   4.618
 4687SOL    HW114960   5.319   6.548   4.557
 4687SOL    HW214961   5.254   6.696   4.580
 4688SOL     OW14962   0.724   2.084   6.928
 4688SOL    HW114963   0.670   2.035   6.860
 4688SOL    HW214964   0.685   2.068   0.002
 4689SOL     OW14965   1.439   5.253   5.270
 4689SOL    HW114966   1.476   5.160   5.266
 4689SOL    HW214967   1.386   5.263   5.354
 4690SOL     OW14968   1.450   2.619   0.555
 4690SOL    HW114969   1.417   2.689   0.618
 4690SOL    HW214970   1.527   2.571   0.596
 4691SOL     OW14971   3.963   4.592   0.409
 4691SOL    HW114972   3.949   4.519   0.476
 4691SOL    HW214973   4.052   4.580   0.366
 4692SOL     OW14974   0.091   5.391   3.226
 4692SOL    HW114975   0.179   5.408   3.270
 4692SOL    HW214976   0.096   5.305   3.175
 4693SOL     OW14977   0.525   0.674   3.815
 4693SOL    HW114978   0.565   0.600   3.870
 4693SOL    HW214979   0.545   0.762   3.859
 4694SOL     OW14980   2.381   0.966   6.516
 4694SOL    HW114981   2.457   0.928   6.462
 4694SOL    HW214982   2.300   0.909   6.504
 4695SOL     OW14983   3.505   3.075   1.637
 4695SOL    HW114984   3.460   3.117   1.558
 4695SOL    HW214985   3.597   3.114   1.647
 4696SOL     OW14986   6.443   3.038   0.582
 4696SOL    HW114987   6.498   3.103   0.530
 4696SOL    HW214988   6.452   2.947   0.543
 4697SOL     OW14989   0.792   4.909   0.173
 4697SOL    HW114990   0.769   4.926   0.269
 4697SOL    HW214991   0.713   4.931   0.115
 4698SOL     OW14992   5.831   3.333   1.326
 4698SOL    HW114993   5.828   3.346   1.425
 4698SOL    HW214994   5.742   3.303   1.293
 4699SOL     OW14995   6.378   0.315   3.593
 4699SOL    HW114996   6.413   0.274   3.677
 4699SOL    HW214997   6.438   0.389   3.564
 4700SOL     OW14998   5.975   0.110   1.143
 4700SOL    HW114999   6.044   0.039   1.134
 4700SOL    HW215000   5.931   0.126   1.055
 4701SOL     OW15001   0.878   0.951   0.526
 4701SOL    HW115002   0.852   1.019   0.595
 4701SOL    HW215003   0.973   0.966   0.499
 4702SOL     OW15004   3.227   3.572   0.110
 4702SOL    HW115005   3.204   3.624   0.028
 4702SOL    HW215006   3.195   3.478   0.101
 4703SOL     OW15007   1.767   1.469   1.705
 4703SOL    HW115008   1.692   1.451   1.768
 4703SOL    HW215009   1.836   1.526   1.750
 4704SOL     OW15010   4.310   6.709   0.214
 4704SOL    HW115011   4.310   6.661   0.301
 4704SOL    HW215012   4.272   6.801   0.226
 4705SOL     OW15013   3.603   3.896   3.759
 4705SOL    HW115014   3.643   3.910   3.668
 4705SOL    HW215015   3.668   3.923   3.829
 4706SOL     OW15016   4.657   5.524   0.993
 4706SOL    HW115017   4.713   5.475   1.059
 4706SOL    HW215018   4.612   5.601   1.037
 4707SOL     OW15019   3.207   6.358   1.059
 4707SOL    HW115020   3.166   6.273   1.024
 4707SOL    HW215021   3.170   6.436   1.009
 4708SOL     OW15022   2.063   2.203   2.043
 4708SOL    HW115023   2.068   2.163   2.134
 4708SOL    HW215024   2.009   2.287   2.046
 4709SOL     OW15025   4.197   3.987   6.568
 4709SOL    HW115026   4.265   4.040   6.619
 4709SOL    HW215027   4.201   3.892   6.597
 4710SOL     OW15028   5.291   2.222   0.838
 4710SOL    HW115029   5.224   2.267   0.897
 4710SOL    HW215030   5.304   2.127   0.869
 4711SOL     OW15031   2.951   7.002   2.920
 4711SOL    HW115032   2.877   6.938   2.899
 4711SOL    HW215033   2.958   0.054   2.848
 4712SOL     OW15034   1.315   4.770   0.047
 4712SOL    HW115035   1.403   4.746   0.088
 4712SOL    HW215036   1.263   4.686   0.028
 4713SOL     OW15037   2.618   5.280   0.807
 4713SOL    HW115038   2.585   5.374   0.801
 4713SOL    HW215039   2.540   5.218   0.817
 4714SOL     OW15040   3.577   2.520   0.716
 4714SOL    HW115041   3.645   2.586   0.750
 4714SOL    HW215042   3.500   2.516   0.779
 4715SOL     OW15043   5.668   3.992   4.562
 4715SOL    HW115044   5.766   3.988   4.577
 4715SOL    HW215045   5.646   3.954   4.472
 4716SOL     OW15046   3.473   5.849   0.067
 4716SOL    HW115047   3.458   5.947   0.080
 4716SOL    HW215048   3.570   5.831   0.053
 4717SOL     OW15049   1.044   5.513   3.548
 4717SOL    HW115050   1.012   5.601   3.582
 4717SOL    HW215051   0.976   5.474   3.486
 4718SOL     OW15052   6.140   0.872   6.382
 4718SOL    HW115053   6.182   0.925   6.309
 4718SOL    HW215054   6.210   0.823   6.433
 4719SOL     OW15055   4.484   2.973   0.853
 4719SOL    HW115056   4.529   3.062   0.856
 4719SOL    HW215057   4.432   2.959   0.938
 4720SOL     OW15058   2.923   0.776   3.878
 4720SOL    HW115059   2.997   0.712   3.854
 4720SOL    HW215060   2.906   0.837   3.800
 4721SOL     OW15061   1.515   2.072   1.621
 4721SOL    HW115062   1.550   2.078   1.715
 4721SOL    HW215063   1.483   2.162   1.591
 4722SOL     OW15064   2.694   0.322   1.502
 4722SOL    HW115065   2.618   0.268   1.464
 4722SOL    HW215066   2.713   0.291   1.595
 4723SOL     OW15067   3.198   0.082   6.786
 4723SOL    HW115068   3.122   0.137   6.751
 4723SOL    HW215069   3.255   0.051   6.710
 4724SOL     OW15070   3.805   5.171   1.915
 4724SOL    HW115071   3.707   5.165   1.896
 4724SOL    HW215072   3.818   5.188   2.013
 4725SOL     OW15073   5.868   5.633   3.536
 4725SOL    HW115074   5.883   5.682   3.451
 4725SOL    HW215075   5.785   5.668   3.580
 4726SOL     OW15076   0.608   6.357   6.307
 4726SOL    HW115077   0.672   6.324   6.377
 4726SOL    HW215078   0.528   6.297   6.305
 4727SOL     OW15079   0.291   6.707   0.383
 4727SOL    HW115080   0.243   6.793   0.400
 4727SOL    HW215081   0.352   6.718   0.305
 4728SOL     OW15082   0.284   1.263   7.013
 4728SOL    HW115083   0.217   1.314   6.958
 4728SOL    HW215084   0.354   1.327   0.029
 4729SOL     OW15085   3.357   0.490   0.702
 4729SOL    HW115086   3.327   0.517   0.793
 4729SOL    HW215087   3.317   0.402   0.678
 4730SOL     OW15088   1.756   6.742   5.283
 4730SOL    HW115089   1.727   6.679   5.355
 4730SOL    HW215090   1.700   6.825   5.286
 4731SOL     OW15091   5.809   1.854   5.597
 4731SOL    HW115092   5.828   1.836   5.694
 4731SOL    HW215093   5.787   1.950   5.585
 4732SOL     OW15094   0.476   1.873   0.635
 4732SOL    HW115095   0.523   1.793   0.671
 4732SOL    HW215096   0.530   1.955   0.652
 4733SOL     OW15097   6.718   2.892   4.092
 4733SOL    HW115098   6.639   2.874   4.150
 4733SOL    HW215099   6.798   2.845   4.129
 4734SOL     OW15100   4.071   4.508   6.157
 4734SOL    HW115101   4.069   4.488   6.255
 4734SOL    HW215102   3.980   4.496   6.118
 4735SOL     OW15103   0.452   5.040   3.474
 4735SOL    HW115104   0.369   5.088   3.500
 4735SOL    HW215105   0.488   4.991   3.554
 4736SOL     OW15106   1.490   1.011   1.160
 4736SOL    HW115107   1.405   1.029   1.209
 4736SOL    HW215108   1.475   0.937   1.094
 4737SOL     OW15109   2.868   5.561   1.624
 4737SOL    HW115110   2.906   5.648   1.591
 4737SOL    HW215111   2.937   5.513   1.678
 4738SOL     OW15112   6.902   6.494   2.431
 4738SOL    HW115113   6.897   6.562   2.505
 4738SOL    HW215114   6.875   6.404   2.466
 4739SOL     OW15115   4.752   0.595   1.422
 4739SOL    HW115116   4.849   0.616   1.414
 4739SOL    HW215117   4.740   0.496   1.437
 4740SOL     OW15118   0.553   2.468   3.965
 4740SOL    HW115119   0.563   2.414   3.882
 4740SOL    HW215120   0.613   2.431   4.036
 4741SOL     OW15121   3.692   4.227   1.370
 4741SOL    HW115122   3.654   4.154   1.427
 4741SOL    HW215123   3.791   4.231   1.383
 4742SOL     OW15124   3.420   0.864   0.491
 4742SOL    HW115125   3.393   0.839   0.583
 4742SOL    HW215126   3.489   0.800   0.457
 4743SOL     OW15127   1.616   4.688   1.109
 4743SOL    HW115128   1.597   4.659   1.203
 4743SOL    HW215129   1.633   4.786   1.108
 4744SOL     OW15130   2.502   5.717   1.269
 4744SOL    HW115131   2.476   5.625   1.299
 4744SOL    HW215132   2.589   5.742   1.310
 4745SOL     OW15133   0.804   3.851   6.849
 4745SOL    HW115134   0.786   3.899   6.763
 4745SOL    HW215135   0.758   3.762   6.847
 4746SOL     OW15136   4.300   5.762   4.206
 4746SOL    HW115137   4.376   5.816   4.243
 4746SOL    HW215138   4.258   5.709   4.280
 4747SOL     OW15139   1.742   1.690   6.919
 4747SOL    HW115140   1.708   1.701   7.012
 4747SOL    HW215141   1.805   1.764   6.897
 4748SOL     OW15142   1.819   6.560   1.995
 4748SOL    HW115143   1.722   6.580   2.008
 4748SOL    HW215144   1.831   6.498   1.917
 4749SOL     OW15145   3.134   1.682   6.795
 4749SOL    HW115146   3.207   1.619   6.767
 4749SOL    HW215147   3.161   1.727   6.881
 4750SOL     OW15148   4.958   2.700   5.613
 4750SOL    HW115149   4.951   2.636   5.536
 4750SOL    HW215150   4.998   2.786   5.581
 4751SOL     OW15151   4.771   1.013   3.354
 4751SOL    HW115152   4.814   0.927   3.326
 4751SOL    HW215153   4.746   1.066   3.273
 4752SOL     OW15154   4.854   2.262   6.646
 4752SOL    HW115155   4.757   2.281   6.661
 4752SOL    HW215156   4.908   2.319   6.708
 4753SOL     OW15157   3.304   6.218   5.457
 4753SOL    HW115158   3.296   6.303   5.510
 4753SOL    HW215159   3.388   6.219   5.404
 4754SOL     OW15160   4.572   4.366   6.578
 4754SOL    HW115161   4.614   4.343   6.490
 4754SOL    HW215162   4.640   4.409   6.637
 4755SOL     OW15163   0.818   0.991   1.714
 4755SOL    HW115164   0.745   0.966   1.650
 4755SOL    HW215165   0.906   0.961   1.677
 4756SOL     OW15166   6.479   4.090   5.819
 4756SOL    HW115167   6.461   4.047   5.908
 4756SOL    HW215168   6.578   4.098   5.805
 4757SOL     OW15169   1.845   3.287   0.516
 4757SOL    HW115170   1.897   3.203   0.499
 4757SOL    HW215171   1.903   3.353   0.564
 4758SOL     OW15172   2.477   6.476   3.015
 4758SOL    HW115173   2.409   6.447   3.082
 4758SOL    HW215174   2.453   6.441   2.925
 4759SOL     OW15175   0.401   6.157   1.560
 4759SOL    HW115176   0.373   6.153   1.464
 4759SOL    HW215177   0.474   6.224   1.571
 4760SOL     OW15178   1.519   5.887   0.784
 4760SOL    HW115179   1.579   5.844   0.716
 4760SOL    HW215180   1.425   5.856   0.769
 4761SOL     OW15181   5.675   6.303   1.654
 4761SOL    HW115182   5.708   6.348   1.737
 4761SOL    HW215183   5.678   6.204   1.667
 4762SOL     OW15184   1.199   0.725   2.373
 4762SOL    HW115185   1.111   0.679   2.371
 4762SOL    HW215186   1.221   0.760   2.282
 4763SOL     OW15187   5.437   5.001   2.214
 4763SOL    HW115188   5.385   4.977   2.297
 4763SOL    HW215189   5.411   4.939   2.140
 4764SOL     OW15190   4.970   2.779   0.395
 4764SOL    HW115191   4.908   2.703   0.382
 4764SOL    HW215192   5.014   2.771   0.485
 4765SOL     OW15193   4.089   1.652   5.278
 4765SOL    HW115194   4.078   1.642   5.179
 4765SOL    HW215195   4.043   1.576   5.324
 4766SOL     OW15196   0.828   0.354   4.439
 4766SOL    HW115197   0.773   0.300   4.375
 4766SOL    HW215198   0.794   0.448   4.441
 4767SOL     OW15199   2.344   4.168   3.402
 4767SOL    HW115200   2.358   4.267   3.403
 4767SOL    HW215201   2.335   4.136   3.308
 4768SOL     OW15202   4.581   2.721   6.377
 4768SOL    HW115203   4.504   2.671   6.339
 4768SOL    HW215204   4.629   2.769   6.304
 4769SOL     OW15205   2.161   3.517   0.381
 4769SOL    HW115206   2.074   3.533   0.335
 4769SOL    HW215207   2.193   3.424   0.360
 4770SOL     OW15208   0.551   1.546   4.332
 4770SOL    HW115209   0.607   1.564   4.413
 4770SOL    HW215210   0.585   1.600   4.256
 4771SOL     OW15211   1.852   6.998   3.939
 4771SOL    HW115212   1.788   6.939   3.888
 4771SOL    HW215213   1.872   6.956   4.027
 4772SOL     OW15214   3.266   5.145   2.242
 4772SOL    HW115215   3.256   5.215   2.171
 4772SOL    HW215216   3.296   5.187   2.327
 4773SOL     OW15217   2.518   5.238   4.718
 4773SOL    HW115218   2.537   5.177   4.641
 4773SOL    HW215219   2.447   5.198   4.775
 4774SOL     OW15220   1.352   4.391   0.060
 4774SOL    HW115221   1.318   4.297   0.062
 4774SOL    HW215222   1.395   4.413   0.148
 4775SOL     OW15223   6.230   6.337   5.612
 4775SOL    HW115224   6.303   6.340   5.543
 4775SOL    HW215225   6.144   6.364   5.570
 4776SOL     OW15226   0.423   1.020   6.089
 4776SOL    HW115227   0.452   1.089   6.156
 4776SOL    HW215228   0.358   1.062   6.025
 4777SOL     OW15229   1.617   0.168   2.454
 4777SOL    HW115230   1.673   0.100   2.407
 4777SOL    HW215231   1.523   0.166   2.418
 4778SOL     OW15232   2.159   1.198   6.839
 4778SOL    HW115233   2.244   1.232   6.878
 4778SOL    HW215234   2.178   1.152   6.752
 4779SOL     OW15235   5.665   0.279   4.779
 4779SOL    HW115236   5.616   0.363   4.797
 4779SOL    HW215237   5.749   0.276   4.834
 4780SOL     OW15238   4.744   2.401   5.736
 4780SOL    HW115239   4.684   2.472   5.773
 4780SOL    HW215240   4.821   2.388   5.797
 4781SOL     OW15241   2.369   6.277   1.787
 4781SOL    HW115242   2.324   6.330   1.715
 4781SOL    HW215243   2.313   6.197   1.809
 4782SOL     OW15244   6.671   6.813   4.529
 4782SOL    HW115245   6.750   6.795   4.471
 4782SOL    HW215246   6.628   6.899   4.500
 4783SOL     OW15247   6.919   3.378   6.015
 4783SOL    HW115248   6.871   3.314   6.076
 4783SOL    HW215249   6.941   3.462   6.065
 4784SOL     OW15250   5.389   3.324   6.668
 4784SOL    HW115251   5.388   3.229   6.699
 4784SOL    HW215252   5.369   3.385   6.744
 4785SOL     OW15253   0.039   6.848   4.630
 4785SOL    HW115254   0.103   6.771   4.634
 4785SOL    HW215255   0.068   6.919   4.694
 4786SOL     OW15256   0.668   6.217   0.346
 4786SOL    HW115257   0.603   6.197   0.420
 4786SOL    HW215258   0.750   6.161   0.357
 4787SOL     OW15259   3.933   1.695   4.046
 4787SOL    HW115260   3.947   1.742   4.134
 4787SOL    HW215261   3.835   1.687   4.028
 4788SOL     OW15262   6.798   6.226   0.220
 4788SOL    HW115263   6.866   6.177   0.275
 4788SOL    HW215264   6.782   6.177   0.134
 4789SOL     OW15265   5.815   1.111   2.870
 4789SOL    HW115266   5.745   1.112   2.798
 4789SOL    HW215267   5.904   1.093   2.830
 4790SOL     OW15268   0.001   1.792   5.011
 4790SOL    HW115269   6.961   1.752   4.938
 4790SOL    HW215270   0.042   1.719   5.065
 4791SOL     OW15271   0.727   0.364   0.698
 4791SOL    HW115272   0.685   0.424   0.766
 4791SOL    HW215273   0.771   0.420   0.627
 4792SOL     OW15274   2.084   3.488   2.601
 4792SOL    HW115275   2.100   3.491   2.503
 4792SOL    HW215276   2.142   3.417   2.642
 4793SOL     OW15277   0.887   3.279   5.362
 4793SOL    HW115278   0.811   3.344   5.371
 4793SOL    HW215279   0.928   3.288   5.271
 4794SOL     OW15280   4.357   1.794   4.635
 4794SOL    HW115281   4.375   1.873   4.694
 4794SOL    HW215282   4.436   1.778   4.575
 4795SOL     OW15283   0.044   1.081   6.554
 4795SOL    HW115284   7.008   1.005   6.515
 4795SOL    HW215285   0.142   1.064   6.540
 4796SOL     OW15286   4.528   1.229   5.616
 4796SOL    HW115287   4.602   1.187   5.669
 4796SOL    HW215288   4.562   1.313   5.573
 4797SOL     OW15289   1.580   5.008   5.280
 4797SOL    HW115290   1.570   4.975   5.186
 4797SOL    HW215291   1.534   4.945   5.342
 4798SOL     OW15292   4.084   5.439   0.252
 4798SOL    HW115293   3.993   5.435   0.293
 4798SOL    HW215294   4.091   5.369   0.181
 4799SOL     OW15295   4.399   2.541   6.787
 4799SOL    HW115296   4.352   2.569   6.871
 4799SOL    HW215297   4.331   2.518   6.717
 4800SOL     OW15298   0.236   3.954   0.144
 4800SOL    HW115299   0.194   3.867   0.170
 4800SOL    HW215300   0.332   3.939   0.122
 4801SOL     OW15301   5.071   2.388   1.554
 4801SOL    HW115302   5.150   2.410   1.498
 4801SOL    HW215303   5.015   2.470   1.567
 4802SOL     OW15304   6.565   0.016   4.390
 4802SOL    HW115305   6.542   6.985   4.305
 4802SOL    HW215306   6.584   0.113   4.369
 4803SOL     OW15307   4.997   3.691   6.036
 4803SOL    HW115308   4.989   3.606   6.089
 4803SOL    HW215309   5.081   3.738   6.063
 4804SOL     OW15310   5.349   1.719   0.377
 4804SOL    HW115311   5.397   1.645   0.331
 4804SOL    HW215312   5.251   1.699   0.380
 4805SOL     OW15313   6.134   1.652   0.149
 4805SOL    HW115314   6.202   1.594   0.194
 4805SOL    HW215315   6.131   1.741   0.195
 4806SOL     OW15316   0.881   1.176   3.572
 4806SOL    HW115317   0.941   1.119   3.628
 4806SOL    HW215318   0.932   1.257   3.542
 4807SOL     OW15319   0.407   4.159   5.409
 4807SOL    HW115320   0.394   4.258   5.403
 4807SOL    HW215321   0.326   4.112   5.374
 4808SOL     OW15322   3.795   5.825   1.649
 4808SOL    HW115323   3.746   5.741   1.626
 4808SOL    HW215324   3.732   5.903   1.645
 4809SOL     OW15325   3.252   3.721   1.781
 4809SOL    HW115326   3.323   3.757   1.721
 4809SOL    HW215327   3.206   3.644   1.737
 4810SOL     OW15328   1.270   5.099   3.917
 4810SOL    HW115329   1.300   5.102   4.012
 4810SOL    HW215330   1.217   5.181   3.896
 4811SOL     OW15331   3.305   3.655   4.338
 4811SOL    HW115332   3.216   3.688   4.371
 4811SOL    HW215333   3.292   3.572   4.283
 4812SOL     OW15334   1.292   0.285   2.751
 4812SOL    HW115335   1.267   0.368   2.701
 4812SOL    HW215336   1.355   0.307   2.825
 4813SOL     OW15337   0.043   1.828   5.634
 4813SOL    HW115338   0.105   1.750   5.626
 4813SOL    HW215339   0.067   1.882   5.715
 4814SOL     OW15340   6.241   3.826   1.514
 4814SOL    HW115341   6.263   3.849   1.419
 4814SOL    HW215342   6.238   3.726   1.524
 4815SOL     OW15343   5.919   4.420   1.954
 4815SOL    HW115344   5.853   4.392   2.024
 4815SOL    HW215345   5.933   4.519   1.959
 4816SOL     OW15346   2.975   1.250   2.517
 4816SOL    HW115347   3.065   1.289   2.537
 4816SOL    HW215348   2.986   1.169   2.460
 4817SOL     OW15349   4.143   1.733   0.540
 4817SOL    HW115350   4.154   1.645   0.494
 4817SOL    HW215351   4.133   1.718   0.639
 4818SOL     OW15352   4.381   0.075   4.744
 4818SOL    HW115353   4.299   0.111   4.701
 4818SOL    HW215354   4.455   0.142   4.738
 4819SOL     OW15355   3.288   0.782   0.719
 4819SOL    HW115356   3.276   0.866   0.770
 4819SOL    HW215357   3.316   0.709   0.781
 4820SOL     OW15358   5.873   4.063   2.070
 4820SOL    HW115359   5.845   3.968   2.085
 4820SOL    HW215360   5.879   4.080   1.971
 4821SOL     OW15361   0.265   5.396   1.751
 4821SOL    HW115362   0.294   5.350   1.667
 4821SOL    HW215363   0.299   5.347   1.830
 4822SOL     OW15364   1.169   4.058   1.963
 4822SOL    HW115365   1.119   4.032   1.881
 4822SOL    HW215366   1.118   4.028   2.044
 4823SOL     OW15367   1.994   1.496   4.160
 4823SOL    HW115368   1.904   1.453   4.162
 4823SOL    HW215369   2.001   1.562   4.235
 4824SOL     OW15370   5.506   2.944   1.657
 4824SOL    HW115371   5.414   2.978   1.638
 4824SOL    HW215372   5.573   2.998   1.606
 4825SOL     OW15373   0.272   3.188   3.561
 4825SOL    HW115374   0.285   3.281   3.527
 4825SOL    HW215375   0.308   3.181   3.654
 4826SOL     OW15376   6.918   6.388   6.907
 4826SOL    HW115377   6.935   6.468   6.850
 4826SOL    HW215378   6.888   6.418   6.998
 4827SOL     OW15379   5.602   1.042   1.044
 4827SOL    HW115380   5.562   1.090   1.123
 4827SOL    HW215381   5.538   0.972   1.012
 4828SOL     OW15382   5.010   3.150   6.512
 4828SOL    HW115383   5.110   3.160   6.514
 4828SOL    HW215384   4.979   3.153   6.417
 4829SOL     OW15385   3.487   0.200   5.119
 4829SOL    HW115386   3.550   0.266   5.078
 4829SOL    HW215387   3.435   0.245   5.192
 4830SOL     OW15388   4.056   6.342   4.885
 4830SOL    HW115389   3.963   6.342   4.848
 4830SOL    HW215390   4.110   6.271   4.840
 4831SOL     OW15391   6.619   3.781   5.535
 4831SOL    HW115392   6.668   3.696   5.550
 4831SOL    HW215393   6.521   3.763   5.529
 4832SOL     OW15394   2.467   2.437   6.105
 4832SOL    HW115395   2.370   2.455   6.087
 4832SOL    HW215396   2.476   2.351   6.154
 4833SOL     OW15397   5.505   1.456   2.896
 4833SOL    HW115398   5.520   1.378   2.835
 4833SOL    HW215399   5.593   1.484   2.937
 4834SOL     OW15400   5.242   0.938   2.922
 4834SOL    HW115401   5.274   1.006   2.989
 4834SOL    HW215402   5.259   0.846   2.957
 4835SOL     OW15403   2.409   0.683   5.846
 4835SOL    HW115404   2.499   0.651   5.817
 4835SOL    HW215405   2.341   0.612   5.826
 4836SOL     OW15406   5.500   2.935   2.275
 4836SOL    HW115407   5.447   3.017   2.294
 4836SOL    HW215408   5.583   2.960   2.225
 4837SOL     OW15409   0.660   4.308   0.530
 4837SOL    HW115410   0.670   4.225   0.476
 4837SOL    HW215411   0.724   4.378   0.497
 4838SOL     OW15412   2.593   5.720   2.443
 4838SOL    HW115413   2.530   5.654   2.402
 4838SOL    HW215414   2.675   5.672   2.474
 4839SOL     OW15415   0.691   6.996   6.674
 4839SOL    HW115416   0.658   0.070   6.647
 4839SOL    HW215417   0.734   7.002   6.764
 4840SOL     OW15418   6.637   6.533   6.758
 4840SOL    HW115419   6.698   6.456   6.738
 4840SOL    HW215420   6.680   6.618   6.726
 4841SOL     OW15421   2.168   6.196   2.403
 4841SOL    HW115422   2.150   6.101   2.379
 4841SOL    HW215423   2.120   6.256   2.339
 4842SOL     OW15424   3.557   6.623   1.304
 4842SOL    HW115425   3.632   6.675   1.264
 4842SOL    HW215426   3.539   6.543   1.247
 4843SOL     OW15427   0.648   3.134   6.882
 4843SOL    HW115428   0.564   3.082   6.865
 4843SOL    HW215429   0.707   3.083   6.945
 4844SOL     OW15430   0.406   1.790   5.757
 4844SOL    HW115431   0.355   1.793   5.842
 4844SOL    HW215432   0.378   1.866   5.698
 4845SOL     OW15433   5.807   5.523   3.810
 4845SOL    HW115434   5.726   5.468   3.834
 4845SOL    HW215435   5.787   5.579   3.730
 4846SOL     OW15436   1.165   5.252   0.700
 4846SOL    HW115437   1.090   5.206   0.653
 4846SOL    HW215438   1.236   5.185   0.723
 4847SOL     OW15439   4.727   2.267   4.696
 4847SOL    HW115440   4.655   2.254   4.628
 4847SOL    HW215441   4.813   2.290   4.649
 4848SOL     OW15442   3.060   2.130   2.178
 4848SOL    HW115443   3.004   2.058   2.219
 4848SOL    HW215444   3.000   2.200   2.138
 4849SOL     OW15445   1.132   6.577   6.903
 4849SOL    HW115446   1.046   6.594   6.856
 4849SOL    HW215447   1.205   6.629   6.857
 4850SOL     OW15448   3.650   0.396   2.185
 4850SOL    HW115449   3.718   0.338   2.232
 4850SOL    HW215450   3.582   0.338   2.142
 4851SOL     OW15451   5.503   0.454   5.199
 4851SOL    HW115452   5.512   0.544   5.241
 4851SOL    HW215453   5.462   0.390   5.265
 4852SOL     OW15454   1.724   1.995   1.014
 4852SOL    HW115455   1.823   1.981   1.015
 4852SOL    HW215456   1.694   2.031   1.102
 4853SOL     OW15457   3.212   1.255   1.867
 4853SOL    HW115458   3.154   1.190   1.818
 4853SOL    HW215459   3.156   1.316   1.922
 4854SOL     OW15460   4.139   6.907   0.200
 4854SOL    HW115461   4.063   6.847   0.226
 4854SOL    HW215462   4.109   7.002   0.203
 4855SOL     OW15463   0.120   2.666   2.609
 4855SOL    HW115464   0.054   2.624   2.672
 4855SOL    HW215465   0.090   2.758   2.584
 4856SOL     OW15466   2.356   4.448   3.454
 4856SOL    HW115467   2.277   4.500   3.487
 4856SOL    HW215468   2.406   4.503   3.387
 4857SOL     OW15469   0.232   1.752   5.981
 4857SOL    HW115470   0.203   1.662   5.950
 4857SOL    HW215471   0.275   1.745   6.071
 4858SOL     OW15472   1.086   1.022   3.685
 4858SOL    HW115473   1.158   1.090   3.697
 4858SOL    HW215474   1.092   0.982   3.593
 4859SOL     OW15475   2.851   5.258   5.133
 4859SOL    HW115476   2.927   5.209   5.091
 4859SOL    HW215477   2.794   5.299   5.062
 4860SOL     OW15478   4.408   4.756   0.702
 4860SOL    HW115479   4.500   4.779   0.671
 4860SOL    HW215480   4.414   4.714   0.793
 4861SOL     OW15481   5.051   3.432   5.874
 4861SOL    HW115482   4.982   3.504   5.880
 4861SOL    HW215483   5.133   3.460   5.923
 4862SOL     OW15484   1.304   6.478   1.926
 4862SOL    HW115485   1.307   6.452   1.829
 4862SOL    HW215486   1.223   6.438   1.968
 4863SOL     OW15487   5.960   4.204   6.752
 4863SOL    HW115488   5.940   4.233   6.845
 4863SOL    HW215489   6.043   4.149   6.751
 4864SOL     OW15490   3.070   1.084   3.599
 4864SOL    HW115491   3.021   1.157   3.551
 4864SOL    HW215492   3.147   1.123   3.649
 4865SOL     OW15493   2.091   6.273   4.842
 4865SOL    HW115494   2.081   6.287   4.941
 4865SOL    HW215495   2.188   6.265   4.820
 4866SOL     OW15496   6.523   3.907   6.562
 4866SOL    HW115497   6.459   3.982   6.544
 4866SOL    HW215498   6.490   3.852   6.638
 4867SOL     OW15499   4.912   6.920   2.870
 4867SOL    HW115500   4.837   6.977   2.904
 4867SOL    HW215501   4.959   6.878   2.948
 4868SOL     OW15502   0.007   4.777   1.539
 4868SOL    HW115503   6.933   4.755   1.573
 4868SOL    HW215504   0.061   4.693   1.532
 4869SOL     OW15505   0.759   0.781   0.334
 4869SOL    HW115506   0.826   0.827   0.392
 4869SOL    HW215507   0.803   0.756   0.247
 4870SOL     OW15508   0.295   5.966   1.757
 4870SOL    HW115509   0.349   5.884   1.774
 4870SOL    HW215510   0.335   6.017   1.681
 4871SOL     OW15511   1.828   1.873   4.546
 4871SOL    HW115512   1.861   1.925   4.625
 4871SOL    HW215513   1.796   1.936   4.475
 4872SOL     OW15514   5.322   6.549   3.309
 4872SOL    HW115515   5.239   6.498   3.331
 4872SOL    HW215516   5.348   6.531   3.214
 4873SOL     OW15517   6.575   5.565   5.556
 4873SOL    HW115518   6.508   5.583   5.484
 4873SOL    HW215519   6.544   5.488   5.611
 4874SOL     OW15520   4.918   2.609   2.736
 4874SOL    HW115521   4.999   2.565   2.696
 4874SOL    HW215522   4.886   2.555   2.814
 4875SOL     OW15523   5.439   6.117   5.247
 4875SOL    HW115524   5.462   6.049   5.178
 4875SOL    HW215525   5.340   6.113   5.266
 4876SOL     OW15526   1.329   1.269   2.563
 4876SOL    HW115527   1.243   1.259   2.612
 4876SOL    HW215528   1.323   1.225   2.474
 4877SOL     OW15529   6.945   1.356   5.103
 4877SOL    HW115530   6.879   1.321   5.036
 4877SOL    HW215531   6.898   1.416   5.168
 4878SOL     OW15532   6.742   2.568   2.372
 4878SOL    HW115533   6.780   2.521   2.293
 4878SOL    HW215534   6.778   2.528   2.456
 4879SOL     OW15535   5.453   1.216   2.785
 4879SOL    HW115536   5.365   1.257   2.809
 4879SOL    HW215537   5.440   1.121   2.758
 4880SOL     OW15538   6.580   2.956   6.195
 4880SOL    HW115539   6.490   2.940   6.152
 4880SOL    HW215540   6.627   2.869   6.207
 4881SOL     OW15541   1.891   2.208   1.791
 4881SOL    HW115542   1.962   2.170   1.849
 4881SOL    HW215543   1.918   2.198   1.695
 4882SOL     OW15544   4.206   1.975   4.456
 4882SOL    HW115545   4.194   2.071   4.431
 4882SOL    HW215546   4.297   1.944   4.427
 4883SOL     OW15547   6.476   4.684   1.154
 4883SOL    HW115548   6.384   4.670   1.190
 4883SOL    HW215549   6.539   4.619   1.197
 4884SOL     OW15550   2.158   6.720   1.080
 4884SOL    HW115551   2.174   6.805   1.030
 4884SOL    HW215552   2.212   6.719   1.163
 4885SOL     OW15553   1.071   4.434   6.996
 4885SOL    HW115554   1.170   4.439   7.001
 4885SOL    HW215555   1.039   4.356   0.034
 4886SOL     OW15556   2.303   1.376   1.938
 4886SOL    HW115557   2.237   1.388   2.012
 4886SOL    HW215558   2.255   1.346   1.855
 4887SOL     OW15559   6.166   6.664   1.482
 4887SOL    HW115560   6.093   6.621   1.535
 4887SOL    HW215561   6.142   6.662   1.385
 4888SOL     OW15562   4.006   6.842   2.773
 4888SOL    HW115563   3.913   6.814   2.796
 4888SOL    HW215564   4.059   6.763   2.743
 4889SOL     OW15565   0.085   3.032   4.218
 4889SOL    HW115566   0.071   3.053   4.121
 4889SOL    HW215567   0.148   3.098   4.258
 4890SOL     OW15568   6.858   1.402   4.560
 4890SOL    HW115569   6.927   1.385   4.489
 4890SOL    HW215570   6.880   1.348   4.641
 4891SOL     OW15571   2.578   5.471   6.145
 4891SOL    HW115572   2.646   5.412   6.103
 4891SOL    HW215573   2.619   5.560   6.166
 4892SOL     OW15574   4.717   5.507   3.026
 4892SOL    HW115575   4.780   5.433   3.004
 4892SOL    HW215576   4.633   5.496   2.972
 4893SOL     OW15577   1.012   3.605   1.377
 4893SOL    HW115578   1.023   3.675   1.307
 4893SOL    HW215579   0.937   3.544   1.351
 4894SOL     OW15580   4.989   0.141   1.992
 4894SOL    HW115581   5.039   0.225   1.972
 4894SOL    HW215582   5.014   0.109   2.084
 4895SOL     OW15583   0.167   4.121   4.546
 4895SOL    HW115584   0.096   4.130   4.477
 4895SOL    HW215585   0.140   4.171   4.629
 4896SOL     OW15586   1.990   4.602   4.666
 4896SOL    HW115587   2.058   4.669   4.635
 4896SOL    HW215588   2.002   4.585   4.764
 4897SOL     OW15589   1.926   6.327   5.579
 4897SOL    HW115590   1.901   6.322   5.482
 4897SOL    HW215591   1.877   6.255   5.629
 4898SOL     OW15592   4.716   1.717   3.650
 4898SOL    HW115593   4.674   1.771   3.576
 4898SOL    HW215594   4.780   1.651   3.611
 4899SOL     OW15595   6.582   6.258   2.083
 4899SOL    HW115596   6.566   6.168   2.043
 4899SOL    HW215597   6.680   6.280   2.078
 4900SOL     OW15598   3.791   6.128   5.505
 4900SOL    HW115599   3.784   6.221   5.469
 4900SOL    HW215600   3.770   6.063   5.432
 4901SOL     OW15601   1.083   1.493   5.747
 4901SOL    HW115602   1.047   1.483   5.655
 4901SOL    HW215603   1.045   1.576   5.789
 4902SOL     OW15604   2.014   6.571   5.689
 4902SOL    HW115605   2.060   6.630   5.623
 4902SOL    HW215606   1.992   6.483   5.646
 4903SOL     OW15607   4.843   4.077   2.516
 4903SOL    HW115608   4.854   4.056   2.613
 4903SOL    HW215609   4.836   3.991   2.464
 4904SOL     OW15610   1.669   6.554   0.354
 4904SOL    HW115611   1.742   6.546   0.421
 4904SOL    HW215612   1.652   6.464   0.313
 4905SOL     OW15613   2.984   6.011   3.106
 4905SOL    HW115614   3.015   6.085   3.047
 4905SOL    HW215615   2.927   6.048   3.179
 4906SOL     OW15616   5.015   3.432   5.054
 4906SOL    HW115617   4.971   3.368   4.991
 4906SOL    HW215618   4.974   3.523   5.044
 4907SOL     OW15619   4.577   1.381   0.175
 4907SOL    HW115620   4.534   1.451   0.117
 4907SOL    HW215621   4.675   1.380   0.158
 4908SOL     OW15622   3.948   6.761   6.736
 4908SOL    HW115623   3.952   6.843   6.678
 4908SOL    HW215624   3.994   6.685   6.691
 4909SOL     OW15625   5.087   4.568   4.616
 4909SOL    HW115626   5.186   4.576   4.603
 4909SOL    HW215627   5.054   4.487   4.567
 4910SOL     OW15628   4.597   2.290   6.001
 4910SOL    HW115629   4.638   2.375   5.967
 4910SOL    HW215630   4.658   2.250   6.070
 4911SOL     OW15631   6.497   2.330   2.322
 4911SOL    HW115632   6.459   2.413   2.362
 4911SOL    HW215633   6.470   2.323   2.226
 4912SOL     OW15634   5.518   2.799   4.049
 4912SOL    HW115635   5.556   2.780   4.140
 4912SOL    HW215636   5.546   2.727   3.986
 4913SOL     OW15637   0.372   3.891   5.771
 4913SOL    HW115638   0.464   3.866   5.740
 4913SOL    HW215639   0.361   3.867   5.867
 4914SOL     OW15640   4.437   0.657   3.479
 4914SOL    HW115641   4.467   0.726   3.545
 4914SOL    HW215642   4.338   0.645   3.486
 4915SOL     OW15643   3.033   5.028   5.616
 4915SOL    HW115644   3.113   5.053   5.560
 4915SOL    HW215645   3.013   5.102   5.680
 4916SOL     OW15646   5.854   2.597   4.366
 4916SOL    HW115647   5.843   2.603   4.465
 4916SOL    HW215648   5.806   2.516   4.332
 4917SOL     OW15649   4.363   6.275   0.320
 4917SOL    HW115650   4.395   6.279   0.226
 4917SOL    HW215651   4.442   6.274   0.382
 4918SOL     OW15652   6.121   4.679   2.927
 4918SOL    HW115653   6.208   4.630   2.922
 4918SOL    HW215654   6.121   4.754   2.861
 4919SOL     OW15655   3.363   3.805   2.258
 4919SOL    HW115656   3.289   3.846   2.205
 4919SOL    HW215657   3.416   3.876   2.303
 4920SOL     OW15658   0.006   1.601   5.848
 4920SOL    HW115659   6.966   1.683   5.842
 4920SOL    HW215660   6.979   1.535   5.908
 4921SOL     OW15661   0.079   0.028   2.769
 4921SOL    HW115662   0.062   6.957   2.813
 4921SOL    HW215663   0.017   0.039   2.691
 4922SOL     OW15664   3.392   1.948   6.689
 4922SOL    HW115665   3.443   1.983   6.767
 4922SOL    HW215666   3.294   1.963   6.703
 4923SOL     OW15667   3.848   1.624   1.695
 4923SOL    HW115668   3.941   1.608   1.662
 4923SOL    HW215669   3.805   1.536   1.718
 4924SOL     OW15670   2.733   0.615   5.110
 4924SOL    HW115671   2.823   0.654   5.126
 4924SOL    HW215672   2.716   0.607   5.012
 4925SOL     OW15673   6.110   6.215   3.636
 4925SOL    HW115674   6.132   6.118   3.632
 4925SOL    HW215675   6.061   6.235   3.720
 4926SOL     OW15676   5.365   2.731   1.011
 4926SOL    HW115677   5.266   2.744   1.000
 4926SOL    HW215678   5.410   2.742   0.922
 4927SOL     OW15679   3.745   1.347   6.647
 4927SOL    HW115680   3.810   1.271   6.658
 4927SOL    HW215681   3.678   1.324   6.577
 4928SOL     OW15682   0.018   2.671   0.871
 4928SOL    HW115683   0.073   2.697   0.951
 4928SOL    HW215684   6.939   2.695   0.888
 4929SOL     OW15685   0.937   6.040   5.319
 4929SOL    HW115686   0.851   6.025   5.271
 4929SOL    HW215687   1.002   6.084   5.257
 4930SOL     OW15688   5.109   6.251   1.891
 4930SOL    HW115689   5.108   6.222   1.795
 4930SOL    HW215690   5.190   6.306   1.909
 4931SOL     OW15691   6.822   5.730   0.362
 4931SOL    HW115692   6.789   5.705   0.453
 4931SOL    HW215693   6.774   5.813   0.331
 4932SOL     OW15694   3.431   3.159   2.227
 4932SOL    HW115695   3.401   3.084   2.285
 4932SOL    HW215696   3.512   3.132   2.175
 4933SOL     OW15697   2.216   6.335   5.520
 4933SOL    HW115698   2.294   6.305   5.575
 4933SOL    HW215699   2.136   6.344   5.580
 4934SOL     OW15700   4.132   5.295   2.550
 4934SOL    HW115701   4.124   5.208   2.598
 4934SOL    HW215702   4.203   5.288   2.480
 4935SOL     OW15703   0.585   1.134   6.323
 4935SOL    HW115704   0.635   1.210   6.281
 4935SOL    HW215705   0.644   1.053   6.326
 4936SOL     OW15706   3.727   2.721   0.784
 4936SOL    HW115707   3.665   2.796   0.761
 4936SOL    HW215708   3.725   2.704   0.883
 4937SOL     OW15709   4.651   2.684   5.058
 4937SOL    HW115710   4.651   2.735   4.972
 4937SOL    HW215711   4.589   2.605   5.050
 4938SOL     OW15712   4.118   5.180   6.042
 4938SOL    HW115713   4.184   5.163   5.970
 4938SOL    HW215714   4.112   5.278   6.061
 4939SOL     OW15715   4.803   3.396   6.077
 4939SOL    HW115716   4.855   3.314   6.101
 4939SOL    HW215717   4.782   3.395   5.979
 4940SOL     OW15718   1.576   5.949   4.313
 4940SOL    HW115719   1.582   6.046   4.290
 4940SOL    HW215720   1.641   5.898   4.256
 4941SOL     OW15721   5.446   0.341   1.155
 4941SOL    HW115722   5.445   0.281   1.075
 4941SOL    HW215723   5.539   0.349   1.190
 4942SOL     OW15724   4.997   3.366   5.625
 4942SOL    HW115725   5.035   3.374   5.717
 4942SOL    HW215726   4.908   3.413   5.621
 4943SOL     OW15727   5.283   2.554   1.461
 4943SOL    HW115728   5.238   2.638   1.493
 4943SOL    HW215729   5.361   2.533   1.520
 4944SOL     OW15730   2.365   4.412   2.186
 4944SOL    HW115731   2.317   4.400   2.273
 4944SOL    HW215732   2.446   4.470   2.200
 4945SOL     OW15733   0.407   6.344   4.694
 4945SOL    HW115734   0.327   6.344   4.754
 4945SOL    HW215735   0.488   6.317   4.746
 4946SOL     OW15736   0.498   4.619   2.076
 4946SOL    HW115737   0.471   4.702   2.028
 4946SOL    HW215738   0.508   4.544   2.011
 4947SOL     OW15739   6.910   0.173   1.184
 4947SOL    HW115740   6.888   0.076   1.187
 4947SOL    HW215741   6.825   0.226   1.176
 4948SOL     OW15742   1.790   0.998   1.963
 4948SOL    HW115743   1.854   0.968   1.893
 4948SOL    HW215744   1.710   1.041   1.920
 4949SOL     OW15745   5.125   1.527   4.602
 4949SOL    HW115746   5.049   1.478   4.560
 4949SOL    HW215747   5.094   1.576   4.683
 4950SOL     OW15748   2.802   5.785   5.310
 4950SOL    HW115749   2.868   5.833   5.253
 4950SOL    HW215750   2.848   5.750   5.391
 4951SOL     OW15751   4.701   2.140   3.627
 4951SOL    HW115752   4.610   2.128   3.668
 4951SOL    HW215753   4.695   2.125   3.528
 4952SOL     OW15754   0.491   5.181   4.826
 4952SOL    HW115755   0.459   5.092   4.856
 4952SOL    HW215756   0.428   5.218   4.757
 4953SOL     OW15757   1.990   5.589   1.582
 4953SOL    HW115758   2.069   5.566   1.525
 4953SOL    HW215759   1.925   5.513   1.580
 4954SOL     OW15760   6.262   5.958   6.939
 4954SOL    HW115761   6.356   5.982   6.915
 4954SOL    HW215762   6.261   5.869   6.985
 4955SOL     OW15763   1.262   6.908   1.731
 4955SOL    HW115764   1.237   6.839   1.663
 4955SOL    HW215765   1.309   6.984   1.686
 4956SOL     OW15766   5.380   6.429   4.414
 4956SOL    HW115767   5.480   6.428   4.420
 4956SOL    HW215768   5.352   6.499   4.347
 4957SOL     OW15769   1.214   6.493   3.622
 4957SOL    HW115770   1.133   6.468   3.568
 4957SOL    HW215771   1.287   6.522   3.561
 4958SOL     OW15772   0.377   6.324   6.588
 4958SOL    HW115773   0.439   6.268   6.643
 4958SOL    HW215774   0.306   6.363   6.647
 4959SOL     OW15775   0.784   0.820   0.903
 4959SOL    HW115776   0.754   0.884   0.975
 4959SOL    HW215777   0.864   0.770   0.935
 4960SOL     OW15778   3.838   6.353   4.717
 4960SOL    HW115779   3.835   6.447   4.749
 4960SOL    HW215780   3.817   6.350   4.619
 4961SOL     OW15781   4.331   0.705   5.685
 4961SOL    HW115782   4.413   0.734   5.635
 4961SOL    HW215783   4.250   0.747   5.644
 4962SOL     OW15784   6.488   2.531   1.788
 4962SOL    HW115785   6.399   2.520   1.744
 4962SOL    HW215786   6.480   2.512   1.885
 4963SOL     OW15787   6.909   4.219   1.786
 4963SOL    HW115788   6.874   4.127   1.805
 4963SOL    HW215789   6.951   4.256   1.869
 4964SOL     OW15790   3.212   6.548   2.844
 4964SOL    HW115791   3.192   6.644   2.861
 4964SOL    HW215792   3.130   6.502   2.811
 4965SOL     OW15793   0.508   6.601   4.638
 4965SOL    HW115794   0.490   6.504   4.627
 4965SOL    HW215795   0.576   6.630   4.571
 4966SOL     OW15796   3.935   5.151   3.962
 4966SOL    HW115797   4.005   5.084   3.982
 4966SOL    HW215798   3.874   5.116   3.890
 4967SOL     OW15799   4.747   2.104   6.143
 4967SOL    HW115800   4.787   2.155   6.219
 4967SOL    HW215801   4.699   2.024   6.178
 4968SOL     OW15802   5.517   3.740   5.843
 4968SOL    HW115803   5.485   3.813   5.903
 4968SOL    HW215804   5.474   3.749   5.753
 4969SOL     OW15805   0.806   2.277   1.572
 4969SOL    HW115806   0.775   2.234   1.487
 4969SOL    HW215807   0.727   2.312   1.622
 4970SOL     OW15808   1.282   2.749   6.004
 4970SOL    HW115809   1.335   2.721   5.924
 4970SOL    HW215810   1.242   2.839   5.987
 4971SOL     OW15811   6.721   5.733   4.011
 4971SOL    HW115812   6.760   5.753   3.922
 4971SOL    HW215813   6.653   5.660   4.003
 4972SOL     OW15814   1.791   2.383   5.647
 4972SOL    HW115815   1.813   2.355   5.741
 4972SOL    HW215816   1.870   2.430   5.608
 4973SOL     OW15817   6.157   5.942   3.062
 4973SOL    HW115818   6.148   6.035   3.096
 4973SOL    HW215819   6.094   5.928   2.985
 4974SOL     OW15820   4.230   6.837   1.508
 4974SOL    HW115821   4.213   6.746   1.471
 4974SOL    HW215822   4.225   6.904   1.434
 4975SOL     OW15823   5.088   6.076   0.051
 4975SOL    HW115824   5.104   5.980   0.032
 4975SOL    HW215825   5.175   6.125   0.054
 4976SOL     OW15826   3.582   0.664   4.465
 4976SOL    HW115827   3.597   0.629   4.557
 4976SOL    HW215828   3.504   0.727   4.464
 4977SOL     OW15829   3.323   3.826   0.616
 4977SOL    HW115830   3.373   3.879   0.547
 4977SOL    HW215831   3.249   3.881   0.653
 4978SOL     OW15832   6.205   3.136   6.297
 4978SOL    HW115833   6.122   3.171   6.252
 4978SOL    HW215834   6.272   3.110   6.228
 4979SOL     OW15835   1.287   2.264   4.503
 4979SOL    HW115836   1.199   2.236   4.463
 4979SOL    HW215837   1.300   2.362   4.490
 4980SOL     OW15838   2.536   5.259   2.815
 4980SOL    HW115839   2.538   5.359   2.817
 4980SOL    HW215840   2.474   5.228   2.743
 4981SOL     OW15841   4.944   6.393   5.739
 4981SOL    HW115842   4.861   6.427   5.782
 4981SOL    HW215843   5.021   6.452   5.765
 4982SOL     OW15844   2.532   2.108   0.210
 4982SOL    HW115845   2.504   2.027   0.159
 4982SOL    HW215846   2.455   2.172   0.217
 4983SOL     OW15847   5.313   3.020   4.601
 4983SOL    HW115848   5.335   3.071   4.684
 4983SOL    HW215849   5.388   3.029   4.536
 4984SOL     OW15850   4.666   4.250   2.645
 4984SOL    HW115851   4.715   4.167   2.618
 4984SOL    HW215852   4.660   4.255   2.745
 4985SOL     OW15853   5.667   4.168   2.783
 4985SOL    HW115854   5.653   4.081   2.831
 4985SOL    HW215855   5.621   4.241   2.834
 4986SOL     OW15856   4.907   4.383   2.595
 4986SOL    HW115857   4.839   4.315   2.621
 4986SOL    HW215858   4.895   4.407   2.499
 4987SOL     OW15859   0.407   3.902   0.926
 4987SOL    HW115860   0.449   3.844   0.856
 4987SOL    HW215861   0.309   3.885   0.930
 4988SOL     OW15862   0.606   2.333   5.489
 4988SOL    HW115863   0.542   2.256   5.486
 4988SOL    HW215864   0.699   2.300   5.476
 4989SOL     OW15865   0.412   1.030   0.318
 4989SOL    HW115866   0.317   1.015   0.346
 4989SOL    HW215867   0.437   0.964   0.247
 4990SOL     OW15868   0.463   2.152   5.828
 4990SOL    HW115869   0.436   2.103   5.911
 4990SOL    HW215870   0.403   2.126   5.752
 4991SOL     OW15871   1.532   2.673   4.767
 4991SOL    HW115872   1.630   2.688   4.778
 4991SOL    HW215873   1.489   2.667   4.857
 4992SOL     OW15874   3.680   0.352   4.900
 4992SOL    HW115875   3.657   0.389   4.809
 4992SOL    HW215876   3.663   0.423   4.969
 4993SOL     OW15877   2.193   5.407   3.842
 4993SOL    HW115878   2.094   5.417   3.850
 4993SOL    HW215879   2.237   5.446   3.923
 4994SOL     OW15880   6.849   0.020   2.288
 4994SOL    HW115881   6.829   6.958   2.230
 4994SOL    HW215882   6.931   0.067   2.253
 4995SOL     OW15883   6.289   2.686   5.724
 4995SOL    HW115884   6.339   2.743   5.659
 4995SOL    HW215885   6.229   2.623   5.674
 4996SOL     OW15886   0.070   1.176   3.922
 4996SOL    HW115887   0.140   1.141   3.859
 4996SOL    HW215888   0.087   1.272   3.941
 4997SOL     OW15889   0.413   2.481   3.547
 4997SOL    HW115890   0.460   2.455   3.631
 4997SOL    HW215891   0.327   2.526   3.570
 4998SOL     OW15892   1.318   5.762   4.770
 4998SOL    HW115893   1.405   5.802   4.799
 4998SOL    HW215894   1.318   5.752   4.670
 4999SOL     OW15895   6.158   4.361   1.225
 4999SOL    HW115896   6.103   4.302   1.285
 4999SOL    HW215897   6.159   4.454   1.262
 5000SOL     OW15898   0.025   5.766   4.104
 5000SOL    HW115899   6.990   5.683   4.123
 5000SOL    HW215900   0.037   5.776   4.005
 5001SOL     OW15901   4.690   4.341   5.518
 5001SOL    HW115902   4.726   4.272   5.580
 5001SOL    HW215903   4.635   4.296   5.447
 5002SOL     OW15904   2.253   1.769   1.114
 5002SOL    HW115905   2.235   1.680   1.156
 5002SOL    HW215906   2.313   1.822   1.174
 5003SOL     OW15907   6.592   5.162   3.318
 5003SOL    HW115908   6.665   5.187   3.254
 5003SOL    HW215909   6.525   5.236   3.324
 5004SOL     OW15910   3.056   4.882   6.741
 5004SOL    HW115911   2.980   4.938   6.710
 5004SOL    HW215912   3.023   4.792   6.768
 5005SOL     OW15913   4.221   2.267   0.053
 5005SOL    HW115914   4.242   2.364   0.040
 5005SOL    HW215915   4.304   2.213   0.045
 5006SOL     OW15916   5.591   4.496   3.576
 5006SOL    HW115917   5.510   4.553   3.560
 5006SOL    HW215918   5.657   4.510   3.502
 5007SOL     OW15919   4.146   1.798   4.844
 5007SOL    HW115920   4.217   1.765   4.782
 5007SOL    HW215921   4.072   1.840   4.791
 5008SOL     OW15922   6.592   1.074   3.850
 5008SOL    HW115923   6.550   1.000   3.902
 5008SOL    HW215924   6.672   1.108   3.899
 5009SOL     OW15925   1.648   6.181   3.535
 5009SOL    HW115926   1.562   6.209   3.578
 5009SOL    HW215927   1.657   6.082   3.541
 5010SOL     OW15928   3.073   3.041   4.586
 5010SOL    HW115929   3.153   2.989   4.614
 5010SOL    HW215930   3.089   3.081   4.496
 5011SOL     OW15931   0.724   2.965   3.241
 5011SOL    HW115932   0.817   2.978   3.274
 5011SOL    HW215933   0.699   2.868   3.247
 5012SOL     OW15934   5.580   3.236   0.294
 5012SOL    HW115935   5.619   3.328   0.301
 5012SOL    HW215936   5.584   3.191   0.383
 5013SOL     OW15937   4.835   1.549   5.814
 5013SOL    HW115938   4.870   1.467   5.769
 5013SOL    HW215939   4.895   1.627   5.792
 5014SOL     OW15940   6.052   6.634   0.014
 5014SOL    HW115941   6.142   6.676   0.000
 5014SOL    HW215942   5.985   6.680   6.972
 5015SOL     OW15943   5.454   2.226   3.278
 5015SOL    HW115944   5.412   2.154   3.223
 5015SOL    HW215945   5.390   2.301   3.289
 5016SOL     OW15946   2.372   6.948   2.064
 5016SOL    HW115947   2.299   6.911   2.122
 5016SOL    HW215948   2.416   0.008   2.111
 5017SOL     OW15949   2.584   2.558   1.792
 5017SOL    HW115950   2.596   2.548   1.693
 5017SOL    HW215951   2.529   2.639   1.812
 5018SOL     OW15952   6.726   5.190   4.368
 5018SOL    HW115953   6.672   5.258   4.319
 5018SOL    HW215954   6.814   5.179   4.322
 5019SOL     OW15955   3.012   5.446   6.154
 5019SOL    HW115956   2.933   5.452   6.215
 5019SOL    HW215957   3.088   5.401   6.201
 5020SOL     OW15958   4.900   5.222   6.134
 5020SOL    HW115959   4.818   5.170   6.159
 5020SOL    HW215960   4.982   5.173   6.164
 5021SOL     OW15961   2.667   4.874   5.741
 5021SOL    HW115962   2.675   4.837   5.833
 5021SOL    HW215963   2.744   4.841   5.685
 5022SOL     OW15964   1.622   4.608   0.628
 5022SOL    HW115965   1.620   4.548   0.708
 5022SOL    HW215966   1.692   4.679   0.642
 5023SOL     OW15967   6.346   2.880   3.411
 5023SOL    HW115968   6.324   2.783   3.421
 5023SOL    HW215969   6.399   2.910   3.491
 5024SOL     OW15970   5.730   3.415   5.693
 5024SOL    HW115971   5.770   3.369   5.614
 5024SOL    HW215972   5.739   3.357   5.774
 5025SOL     OW15973   6.511   1.677   3.232
 5025SOL    HW115974   6.468   1.632   3.311
 5025SOL    HW215975   6.548   1.607   3.171
 5026SOL     OW15976   0.475   6.340   2.957
 5026SOL    HW115977   0.383   6.334   2.996
 5026SOL    HW215978   0.542   6.348   3.031
 5027SOL     OW15979   0.873   6.234   3.468
 5027SOL    HW115980   0.886   6.152   3.413
 5027SOL    HW215981   0.900   6.215   3.563
 5028SOL     OW15982   1.317   0.490   2.541
 5028SOL    HW115983   1.417   0.497   2.544
 5028SOL    HW215984   1.279   0.571   2.497
 5029SOL     OW15985   0.221   0.934   2.748
 5029SOL    HW115986   0.211   0.974   2.656
 5029SOL    HW215987   0.254   1.005   2.811
 5030SOL     OW15988   1.747   5.549   6.852
 5030SOL    HW115989   1.759   5.505   6.763
 5030SOL    HW215990   1.734   5.647   6.839
 5031SOL     OW15991   6.181   0.617   5.174
 5031SOL    HW115992   6.275   0.623   5.209
 5031SOL    HW215993   6.151   0.707   5.143
 5032SOL     OW15994   0.799   6.283   0.976
 5032SOL    HW115995   0.699   6.285   0.977
 5032SOL    HW215996   0.831   6.248   0.888
 5033SOL     OW15997   0.433   4.504   5.592
 5033SOL    HW115998   0.512   4.462   5.547
 5033SOL    HW215999   0.461   4.538   5.682
 5034SOL     OW16000   6.891   3.793   6.977
 5034SOL    HW116001   6.873   3.702   7.015
 5034SOL    HW216002   6.812   3.823   6.923
 5035SOL     OW16003   6.141   4.322   1.795
 5035SOL    HW116004   6.126   4.223   1.804
 5035SOL    HW216005   6.076   4.371   1.853
 5036SOL     OW16006   1.615   0.894   2.449
 5036SOL    HW116007   1.684   0.952   2.493
 5036SOL    HW216008   1.582   0.826   2.514
 5037SOL     OW16009   4.654   2.352   2.535
 5037SOL    HW116010   4.698   2.316   2.617
 5037SOL    HW216011   4.559   2.376   2.556
 5038SOL     OW16012   2.475   6.254   5.625
 5038SOL    HW116013   2.508   6.265   5.531
 5038SOL    HW216014   2.523   6.177   5.668
 5039SOL     OW16015   1.391   1.924   3.709
 5039SOL    HW116016   1.392   1.871   3.794
 5039SOL    HW216017   1.314   1.894   3.653
 5040SOL     OW16018   2.919   3.643   6.297
 5040SOL    HW116019   2.988   3.662   6.227
 5040SOL    HW216020   2.837   3.697   6.278
 5041SOL     OW16021   1.272   5.556   0.693
 5041SOL    HW116022   1.227   5.481   0.644
 5041SOL    HW216023   1.203   5.618   0.730
 5042SOL     OW16024   6.145   1.927   6.176
 5042SOL    HW116025   6.212   1.980   6.229
 5042SOL    HW216026   6.124   1.842   6.224
 5043SOL     OW16027   4.857   0.535   3.090
 5043SOL    HW116028   4.835   0.550   2.993
 5043SOL    HW216029   4.796   0.465   3.127
 5044SOL     OW16030   5.585   4.619   2.739
 5044SOL    HW116031   5.521   4.547   2.765
 5044SOL    HW216032   5.673   4.602   2.782
 5045SOL     OW16033   6.071   3.449   6.257
 5045SOL    HW116034   6.150   3.475   6.312
 5045SOL    HW216035   5.988   3.489   6.297
 5046SOL     OW16036   3.179   2.846   5.294
 5046SOL    HW116037   3.212   2.939   5.309
 5046SOL    HW216038   3.093   2.833   5.343
 5047SOL     OW16039   1.103   1.462   2.343
 5047SOL    HW116040   1.188   1.478   2.293
 5047SOL    HW216041   1.057   1.382   2.304
 5048SOL     OW16042   6.190   3.557   1.496
 5048SOL    HW116043   6.201   3.476   1.552
 5048SOL    HW216044   6.093   3.573   1.479
 5049SOL     OW16045   1.170   2.298   2.129
 5049SOL    HW116046   1.249   2.301   2.190
 5049SOL    HW216047   1.114   2.380   2.143
 5050SOL     OW16048   1.132   3.546   0.595
 5050SOL    HW116049   1.048   3.505   0.631
 5050SOL    HW216050   1.168   3.488   0.522
 5051SOL     OW16051   2.360   3.674   0.287
 5051SOL    HW116052   2.297   3.615   0.336
 5051SOL    HW216053   2.310   3.729   0.220
 5052SOL     OW16054   5.490   3.847   0.768
 5052SOL    HW116055   5.540   3.902   0.701
 5052SOL    HW216056   5.555   3.796   0.824
 5053SOL     OW16057   2.200   4.683   0.313
 5053SOL    HW116058   2.261   4.732   0.250
 5053SOL    HW216059   2.152   4.611   0.263
 5054SOL     OW16060   3.806   6.040   5.094
 5054SOL    HW116061   3.856   5.959   5.062
 5054SOL    HW216062   3.765   6.087   5.016
 5055SOL     OW16063   1.626   1.838   3.977
 5055SOL    HW116064   1.664   1.822   3.886
 5055SOL    HW216065   1.622   1.752   4.027
 5056SOL     OW16066   2.625   2.685   5.341
 5056SOL    HW116067   2.697   2.621   5.370
 5056SOL    HW216068   2.644   2.775   5.378
 5057SOL     OW16069   0.297   4.513   2.827
 5057SOL    HW116070   0.316   4.459   2.744
 5057SOL    HW216071   0.381   4.526   2.878
 5058SOL     OW16072   3.295   2.848   0.320
 5058SOL    HW116073   3.241   2.764   0.312
 5058SOL    HW216074   3.355   2.841   0.400
 5059SOL     OW16075   4.446   1.563   3.065
 5059SOL    HW116076   4.453   1.547   3.163
 5059SOL    HW216077   4.480   1.483   3.015
 5060SOL     OW16078   0.369   3.259   5.115
 5060SOL    HW116079   0.451   3.220   5.156
 5060SOL    HW216080   0.394   3.321   5.040
 5061SOL     OW16081   3.671   2.148   5.507
 5061SOL    HW116082   3.664   2.112   5.414
 5061SOL    HW216083   3.685   2.247   5.504
 5062SOL     OW16084   5.349   1.086   3.452
 5062SOL    HW116085   5.434   1.097   3.401
 5062SOL    HW216086   5.369   1.045   3.541
 5063SOL     OW16087   1.036   1.370   1.443
 5063SOL    HW116088   1.040   1.310   1.362
 5063SOL    HW216089   1.034   1.313   1.526
 5064SOL     OW16090   5.042   5.323   0.918
 5064SOL    HW116091   5.045   5.408   0.866
 5064SOL    HW216092   5.125   5.270   0.901
 5065SOL     OW16093   2.128   1.348   2.167
 5065SOL    HW116094   2.117   1.249   2.157
 5065SOL    HW216095   2.097   1.376   2.258
 5066SOL     OW16096   1.852   4.938   2.789
 5066SOL    HW116097   1.878   5.009   2.724
 5066SOL    HW216098   1.914   4.939   2.868
 5067SOL     OW16099   5.615   2.911   0.804
 5067SOL    HW116100   5.697   2.920   0.747
 5067SOL    HW216101   5.626   2.967   0.886
 5068SOL     OW16102   2.542   5.663   0.533
 5068SOL    HW116103   2.511   5.651   0.627
 5068SOL    HW216104   2.463   5.678   0.473
 5069SOL     OW16105   3.893   4.867   5.279
 5069SOL    HW116106   3.869   4.769   5.282
 5069SOL    HW216107   3.822   4.916   5.229
 5070SOL     OW16108   5.978   3.534   5.377
 5070SOL    HW116109   5.939   3.622   5.349
 5070SOL    HW216110   6.032   3.496   5.302
 5071SOL     OW16111   2.651   6.695   3.620
 5071SOL    HW116112   2.681   6.770   3.679
 5071SOL    HW216113   2.553   6.680   3.633
 5072SOL     OW16114   1.056   0.787   0.956
 5072SOL    HW116115   1.146   0.743   0.947
 5072SOL    HW216116   1.065   0.871   1.009
 5073SOL     OW16117   2.481   0.863   2.581
 5073SOL    HW116118   2.451   0.866   2.676
 5073SOL    HW216119   2.563   0.920   2.571
 5074SOL     OW16120   3.427   2.190   1.766
 5074SOL    HW116121   3.487   2.246   1.822
 5074SOL    HW216122   3.332   2.219   1.779
 5075SOL     OW16123   0.131   3.435   6.831
 5075SOL    HW116124   0.123   3.381   6.747
 5075SOL    HW216125   0.182   3.382   6.900
 5076SOL     OW16126   0.002   0.277   6.461
 5076SOL    HW116127   6.923   0.307   6.472
 5076SOL    HW216128   0.004   0.191   6.410
 5077SOL     OW16129   0.876   4.552   4.060
 5077SOL    HW116130   0.887   4.600   4.147
 5077SOL    HW216131   0.966   4.528   4.024
 5078SOL     OW16132   0.209   2.032   4.051
 5078SOL    HW116133   0.162   2.105   4.099
 5078SOL    HW216134   0.230   2.062   3.958
 5079SOL     OW16135   1.733   2.946   5.445
 5079SOL    HW116136   1.646   2.899   5.436
 5079SOL    HW216137   1.726   3.037   5.405
 5080SOL     OW16138   5.686   5.904   0.511
 5080SOL    HW116139   5.685   5.992   0.560
 5080SOL    HW216140   5.605   5.851   0.537
 5081SOL     OW16141   2.524   5.272   5.387
 5081SOL    HW116142   2.588   5.212   5.340
 5081SOL    HW216143   2.570   5.357   5.413
 5082SOL     OW16144   5.145   5.941   1.665
 5082SOL    HW116145   5.062   5.907   1.708
 5082SOL    HW216146   5.142   6.041   1.660
 5083SOL     OW16147   1.774   0.430   3.553
 5083SOL    HW116148   1.777   0.346   3.498
 5083SOL    HW216149   1.836   0.421   3.631
 5084SOL     OW16150   2.559   4.523   5.562
 5084SOL    HW116151   2.515   4.483   5.643
 5084SOL    HW216152   2.496   4.588   5.519
 5085SOL     OW16153   0.415   4.222   4.877
 5085SOL    HW116154   0.461   4.210   4.965
 5085SOL    HW216155   0.377   4.134   4.847
 5086SOL     OW16156   1.915   5.607   1.840
 5086SOL    HW116157   1.921   5.667   1.760
 5086SOL    HW216158   1.821   5.603   1.873
 5087SOL     OW16159   6.368   4.606   2.511
 5087SOL    HW116160   6.362   4.511   2.543
 5087SOL    HW216161   6.426   4.610   2.429
 5088SOL     OW16162   5.227   5.777   2.231
 5088SOL    HW116163   5.313   5.813   2.195
 5088SOL    HW216164   5.157   5.848   2.229
 5089SOL     OW16165   5.372   5.617   5.799
 5089SOL    HW116166   5.428   5.597   5.718
 5089SOL    HW216167   5.334   5.709   5.792
 5090SOL     OW16168   2.751   6.681   5.055
 5090SOL    HW116169   2.753   6.705   4.958
 5090SOL    HW216170   2.823   6.614   5.075
 5091SOL     OW16171   0.123   6.700   6.101
 5091SOL    HW116172   0.200   6.762   6.086
 5091SOL    HW216173   0.154   6.621   6.155
 5092SOL     OW16174   3.257   3.270   3.874
 5092SOL    HW116175   3.207   3.234   3.952
 5092SOL    HW216176   3.299   3.358   3.898
 5093SOL     OW16177   3.049   2.203   2.603
 5093SOL    HW116178   2.967   2.215   2.549
 5093SOL    HW216179   3.025   2.193   2.700
 5094SOL     OW16180   1.347   5.896   5.058
 5094SOL    HW116181   1.399   5.937   5.132
 5094SOL    HW216182   1.396   5.907   4.972
 5095SOL     OW16183   6.607   0.847   2.990
 5095SOL    HW116184   6.670   0.897   3.051
 5095SOL    HW216185   6.648   0.760   2.964
 5096SOL     OW16186   6.133   2.996   5.410
 5096SOL    HW116187   6.071   3.051   5.466
 5096SOL    HW216188   6.121   3.020   5.314
 5097SOL     OW16189   1.286   0.705   5.718
 5097SOL    HW116190   1.285   0.748   5.808
 5097SOL    HW216191   1.381   0.682   5.693
 5098SOL     OW16192   3.554   3.538   0.642
 5098SOL    HW116193   3.460   3.509   0.622
 5098SOL    HW216194   3.592   3.479   0.713
 5099SOL     OW16195   1.554   6.808   2.222
 5099SOL    HW116196   1.567   6.787   2.125
 5099SOL    HW216197   1.629   6.865   2.254
 5100SOL     OW16198   5.134   4.058   2.461
 5100SOL    HW116199   5.054   4.008   2.494
 5100SOL    HW216200   5.211   3.995   2.451
 5101SOL     OW16201   3.909   0.230   6.418
 5101SOL    HW116202   3.991   0.276   6.384
 5101SOL    HW216203   3.828   0.266   6.372
 5102SOL     OW16204   5.166   5.029   3.988
 5102SOL    HW116205   5.177   5.027   4.087
 5102SOL    HW216206   5.218   5.105   3.950
 5103SOL     OW16207   1.310   1.046   6.529
 5103SOL    HW116208   1.255   1.105   6.588
 5103SOL    HW216209   1.374   1.102   6.476
 5104SOL     OW16210   3.962   3.147   2.075
 5104SOL    HW116211   3.912   3.233   2.078
 5104SOL    HW216212   3.991   3.129   1.981
 5105SOL     OW16213   4.600   2.969   6.198
 5105SOL    HW116214   4.594   3.016   6.110
 5105SOL    HW216215   4.584   3.035   6.272
 5106SOL     OW16216   4.086   2.491   0.885
 5106SOL    HW116217   4.023   2.460   0.813
 5106SOL    HW216218   4.064   2.585   0.910
 5107SOL     OW16219   4.971   3.821   6.969
 5107SOL    HW116220   4.967   3.737   0.006
 5107SOL    HW216221   5.047   3.878   7.001
 5108SOL     OW16222   4.256   4.957   0.468
 5108SOL    HW116223   4.311   5.028   0.511
 5108SOL    HW216224   4.314   4.902   0.408
 5109SOL     OW16225   1.504   3.027   1.373
 5109SOL    HW116226   1.564   2.975   1.433
 5109SOL    HW216227   1.450   2.963   1.317
 5110SOL     OW16228   4.707   0.070   5.420
 5110SOL    HW116229   4.764   0.103   5.496
 5110SOL    HW216230   4.612   0.093   5.438
 5111SOL     OW16231   0.239   5.931   4.849
 5111SOL    HW116232   0.249   5.838   4.814
 5111SOL    HW216233   0.179   5.983   4.787
 5112SOL     OW16234   6.890   6.533   2.867
 5112SOL    HW116235   6.892   6.433   2.860
 5112SOL    HW216236   6.832   6.559   2.944
 5113SOL     OW16237   1.667   3.905   0.394
 5113SOL    HW116238   1.665   3.911   0.294
 5113SOL    HW216239   1.725   3.978   0.430
 5114SOL     OW16240   4.410   4.824   1.313
 5114SOL    HW116241   4.441   4.916   1.334
 5114SOL    HW216242   4.313   4.815   1.338
 5115SOL     OW16243   1.929   3.784   0.887
 5115SOL    HW116244   2.015   3.766   0.935
 5115SOL    HW216245   1.944   3.779   0.788
 5116SOL     OW16246   1.299   0.024   5.745
 5116SOL    HW116247   1.382   6.989   5.722
 5116SOL    HW216248   1.309   0.064   5.836
 5117SOL     OW16249   0.727   1.894   3.446
 5117SOL    HW116250   0.726   1.798   3.472
 5117SOL    HW216251   0.633   1.928   3.439
 5118SOL     OW16252   4.505   4.965   6.741
 5118SOL    HW116253   4.518   5.059   6.707
 5118SOL    HW216254   4.431   4.964   6.808
 5119SOL     OW16255   5.555   0.655   0.508
 5119SOL    HW116256   5.640   0.602   0.511
 5119SOL    HW216257   5.495   0.626   0.583
 5120SOL     OW16258   5.406   6.368   6.573
 5120SOL    HW116259   5.347   6.300   6.530
 5120SOL    HW216260   5.361   6.457   6.571
 5121SOL     OW16261   1.353   3.269   6.052
 5121SOL    HW116262   1.346   3.172   6.033
 5121SOL    HW216263   1.271   3.316   6.020
 5122SOL     OW16264   5.198   4.425   3.953
 5122SOL    HW116265   5.131   4.367   3.906
 5122SOL    HW216266   5.168   4.520   3.950
 5123SOL     OW16267   4.708   2.944   1.576
 5123SOL    HW116268   4.622   2.925   1.625
 5123SOL    HW216269   4.726   3.042   1.578
 5124SOL     OW16270   2.004   5.961   5.441
 5124SOL    HW116271   1.980   5.869   5.410
 5124SOL    HW216272   2.066   6.003   5.376
 5125SOL     OW16273   6.429   1.939   3.431
 5125SOL    HW116274   6.374   1.927   3.348
 5125SOL    HW216275   6.517   1.893   3.420
 5126SOL     OW16276   1.740   0.702   1.722
 5126SOL    HW116277   1.768   0.656   1.806
 5126SOL    HW216278   1.808   0.770   1.696
 5127SOL     OW16279   2.290   5.724   0.438
 5127SOL    HW116280   2.278   5.809   0.489
 5127SOL    HW216281   2.236   5.728   0.354
 5128SOL     OW16282   6.371   0.284   2.204
 5128SOL    HW116283   6.325   0.282   2.115
 5128SOL    HW216284   6.432   0.205   2.211
 5129SOL     OW16285   6.489   6.815   0.596
 5129SOL    HW116286   6.574   6.763   0.608
 5129SOL    HW216287   6.466   6.861   0.682
 5130SOL     OW16288   6.488   4.356   2.779
 5130SOL    HW116289   6.561   4.374   2.713
 5130SOL    HW216290   6.515   4.282   2.841
 5131SOL     OW16291   2.463   2.612   2.553
 5131SOL    HW116292   2.416   2.671   2.487
 5131SOL    HW216293   2.436   2.637   2.646
 5132SOL     OW16294   3.007   5.907   5.175
 5132SOL    HW116295   2.940   5.940   5.108
 5132SOL    HW216296   3.054   5.985   5.217
 5133SOL     OW16297   3.973   6.414   5.425
 5133SOL    HW116298   3.873   6.412   5.414
 5133SOL    HW216299   4.015   6.360   5.352
 5134SOL     OW16300   6.469   4.427   6.943
 5134SOL    HW116301   6.371   4.447   6.938
 5134SOL    HW216302   6.506   4.421   6.850
 5135SOL     OW16303   5.406   1.573   4.176
 5135SOL    HW116304   5.323   1.541   4.222
 5135SOL    HW216305   5.471   1.607   4.244
 5136SOL     OW16306   4.211   1.080   4.600
 5136SOL    HW116307   4.205   1.007   4.668
 5136SOL    HW216308   4.203   1.168   4.645
 5137SOL     OW16309   3.689   4.052   0.098
 5137SOL    HW116310   3.690   4.138   0.046
 5137SOL    HW216311   3.595   4.016   0.101
 5138SOL     OW16312   2.458   3.203   5.873
 5138SOL    HW116313   2.453   3.278   5.807
 5138SOL    HW216314   2.475   3.117   5.823
 5139SOL     OW16315   0.787   0.101   3.866
 5139SOL    HW116316   0.729   0.168   3.819
 5139SOL    HW216317   0.820   0.033   3.800
 5140SOL     OW16318   3.615   2.819   1.623
 5140SOL    HW116319   3.588   2.731   1.663
 5140SOL    HW216320   3.569   2.893   1.673
 5141SOL     OW16321   0.091   3.758   5.703
 5141SOL    HW116322   0.080   3.792   5.797
 5141SOL    HW216323   0.176   3.794   5.664
 5142SOL     OW16324   5.184   3.665   3.606
 5142SOL    HW116325   5.118   3.705   3.670
 5142SOL    HW216326   5.259   3.730   3.591
 5143SOL     OW16327   0.032   4.816   4.486
 5143SOL    HW116328   0.011   4.914   4.490
 5143SOL    HW216329   7.001   4.770   4.561
 5144SOL     OW16330   2.066   1.158   4.491
 5144SOL    HW116331   2.057   1.257   4.503
 5144SOL    HW216332   2.107   1.138   4.402
 5145SOL     OW16333   3.395   5.698   5.847
 5145SOL    HW116334   3.401   5.693   5.747
 5145SOL    HW216335   3.437   5.617   5.888
 5146SOL     OW16336   2.409   4.376   0.095
 5146SOL    HW116337   2.477   4.350   0.163
 5146SOL    HW216338   2.449   4.372   0.003
 5147SOL     OW16339   6.429   5.256   7.001
 5147SOL    HW116340   6.369   5.331   6.971
 5147SOL    HW216341   6.507   5.249   6.938
 5148SOL     OW16342   0.196   7.009   1.810
 5148SOL    HW116343   0.233   6.918   1.792
 5148SOL    HW216344   0.234   0.028   1.895
 5149SOL     OW16345   6.756   1.131   5.769
 5149SOL    HW116346   6.826   1.099   5.833
 5149SOL    HW216347   6.674   1.076   5.779
 5150SOL     OW16348   1.217   4.786   3.876
 5150SOL    HW116349   1.284   4.834   3.933
 5150SOL    HW216350   1.125   4.802   3.911
 5151SOL     OW16351   4.411   1.292   6.249
 5151SOL    HW116352   4.509   1.309   6.234
 5151SOL    HW216353   4.368   1.266   6.162
 5152SOL     OW16354   0.884   5.250   0.308
 5152SOL    HW116355   0.912   5.221   0.217
 5152SOL    HW216356   0.794   5.212   0.329
 5153SOL     OW16357   2.012   1.888   1.037
 5153SOL    HW116358   2.103   1.848   1.029
 5153SOL    HW216359   1.996   1.915   1.132
 5154SOL     OW16360   2.095   3.371   4.612
 5154SOL    HW116361   2.075   3.324   4.526
 5154SOL    HW216362   2.141   3.458   4.592
 5155SOL     OW16363   3.132   0.701   2.090
 5155SOL    HW116364   3.107   0.710   1.994
 5155SOL    HW216365   3.192   0.621   2.101
 5156SOL     OW16366   5.992   3.078   5.940
 5156SOL    HW116367   6.052   2.997   5.941
 5156SOL    HW216368   6.036   3.151   5.888
 5157SOL     OW16369   5.775   3.015   4.086
 5157SOL    HW116370   5.695   2.958   4.069
 5157SOL    HW216371   5.772   3.096   4.028
 5158SOL     OW16372   4.094   1.092   0.656
 5158SOL    HW116373   4.142   1.031   0.720
 5158SOL    HW216374   4.091   1.184   0.694
 5159SOL     OW16375   1.555   3.038   4.661
 5159SOL    HW116376   1.609   3.009   4.740
 5159SOL    HW216377   1.611   3.034   4.579
 5160SOL     OW16378   2.330   2.812   4.322
 5160SOL    HW116379   2.382   2.766   4.395
 5160SOL    HW216380   2.372   2.791   4.234
 5161SOL     OW16381   1.553   3.244   6.222
 5161SOL    HW116382   1.615   3.322   6.233
 5161SOL    HW216383   1.482   3.267   6.156
 5162SOL     OW16384   6.034   5.827   4.877
 5162SOL    HW116385   5.992   5.826   4.786
 5162SOL    HW216386   6.115   5.886   4.876
 5163SOL     OW16387   5.282   3.324   1.070
 5163SOL    HW116388   5.357   3.378   1.032
 5163SOL    HW216389   5.202   3.332   1.011
 5164SOL     OW16390   6.047   5.253   5.778
 5164SOL    HW116391   6.038   5.170   5.833
 5164SOL    HW216392   6.124   5.307   5.812
 5165SOL     OW16393   6.651   4.100   4.026
 5165SOL    HW116394   6.595   4.018   4.033
 5165SOL    HW216395   6.661   4.143   4.116
 5166SOL     OW16396   1.361   0.400   1.913
 5166SOL    HW116397   1.449   0.440   1.936
 5166SOL    HW216398   1.355   0.308   1.951
 5167SOL     OW16399   0.999   6.894   5.669
 5167SOL    HW116400   0.998   6.799   5.699
 5167SOL    HW216401   0.984   6.953   5.748
 5168SOL     OW16402   3.723   1.745   3.182
 5168SOL    HW116403   3.664   1.690   3.241
 5168SOL    HW216404   3.696   1.733   3.087
 5169SOL     OW16405   3.904   4.253   6.376
 5169SOL    HW116406   3.992   4.298   6.393
 5169SOL    HW216407   3.874   4.207   6.459
 5170SOL     OW16408   4.757   4.639   4.192
 5170SOL    HW116409   4.850   4.657   4.224
 5170SOL    HW216410   4.723   4.555   4.235
 5171SOL     OW16411   2.616   4.723   4.835
 5171SOL    HW116412   2.543   4.661   4.864
 5171SOL    HW216413   2.701   4.698   4.882
 5172SOL     OW16414   1.881   4.894   0.386
 5172SOL    HW116415   1.887   4.863   0.291
 5172SOL    HW216416   1.961   4.951   0.408
 5173SOL     OW16417   6.207   3.871   5.940
 5173SOL    HW116418   6.256   3.931   6.003
 5173SOL    HW216419   6.131   3.827   5.988
 5174SOL     OW16420   1.559   4.442   5.759
 5174SOL    HW116421   1.500   4.400   5.828
 5174SOL    HW216422   1.619   4.373   5.719
 5175SOL     OW16423   0.419   5.197   6.414
 5175SOL    HW116424   0.376   5.250   6.486
 5175SOL    HW216425   0.518   5.192   6.430
 5176SOL     OW16426   5.838   3.582   6.858
 5176SOL    HW116427   5.751   3.537   6.839
 5176SOL    HW216428   5.831   3.680   6.835
 5177SOL     OW16429   5.345   6.651   6.507
 5177SOL    HW116430   5.386   6.613   6.590
 5177SOL    HW216431   5.407   6.637   6.430
 5178SOL     OW16432   2.959   2.295   1.479
 5178SOL    HW116433   3.027   2.281   1.407
 5178SOL    HW216434   2.929   2.390   1.479
 5179SOL     OW16435   2.800   6.117   5.286
 5179SOL    HW116436   2.830   6.171   5.208
 5179SOL    HW216437   2.864   6.130   5.362
 5180SOL     OW16438   3.253   2.102   0.633
 5180SOL    HW116439   3.341   2.070   0.667
 5180SOL    HW216440   3.187   2.027   0.636
 5181SOL     OW16441   2.968   5.397   2.089
 5181SOL    HW116442   3.066   5.381   2.101
 5181SOL    HW216443   2.920   5.376   2.174
 5182SOL     OW16444   4.722   4.264   1.409
 5182SOL    HW116445   4.675   4.266   1.497
 5182SOL    HW216446   4.780   4.183   1.404
 5183SOL     OW16447   3.811   0.604   2.904
 5183SOL    HW116448   3.887   0.541   2.887
 5183SOL    HW216449   3.768   0.581   2.991
 5184SOL     OW16450   1.014   1.985   3.131
 5184SOL    HW116451   0.938   2.030   3.178
 5184SOL    HW216452   0.991   1.975   3.034
 5185SOL     OW16453   3.496   0.436   2.459
 5185SOL    HW116454   3.406   0.480   2.470
 5185SOL    HW216455   3.520   0.435   2.362
 5186SOL     OW16456   6.126   4.421   0.603
 5186SOL    HW116457   6.198   4.468   0.656
 5186SOL    HW216458   6.143   4.433   0.506
 5187SOL     OW16459   5.207   1.846   4.274
 5187SOL    HW116460   5.206   1.878   4.179
 5187SOL    HW216461   5.181   1.749   4.276
 5188SOL     OW16462   1.041   2.897   4.731
 5188SOL    HW116463   1.135   2.897   4.696
 5188SOL    HW216464   0.981   2.946   4.668
 5189SOL     OW16465   4.372   5.536   6.726
 5189SOL    HW116466   4.344   5.528   6.822
 5189SOL    HW216467   4.322   5.611   6.683
 5190SOL     OW16468   1.785   2.720   3.498
 5190SOL    HW116469   1.784   2.655   3.422
 5190SOL    HW216470   1.715   2.790   3.483
 5191SOL     OW16471   4.391   0.641   1.736
 5191SOL    HW116472   4.419   0.694   1.815
 5191SOL    HW216473   4.295   0.615   1.745
 5192SOL     OW16474   5.753   4.295   2.154
 5192SOL    HW116475   5.748   4.317   2.252
 5192SOL    HW216476   5.829   4.232   2.138
 5193SOL     OW16477   4.953   3.517   2.602
 5193SOL    HW116478   4.949   3.504   2.702
 5193SOL    HW216479   4.898   3.446   2.557
 5194SOL     OW16480   5.724   1.630   6.047
 5194SOL    HW116481   5.667   1.560   6.004
 5194SOL    HW216482   5.734   1.609   6.144
 5195SOL     OW16483   6.387   6.557   5.388
 5195SOL    HW116484   6.440   6.484   5.429
 5195SOL    HW216485   6.361   6.531   5.295
 5196SOL     OW16486   0.693   3.375   1.914
 5196SOL    HW116487   0.664   3.289   1.872
 5196SOL    HW216488   0.712   3.442   1.842
 5197SOL     OW16489   3.375   5.953   4.930
 5197SOL    HW116490   3.355   6.035   4.984
 5197SOL    HW216491   3.429   5.890   4.986
 5198SOL     OW16492   4.224   0.287   5.528
 5198SOL    HW116493   4.218   0.202   5.581
 5198SOL    HW216494   4.307   0.336   5.553
 5199SOL     OW16495   0.493   5.218   1.905
 5199SOL    HW116496   0.466   5.131   1.861
 5199SOL    HW216497   0.428   5.239   1.978
 5200SOL     OW16498   0.390   0.187   5.314
 5200SOL    HW116499   0.353   0.192   5.407
 5200SOL    HW216500   0.413   0.092   5.293
 5201SOL     OW16501   5.989   4.524   4.969
 5201SOL    HW116502   5.968   4.535   4.872
 5201SOL    HW216503   5.918   4.569   5.024
 5202SOL     OW16504   3.556   3.420   5.632
 5202SOL    HW116505   3.602   3.373   5.708
 5202SOL    HW216506   3.458   3.421   5.647
 5203SOL     OW16507   1.664   0.384   6.309
 5203SOL    HW116508   1.683   0.406   6.404
 5203SOL    HW216509   1.751   0.371   6.260
 5204SOL     OW16510   2.655   0.746   0.942
 5204SOL    HW116511   2.572   0.745   0.886
 5204SOL    HW216512   2.652   0.823   1.005
 5205SOL     OW16513   7.004   6.547   0.672
 5205SOL    HW116514   6.950   6.463   0.667
 5205SOL    HW216515   0.058   6.545   0.601
 5206SOL     OW16516   1.346   4.687   3.318
 5206SOL    HW116517   1.304   4.682   3.227
 5206SOL    HW216518   1.275   4.694   3.388
 5207SOL     OW16519   6.405   6.589   4.255
 5207SOL    HW116520   6.397   6.622   4.161
 5207SOL    HW216521   6.501   6.576   4.278
 5208SOL     OW16522   5.902   1.972   0.731
 5208SOL    HW116523   5.984   1.921   0.757
 5208SOL    HW216524   5.853   1.921   0.660
 5209SOL     OW16525   5.989   6.226   3.383
 5209SOL    HW116526   5.905   6.270   3.413
 5209SOL    HW216527   6.055   6.226   3.459
 5210SOL     OW16528   5.609   4.170   0.690
 5210SOL    HW116529   5.528   4.190   0.635
 5210SOL    HW216530   5.636   4.252   0.740
 5211SOL     OW16531   5.645   2.416   5.091
 5211SOL    HW116532   5.556   2.455   5.069
 5211SOL    HW216533   5.641   2.317   5.082
 5212SOL     OW16534   0.738   3.379   6.979
 5212SOL    HW116535   0.830   3.359   7.014
 5212SOL    HW216536   0.704   3.301   6.927
 5213SOL     OW16537   3.822   3.354   3.181
 5213SOL    HW116538   3.900   3.403   3.220
 5213SOL    HW216539   3.836   3.255   3.192
 5214SOL     OW16540   5.726   3.663   5.265
 5214SOL    HW116541   5.699   3.574   5.229
 5214SOL    HW216542   5.702   3.669   5.362
 5215SOL     OW16543   0.631   3.939   4.803
 5215SOL    HW116544   0.624   3.926   4.902
 5215SOL    HW216545   0.600   3.857   4.756
 5216SOL     OW16546   5.308   5.187   1.244
 5216SOL    HW116547   5.353   5.152   1.162
 5216SOL    HW216548   5.295   5.286   1.236
 5217SOL     OW16549   4.951   6.188   3.023
 5217SOL    HW116550   4.965   6.130   3.103
 5217SOL    HW216551   4.860   6.230   3.027
 5218SOL     OW16552   6.152   0.399   0.297
 5218SOL    HW116553   6.192   0.473   0.243
 5218SOL    HW216554   6.206   0.385   0.381
 5219SOL     OW16555   3.314   1.077   5.237
 5219SOL    HW116556   3.272   1.123   5.159
 5219SOL    HW216557   3.242   1.047   5.300
 5220SOL     OW16558   2.021   5.381   4.214
 5220SOL    HW116559   2.110   5.359   4.175
 5220SOL    HW216560   2.019   5.355   4.310
 5221SOL     OW16561   5.877   5.276   1.238
 5221SOL    HW116562   5.845   5.237   1.325
 5221SOL    HW216563   5.975   5.258   1.228
 5222SOL     OW16564   6.499   3.462   1.341
 5222SOL    HW116565   6.495   3.538   1.275
 5222SOL    HW216566   6.584   3.412   1.328
 5223SOL     OW16567   0.172   3.245   0.534
 5223SOL    HW116568   0.096   3.220   0.595
 5223SOL    HW216569   0.207   3.335   0.561
 5224SOL     OW16570   0.497   1.664   5.318
 5224SOL    HW116571   0.443   1.593   5.364
 5224SOL    HW216572   0.584   1.626   5.287
 5225SOL     OW16573   6.851   1.383   4.109
 5225SOL    HW116574   6.799   1.467   4.122
 5225SOL    HW216575   6.929   1.383   4.172
 5226SOL     OW16576   0.604   6.338   3.859
 5226SOL    HW116577   0.696   6.299   3.857
 5226SOL    HW216578   0.539   6.271   3.824
 5227SOL     OW16579   0.427   4.151   5.712
 5227SOL    HW116580   0.410   4.052   5.717
 5227SOL    HW216581   0.448   4.177   5.618
 5228SOL     OW16582   0.774   1.162   5.264
 5228SOL    HW116583   0.859   1.120   5.295
 5228SOL    HW216584   0.704   1.155   5.335
 5229SOL     OW16585   3.367   1.848   6.230
 5229SOL    HW116586   3.282   1.883   6.188
 5229SOL    HW216587   3.347   1.765   6.282
 5230SOL     OW16588   6.926   6.975   1.861
 5230SOL    HW116589   0.007   6.967   1.843
 5230SOL    HW216590   6.879   7.008   1.779
 5231SOL     OW16591   6.359   3.170   1.827
 5231SOL    HW116592   6.448   3.151   1.869
 5231SOL    HW216593   6.308   3.234   1.884
 5232SOL     OW16594   1.850   2.371   5.922
 5232SOL    HW116595   1.772   2.434   5.923
 5232SOL    HW216596   1.911   2.392   5.998
 5233SOL     OW16597   2.907   6.254   2.697
 5233SOL    HW116598   2.977   6.243   2.768
 5233SOL    HW216599   2.882   6.351   2.691
 5234SOL     OW16600   3.101   2.113   6.448
 5234SOL    HW116601   3.194   2.137   6.422
 5234SOL    HW216602   3.099   2.088   6.545
 5235SOL     OW16603   2.444   1.905   1.246
 5235SOL    HW116604   2.408   1.943   1.331
 5235SOL    HW216605   2.507   1.971   1.205
 5236SOL     OW16606   3.269   5.146   1.478
 5236SOL    HW116607   3.336   5.208   1.518
 5236SOL    HW216608   3.180   5.191   1.472
 5237SOL     OW16609   1.718   2.048   2.540
 5237SOL    HW116610   1.620   2.026   2.543
 5237SOL    HW216611   1.768   1.973   2.495
 5238SOL     OW16612   0.204   6.643   2.935
 5238SOL    HW116613   0.135   6.715   2.924
 5238SOL    HW216614   0.277   6.657   2.869
 5239SOL     OW16615   2.561   3.718   0.710
 5239SOL    HW116616   2.587   3.646   0.774
 5239SOL    HW216617   2.488   3.773   0.751
 5240SOL     OW16618   2.464   4.057   5.550
 5240SOL    HW116619   2.509   3.970   5.568
 5240SOL    HW216620   2.385   4.042   5.490
 5241SOL     OW16621   0.877   6.616   2.350
 5241SOL    HW116622   0.953   6.554   2.334
 5241SOL    HW216623   0.854   6.617   2.447
 5242SOL     OW16624   4.390   0.805   6.409
 5242SOL    HW116625   4.323   0.831   6.479
 5242SOL    HW216626   4.378   0.864   6.329
 5243SOL     OW16627   2.599   6.162   2.204
 5243SOL    HW116628   2.682   6.141   2.151
 5243SOL    HW216629   2.533   6.210   2.146
 5244SOL     OW16630   4.791   1.138   0.472
 5244SOL    HW116631   4.705   1.144   0.420
 5244SOL    HW216632   4.868   1.162   0.412
 5245SOL     OW16633   3.394   3.966   1.438
 5245SOL    HW116634   3.437   3.956   1.348
 5245SOL    HW216635   3.299   3.934   1.432
 5246SOL     OW16636   6.433   3.956   6.084
 5246SOL    HW116637   6.507   4.012   6.120
 5246SOL    HW216638   6.408   3.887   6.152
 5247SOL     OW16639   4.372   1.751   6.550
 5247SOL    HW116640   4.458   1.782   6.592
 5247SOL    HW216641   4.347   1.815   6.476
 5248SOL     OW16642   5.547   1.230   3.788
 5248SOL    HW116643   5.557   1.236   3.887
 5248SOL    HW216644   5.491   1.151   3.764
 5249SOL     OW16645   0.520   4.769   0.550
 5249SOL    HW116646   0.470   4.686   0.577
 5249SOL    HW216647   0.553   4.816   0.632
 5250SOL     OW16648   2.400   5.467   1.345
 5250SOL    HW116649   2.460   5.395   1.308
 5250SOL    HW216650   2.403   5.464   1.445
 5251SOL     OW16651   0.748   4.888   0.458
 5251SOL    HW116652   0.836   4.858   0.495
 5251SOL    HW216653   0.678   4.820   0.478
 5252SOL     OW16654   3.966   6.073   2.717
 5252SOL    HW116655   4.031   6.026   2.777
 5252SOL    HW216656   3.976   6.172   2.728
 5253SOL     OW16657   6.599   5.971   4.710
 5253SOL    HW116658   6.608   6.054   4.656
 5253SOL    HW216659   6.662   5.975   4.788
 5254SOL     OW16660   4.923   6.097   3.359
 5254SOL    HW116661   4.948   6.076   3.454
 5254SOL    HW216662   4.993   6.061   3.297
 5255SOL     OW16663   6.518   1.451   5.049
 5255SOL    HW116664   6.528   1.548   5.028
 5255SOL    HW216665   6.469   1.441   5.135
 5256SOL     OW16666   6.582   1.529   2.080
 5256SOL    HW116667   6.587   1.591   2.158
 5256SOL    HW216668   6.589   1.582   1.995
 5257SOL     OW16669   4.438   1.770   5.938
 5257SOL    HW116670   4.350   1.724   5.924
 5257SOL    HW216671   4.472   1.748   6.030
 5258SOL     OW16672   4.694   1.254   4.168
 5258SOL    HW116673   4.793   1.262   4.169
 5258SOL    HW216674   4.655   1.331   4.116
 5259SOL     OW16675   6.040   5.021   3.832
 5259SOL    HW116676   6.117   4.992   3.775
 5259SOL    HW216677   6.052   4.986   3.925
 5260SOL     OW16678   1.970   0.190   0.856
 5260SOL    HW116679   1.898   0.251   0.889
 5260SOL    HW216680   1.952   0.097   0.887
 5261SOL     OW16681   5.613   4.558   6.544
 5261SOL    HW116682   5.572   4.468   6.531
 5261SOL    HW216683   5.668   4.558   6.628
 5262SOL     OW16684   1.338   1.416   2.209
 5262SOL    HW116685   1.360   1.324   2.242
 5262SOL    HW216686   1.412   1.478   2.233
 5263SOL     OW16687   1.361   6.484   2.238
 5263SOL    HW116688   1.372   6.395   2.193
 5263SOL    HW216689   1.351   6.555   2.168
 5264SOL     OW16690   6.652   1.827   1.456
 5264SOL    HW116691   6.690   1.846   1.546
 5264SOL    HW216692   6.694   1.887   1.388
 5265SOL     OW16693   0.057   5.439   5.495
 5265SOL    HW116694   0.079   5.429   5.592
 5265SOL    HW216695   0.019   5.354   5.460
 5266SOL     OW16696   1.443   0.791   6.412
 5266SOL    HW116697   1.364   0.776   6.472
 5266SOL    HW216698   1.519   0.828   6.466
 5267SOL     OW16699   5.302   2.516   4.237
 5267SOL    HW116700   5.291   2.488   4.142
 5267SOL    HW216701   5.228   2.579   4.262
 5268SOL     OW16702   5.626   0.207   5.993
 5268SOL    HW116703   5.580   0.282   5.945
 5268SOL    HW216704   5.679   0.153   5.926
 5269SOL     OW16705   0.595   6.853   3.660
 5269SOL    HW116706   0.557   6.898   3.741
 5269SOL    HW216707   0.525   6.848   3.589
 5270SOL     OW16708   0.980   1.467   6.175
 5270SOL    HW116709   0.898   1.511   6.139
 5270SOL    HW216710   1.015   1.520   6.252
 5271SOL     OW16711   1.419   4.926   3.139
 5271SOL    HW116712   1.418   5.020   3.172
 5271SOL    HW216713   1.328   4.899   3.109
 5272SOL     OW16714   4.334   0.134   6.756
 5272SOL    HW116715   4.385   0.079   6.822
 5272SOL    HW216716   4.345   0.231   6.778
 5273SOL     OW16717   2.622   1.678   2.469
 5273SOL    HW116718   2.567   1.602   2.506
 5273SOL    HW216719   2.716   1.669   2.500
 5274SOL     OW16720   5.443   5.174   1.473
 5274SOL    HW116721   5.380   5.181   1.396
 5274SOL    HW216722   5.482   5.082   1.475
 5275SOL     OW16723   4.423   1.462   6.690
 5275SOL    HW116724   4.334   1.417   6.678
 5275SOL    HW216725   4.438   1.526   6.615
 5276SOL     OW16726   4.092   6.591   2.314
 5276SOL    HW116727   4.026   6.654   2.274
 5276SOL    HW216728   4.164   6.643   2.361
 5277SOL     OW16729   1.986   2.929   1.711
 5277SOL    HW116730   1.912   2.899   1.771
 5277SOL    HW216731   2.064   2.960   1.765
 5278SOL     OW16732   4.082   3.507   1.581
 5278SOL    HW116733   4.098   3.509   1.679
 5278SOL    HW216734   4.100   3.598   1.543
 5279SOL     OW16735   1.896   6.338   2.360
 5279SOL    HW116736   1.899   6.249   2.406
 5279SOL    HW216737   1.814   6.387   2.387
 5280SOL     OW16738   4.393   0.440   5.131
 5280SOL    HW116739   4.486   0.424   5.166
 5280SOL    HW216740   4.335   0.361   5.155
 5281SOL     OW16741   0.152   2.713   3.312
 5281SOL    HW116742   0.109   2.750   3.394
 5281SOL    HW216743   0.114   2.757   3.231
 5282SOL     OW16744   5.064   1.673   1.613
 5282SOL    HW116745   4.984   1.636   1.565
 5282SOL    HW216746   5.062   1.644   1.709
 5283SOL     OW16747   5.423   5.116   5.799
 5283SOL    HW116748   5.419   5.044   5.729
 5283SOL    HW216749   5.335   5.162   5.805
 5284SOL     OW16750   4.886   2.578   3.346
 5284SOL    HW116751   4.875   2.495   3.402
 5284SOL    HW216752   4.860   2.658   3.400
 5285SOL     OW16753   3.882   6.062   2.460
 5285SOL    HW116754   3.954   6.013   2.411
 5285SOL    HW216755   3.904   6.064   2.558
 5286SOL     OW16756   2.725   5.327   1.936
 5286SOL    HW116757   2.718   5.228   1.922
 5286SOL    HW216758   2.812   5.347   1.981
 5287SOL     OW16759   0.468   1.830   1.766
 5287SOL    HW116760   0.446   1.835   1.863
 5287SOL    HW216761   0.454   1.736   1.733
 5288SOL     OW16762   4.203   0.598   0.497
 5288SOL    HW116763   4.258   0.603   0.414
 5288SOL    HW216764   4.143   0.677   0.503
 5289SOL     OW16765   2.504   6.219   1.075
 5289SOL    HW116766   2.561   6.299   1.053
 5289SOL    HW216767   2.492   6.164   0.993
 5290SOL     OW16768   5.143   5.997   0.771
 5290SOL    HW116769   5.138   5.981   0.870
 5290SOL    HW216770   5.109   6.089   0.751
 5291SOL     OW16771   1.443   5.241   6.499
 5291SOL    HW116772   1.487   5.151   6.504
 5291SOL    HW216773   1.390   5.249   6.415
 5292SOL     OW16774   5.357   1.949   6.773
 5292SOL    HW116775   5.404   1.895   6.842
 5292SOL    HW216776   5.338   2.041   6.808
 5293SOL     OW16777   1.373   1.177   3.900
 5293SOL    HW116778   1.309   1.210   3.830
 5293SOL    HW216779   1.438   1.250   3.922
 5294SOL     OW16780   4.787   2.579   5.345
 5294SOL    HW116781   4.696   2.619   5.334
 5294SOL    HW216782   4.852   2.649   5.375
 5295SOL     OW16783   5.740   1.040   2.102
 5295SOL    HW116784   5.681   0.966   2.135
 5295SOL    HW216785   5.782   1.086   2.180
 5296SOL     OW16786   0.474   3.330   0.494
 5296SOL    HW116787   0.420   3.407   0.459
 5296SOL    HW216788   0.564   3.363   0.522
 5297SOL     OW16789   1.342   2.771   2.620
 5297SOL    HW116790   1.424   2.826   2.631
 5297SOL    HW216791   1.284   2.780   2.702
 5298SOL     OW16792   1.225   5.468   1.337
 5298SOL    HW116793   1.211   5.560   1.374
 5298SOL    HW216794   1.247   5.405   1.411
 5299SOL     OW16795   3.361   0.401   1.320
 5299SOL    HW116796   3.432   0.415   1.252
 5299SOL    HW216797   3.316   0.489   1.340
 5300SOL     OW16798   6.661   5.304   4.106
 5300SOL    HW116799   6.676   5.389   4.056
 5300SOL    HW216800   6.705   5.228   4.057
 5301SOL     OW16801   4.741   0.216   0.585
 5301SOL    HW116802   4.696   0.305   0.594
 5301SOL    HW216803   4.709   0.155   0.658
 5302SOL     OW16804   6.469   4.421   3.866
 5302SOL    HW116805   6.546   4.359   3.850
 5302SOL    HW216806   6.387   4.368   3.889
 5303SOL     OW16807   0.704   5.521   2.957
 5303SOL    HW116808   0.609   5.536   2.985
 5303SOL    HW216809   0.713   5.540   2.859
 5304SOL     OW16810   4.730   2.089   5.416
 5304SOL    HW116811   4.798   2.048   5.477
 5304SOL    HW216812   4.709   2.182   5.447
 5305SOL     OW16813   2.545   1.108   2.970
 5305SOL    HW116814   2.633   1.071   2.940
 5305SOL    HW216815   2.490   1.132   2.890
 5306SOL     OW16816   2.861   6.839   4.460
 5306SOL    HW116817   2.873   6.744   4.488
 5306SOL    HW216818   2.950   6.881   4.444
 5307SOL     OW16819   4.464   6.741   6.756
 5307SOL    HW116820   4.532   6.674   6.726
 5307SOL    HW216821   4.394   6.752   6.685
 5308SOL     OW16822   6.885   1.437   2.207
 5308SOL    HW116823   6.916   1.377   2.281
 5308SOL    HW216824   6.853   1.381   2.130
 5309SOL     OW16825   3.698   3.614   4.643
 5309SOL    HW116826   3.618   3.615   4.703
 5309SOL    HW216827   3.707   3.524   4.601
 5310SOL     OW16828   5.753   2.218   0.363
 5310SOL    HW116829   5.667   2.202   0.411
 5310SOL    HW216830   5.745   2.187   0.268
 5311SOL     OW16831   1.318   6.342   6.713
 5311SOL    HW116832   1.318   6.292   6.799
 5311SOL    HW216833   1.231   6.329   6.666
 5312SOL     OW16834   0.347   3.337   1.986
 5312SOL    HW116835   0.255   3.346   1.949
 5312SOL    HW216836   0.384   3.247   1.963
 5313SOL     OW16837   1.634   6.279   0.306
 5313SOL    HW116838   1.669   6.185   0.299
 5313SOL    HW216839   1.545   6.285   0.260
 5314SOL     OW16840   3.533   5.026   0.859
 5314SOL    HW116841   3.497   4.942   0.820
 5314SOL    HW216842   3.591   5.072   0.792
 5315SOL     OW16843   5.238   2.736   1.700
 5315SOL    HW116844   5.302   2.679   1.751
 5315SOL    HW216845   5.148   2.733   1.745
 5316SOL     OW16846   5.832   5.207   4.511
 5316SOL    HW116847   5.841   5.167   4.602
 5316SOL    HW216848   5.747   5.174   4.469
 5317SOL     OW16849   6.006   5.336   3.019
 5317SOL    HW116850   6.102   5.339   2.992
 5317SOL    HW216851   5.969   5.428   3.025
 5318SOL     OW16852   0.480   2.043   4.364
 5318SOL    HW116853   0.517   2.084   4.447
 5318SOL    HW216854   0.396   1.993   4.386
 5319SOL     OW16855   3.608   0.119   1.492
 5319SOL    HW116856   3.526   0.163   1.530
 5319SOL    HW216857   3.581   0.042   1.435
 5320SOL     OW16858   6.192   3.922   5.475
 5320SOL    HW116859   6.259   3.996   5.477
 5320SOL    HW216860   6.107   3.956   5.434
 5321SOL     OW16861   1.905   5.038   6.246
 5321SOL    HW116862   1.816   5.059   6.206
 5321SOL    HW216863   1.952   5.123   6.271
 5322SOL     OW16864   2.400   5.956   0.915
 5322SOL    HW116865   2.352   6.044   0.915
 5322SOL    HW216866   2.338   5.884   0.946
 5323SOL     OW16867   5.699   3.605   0.501
 5323SOL    HW116868   5.736   3.537   0.438
 5323SOL    HW216869   5.644   3.671   0.449
 5324SOL     OW16870   4.254   3.299   1.452
 5324SOL    HW116871   4.188   3.366   1.484
 5324SOL    HW216872   4.345   3.322   1.485
 5325SOL     OW16873   4.627   6.178   4.771
 5325SOL    HW116874   4.720   6.215   4.777
 5325SOL    HW216875   4.631   6.080   4.752
 5326SOL     OW16876   0.069   0.339   2.523
 5326SOL    HW116877   0.136   0.332   2.597
 5326SOL    HW216878   6.999   0.299   2.553
 5327SOL     OW16879   6.942   0.050   4.335
 5327SOL    HW116880   6.892   0.109   4.271
 5327SOL    HW216881   6.989   0.106   4.402
 5328SOL     OW16882   3.748   5.054   0.375
 5328SOL    HW116883   3.804   5.060   0.457
 5328SOL    HW216884   3.669   4.995   0.393
 5329SOL     OW16885   6.986   6.044   0.387
 5329SOL    HW116886   0.043   6.079   0.446
 5329SOL    HW216887   6.921   5.993   0.443
 5330SOL     OW16888   3.306   4.571   0.304
 5330SOL    HW116889   3.268   4.611   0.388
 5330SOL    HW216890   3.287   4.473   0.302
 5331SOL     OW16891   5.441   2.127   6.556
 5331SOL    HW116892   5.442   2.083   6.645
 5331SOL    HW216893   5.352   2.116   6.513
 5332SOL     OW16894   5.181   3.096   6.917
 5332SOL    HW116895   5.275   3.079   6.887
 5332SOL    HW216896   5.147   3.016   6.967
 5333SOL     OW16897   2.178   1.842   4.680
 5333SOL    HW116898   2.103   1.825   4.744
 5333SOL    HW216899   2.167   1.783   4.599
 5334SOL     OW16900   3.062   6.075   1.449
 5334SOL    HW116901   3.148   6.025   1.440
 5334SOL    HW216902   3.059   6.149   1.383
 5335SOL     OW16903   0.370   5.003   1.676
 5335SOL    HW116904   0.406   4.931   1.617
 5335SOL    HW216905   0.271   5.010   1.663
 5336SOL     OW16906   1.744   3.229   5.379
 5336SOL    HW116907   1.709   3.239   5.286
 5336SOL    HW216908   1.837   3.266   5.383
 5337SOL     OW16909   0.228   4.262   0.782
 5337SOL    HW116910   0.283   4.236   0.702
 5337SOL    HW216911   0.188   4.352   0.768
 5338SOL     OW16912   6.677   4.000   0.554
 5338SOL    HW116913   6.598   4.062   0.548
 5338SOL    HW216914   6.647   3.911   0.588
 5339SOL     OW16915   5.648   3.220   2.267
 5339SOL    HW116916   5.687   3.143   2.217
 5339SOL    HW216917   5.652   3.302   2.210
 5340SOL     OW16918   4.439   3.416   1.682
 5340SOL    HW116919   4.390   3.463   1.755
 5340SOL    HW216920   4.504   3.350   1.721
 5341SOL     OW16921   4.900   4.617   3.369
 5341SOL    HW116922   4.986   4.583   3.329
 5341SOL    HW216923   4.903   4.604   3.468
 5342SOL     OW16924   6.244   5.910   5.173
 5342SOL    HW116925   6.151   5.944   5.164
 5342SOL    HW216926   6.285   5.945   5.257
 5343SOL     OW16927   3.767   3.292   6.394
 5343SOL    HW116928   3.689   3.346   6.361
 5343SOL    HW216929   3.778   3.307   6.492
 5344SOL     OW16930   6.942   1.533   6.808
 5344SOL    HW116931   6.868   1.467   6.817
 5344SOL    HW216932   6.917   1.617   6.857
 5345SOL     OW16933   5.002   1.060   6.483
 5345SOL    HW116934   4.939   1.031   6.555
 5345SOL    HW216935   5.065   0.986   6.461
 5346SOL     OW16936   3.087   5.598   2.936
 5346SOL    HW116937   3.162   5.611   3.000
 5346SOL    HW216938   3.043   5.510   2.953
 5347SOL     OW16939   5.151   1.583   4.331
 5347SOL    HW116940   5.164   1.590   4.430
 5347SOL    HW216941   5.116   1.492   4.309
 5348SOL     OW16942   4.951   2.720   5.042
 5348SOL    HW116943   4.986   2.813   5.033
 5348SOL    HW216944   4.855   2.718   5.015
 5349SOL     OW16945   0.719   3.541   1.697
 5349SOL    HW116946   0.635   3.562   1.647
 5349SOL    HW216947   0.786   3.613   1.680
 5350SOL     OW16948   1.117   6.897   6.897
 5350SOL    HW116949   1.108   6.855   6.807
 5350SOL    HW216950   1.039   6.872   6.954
 5351SOL     OW16951   6.724   5.867   3.198
 5351SOL    HW116952   6.660   5.801   3.239
 5351SOL    HW216953   6.809   5.820   3.174
 5352SOL     OW16954   1.933   2.745   5.929
 5352SOL    HW116955   2.014   2.768   5.983
 5352SOL    HW216956   1.900   2.826   5.882
 5353SOL     OW16957   3.948   4.946   3.693
 5353SOL    HW116958   4.044   4.972   3.702
 5353SOL    HW216959   3.919   4.957   3.598
 5354SOL     OW16960   3.690   5.702   1.130
 5354SOL    HW116961   3.650   5.611   1.113
 5354SOL    HW216962   3.740   5.701   1.217
 5355SOL     OW16963   4.987   5.757   5.279
 5355SOL    HW116964   5.085   5.764   5.259
 5355SOL    HW216965   4.964   5.817   5.355
 5356SOL     OW16966   1.101   6.384   0.811
 5356SOL    HW116967   1.087   6.391   0.910
 5356SOL    HW216968   1.076   6.471   0.768
 5357SOL     OW16969   6.953   3.650   2.547
 5357SOL    HW116970   6.947   3.565   2.598
 5357SOL    HW216971   6.868   3.702   2.557
 5358SOL     OW16972   5.676   0.768   6.415
 5358SOL    HW116973   5.659   0.849   6.359
 5358SOL    HW216974   5.773   0.765   6.441
 5359SOL     OW16975   3.027   2.486   6.995
 5359SOL    HW116976   3.081   2.566   6.969
 5359SOL    HW216977   3.007   2.431   6.913
 5360SOL     OW16978   5.076   5.566   4.194
 5360SOL    HW116979   5.039   5.599   4.281
 5360SOL    HW216980   5.175   5.560   4.200
 5361SOL     OW16981   1.471   4.706   2.957
 5361SOL    HW116982   1.570   4.697   2.955
 5361SOL    HW216983   1.445   4.770   3.030
 5362SOL     OW16984   5.990   1.664   2.891
 5362SOL    HW116985   6.015   1.737   2.955
 5362SOL    HW216986   6.065   1.648   2.827
 5363SOL     OW16987   5.457   5.552   3.433
 5363SOL    HW116988   5.451   5.556   3.333
 5363SOL    HW216989   5.543   5.593   3.463
 5364SOL     OW16990   4.028   2.073   2.326
 5364SOL    HW116991   4.056   2.131   2.250
 5364SOL    HW216992   3.961   2.123   2.382
 5365SOL     OW16993   3.052   3.858   5.106
 5365SOL    HW116994   3.053   3.758   5.104
 5365SOL    HW216995   3.116   3.893   5.037
 5366SOL     OW16996   6.519   6.015   3.074
 5366SOL    HW116997   6.599   5.966   3.110
 5366SOL    HW216998   6.478   5.962   3.000
 5367SOL     OW16999   6.172   5.972   1.342
 5367SOL    HW117000   6.187   5.915   1.262
 5367SOL    HW217001   6.086   6.022   1.333
 5368SOL     OW17002   0.383   6.304   4.408
 5368SOL    HW117003   0.344   6.217   4.377
 5368SOL    HW217004   0.423   6.291   4.499
 5369SOL     OW17005   4.193   5.965   2.833
 5369SOL    HW117006   4.272   5.906   2.850
 5369SOL    HW217007   4.201   6.048   2.887
 5370SOL     OW17008   1.814   2.994   0.339
 5370SOL    HW117009   1.781   3.083   0.306
 5370SOL    HW217010   1.829   2.933   0.261
 5371SOL     OW17011   6.165   5.601   4.968
 5371SOL    HW117012   6.211   5.553   4.893
 5371SOL    HW217013   6.106   5.672   4.931
 5372SOL     OW17014   1.852   6.795   3.245
 5372SOL    HW117015   1.877   6.878   3.195
 5372SOL    HW217016   1.934   6.751   3.280
 5373SOL     OW17017   2.636   1.008   6.376
 5373SOL    HW117018   2.579   1.087   6.355
 5373SOL    HW217019   2.656   0.957   6.291
 5374SOL     OW17020   1.134   3.794   1.239
 5374SOL    HW117021   1.215   3.791   1.299
 5374SOL    HW217022   1.096   3.887   1.240
 5375SOL     OW17023   2.467   4.442   5.189
 5375SOL    HW117024   2.517   4.358   5.212
 5375SOL    HW217025   2.523   4.521   5.212
 5376SOL     OW17026   1.133   0.079   0.384
 5376SOL    HW117027   1.051   0.127   0.354
 5376SOL    HW217028   1.114   0.030   0.469
 5377SOL     OW17029   1.519   1.914   3.034
 5377SOL    HW117030   1.447   1.850   3.007
 5377SOL    HW217031   1.481   1.983   3.095
 5378SOL     OW17032   4.594   6.616   2.477
 5378SOL    HW117033   4.645   6.584   2.557
 5378SOL    HW217034   4.656   6.623   2.399
 5379SOL     OW17035   1.964   2.112   3.425
 5379SOL    HW117036   1.869   2.120   3.394
 5379SOL    HW217037   2.003   2.027   3.390
 5380SOL     OW17038   4.417   6.018   1.549
 5380SOL    HW117039   4.434   5.952   1.476
 5380SOL    HW217040   4.484   6.004   1.622
 5381SOL     OW17041   3.432   1.292   3.225
 5381SOL    HW117042   3.411   1.283   3.128
 5381SOL    HW217043   3.525   1.327   3.236
 5382SOL     OW17044   4.075   1.008   2.974
 5382SOL    HW117045   3.994   0.966   2.932
 5382SOL    HW217046   4.147   1.018   2.904
 5383SOL     OW17047   1.958   3.013   4.717
 5383SOL    HW117048   2.004   3.040   4.802
 5383SOL    HW217049   2.009   2.938   4.675
 5384SOL     OW17050   5.310   5.954   6.082
 5384SOL    HW117051   5.253   5.966   6.162
 5384SOL    HW217052   5.338   5.858   6.075
 5385SOL     OW17053   4.305   3.545   0.071
 5385SOL    HW117054   4.353   3.509   0.151
 5385SOL    HW217055   4.231   3.484   0.045
 5386SOL     OW17056   4.874   4.937   4.493
 5386SOL    HW117057   4.957   4.903   4.449
 5386SOL    HW217058   4.809   4.862   4.506
 5387SOL     OW17059   1.022   2.213   4.421
 5387SOL    HW117060   0.974   2.208   4.333
 5387SOL    HW217061   0.958   2.202   4.496
 5388SOL     OW17062   6.643   6.572   4.418
 5388SOL    HW117063   6.655   6.662   4.458
 5388SOL    HW217064   6.691   6.567   4.330
 5389SOL     OW17065   5.195   1.282   4.373
 5389SOL    HW117066   5.140   1.237   4.444
 5389SOL    HW217067   5.286   1.301   4.409
 5390SOL     OW17068   6.447   3.871   3.268
 5390SOL    HW117069   6.525   3.840   3.322
 5390SOL    HW217070   6.417   3.799   3.206
 5391SOL     OW17071   3.440   2.578   1.208
 5391SOL    HW117072   3.444   2.513   1.284
 5391SOL    HW217073   3.424   2.528   1.122
 5392SOL     OW17074   5.284   0.703   4.586
 5392SOL    HW117075   5.302   0.670   4.493
 5392SOL    HW217076   5.188   0.729   4.595
 5393SOL     OW17077   4.198   1.154   4.145
 5393SOL    HW117078   4.146   1.121   4.067
 5393SOL    HW217079   4.135   1.176   4.220
 5394SOL     OW17080   6.945   2.655   1.778
 5394SOL    HW117081   6.868   2.635   1.718
 5394SOL    HW217082   6.917   2.643   1.874
 5395SOL     OW17083   0.536   1.480   0.623
 5395SOL    HW117084   0.492   1.451   0.538
 5395SOL    HW217085   0.627   1.516   0.602
 5396SOL     OW17086   3.567   3.100   0.955
 5396SOL    HW117087   3.664   3.076   0.944
 5396SOL    HW217088   3.517   3.075   0.873
 5397SOL     OW17089   6.605   0.101   2.645
 5397SOL    HW117090   6.593   0.159   2.564
 5397SOL    HW217091   6.535   0.029   2.644
 5398SOL     OW17092   6.893   2.679   3.047
 5398SOL    HW117093   6.813   2.678   3.107
 5398SOL    HW217094   6.919   2.585   3.025
 5399SOL     OW17095   2.018   3.271   1.070
 5399SOL    HW117096   2.083   3.212   1.021
 5399SOL    HW217097   1.970   3.330   1.006
 5400SOL     OW17098   4.356   3.045   1.333
 5400SOL    HW117099   4.382   2.971   1.395
 5400SOL    HW217100   4.303   3.113   1.382
 5401SOL     OW17101   5.217   3.085   1.240
 5401SOL    HW117102   5.122   3.076   1.270
 5401SOL    HW217103   5.235   3.181   1.216
 5402SOL     OW17104   0.832   6.285   2.369
 5402SOL    HW117105   0.915   6.297   2.314
 5402SOL    HW217106   0.810   6.188   2.376
 5403SOL     OW17107   4.845   2.227   6.365
 5403SOL    HW117108   4.857   2.312   6.312
 5403SOL    HW217109   4.862   2.246   6.462
 5404SOL     OW17110   4.921   6.841   0.333
 5404SOL    HW117111   5.011   6.798   0.342
 5404SOL    HW217112   4.932   6.938   0.313
 5405SOL     OW17113   0.603   5.028   0.015
 5405SOL    HW117114   0.584   5.119   6.994
 5405SOL    HW217115   0.534   5.005   0.084
 5406SOL     OW17116   3.087   1.174   5.745
 5406SOL    HW117117   3.083   1.226   5.830
 5406SOL    HW217118   3.035   1.222   5.674
 5407SOL     OW17119   1.185   6.193   3.471
 5407SOL    HW117120   1.175   6.160   3.565
 5407SOL    HW217121   1.097   6.228   3.439
 5408SOL     OW17122   2.593   1.932   4.430
 5408SOL    HW117123   2.576   1.835   4.414
 5408SOL    HW217124   2.674   1.944   4.487
 5409SOL     OW17125   0.724   2.552   2.446
 5409SOL    HW117126   0.678   2.526   2.531
 5409SOL    HW217127   0.663   2.609   2.391
 5410SOL     OW17128   6.726   2.400   0.541
 5410SOL    HW117129   6.814   2.420   0.498
 5410SOL    HW217130   6.718   2.451   0.627
 5411SOL     OW17131   3.361   5.243   0.518
 5411SOL    HW117132   3.357   5.240   0.618
 5411SOL    HW217133   3.304   5.318   0.484
 5412SOL     OW17134   1.256   2.350   5.216
 5412SOL    HW117135   1.252   2.412   5.138
 5412SOL    HW217136   1.172   2.297   5.221
 5413SOL     OW17137   0.741   5.204   5.009
 5413SOL    HW117138   0.819   5.211   4.946
 5413SOL    HW217139   0.663   5.253   4.971
 5414SOL     OW17140   5.674   4.260   5.583
 5414SOL    HW117141   5.715   4.168   5.588
 5414SOL    HW217142   5.577   4.255   5.607
 5415SOL     OW17143   2.392   1.303   6.953
 5415SOL    HW117144   2.451   1.371   6.910
 5415SOL    HW217145   2.373   1.330   0.031
 5416SOL     OW17146   3.399   5.720   6.869
 5416SOL    HW117147   3.437   5.742   6.959
 5416SOL    HW217148   3.354   5.801   6.831
 5417SOL     OW17149   5.415   0.197   3.300
 5417SOL    HW117150   5.334   0.239   3.342
 5417SOL    HW217151   5.458   0.263   3.239
 5418SOL     OW17152   0.082   3.604   6.090
 5418SOL    HW117153   0.089   3.572   5.995
 5418SOL    HW217154   0.162   3.573   6.141
 5419SOL     OW17155   3.985   2.036   6.582
 5419SOL    HW117156   3.903   2.084   6.554
 5419SOL    HW217157   4.000   1.957   6.523
 5420SOL     OW17158   1.194   2.263   1.863
 5420SOL    HW117159   1.126   2.204   1.818
 5420SOL    HW217160   1.175   2.266   1.961
 5421SOL     OW17161   3.720   5.554   1.957
 5421SOL    HW117162   3.793   5.580   2.021
 5421SOL    HW217163   3.756   5.486   1.893
 5422SOL     OW17164   2.643   5.293   3.776
 5422SOL    HW117165   2.593   5.241   3.846
 5422SOL    HW217166   2.620   5.257   3.686
 5423SOL     OW17167   5.171   7.000   1.602
 5423SOL    HW117168   5.251   0.021   1.555
 5423SOL    HW217169   5.093   6.999   1.539
 5424SOL     OW17170   4.241   3.959   5.347
 5424SOL    HW117171   4.307   3.885   5.363
 5424SOL    HW217172   4.236   4.016   5.429
 5425SOL     OW17173   1.474   4.957   6.362
 5425SOL    HW117174   1.519   4.872   6.336
 5425SOL    HW217175   1.375   4.948   6.351
 5426SOL     OW17176   6.757   4.787   1.663
 5426SOL    HW117177   6.777   4.752   1.754
 5426SOL    HW217178   6.658   4.800   1.653
 5427SOL     OW17179   4.608   2.989   0.337
 5427SOL    HW117180   4.641   2.926   0.407
 5427SOL    HW217181   4.510   2.977   0.324
 5428SOL     OW17182   5.070   5.123   3.433
 5428SOL    HW117183   5.097   5.195   3.497
 5428SOL    HW217184   4.989   5.076   3.468
 5429SOL     OW17185   2.818   0.109   4.183
 5429SOL    HW117186   2.913   0.086   4.206
 5429SOL    HW217187   2.789   0.055   4.104
 5430SOL     OW17188   1.854   3.667   5.624
 5430SOL    HW117189   1.928   3.604   5.649
 5430SOL    HW217190   1.863   3.751   5.677
 5431SOL     OW17191   4.835   4.532   0.048
 5431SOL    HW117192   4.779   4.457   0.013
 5431SOL    HW217193   4.776   4.609   0.072
 5432SOL     OW17194   0.351   5.425   6.210
 5432SOL    HW117195   0.388   5.343   6.252
 5432SOL    HW217196   0.384   5.433   6.116
 5433SOL     OW17197   3.842   0.138   1.117
 5433SOL    HW117198   3.931   0.171   1.086
 5433SOL    HW217199   3.779   0.136   1.040
 5434SOL     OW17200   5.016   6.928   4.179
 5434SOL    HW117201   5.099   6.984   4.186
 5434SOL    HW217202   5.006   6.873   4.261
 5435SOL     OW17203   0.165   5.161   6.849
 5435SOL    HW117204   0.122   5.072   6.835
 5435SOL    HW217205   0.190   5.172   6.945
 5436SOL     OW17206   1.966   4.946   2.123
 5436SOL    HW117207   1.981   5.039   2.091
 5436SOL    HW217208   2.023   4.929   2.204
 5437SOL     OW17209   3.489   6.448   1.094
 5437SOL    HW117210   3.406   6.398   1.118
 5437SOL    HW217211   3.473   6.500   1.010
 5438SOL     OW17212   3.944   6.319   1.771
 5438SOL    HW117213   3.997   6.250   1.821
 5438SOL    HW217214   3.854   6.329   1.813
 5439SOL     OW17215   1.374   4.124   0.807
 5439SOL    HW117216   1.404   4.140   0.901
 5439SOL    HW217217   1.355   4.027   0.795
 5440SOL     OW17218   5.578   6.918   3.557
 5440SOL    HW117219   5.536   6.883   3.473
 5440SOL    HW217220   5.556   6.857   3.633
 5441SOL     OW17221   5.668   2.062   4.605
 5441SOL    HW117222   5.651   1.980   4.660
 5441SOL    HW217223   5.718   2.037   4.523
 5442SOL     OW17224   2.878   0.460   6.649
 5442SOL    HW117225   2.829   0.546   6.664
 5442SOL    HW217226   2.924   0.433   6.733
 5443SOL     OW17227   5.841   1.063   3.213
 5443SOL    HW117228   5.882   1.133   3.154
 5443SOL    HW217229   5.854   0.973   3.171
 5444SOL     OW17230   0.309   1.413   6.254
 5444SOL    HW117231   0.401   1.439   6.282
 5444SOL    HW217232   0.244   1.484   6.283
 5445SOL     OW17233   5.509   6.443   5.168
 5445SOL    HW117234   5.540   6.349   5.155
 5445SOL    HW217235   5.459   6.450   5.254
 5446SOL     OW17236   0.835   4.275   5.495
 5446SOL    HW117237   0.758   4.338   5.483
 5446SOL    HW217238   0.918   4.315   5.455
 5447SOL     OW17239   6.715   1.889   1.725
 5447SOL    HW117240   6.814   1.898   1.710
 5447SOL    HW217241   6.678   1.977   1.756
 5448SOL     OW17242   5.758   5.310   2.297
 5448SOL    HW117243   5.686   5.347   2.239
 5448SOL    HW217244   5.755   5.210   2.295
 5449SOL     OW17245   1.928   0.946   1.741
 5449SOL    HW117246   2.022   0.916   1.750
 5449SOL    HW217247   1.924   1.046   1.744
 5450SOL     OW17248   4.750   5.800   2.217
 5450SOL    HW117249   4.832   5.775   2.269
 5450SOL    HW217250   4.765   5.890   2.174
 5451SOL     OW17251   6.531   6.887   3.442
 5451SOL    HW117252   6.524   6.884   3.542
 5451SOL    HW217253   6.440   6.879   3.402
 5452SOL     OW17254   2.243   4.238   2.917
 5452SOL    HW117255   2.208   4.163   2.861
 5452SOL    HW217256   2.216   4.325   2.877
 5453SOL     OW17257   6.654   4.230   4.274
 5453SOL    HW117258   6.624   4.214   4.369
 5453SOL    HW217259   6.631   4.324   4.248
 5454SOL     OW17260   6.049   4.038   2.785
 5454SOL    HW117261   6.063   3.943   2.812
 5454SOL    HW217262   5.977   4.079   2.841
 5455SOL     OW17263   2.712   1.949   3.482
 5455SOL    HW117264   2.695   1.903   3.396
 5455SOL    HW217265   2.685   1.890   3.558
 5456SOL     OW17266   5.900   2.480   0.321
 5456SOL    HW117267   5.993   2.515   0.328
 5456SOL    HW217268   5.901   2.381   0.338
 5457SOL     OW17269   6.150   1.246   0.006
 5457SOL    HW117270   6.218   1.319   7.015
 5457SOL    HW217271   6.087   1.250   6.946
 5458SOL     OW17272   4.889   4.167   6.660
 5458SOL    HW117273   4.901   4.262   6.629
 5458SOL    HW217274   4.927   4.105   6.591
 5459SOL     OW17275   2.108   3.043   4.951
 5459SOL    HW117276   2.204   3.023   4.974
 5459SOL    HW217277   2.051   3.026   5.031
 5460SOL     OW17278   0.555   0.620   1.460
 5460SOL    HW117279   0.474   0.573   1.425
 5460SOL    HW217280   0.634   0.559   1.454
 5461SOL     OW17281   5.958   1.412   6.100
 5461SOL    HW117282   5.972   1.379   6.007
 5461SOL    HW217283   5.861   1.400   6.125
 5462SOL     OW17284   5.151   4.902   5.714
 5462SOL    HW117285   5.212   4.827   5.689
 5462SOL    HW217286   5.176   4.984   5.662
 5463SOL     OW17287   0.944   3.978   5.578
 5463SOL    HW117288   0.886   3.963   5.498
 5463SOL    HW217289   0.887   3.993   5.659
 5464SOL     OW17290   1.967   5.152   4.602
 5464SOL    HW117291   1.907   5.148   4.682
 5464SOL    HW217292   2.041   5.085   4.612
 5465SOL     OW17293   0.899   0.180   5.019
 5465SOL    HW117294   0.970   0.111   5.031
 5465SOL    HW217295   0.892   0.204   4.922
 5466SOL     OW17296   5.559   1.548   4.579
 5466SOL    HW117297   5.490   1.517   4.644
 5466SOL    HW217298   5.640   1.489   4.585
 5467SOL     OW17299   4.913   3.182   4.422
 5467SOL    HW117300   4.911   3.235   4.507
 5467SOL    HW217301   4.951   3.091   4.441
 5468SOL     OW17302   6.771   2.197   1.346
 5468SOL    HW117303   6.726   2.183   1.257
 5468SOL    HW217304   6.702   2.197   1.418
 5469SOL     OW17305   3.363   1.066   4.499
 5469SOL    HW117306   3.452   1.035   4.533
 5469SOL    HW217307   3.365   1.068   4.399
 5470SOL     OW17308   4.567   5.337   4.265
 5470SOL    HW117309   4.582   5.298   4.356
 5470SOL    HW217310   4.656   5.356   4.221
 5471SOL     OW17311   4.967   0.596   2.462
 5471SOL    HW117312   4.996   0.590   2.558
 5471SOL    HW217313   4.928   0.686   2.444
 5472SOL     OW17314   2.717   3.309   0.501
 5472SOL    HW117315   2.806   3.352   0.484
 5472SOL    HW217316   2.646   3.380   0.504
 5473SOL     OW17317   3.173   5.156   1.825
 5473SOL    HW117318   3.256   5.102   1.809
 5473SOL    HW217319   3.094   5.108   1.788
 5474SOL     OW17320   1.439   4.838   2.109
 5474SOL    HW117321   1.443   4.862   2.012
 5474SOL    HW217322   1.372   4.897   2.156
 5475SOL     OW17323   1.071   0.982   5.061
 5475SOL    HW117324   1.064   1.054   4.993
 5475SOL    HW217325   1.137   1.009   5.132
 5476SOL     OW17326   1.975   6.897   5.242
 5476SOL    HW117327   1.891   6.847   5.262
 5476SOL    HW217328   1.997   6.888   5.145
 5477SOL     OW17329   2.063   3.447   3.894
 5477SOL    HW117330   2.084   3.389   3.815
 5477SOL    HW217331   2.034   3.537   3.862
 5478SOL     OW17332   5.282   4.654   5.892
 5478SOL    HW117333   5.248   4.696   5.976
 5478SOL    HW217334   5.363   4.703   5.861
 5479SOL     OW17335   5.223   2.283   4.363
 5479SOL    HW117336   5.273   2.350   4.308
 5479SOL    HW217337   5.282   2.205   4.384
 5480SOL     OW17338   1.512   3.200   4.347
 5480SOL    HW117339   1.424   3.239   4.319
 5480SOL    HW217340   1.515   3.103   4.321
 5481SOL     OW17341   4.079   1.719   6.628
 5481SOL    HW117342   4.021   1.759   6.557
 5481SOL    HW217343   4.175   1.738   6.607
 5482SOL     OW17344   5.589   3.442   2.115
 5482SOL    HW117345   5.491   3.461   2.103
 5482SOL    HW217346   5.635   3.524   2.149
 5483SOL     OW17347   6.936   2.875   6.849
 5483SOL    HW117348   6.876   2.881   6.929
 5483SOL    HW217349   6.902   2.804   6.788
 5484SOL     OW17350   6.355   6.795   4.994
 5484SOL    HW117351   6.365   6.894   4.990
 5484SOL    HW217352   6.446   6.752   4.995
 5485SOL     OW17353   3.756   6.932   4.647
 5485SOL    HW117354   3.846   6.969   4.667
 5485SOL    HW217355   3.763   6.863   4.575
 5486SOL     OW17356   0.800   0.913   3.867
 5486SOL    HW117357   0.772   0.930   3.773
 5486SOL    HW217358   0.900   0.906   3.872
 5487SOL     OW17359   4.503   5.263   0.763
 5487SOL    HW117360   4.527   5.179   0.813
 5487SOL    HW217361   4.463   5.329   0.827
 5488SOL     OW17362   5.064   1.092   5.944
 5488SOL    HW117363   4.978   1.132   5.978
 5488SOL    HW217364   5.116   1.162   5.895
 5489SOL     OW17365   6.729   4.352   3.135
 5489SOL    HW117366   6.685   4.314   3.053
 5489SOL    HW217367   6.668   4.340   3.213
 5490SOL     OW17368   2.364   2.680   6.704
 5490SOL    HW117369   2.439   2.633   6.752
 5490SOL    HW217370   2.393   2.703   6.611
 5491SOL     OW17371   0.362   5.824   1.492
 5491SOL    HW117372   0.308   5.780   1.564
 5491SOL    HW217373   0.304   5.886   1.441
 5492SOL     OW17374   1.770   1.056   4.860
 5492SOL    HW117375   1.678   1.025   4.887
 5492SOL    HW217376   1.768   1.154   4.841
 5493SOL     OW17377   3.122   2.948   6.978
 5493SOL    HW117378   3.024   2.932   6.965
 5493SOL    HW217379   3.139   2.980   0.054
 5494SOL     OW17380   6.300   2.854   2.101
 5494SOL    HW117381   6.291   2.760   2.134
 5494SOL    HW217382   6.350   2.909   2.169
 5495SOL     OW17383   3.281   2.909   3.109
 5495SOL    HW117384   3.274   2.902   3.010
 5495SOL    HW217385   3.237   2.829   3.151
 5496SOL     OW17386   3.493   5.091   1.296
 5496SOL    HW117387   3.408   5.099   1.348
 5496SOL    HW217388   3.569   5.126   1.350
 5497SOL     OW17389   6.221   6.970   1.854
 5497SOL    HW117390   6.277   6.983   1.772
 5497SOL    HW217391   6.183   0.041   1.883
 5498SOL     OW17392   4.403   0.016   5.012
 5498SOL    HW117393   4.385   0.031   4.915
 5498SOL    HW217394   4.467   0.085   5.045
 5499SOL     OW17395   0.136   1.206   5.005
 5499SOL    HW117396   0.202   1.240   5.071
 5499SOL    HW217397   0.048   1.251   5.019
 5500SOL     OW17398   2.154   5.589   1.352
 5500SOL    HW117399   2.252   5.570   1.360
 5500SOL    HW217400   2.124   5.568   1.259
 5501SOL     OW17401   2.054   0.312   3.079
 5501SOL    HW117402   2.061   0.377   3.003
 5501SOL    HW217403   2.098   0.226   3.053
 5502SOL     OW17404   4.633   3.658   0.408
 5502SOL    HW117405   4.622   3.559   0.405
 5502SOL    HW217406   4.609   3.697   0.318
 5503SOL     OW17407   0.800   6.400   4.520
 5503SOL    HW117408   0.885   6.371   4.478
 5503SOL    HW217409   0.746   6.320   4.546
 5504SOL     OW17410   3.469   2.085   4.327
 5504SOL    HW117411   3.526   2.122   4.253
 5504SOL    HW217412   3.376   2.073   4.293
 5505SOL     OW17413   3.369   4.529   6.262
 5505SOL    HW117414   3.324   4.605   6.310
 5505SOL    HW217415   3.328   4.443   6.290
 5506SOL     OW17416   0.298   0.066   5.601
 5506SOL    HW117417   0.216   0.029   5.643
 5506SOL    HW217418   0.341   7.013   5.543
 5507SOL     OW17419   3.559   5.957   4.381
 5507SOL    HW117420   3.591   5.941   4.474
 5507SOL    HW217421   3.558   5.871   4.330
 5508SOL     OW17422   2.849   0.427   5.982
 5508SOL    HW117423   2.832   0.525   5.977
 5508SOL    HW217424   2.762   0.377   5.977
 5509SOL     OW17425   6.240   6.308   0.009
 5509SOL    HW117426   6.156   6.263   6.996
 5509SOL    HW217427   6.227   6.348   0.100
 5510SOL     OW17428   5.628   0.270   6.391
 5510SOL    HW117429   5.685   0.197   6.429
 5510SOL    HW217430   5.683   0.325   6.328
 5511SOL     OW17431   0.189   1.712   1.806
 5511SOL    HW117432   0.231   1.799   1.779
 5511SOL    HW217433   0.261   1.645   1.821
 5512SOL     OW17434   0.595   0.256   1.025
 5512SOL    HW117435   0.509   0.212   1.048
 5512SOL    HW217436   0.578   0.332   0.961
 5513SOL     OW17437   3.666   5.295   4.716
 5513SOL    HW117438   3.649   5.214   4.660
 5513SOL    HW217439   3.640   5.276   4.810
 5514SOL     OW17440   6.219   5.624   3.552
 5514SOL    HW117441   6.315   5.644   3.535
 5514SOL    HW217442   6.166   5.645   3.469
 5515SOL     OW17443   6.497   2.805   2.682
 5515SOL    HW117444   6.409   2.812   2.635
 5515SOL    HW217445   6.565   2.858   2.632
 5516SOL     OW17446   1.322   3.591   5.808
 5516SOL    HW117447   1.388   3.568   5.879
 5516SOL    HW217448   1.229   3.576   5.842
 5517SOL     OW17449   1.974   1.535   1.891
 5517SOL    HW117450   2.028   1.496   1.966
 5517SOL    HW217451   1.919   1.611   1.926
 5518SOL     OW17452   5.688   4.882   5.127
 5518SOL    HW117453   5.688   4.783   5.143
 5518SOL    HW217454   5.621   4.926   5.187
 5519SOL     OW17455   5.218   3.671   3.310
 5519SOL    HW117456   5.163   3.700   3.388
 5519SOL    HW217457   5.226   3.572   3.309
 5520SOL     OW17458   1.768   3.201   1.212
 5520SOL    HW117459   1.841   3.267   1.193
 5520SOL    HW217460   1.683   3.233   1.170
 5521SOL     OW17461   4.675   5.771   1.573
 5521SOL    HW117462   4.620   5.779   1.490
 5521SOL    HW217463   4.698   5.675   1.588
 5522SOL     OW17464   2.085   3.431   2.301
 5522SOL    HW117465   2.094   3.488   2.219
 5522SOL    HW217466   2.159   3.364   2.304
 5523SOL     OW17467   3.496   0.838   1.259
 5523SOL    HW117468   3.584   0.791   1.251
 5523SOL    HW217469   3.475   0.885   1.173
 5524SOL     OW17470   6.641   5.885   6.137
 5524SOL    HW117471   6.700   5.835   6.074
 5524SOL    HW217472   6.625   5.831   6.220
 5525SOL     OW17473   6.484   5.722   4.587
 5525SOL    HW117474   6.515   5.775   4.666
 5525SOL    HW217475   6.516   5.766   4.503
 5526SOL     OW17476   5.384   2.719   5.154
 5526SOL    HW117477   5.396   2.700   5.057
 5526SOL    HW217478   5.297   2.679   5.185
 5527SOL     OW17479   2.379   3.447   1.134
 5527SOL    HW117480   2.447   3.419   1.067
 5527SOL    HW217481   2.323   3.521   1.096
 5528SOL     OW17482   0.220   3.365   2.858
 5528SOL    HW117483   0.238   3.274   2.898
 5528SOL    HW217484   0.276   3.433   2.905
 5529SOL     OW17485   1.965   1.371   5.093
 5529SOL    HW117486   2.003   1.351   5.183
 5529SOL    HW217487   1.881   1.319   5.080
 5530SOL     OW17488   0.679   3.137   0.814
 5530SOL    HW117489   0.779   3.140   0.805
 5530SOL    HW217490   0.641   3.079   0.742
 5531SOL     OW17491   2.260   2.859   5.753
 5531SOL    HW117492   2.198   2.907   5.816
 5531SOL    HW217493   2.217   2.775   5.722
 5532SOL     OW17494   2.694   1.989   0.888
 5532SOL    HW117495   2.691   1.986   0.988
 5532SOL    HW217496   2.786   1.963   0.857
 5533SOL     OW17497   3.978   6.950   0.484
 5533SOL    HW117498   4.072   6.922   0.463
 5533SOL    HW217499   3.980   0.008   0.550
 5534SOL     OW17500   6.885   4.794   5.762
 5534SOL    HW117501   6.905   4.770   5.857
 5534SOL    HW217502   6.877   4.711   5.707
 5535SOL     OW17503   5.790   3.599   3.516
 5535SOL    HW117504   5.694   3.612   3.494
 5535SOL    HW217505   5.814   3.502   3.506
 5536SOL     OW17506   1.916   0.767   3.484
 5536SOL    HW117507   1.943   0.702   3.555
 5536SOL    HW217508   1.862   0.841   3.525
 5537SOL     OW17509   4.408   1.257   4.814
 5537SOL    HW117510   4.336   1.201   4.853
 5537SOL    HW217511   4.371   1.347   4.789
 5538SOL     OW17512   5.669   2.150   1.121
 5538SOL    HW117513   5.635   2.243   1.135
 5538SOL    HW217514   5.665   2.128   1.023
 5539SOL     OW17515   3.232   6.658   6.890
 5539SOL    HW117516   3.243   6.583   6.956
 5539SOL    HW217517   3.312   6.719   6.895
 5540SOL     OW17518   5.028   0.447   6.842
 5540SOL    HW117519   5.126   0.457   6.862
 5540SOL    HW217520   4.980   0.418   6.924
 5541SOL     OW17521   4.544   3.900   6.466
 5541SOL    HW117522   4.463   3.846   6.445
 5541SOL    HW217523   4.626   3.845   6.450
 5542SOL     OW17524   4.578   5.021   0.194
 5542SOL    HW117525   4.574   4.999   0.097
 5542SOL    HW217526   4.541   4.945   0.247
 5543SOL     OW17527   2.009   0.287   0.407
 5543SOL    HW117528   1.991   0.347   0.484
 5543SOL    HW217529   2.039   0.198   0.440
 5544SOL     OW17530   3.674   5.688   6.279
 5544SOL    HW117531   3.609   5.620   6.246
 5544SOL    HW217532   3.768   5.655   6.266
 5545SOL     OW17533   4.609   0.773   3.060
 5545SOL    HW117534   4.545   0.850   3.052
 5545SOL    HW217535   4.703   0.806   3.054
 5546SOL     OW17536   0.287   4.886   4.620
 5546SOL    HW117537   0.202   4.861   4.575
 5546SOL    HW217538   0.275   4.971   4.670
 5547SOL     OW17539   5.307   1.405   4.762
 5547SOL    HW117540   5.238   1.432   4.829
 5547SOL    HW217541   5.283   1.443   4.673
 5548SOL     OW17542   0.401   3.981   4.541
 5548SOL    HW117543   0.312   4.019   4.516
 5548SOL    HW217544   0.394   3.934   4.629
 5549SOL     OW17545   4.254   3.051   0.592
 5549SOL    HW117546   4.267   3.084   0.686
 5549SOL    HW217547   4.233   2.954   0.594
 5550SOL     OW17548   2.108   4.248   1.689
 5550SOL    HW117549   2.059   4.333   1.666
 5550SOL    HW217550   2.077   4.215   1.778
 5551SOL     OW17551   1.823   5.514   3.573
 5551SOL    HW117552   1.883   5.552   3.501
 5551SOL    HW217553   1.784   5.428   3.542
 5552SOL     OW17554   0.316   6.663   6.759
 5552SOL    HW117555   0.360   6.707   6.680
 5552SOL    HW217556   0.285   6.571   6.733
 5553SOL     OW17557   4.843   0.045   6.888
 5553SOL    HW117558   4.791   0.127   6.912
 5553SOL    HW217559   4.856   0.042   6.789
 5554SOL     OW17560   5.764   2.262   1.588
 5554SOL    HW117561   5.666   2.244   1.587
 5554SOL    HW217562   5.808   2.214   1.512
 5555SOL     OW17563   1.703   5.041   2.497
 5555SOL    HW117564   1.688   4.985   2.416
 5555SOL    HW217565   1.619   5.045   2.551
 5556SOL     OW17566   0.213   1.003   4.521
 5556SOL    HW117567   0.191   1.051   4.606
 5556SOL    HW217568   0.267   0.922   4.541
 5557SOL     OW17569   3.105   5.963   2.750
 5557SOL    HW117570   3.144   6.039   2.698
 5557SOL    HW217571   3.172   5.930   2.817
 5558SOL     OW17572   4.110   4.585   0.043
 5558SOL    HW117573   4.022   4.626   0.064
 5558SOL    HW217574   4.124   4.584   6.961
 5559SOL     OW17575   2.390   0.562   2.572
 5559SOL    HW117576   2.301   0.584   2.612
 5559SOL    HW217577   2.385   0.570   2.473
 5560SOL     OW17578   0.772   6.539   2.952
 5560SOL    HW117579   0.704   6.570   2.885
 5560SOL    HW217580   0.822   6.618   2.988
 5561SOL     OW17581   3.713   6.724   3.434
 5561SOL    HW117582   3.690   6.725   3.337
 5561SOL    HW217583   3.758   6.810   3.458
 5562SOL     OW17584   3.826   4.445   0.892
 5562SOL    HW117585   3.793   4.377   0.958
 5562SOL    HW217586   3.919   4.472   0.915
 5563SOL     OW17587   2.306   4.777   2.682
 5563SOL    HW117588   2.337   4.685   2.658
 5563SOL    HW217589   2.279   4.779   2.778
 5564SOL     OW17590   5.256   0.489   5.901
 5564SOL    HW117591   5.242   0.556   5.973
 5564SOL    HW217592   5.353   0.465   5.895
 5565SOL     OW17593   3.335   2.245   6.414
 5565SOL    HW117594   3.336   2.310   6.490
 5565SOL    HW217595   3.304   2.291   6.331
 5566SOL     OW17596   1.433   3.588   6.542
 5566SOL    HW117597   1.414   3.663   6.478
 5566SOL    HW217598   1.351   3.532   6.552
 5567SOL     OW17599   0.133   4.542   1.522
 5567SOL    HW117600   0.114   4.455   1.568
 5567SOL    HW217601   0.213   4.531   1.463
 5568SOL     OW17602   4.229   5.678   1.335
 5568SOL    HW117603   4.201   5.639   1.423
 5568SOL    HW217604   4.149   5.693   1.278
 5569SOL     OW17605   2.084   2.946   3.712
 5569SOL    HW117606   2.012   2.945   3.782
 5569SOL    HW217607   2.107   3.041   3.691
 5570SOL     OW17608   0.513   4.004   2.949
 5570SOL    HW117609   0.479   4.018   3.042
 5570SOL    HW217610   0.455   3.938   2.901
 5571SOL     OW17611   6.110   5.000   1.861
 5571SOL    HW117612   6.021   5.045   1.852
 5571SOL    HW217613   6.109   4.913   1.812
 5572SOL     OW17614   1.811   4.067   5.173
 5572SOL    HW117615   1.884   4.054   5.106
 5572SOL    HW217616   1.753   3.986   5.177
 5573SOL     OW17617   2.567   5.237   3.472
 5573SOL    HW117618   2.615   5.150   3.482
 5573SOL    HW217619   2.470   5.225   3.493
 5574SOL     OW17620   0.875   2.650   6.616
 5574SOL    HW117621   0.936   2.709   6.563
 5574SOL    HW217622   0.798   2.703   6.650
 5575SOL     OW17623   0.260   0.034   1.406
 5575SOL    HW117624   0.280   7.010   1.317
 5575SOL    HW217625   0.163   0.024   1.426
 5576SOL     OW17626   1.834   4.570   3.555
 5576SOL    HW117627   1.754   4.617   3.519
 5576SOL    HW217628   1.906   4.637   3.574
 5577SOL     OW17629   1.959   2.681   5.639
 5577SOL    HW117630   1.937   2.778   5.631
 5577SOL    HW217631   1.959   2.655   5.736
 5578SOL     OW17632   3.755   3.709   3.423
 5578SOL    HW117633   3.742   3.640   3.494
 5578SOL    HW217634   3.665   3.742   3.392
 5579SOL     OW17635   0.177   3.575   1.421
 5579SOL    HW117636   0.153   3.582   1.324
 5579SOL    HW217637   0.274   3.595   1.432
 5580SOL     OW17638   5.112   1.742   5.292
 5580SOL    HW117639   5.030   1.769   5.241
 5580SOL    HW217640   5.086   1.712   5.384
 5581SOL     OW17641   1.128   1.927   6.782
 5581SOL    HW117642   1.079   2.009   6.813
 5581SOL    HW217643   1.215   1.954   6.741
 5582SOL     OW17644   2.593   2.682   6.145
 5582SOL    HW117645   2.528   2.612   6.118
 5582SOL    HW217646   2.686   2.647   6.137
 5583SOL     OW17647   5.548   0.809   2.200
 5583SOL    HW117648   5.521   0.743   2.270
 5583SOL    HW217649   5.466   0.850   2.160
 5584SOL     OW17650   0.963   3.398   4.749
 5584SOL    HW117651   0.941   3.480   4.696
 5584SOL    HW217652   0.896   3.326   4.729
 5585SOL     OW17653   4.548   4.794   2.337
 5585SOL    HW117654   4.547   4.820   2.434
 5585SOL    HW217655   4.587   4.870   2.284
 5586SOL     OW17656   6.657   3.213   7.009
 5586SOL    HW117657   6.565   3.252   0.000
 5586SOL    HW217658   6.689   3.220   6.915
 5587SOL     OW17659   5.882   0.779   6.177
 5587SOL    HW117660   5.973   0.806   6.209
 5587SOL    HW217661   5.890   0.698   6.119
 5588SOL     OW17662   3.413   6.765   1.618
 5588SOL    HW117663   3.433   6.675   1.657
 5588SOL    HW217664   3.485   6.790   1.553
 5589SOL     OW17665   5.899   4.854   6.089
 5589SOL    HW117666   5.817   4.801   6.110
 5589SOL    HW217667   5.969   4.835   6.157
 5590SOL     OW17668   5.575   5.766   4.143
 5590SOL    HW117669   5.650   5.706   4.172
 5590SOL    HW217670   5.597   5.861   4.167
 5591SOL     OW17671   5.956   1.238   1.209
 5591SOL    HW117672   6.047   1.276   1.220
 5591SOL    HW217673   5.955   1.173   1.134
 5592SOL     OW17674   0.663   4.096   3.210
 5592SOL    HW117675   0.706   4.010   3.238
 5592SOL    HW217676   0.726   4.145   3.149
 5593SOL     OW17677   0.132   3.106   0.321
 5593SOL    HW117678   0.157   3.159   0.402
 5593SOL    HW217679   0.136   3.009   0.342
 5594SOL     OW17680   5.852   2.563   5.610
 5594SOL    HW117681   5.897   2.501   5.674
 5594SOL    HW217682   5.902   2.649   5.606
 5595SOL     OW17683   0.966   2.530   5.651
 5595SOL    HW117684   0.903   2.606   5.667
 5595SOL    HW217685   0.930   2.471   5.578
 5596SOL     OW17686   3.863   6.860   3.120
 5596SOL    HW117687   3.782   6.824   3.167
 5596SOL    HW217688   3.919   6.784   3.087
 5597SOL     OW17689   5.253   3.361   3.291
 5597SOL    HW117690   5.170   3.306   3.282
 5597SOL    HW217691   5.329   3.302   3.321
 5598SOL     OW17692   5.619   2.113   5.252
 5598SOL    HW117693   5.605   2.128   5.154
 5598SOL    HW217694   5.545   2.157   5.303
 5599SOL     OW17695   0.471   1.546   3.940
 5599SOL    HW117696   0.401   1.592   3.994
 5599SOL    HW217697   0.500   1.463   3.986
 5600SOL     OW17698   1.359   2.360   3.997
 5600SOL    HW117699   1.389   2.313   3.914
 5600SOL    HW217700   1.408   2.323   4.076
 5601SOL     OW17701   2.667   0.850   5.563
 5601SOL    HW117702   2.719   0.770   5.533
 5601SOL    HW217703   2.714   0.893   5.640
 5602SOL     OW17704   1.414   1.936   0.690
 5602SOL    HW117705   1.343   1.866   0.682
 5602SOL    HW217706   1.382   2.008   0.753
 5603SOL     OW17707   6.487   2.663   6.462
 5603SOL    HW117708   6.470   2.622   6.373
 5603SOL    HW217709   6.430   2.744   6.473
 5604SOL     OW17710   6.447   1.906   5.948
 5604SOL    HW117711   6.361   1.877   5.906
 5604SOL    HW217712   6.429   1.978   6.015
 5605SOL     OW17713   0.324   2.270   5.096
 5605SOL    HW117714   0.302   2.330   5.018
 5605SOL    HW217715   0.411   2.298   5.135
 5606SOL     OW17716   4.723   0.100   2.058
 5606SOL    HW117717   4.814   0.119   2.023
 5606SOL    HW217718   4.695   0.173   2.120
 5607SOL     OW17719   5.820   1.124   1.652
 5607SOL    HW117720   5.910   1.103   1.690
 5607SOL    HW217721   5.759   1.153   1.726
 5608SOL     OW17722   3.882   6.526   5.135
 5608SOL    HW117723   3.915   6.447   5.082
 5608SOL    HW217724   3.960   6.575   5.175
 5609SOL     OW17725   2.598   6.107   5.924
 5609SOL    HW117726   2.568   6.169   5.996
 5609SOL    HW217727   2.525   6.043   5.902
 5610SOL     OW17728   4.677   0.493   6.797
 5610SOL    HW117729   4.724   0.545   6.868
 5610SOL    HW217730   4.645   0.554   6.725
 5611SOL     OW17731   1.579   5.068   3.372
 5611SOL    HW117732   1.527   4.987   3.398
 5611SOL    HW217733   1.526   5.123   3.308
 5612SOL     OW17734   2.530   7.009   5.368
 5612SOL    HW117735   2.455   7.008   5.302
 5612SOL    HW217736   2.574   6.919   5.370
 5613SOL     OW17737   4.154   4.865   1.809
 5613SOL    HW117738   4.165   4.887   1.906
 5613SOL    HW217739   4.239   4.828   1.773
 5614SOL     OW17740   4.430   2.086   3.009
 5614SOL    HW117741   4.356   2.018   3.010
 5614SOL    HW217742   4.501   2.057   2.945
 5615SOL     OW17743   1.502   1.409   1.373
 5615SOL    HW117744   1.445   1.343   1.323
 5615SOL    HW217745   1.541   1.475   1.309
 5616SOL     OW17746   2.323   0.879   4.410
 5616SOL    HW117747   2.415   0.889   4.448
 5616SOL    HW217748   2.262   0.845   4.481
 5617SOL     OW17749   1.961   0.916   4.992
 5617SOL    HW117750   1.881   0.964   4.957
 5617SOL    HW217751   2.039   0.978   4.993
 5618SOL     OW17752   0.065   4.330   3.114
 5618SOL    HW117753   0.005   4.320   3.035
 5618SOL    HW217754   0.020   4.387   3.183
 5619SOL     OW17755   2.230   3.583   5.384
 5619SOL    HW117756   2.231   3.517   5.309
 5619SOL    HW217757   2.140   3.626   5.390
 5620SOL     OW17758   3.601   1.911   6.103
 5620SOL    HW117759   3.609   1.897   6.004
 5620SOL    HW217760   3.511   1.880   6.134
 5621SOL     OW17761   2.360   2.657   5.560
 5621SOL    HW117762   2.453   2.694   5.569
 5621SOL    HW217763   2.350   2.577   5.620
 5622SOL     OW17764   6.216   0.395   5.921
 5622SOL    HW117765   6.280   0.333   5.967
 5622SOL    HW217766   6.266   0.455   5.859
 5623SOL     OW17767   0.902   6.081   0.374
 5623SOL    HW117768   0.996   6.115   0.374
 5623SOL    HW217769   0.902   5.981   0.372
 5624SOL     OW17770   0.671   4.154   3.488
 5624SOL    HW117771   0.718   4.081   3.440
 5624SOL    HW217772   0.611   4.204   3.425
 5625SOL     OW17773   6.528   2.588   5.070
 5625SOL    HW117774   6.467   2.510   5.085
 5625SOL    HW217775   6.607   2.557   5.017
 5626SOL     OW17776   4.029   7.015   4.625
 5626SOL    HW117777   4.100   6.972   4.569
 5626SOL    HW217778   4.054   0.093   4.642
 5627SOL     OW17779   1.439   6.392   0.978
 5627SOL    HW117780   1.403   6.462   1.039
 5627SOL    HW217781   1.375   6.315   0.974
 5628SOL     OW17782   1.986   1.437   4.482
 5628SOL    HW117783   1.893   1.401   4.491
 5628SOL    HW217784   1.981   1.532   4.452
 5629SOL     OW17785   3.540   3.665   2.729
 5629SOL    HW117786   3.457   3.721   2.731
 5629SOL    HW217787   3.592   3.687   2.646
 5630SOL     OW17788   0.736   4.431   1.596
 5630SOL    HW117789   0.817   4.387   1.635
 5630SOL    HW217790   0.716   4.390   1.507
 5631SOL     OW17791   4.637   0.738   0.206
 5631SOL    HW117792   4.710   0.770   0.266
 5631SOL    HW217793   4.635   0.795   0.124
 5632SOL     OW17794   3.881   3.845   0.038
 5632SOL    HW117795   3.827   3.909   0.094
 5632SOL    HW217796   3.968   3.826   0.084
 5633SOL     OW17797   6.138   2.600   4.531
 5633SOL    HW117798   6.202   2.548   4.474
 5633SOL    HW217799   6.047   2.597   4.491
 5634SOL     OW17800   3.918   5.850   4.456
 5634SOL    HW117801   3.863   5.798   4.391
 5634SOL    HW217802   4.014   5.824   4.446
 5635SOL     OW17803   3.238   2.102   4.850
 5635SOL    HW117804   3.248   2.004   4.867
 5635SOL    HW217805   3.241   2.152   4.937
 5636SOL     OW17806   3.812   5.492   3.658
 5636SOL    HW117807   3.753   5.572   3.669
 5636SOL    HW217808   3.768   5.411   3.698
 5637SOL     OW17809   5.524   0.631   3.517
 5637SOL    HW117810   5.574   0.554   3.557
 5637SOL    HW217811   5.434   0.601   3.487
 5638SOL     OW17812   5.593   3.275   6.223
 5638SOL    HW117813   5.599   3.375   6.215
 5638SOL    HW217814   5.603   3.249   6.319
 5639SOL     OW17815   2.628   1.368   6.048
 5639SOL    HW117816   2.537   1.408   6.045
 5639SOL    HW217817   2.649   1.323   5.961
 5640SOL     OW17818   2.373   0.318   3.387
 5640SOL    HW117819   2.326   0.374   3.456
 5640SOL    HW217820   2.322   0.233   3.373
 5641SOL     OW17821   6.040   5.378   5.158
 5641SOL    HW117822   6.041   5.436   5.076
 5641SOL    HW217823   5.951   5.334   5.165
 5642SOL     OW17824   1.414   1.624   6.543
 5642SOL    HW117825   1.374   1.713   6.522
 5642SOL    HW217826   1.452   1.626   6.635
 5643SOL     OW17827   5.543   2.842   4.732
 5643SOL    HW117828   5.446   2.861   4.717
 5643SOL    HW217829   5.554   2.797   4.820
 5644SOL     OW17830   3.583   0.363   6.355
 5644SOL    HW117831   3.577   0.462   6.356
 5644SOL    HW217832   3.577   0.330   6.261
 5645SOL     OW17833   5.362   2.469   4.856
 5645SOL    HW117834   5.345   2.378   4.892
 5645SOL    HW217835   5.277   2.507   4.819
 5646SOL     OW17836   1.878   4.624   2.684
 5646SOL    HW117837   1.844   4.538   2.722
 5646SOL    HW217838   1.837   4.701   2.732
 5647SOL     OW17839   6.897   5.953   2.545
 5647SOL    HW117840   6.969   6.020   2.529
 5647SOL    HW217841   6.885   5.897   2.463
 5648SOL     OW17842   4.345   6.755   3.213
 5648SOL    HW117843   4.285   6.723   3.286
 5648SOL    HW217844   4.296   6.822   3.157
 5649SOL     OW17845   1.012   6.364   3.940
 5649SOL    HW117846   0.986   6.423   3.864
 5649SOL    HW217847   1.044   6.420   4.016
 5650SOL     OW17848   6.620   4.548   0.123
 5650SOL    HW117849   6.710   4.523   0.088
 5650SOL    HW217850   6.549   4.500   0.070
 5651SOL     OW17851   2.006   0.819   2.186
 5651SOL    HW117852   2.043   0.732   2.152
 5651SOL    HW217853   1.910   0.827   2.160
 5652SOL     OW17854   1.210   5.994   1.525
 5652SOL    HW117855   1.232   6.032   1.615
 5652SOL    HW217856   1.111   5.983   1.517
 5653SOL     OW17857   6.863   6.587   1.091
 5653SOL    HW117858   6.765   6.599   1.108
 5653SOL    HW217859   6.887   6.629   1.004
 5654SOL     OW17860   3.220   5.554   4.416
 5654SOL    HW117861   3.160   5.563   4.337
 5654SOL    HW217862   3.315   5.549   4.386
 5655SOL     OW17863   6.025   2.884   4.792
 5655SOL    HW117864   6.053   2.927   4.706
 5655SOL    HW217865   5.932   2.911   4.814
 5656SOL     OW17866   0.133   3.361   0.157
 5656SOL    HW117867   0.159   3.295   0.228
 5656SOL    HW217868   0.200   3.357   0.083
 5657SOL     OW17869   4.802   5.708   5.646
 5657SOL    HW117870   4.899   5.723   5.628
 5657SOL    HW217871   4.771   5.769   5.719
 5658SOL     OW17872   2.649   2.920   5.852
 5658SOL    HW117873   2.582   2.942   5.781
 5658SOL    HW217874   2.601   2.908   5.940
 5659SOL     OW17875   3.826   4.241   6.664
 5659SOL    HW117876   3.728   4.258   6.663
 5659SOL    HW217877   3.861   4.245   6.758
 5660SOL     OW17878   4.262   0.915   6.169
 5660SOL    HW117879   4.233   0.933   6.075
 5660SOL    HW217880   4.202   0.964   6.232
 5661SOL     OW17881   1.069   5.205   5.236
 5661SOL    HW117882   1.128   5.219   5.315
 5661SOL    HW217883   1.087   5.115   5.196
 5662SOL     OW17884   2.655   6.421   2.348
 5662SOL    HW117885   2.662   6.322   2.336
 5662SOL    HW217886   2.742   6.464   2.322
 5663SOL     OW17887   1.185   2.959   6.285
 5663SOL    HW117888   1.244   2.940   6.364
 5663SOL    HW217889   1.237   3.009   6.216
 5664SOL     OW17890   4.766   4.499   4.663
 5664SOL    HW117891   4.736   4.473   4.755
 5664SOL    HW217892   4.781   4.598   4.659
 5665SOL     OW17893   1.959   2.515   0.789
 5665SOL    HW117894   1.934   2.419   0.772
 5665SOL    HW217895   1.996   2.524   0.881
 5666SOL     OW17896   5.516   1.451   5.075
 5666SOL    HW117897   5.477   1.452   4.983
 5666SOL    HW217898   5.615   1.468   5.069
 5667SOL     OW17899   2.577   5.183   4.026
 5667SOL    HW117900   2.671   5.204   4.051
 5667SOL    HW217901   2.551   5.094   4.064
 5668SOL     OW17902   5.136   3.098   3.590
 5668SOL    HW117903   5.236   3.091   3.586
 5668SOL    HW217904   5.097   3.049   3.512
 5669SOL     OW17905   6.260   4.462   6.230
 5669SOL    HW117906   6.312   4.483   6.147
 5669SOL    HW217907   6.274   4.365   6.254
 5670SOL     OW17908   0.013   1.788   2.800
 5670SOL    HW117909   0.063   1.865   2.840
 5670SOL    HW217910   0.015   1.795   2.700
 5671SOL     OW17911   0.005   6.436   3.323
 5671SOL    HW117912   7.016   6.523   3.274
 5671SOL    HW217913   7.009   6.452   3.421
 5672SOL     OW17914   4.819   2.908   5.471
 5672SOL    HW117915   4.795   2.859   5.555
 5672SOL    HW217916   4.875   2.987   5.494
 5673SOL     OW17917   0.450   1.039   0.716
 5673SOL    HW117918   0.517   1.007   0.650
 5673SOL    HW217919   0.497   1.082   0.793
 5674SOL     OW17920   2.186   4.796   5.659
 5674SOL    HW117921   2.138   4.882   5.642
 5674SOL    HW217922   2.123   4.719   5.645
 5675SOL     OW17923   2.970   2.162   1.034
 5675SOL    HW117924   2.970   2.062   1.038
 5675SOL    HW217925   3.064   2.196   1.038
 5676SOL     OW17926   2.648   1.939   2.011
 5676SOL    HW117927   2.653   1.840   2.028
 5676SOL    HW217928   2.560   1.973   2.043
 5677SOL     OW17929   6.349   1.123   0.748
 5677SOL    HW117930   6.392   1.073   0.823
 5677SOL    HW217931   6.287   1.193   0.785
 5678SOL     OW17932   3.158   2.202   1.875
 5678SOL    HW117933   3.092   2.208   1.800
 5678SOL    HW217934   3.109   2.207   1.962
 5679SOL     OW17935   6.299   3.602   5.077
 5679SOL    HW117936   6.353   3.611   5.160
 5679SOL    HW217937   6.235   3.679   5.070
 5680SOL     OW17938   1.406   5.963   5.333
 5680SOL    HW117939   1.356   5.879   5.353
 5680SOL    HW217940   1.388   6.031   5.404
 5681SOL     OW17941   1.058   3.672   4.211
 5681SOL    HW117942   1.003   3.623   4.144
 5681SOL    HW217943   1.129   3.725   4.163
 5682SOL     OW17944   1.902   4.506   2.162
 5682SOL    HW117945   1.923   4.525   2.258
 5682SOL    HW217946   1.811   4.466   2.154
 5683SOL     OW17947   6.934   1.399   6.046
 5683SOL    HW117948   6.918   1.463   6.121
 5683SOL    HW217949   6.941   1.306   6.082
 5684SOL     OW17950   1.880   2.460   5.013
 5684SOL    HW117951   1.845   2.448   5.106
 5684SOL    HW217952   1.945   2.387   4.992
 5685SOL     OW17953   2.273   2.200   2.663
 5685SOL    HW117954   2.224   2.158   2.739
 5685SOL    HW217955   2.367   2.167   2.661
 5686SOL     OW17956   3.789   5.389   6.030
 5686SOL    HW117957   3.765   5.398   6.126
 5686SOL    HW217958   3.776   5.295   6.000
 5687SOL     OW17959   2.193   6.739   6.802
 5687SOL    HW117960   2.102   6.763   6.767
 5687SOL    HW217961   2.183   6.688   6.888
 5688SOL     OW17962   2.310   2.083   3.219
 5688SOL    HW117963   2.225   2.045   3.182
 5688SOL    HW217964   2.388   2.036   3.178
 5689SOL     OW17965   0.594   2.641   1.466
 5689SOL    HW117966   0.501   2.614   1.491
 5689SOL    HW217967   0.623   2.719   1.522
 5690SOL     OW17968   1.857   5.224   0.565
 5690SOL    HW117969   1.932   5.159   0.559
 5690SOL    HW217970   1.778   5.180   0.608
 5691SOL     OW17971   3.581   1.253   2.499
 5691SOL    HW117972   3.582   1.322   2.426
 5691SOL    HW217973   3.490   1.212   2.504
 5692SOL     OW17974   4.624   4.923   1.701
 5692SOL    HW117975   4.636   4.861   1.623
 5692SOL    HW217976   4.712   4.966   1.722
 5693SOL     OW17977   4.323   0.894   1.111
 5693SOL    HW117978   4.376   0.918   1.193
 5693SOL    HW217979   4.228   0.876   1.137
 5694SOL     OW17980   0.957   6.173   1.681
 5694SOL    HW117981   1.029   6.122   1.729
 5694SOL    HW217982   0.996   6.256   1.642
 5695SOL     OW17983   2.172   0.398   1.192
 5695SOL    HW117984   2.240   0.357   1.252
 5695SOL    HW217985   2.081   0.390   1.233
 5696SOL     OW17986   1.757   0.531   3.985
 5696SOL    HW117987   1.740   0.516   3.888
 5696SOL    HW217988   1.674   0.513   4.037
 5697SOL     OW17989   6.615   3.235   0.413
 5697SOL    HW117990   6.701   3.185   0.414
 5697SOL    HW217991   6.628   3.322   0.366
 5698SOL     OW17992   2.836   2.270   3.746
 5698SOL    HW117993   2.812   2.324   3.826
 5698SOL    HW217994   2.757   2.263   3.685
 5699SOL     OW17995   1.914   2.932   2.694
 5699SOL    HW117996   1.849   2.963   2.624
 5699SOL    HW217997   1.872   2.940   2.784
 5700SOL     OW17998   6.276   0.348   2.918
 5700SOL    HW117999   6.266   0.257   2.877
 5700SOL    HW218000   6.280   0.417   2.845
 5701SOL     OW18001   0.467   0.920   1.130
 5701SOL    HW118002   0.411   0.849   1.087
 5701SOL    HW218003   0.564   0.897   1.121
 5702SOL     OW18004   2.552   6.775   4.553
 5702SOL    HW118005   2.633   6.831   4.533
 5702SOL    HW218006   2.502   6.757   4.468
 5703SOL     OW18007   6.967   2.833   6.224
 5703SOL    HW118008   6.994   2.826   6.320
 5703SOL    HW218009   0.031   2.825   6.166
 5704SOL     OW18010   4.479   5.089   4.197
 5704SOL    HW118011   4.384   5.087   4.165
 5704SOL    HW218012   4.509   5.184   4.206
 5705SOL     OW18013   6.164   6.964   5.193
 5705SOL    HW118014   6.235   6.995   5.129
 5705SOL    HW218015   6.186   6.997   5.285
 5706SOL     OW18016   5.069   1.953   6.856
 5706SOL    HW118017   5.049   2.002   6.941
 5706SOL    HW218018   5.163   1.921   6.856
 5707SOL     OW18019   5.081   5.986   2.280
 5707SOL    HW118020   5.069   6.064   2.219
 5707SOL    HW218021   5.038   6.006   2.368
 5708SOL     OW18022   4.397   5.735   2.785
 5708SOL    HW118023   4.468   5.784   2.735
 5708SOL    HW218024   4.332   5.695   2.721
 5709SOL     OW18025   0.178   1.825   2.211
 5709SOL    HW118026   0.090   1.777   2.212
 5709SOL    HW218027   0.189   1.875   2.297
 5710SOL     OW18028   3.675   1.838   1.455
 5710SOL    HW118029   3.651   1.922   1.505
 5710SOL    HW218030   3.592   1.783   1.442
 5711SOL     OW18031   5.393   1.824   2.364
 5711SOL    HW118032   5.448   1.866   2.437
 5711SOL    HW218033   5.453   1.784   2.296
 5712SOL     OW18034   6.113   0.325   1.311
 5712SOL    HW118035   6.153   0.407   1.268
 5712SOL    HW218036   6.082   0.262   1.239
 5713SOL     OW18037   2.436   0.375   0.762
 5713SOL    HW118038   2.426   0.429   0.845
 5713SOL    HW218039   2.526   0.330   0.762
 5714SOL     OW18040   6.339   6.994   0.846
 5714SOL    HW118041   6.436   6.988   0.869
 5714SOL    HW218042   6.308   0.072   0.857
 5715SOL     OW18043   0.091   0.421   1.514
 5715SOL    HW118044   0.033   0.487   1.562
 5715SOL    HW218045   0.098   0.338   1.568
 5716SOL     OW18046   6.475   5.057   5.213
 5716SOL    HW118047   6.451   5.007   5.296
 5716SOL    HW218048   6.433   5.148   5.215
 5717SOL     OW18049   1.403   5.212   3.210
 5717SOL    HW118050   1.345   5.261   3.275
 5717SOL    HW218051   1.415   5.268   3.128
 5718SOL     OW18052   0.808   3.035   0.054
 5718SOL    HW118053   0.774   3.105   0.117
 5718SOL    HW218054   0.905   3.052   0.034
 5719SOL     OW18055   2.085   3.314   0.718
 5719SOL    HW118056   2.073   3.240   0.653
 5719SOL    HW218057   2.165   3.369   0.693
 5720SOL     OW18058   2.458   4.707   6.292
 5720SOL    HW118059   2.366   4.746   6.284
 5720SOL    HW218060   2.473   4.640   6.218
 5721SOL     OW18061   2.296   3.262   0.335
 5721SOL    HW118062   2.257   3.170   0.329
 5721SOL    HW218063   2.376   3.268   0.275
 5722SOL     OW18064   1.566   0.896   6.153
 5722SOL    HW118065   1.605   0.870   6.241
 5722SOL    HW218066   1.500   0.969   6.167
 5723SOL     OW18067   4.263   3.311   0.980
 5723SOL    HW118068   4.234   3.356   1.065
 5723SOL    HW218069   4.216   3.353   0.902
 5724SOL     OW18070   5.159   1.972   5.030
 5724SOL    HW118071   5.214   2.020   5.098
 5724SOL    HW218072   5.120   2.037   4.965
 5725SOL     OW18073   6.891   4.202   4.770
 5725SOL    HW118074   6.811   4.144   4.784
 5725SOL    HW218075   6.974   4.150   4.790
 5726SOL     OW18076   5.394   4.416   2.456
 5726SOL    HW118077   5.337   4.393   2.378
 5726SOL    HW218078   5.390   4.342   2.523
 5727SOL     OW18079   0.716   1.651   4.905
 5727SOL    HW118080   0.677   1.735   4.866
 5727SOL    HW218081   0.788   1.617   4.845
 5728SOL     OW18082   4.530   6.793   5.105
 5728SOL    HW118083   4.498   6.868   5.047
 5728SOL    HW218084   4.528   6.707   5.053
 5729SOL     OW18085   2.151   2.026   5.009
 5729SOL    HW118086   2.121   2.031   5.104
 5729SOL    HW218087   2.076   1.990   4.952
 5730SOL     OW18088   6.996   3.556   4.741
 5730SOL    HW118089   0.054   3.585   4.682
 5730SOL    HW218090   6.947   3.480   4.698
 5731SOL     OW18091   0.313   6.719   2.526
 5731SOL    HW118092   0.344   6.791   2.589
 5731SOL    HW218093   0.393   6.676   2.485
 5732SOL     OW18094   0.869   6.977   3.641
 5732SOL    HW118095   0.795   6.910   3.652
 5732SOL    HW218096   0.957   6.929   3.645
 5733SOL     OW18097   3.231   6.848   5.822
 5733SOL    HW118098   3.199   6.811   5.735
 5733SOL    HW218099   3.261   6.943   5.808
 5734SOL     OW18100   2.026   6.126   3.392
 5734SOL    HW118101   2.055   6.032   3.374
 5734SOL    HW218102   2.105   6.180   3.422
 5735SOL     OW18103   3.111   1.084   1.541
 5735SOL    HW118104   3.161   1.170   1.538
 5735SOL    HW218105   3.014   1.101   1.524
 5736SOL     OW18106   1.161   5.278   6.576
 5736SOL    HW118107   1.189   5.184   6.597
 5736SOL    HW218108   1.217   5.342   6.629
 5737SOL     OW18109   5.397   4.627   0.866
 5737SOL    HW118110   5.304   4.604   0.892
 5737SOL    HW218111   5.462   4.571   0.918
 5738SOL     OW18112   1.390   4.313   6.026
 5738SOL    HW118113   1.384   4.220   5.991
 5738SOL    HW218114   1.300   4.341   6.061
 5739SOL     OW18115   0.804   1.553   1.468
 5739SOL    HW118116   0.807   1.597   1.558
 5739SOL    HW218117   0.885   1.496   1.457
 5740SOL     OW18118   4.072   5.943   6.138
 5740SOL    HW118119   4.026   5.885   6.071
 5740SOL    HW218120   4.024   6.030   6.145
 5741SOL     OW18121   0.046   4.656   3.184
 5741SOL    HW118122   6.994   4.722   3.151
 5741SOL    HW218123   0.000   4.585   3.237
 5742SOL     OW18124   6.960   6.466   4.623
 5742SOL    HW118125   6.960   6.507   4.532
 5742SOL    HW218126   6.870   6.427   4.642
 5743SOL     OW18127   1.828   6.962   4.223
 5743SOL    HW118128   1.773   0.029   4.233
 5743SOL    HW218129   1.900   6.961   4.292
 5744SOL     OW18130   5.422   6.548   1.813
 5744SOL    HW118131   5.341   6.595   1.777
 5744SOL    HW218132   5.504   6.600   1.790
 5745SOL     OW18133   0.988   1.933   3.709
 5745SOL    HW118134   0.919   1.869   3.677
 5745SOL    HW218135   1.021   1.988   3.632
 5746SOL     OW18136   6.127   4.602   0.182
 5746SOL    HW118137   6.175   4.671   0.128
 5746SOL    HW218138   6.037   4.636   0.207
 5747SOL     OW18139   0.557   6.491   2.757
 5747SOL    HW118140   0.531   6.431   2.832
 5747SOL    HW218141   0.525   6.453   2.671
 5748SOL     OW18142   2.053   6.607   3.336
 5748SOL    HW118143   1.973   6.551   3.356
 5748SOL    HW218144   2.126   6.550   3.298
 5749SOL     OW18145   2.130   1.915   3.120
 5749SOL    HW118146   2.146   1.835   3.178
 5749SOL    HW218147   2.054   1.897   3.058
 5750SOL     OW18148   6.266   5.341   2.667
 5750SOL    HW118149   6.189   5.281   2.688
 5750SOL    HW218150   6.315   5.306   2.586
 5751SOL     OW18151   2.116   2.817   6.121
 5751SOL    HW118152   2.199   2.872   6.112
 5751SOL    HW218153   2.128   2.751   6.196
 5752SOL     OW18154   6.825   1.118   6.914
 5752SOL    HW118155   6.807   1.211   6.947
 5752SOL    HW218156   6.924   1.099   6.919
 5753SOL     OW18157   4.335   2.133   0.389
 5753SOL    HW118158   4.360   2.078   0.310
 5753SOL    HW218159   4.237   2.155   0.385
 5754SOL     OW18160   6.062   4.722   0.989
 5754SOL    HW118161   6.111   4.786   1.049
 5754SOL    HW218162   6.025   4.771   0.911
 5755SOL     OW18163   3.417   3.673   1.517
 5755SOL    HW118164   3.506   3.716   1.533
 5755SOL    HW218165   3.410   3.589   1.570
 5756SOL     OW18166   7.006   6.605   4.235
 5756SOL    HW118167   6.977   6.696   4.265
 5756SOL    HW218168   0.071   6.578   4.286
 5757SOL     OW18169   0.441   5.741   1.829
 5757SOL    HW118170   0.423   5.654   1.875
 5757SOL    HW218171   0.535   5.743   1.798
 5758SOL     OW18172   1.717   1.493   5.447
 5758SOL    HW118173   1.668   1.511   5.532
 5758SOL    HW218174   1.764   1.405   5.454
 5759SOL     OW18175   6.263   1.770   5.432
 5759SOL    HW118176   6.200   1.724   5.369
 5759SOL    HW218177   6.213   1.798   5.514
 5760SOL     OW18178   1.889   5.321   1.589
 5760SOL    HW118179   1.933   5.234   1.569
 5760SOL    HW218180   1.806   5.305   1.642
 5761SOL     OW18181   5.371   1.028   4.987
 5761SOL    HW118182   5.418   1.106   5.027
 5761SOL    HW218183   5.375   1.033   4.887
 5762SOL     OW18184   5.791   6.337   1.417
 5762SOL    HW118185   5.724   6.310   1.348
 5762SOL    HW218186   5.752   6.327   1.508
 5763SOL     OW18187   1.509   1.714   1.277
 5763SOL    HW118188   1.517   1.640   1.210
 5763SOL    HW218189   1.601   1.739   1.309
 5764SOL     OW18190   4.627   3.212   5.753
 5764SOL    HW118191   4.566   3.171   5.685
 5764SOL    HW218192   4.665   3.297   5.716
 5765SOL     OW18193   5.936   4.681   0.364
 5765SOL    HW118194   5.986   4.767   0.373
 5765SOL    HW218195   5.926   4.638   0.454
 5766SOL     OW18196   2.615   0.996   3.511
 5766SOL    HW118197   2.689   0.944   3.553
 5766SOL    HW218198   2.529   0.977   3.558
 5767SOL     OW18199   6.609   7.011   0.927
 5767SOL    HW118200   6.647   6.921   0.947
 5767SOL    HW218201   6.660   0.037   0.853
 5768SOL     OW18202   6.014   0.656   2.727
 5768SOL    HW118203   5.972   0.653   2.637
 5768SOL    HW218204   5.947   0.631   2.796
 5769SOL     OW18205   2.073   5.850   3.321
 5769SOL    HW118206   2.041   5.759   3.346
 5769SOL    HW218207   2.169   5.860   3.345
 5770SOL     OW18208   6.247   1.065   1.660
 5770SOL    HW118209   6.288   1.154   1.681
 5770SOL    HW218210   6.284   0.996   1.722
 5771SOL     OW18211   0.604   1.416   1.846
 5771SOL    HW118212   0.611   1.404   1.945
 5771SOL    HW218213   0.687   1.382   1.802
 5772SOL     OW18214   6.859   4.461   7.005
 5772SOL    HW118215   6.891   4.454   6.910
 5772SOL    HW218216   6.861   4.371   0.031
 5773SOL     OW18217   5.481   6.041   4.215
 5773SOL    HW118218   5.389   6.010   4.239
 5773SOL    HW218219   5.517   6.098   4.289
 5774SOL     OW18220   2.760   5.068   2.541
 5774SOL    HW118221   2.763   5.080   2.640
 5774SOL    HW218222   2.670   5.036   2.514
 5775SOL     OW18223   0.749   0.413   0.342
 5775SOL    HW118224   0.687   0.446   0.271
 5775SOL    HW218225   0.735   0.467   0.426
 5776SOL     OW18226   4.779   1.212   5.973
 5776SOL    HW118227   4.741   1.304   5.982
 5776SOL    HW218228   4.820   1.185   6.060
 5777SOL     OW18229   5.953   0.785   5.624
 5777SOL    HW118230   5.911   0.870   5.592
 5777SOL    HW218231   5.935   0.712   5.558
 5778SOL     OW18232   2.479   0.034   3.673
 5778SOL    HW118233   2.512   0.054   3.581
 5778SOL    HW218234   2.426   0.112   3.707
 5779SOL     OW18235   4.256   1.050   1.839
 5779SOL    HW118236   4.235   0.953   1.849
 5779SOL    HW218237   4.213   1.101   1.913
 5780SOL     OW18238   5.917   3.606   1.418
 5780SOL    HW118239   5.845   3.662   1.377
 5780SOL    HW218240   5.929   3.522   1.364
 5781SOL     OW18241   2.792   4.872   5.133
 5781SOL    HW118242   2.874   4.911   5.175
 5781SOL    HW218243   2.819   4.795   5.075
 5782SOL     OW18244   3.687   1.354   3.321
 5782SOL    HW118245   3.749   1.393   3.254
 5782SOL    HW218246   3.727   1.271   3.360
 5783SOL     OW18247   2.745   6.451   1.576
 5783SOL    HW118248   2.709   6.533   1.619
 5783SOL    HW218249   2.726   6.372   1.634
 5784SOL     OW18250   1.293   5.306   0.215
 5784SOL    HW118251   1.345   5.365   0.277
 5784SOL    HW218252   1.226   5.253   0.267
 5785SOL     OW18253   2.721   1.202   0.173
 5785SOL    HW118254   2.704   1.124   0.114
 5785SOL    HW218255   2.820   1.217   0.180
 5786SOL     OW18256   1.013   3.327   0.018
 5786SOL    HW118257   1.094   3.277   0.049
 5786SOL    HW218258   1.020   3.345   6.936
 5787SOL     OW18259   0.333   3.210   5.414
 5787SOL    HW118260   0.370   3.237   5.325
 5787SOL    HW218261   0.268   3.135   5.400
 5788SOL     OW18262   2.064   2.560   2.185
 5788SOL    HW118263   2.155   2.548   2.227
 5788SOL    HW218264   2.046   2.482   2.124
 5789SOL     OW18265   2.773   5.017   6.955
 5789SOL    HW118266   2.751   5.060   0.026
 5789SOL    HW218267   2.871   5.000   6.950
 5790SOL     OW18268   6.662   6.256   3.088
 5790SOL    HW118269   6.601   6.177   3.085
 5790SOL    HW218270   6.704   6.263   3.179
 5791SOL     OW18271   4.296   1.644   1.177
 5791SOL    HW118272   4.216   1.659   1.120
 5791SOL    HW218273   4.283   1.689   1.265
 5792SOL     OW18274   4.310   2.343   3.055
 5792SOL    HW118275   4.255   2.292   2.989
 5792SOL    HW218276   4.265   2.341   3.144
 5793SOL     OW18277   3.766   2.442   6.871
 5793SOL    HW118278   3.692   2.442   6.938
 5793SOL    HW218279   3.839   2.381   6.903
 5794SOL     OW18280   3.659   6.114   6.854
 5794SOL    HW118281   3.736   6.050   6.850
 5794SOL    HW218282   3.578   6.070   6.813
 5795SOL     OW18283   2.020   6.851   1.794
 5795SOL    HW118284   2.091   6.887   1.734
 5795SOL    HW218285   2.038   6.755   1.815
 5796SOL     OW18286   4.980   0.733   6.667
 5796SOL    HW118287   5.011   0.713   6.574
 5796SOL    HW218288   4.992   0.651   6.723
 5797SOL     OW18289   0.043   2.830   0.648
 5797SOL    HW118290   0.121   2.884   0.679
 5797SOL    HW218291   0.020   2.761   0.717
 5798SOL     OW18292   1.669   3.489   4.329
 5798SOL    HW118293   1.671   3.468   4.231
 5798SOL    HW218294   1.680   3.404   4.381
 5799SOL     OW18295   2.908   0.156   3.322
 5799SOL    HW118296   2.977   0.105   3.271
 5799SOL    HW218297   2.858   0.094   3.382
 5800SOL     OW18298   1.045   0.205   2.007
 5800SOL    HW118299   1.023   0.219   1.911
 5800SOL    HW218300   1.071   0.110   2.021
 5801SOL     OW18301   1.675   1.358   2.330
 5801SOL    HW118302   1.579   1.375   2.353
 5801SOL    HW218303   1.682   1.272   2.280
 5802SOL     OW18304   0.458   0.043   2.986
 5802SOL    HW118305   0.444   6.991   3.057
 5802SOL    HW218306   0.384   0.111   2.990
 5803SOL     OW18307   0.664   6.177   4.588
 5803SOL    HW118308   0.687   6.096   4.642
 5803SOL    HW218309   0.630   6.149   4.498
 5804SOL     OW18310   5.844   2.323   3.378
 5804SOL    HW118311   5.891   2.251   3.429
 5804SOL    HW218312   5.800   2.283   3.297
 5805SOL     OW18313   1.350   2.978   2.358
 5805SOL    HW118314   1.408   2.970   2.277
 5805SOL    HW218315   1.390   2.925   2.433
 5806SOL     OW18316   6.753   3.831   2.501
 5806SOL    HW118317   6.678   3.859   2.561
 5806SOL    HW218318   6.789   3.911   2.453
 5807SOL     OW18319   1.284   1.339   1.916
 5807SOL    HW118320   1.277   1.397   1.997
 5807SOL    HW218321   1.268   1.244   1.942
 5808SOL     OW18322   0.129   0.384   5.863
 5808SOL    HW118323   0.178   0.471   5.865
 5808SOL    HW218324   0.188   0.312   5.898
 5809SOL     OW18325   0.397   2.991   4.992
 5809SOL    HW118326   0.332   3.015   5.065
 5809SOL    HW218327   0.455   3.070   4.973
 5810SOL     OW18328   2.509   6.347   4.912
 5810SOL    HW118329   2.460   6.361   4.998
 5810SOL    HW218330   2.604   6.378   4.922
 5811SOL     OW18331   3.937   4.266   6.929
 5811SOL    HW118332   3.939   4.252   0.012
 5811SOL    HW218333   3.927   4.363   6.909
 5812SOL     OW18334   5.715   2.783   6.383
 5812SOL    HW118335   5.694   2.853   6.315
 5812SOL    HW218336   5.721   2.694   6.337
 5813SOL     OW18337   5.092   5.083   0.663
 5813SOL    HW118338   5.078   5.014   0.592
 5813SOL    HW218339   5.008   5.094   0.716
 5814SOL     OW18340   5.928   0.831   2.080
 5814SOL    HW118341   5.894   0.910   2.030
 5814SOL    HW218342   5.958   0.859   2.171
 5815SOL     OW18343   6.189   3.195   4.731
 5815SOL    HW118344   6.105   3.165   4.686
 5815SOL    HW218345   6.196   3.151   4.821
 5816SOL     OW18346   0.082   3.854   1.960
 5816SOL    HW118347   0.135   3.833   1.878
 5816SOL    HW218348   0.120   3.936   2.004
 5817SOL     OW18349   6.021   3.051   3.235
 5817SOL    HW118350   6.118   3.024   3.237
 5817SOL    HW218351   6.013   3.141   3.192
 5818SOL     OW18352   2.123   0.227   4.683
 5818SOL    HW118353   2.112   0.312   4.735
 5818SOL    HW218354   2.208   0.231   4.631
 5819SOL     OW18355   3.788   3.953   0.569
 5819SOL    HW118356   3.878   3.996   0.569
 5819SOL    HW218357   3.717   4.023   0.556
 5820SOL     OW18358   6.412   6.909   2.967
 5820SOL    HW118359   6.424   6.828   2.909
 5820SOL    HW218360   6.347   6.972   2.924
 5821SOL     OW18361   6.514   0.046   1.812
 5821SOL    HW118362   6.528   0.135   1.856
 5821SOL    HW218363   6.501   6.993   1.883
 5822SOL     OW18364   0.852   3.999   2.463
 5822SOL    HW118365   0.870   3.918   2.519
 5822SOL    HW218366   0.759   3.995   2.428
 5823SOL     OW18367   2.418   6.814   4.060
 5823SOL    HW118368   2.407   6.832   3.962
 5823SOL    HW218369   2.354   6.869   4.112
 5824SOL     OW18370   1.905   6.833   2.452
 5824SOL    HW118371   1.831   6.827   2.518
 5824SOL    HW218372   1.993   6.829   2.501
 5825SOL     OW18373   4.798   1.597   4.239
 5825SOL    HW118374   4.712   1.592   4.291
 5825SOL    HW218375   4.790   1.542   4.156
 5826SOL     OW18376   1.557   6.466   5.050
 5826SOL    HW118377   1.470   6.463   5.100
 5826SOL    HW218378   1.561   6.389   4.987
 5827SOL     OW18379   2.158   3.667   3.520
 5827SOL    HW118380   2.253   3.693   3.533
 5827SOL    HW218381   2.152   3.595   3.450
 5828SOL     OW18382   4.677   0.561   5.423
 5828SOL    HW118383   4.761   0.508   5.429
 5828SOL    HW218384   4.678   0.617   5.340
 5829SOL     OW18385   1.924   0.732   3.017
 5829SOL    HW118386   1.884   0.680   3.094
 5829SOL    HW218387   1.870   0.715   2.935
 5830SOL     OW18388   4.088   5.336   4.249
 5830SOL    HW118389   4.042   5.361   4.164
 5830SOL    HW218390   4.041   5.259   4.292
 5831SOL     OW18391   2.124   2.306   4.917
 5831SOL    HW118392   2.144   2.208   4.922
 5831SOL    HW218393   2.164   2.344   4.833
 5832SOL     OW18394   2.868   5.592   2.531
 5832SOL    HW118395   2.908   5.559   2.445
 5832SOL    HW218396   2.941   5.630   2.588
 5833SOL     OW18397   3.667   5.533   0.133
 5833SOL    HW118398   3.689   5.629   0.154
 5833SOL    HW218399   3.728   5.473   0.184
 5834SOL     OW18400   6.440   3.501   6.091
 5834SOL    HW118401   6.444   3.506   5.991
 5834SOL    HW218402   6.516   3.554   6.130
 5835SOL     OW18403   4.606   1.794   3.118
 5835SOL    HW118404   4.582   1.859   3.191
 5835SOL    HW218405   4.536   1.723   3.113
 5836SOL     OW18406   4.570   6.372   1.986
 5836SOL    HW118407   4.563   6.349   2.083
 5836SOL    HW218408   4.484   6.414   1.955
 5837SOL     OW18409   3.119   4.581   6.650
 5837SOL    HW118410   3.204   4.634   6.645
 5837SOL    HW218411   3.077   4.594   6.740
 5838SOL     OW18412   3.774   3.124   0.323
 5838SOL    HW118413   3.736   3.190   0.388
 5838SOL    HW218414   3.771   3.032   0.362
 5839SOL     OW18415   1.996   2.010   0.516
 5839SOL    HW118416   2.023   2.037   0.608
 5839SOL    HW218417   2.075   2.014   0.455
 5840SOL     OW18418   0.834   3.925   3.346
 5840SOL    HW118419   0.917   3.961   3.302
 5840SOL    HW218420   0.812   3.836   3.307
 5841SOL     OW18421   5.362   1.530   6.942
 5841SOL    HW118422   5.412   1.472   6.878
 5841SOL    HW218423   5.399   1.623   6.939
 5842SOL     OW18424   3.256   1.944   1.569
 5842SOL    HW118425   3.318   1.924   1.645
 5842SOL    HW218426   3.163   1.918   1.594
 5843SOL     OW18427   3.781   3.162   0.058
 5843SOL    HW118428   3.757   3.130   0.149
 5843SOL    HW218429   3.871   3.125   0.032
 5844SOL     OW18430   0.270   5.985   5.255
 5844SOL    HW118431   0.294   5.986   5.352
 5844SOL    HW218432   0.332   5.924   5.206
 5845SOL     OW18433   1.600   0.441   2.533
 5845SOL    HW118434   1.634   0.398   2.449
 5845SOL    HW218435   1.615   0.379   2.610
 5846SOL     OW18436   1.167   4.143   5.160
 5846SOL    HW118437   1.082   4.093   5.174
 5846SOL    HW218438   1.174   4.172   5.065
 5847SOL     OW18439   1.574   3.968   6.282
 5847SOL    HW118440   1.598   3.938   6.190
 5847SOL    HW218441   1.513   4.047   6.277
 5848SOL     OW18442   2.207   6.042   1.782
 5848SOL    HW118443   2.280   6.018   1.718
 5848SOL    HW218444   2.119   6.017   1.743
 5849SOL     OW18445   2.594   5.219   6.353
 5849SOL    HW118446   2.508   5.268   6.342
 5849SOL    HW218447   2.669   5.285   6.362
 5850SOL     OW18448   0.683   1.859   1.525
 5850SOL    HW118449   0.687   1.813   1.614
 5850SOL    HW218450   0.587   1.870   1.498
 5851SOL     OW18451   6.188   3.601   4.532
 5851SOL    HW118452   6.197   3.534   4.606
 5851SOL    HW218453   6.278   3.623   4.495
 5852SOL     OW18454   4.760   4.156   2.225
 5852SOL    HW118455   4.758   4.125   2.321
 5852SOL    HW218456   4.667   4.167   2.192
 5853SOL     OW18457   4.385   4.892   6.471
 5853SOL    HW118458   4.378   4.934   6.561
 5853SOL    HW218459   4.321   4.936   6.408
 5854SOL     OW18460   3.258   5.086   5.200
 5854SOL    HW118461   3.264   4.998   5.153
 5854SOL    HW218462   3.196   5.146   5.151
 5855SOL     OW18463   2.487   2.612   3.052
 5855SOL    HW118464   2.542   2.693   3.069
 5855SOL    HW218465   2.429   2.594   3.132
 5856SOL     OW18466   0.883   6.759   3.034
 5856SOL    HW118467   0.961   6.744   2.973
 5856SOL    HW218468   0.848   6.852   3.021
 5857SOL     OW18469   5.563   4.800   6.421
 5857SOL    HW118470   5.558   4.719   6.479
 5857SOL    HW218471   5.631   4.785   6.349
 5858SOL     OW18472   2.026   1.583   2.792
 5858SOL    HW118473   2.096   1.597   2.862
 5858SOL    HW218474   1.936   1.591   2.834
 5859SOL     OW18475   5.479   5.520   1.999
 5859SOL    HW118476   5.526   5.607   1.980
 5859SOL    HW218477   5.497   5.493   2.093
 5860SOL     OW18478   0.530   4.286   2.863
 5860SOL    HW118479   0.526   4.258   2.767
 5860SOL    HW218480   0.556   4.207   2.919
 5861SOL     OW18481   4.753   0.823   5.781
 5861SOL    HW118482   4.743   0.842   5.878
 5861SOL    HW218483   4.850   0.830   5.755
 5862SOL     OW18484   6.622   5.107   3.610
 5862SOL    HW118485   6.534   5.154   3.621
 5862SOL    HW218486   6.637   5.087   3.513
 5863SOL     OW18487   4.219   0.144   6.074
 5863SOL    HW118488   4.226   0.050   6.108
 5863SOL    HW218489   4.305   0.192   6.090
 5864SOL     OW18490   3.789   3.481   2.382
 5864SOL    HW118491   3.692   3.498   2.363
 5864SOL    HW218492   3.802   3.470   2.481
 5865SOL     OW18493   6.527   0.440   6.672
 5865SOL    HW118494   6.466   0.443   6.751
 5865SOL    HW218495   6.491   0.498   6.599
 5866SOL     OW18496   2.991   3.230   2.564
 5866SOL    HW118497   3.089   3.252   2.563
 5866SOL    HW218498   2.938   3.315   2.560
 5867SOL     OW18499   3.434   1.495   1.583
 5867SOL    HW118500   3.475   1.493   1.491
 5867SOL    HW218501   3.467   1.575   1.633
 5868SOL     OW18502   1.125   0.526   0.673
 5868SOL    HW118503   1.027   0.522   0.654
 5868SOL    HW218504   1.175   0.491   0.594
 5869SOL     OW18505   1.213   5.654   3.215
 5869SOL    HW118506   1.213   5.555   3.227
 5869SOL    HW218507   1.160   5.677   3.133
 5870SOL     OW18508   3.990   0.359   3.935
 5870SOL    HW118509   4.016   0.455   3.937
 5870SOL    HW218510   3.939   0.337   4.018
 5871SOL     OW18511   3.824   2.965   3.670
 5871SOL    HW118512   3.736   2.934   3.634
 5871SOL    HW218513   3.858   2.898   3.736
 5872SOL     OW18514   4.168   6.222   0.564
 5872SOL    HW118515   4.234   6.221   0.490
 5872SOL    HW218516   4.127   6.313   0.572
 5873SOL     OW18517   3.603   6.068   1.957
 5873SOL    HW118518   3.685   6.012   1.963
 5873SOL    HW218519   3.523   6.009   1.943
 5874SOL     OW18520   0.890   4.041   5.135
 5874SOL    HW118521   0.818   3.973   5.124
 5874SOL    HW218522   0.853   4.132   5.116
 5875SOL     OW18523   3.965   1.732   1.401
 5875SOL    HW118524   3.878   1.715   1.446
 5875SOL    HW218525   4.020   1.648   1.403
 5876SOL     OW18526   3.343   3.625   2.012
 5876SOL    HW118527   3.327   3.669   1.924
 5876SOL    HW218528   3.256   3.601   2.055
 5877SOL     OW18529   5.536   4.676   1.358
 5877SOL    HW118530   5.630   4.658   1.388
 5877SOL    HW218531   5.538   4.735   1.277
 5878SOL     OW18532   1.832   4.018   2.899
 5878SOL    HW118533   1.817   4.083   2.974
 5878SOL    HW218534   1.758   4.027   2.833
 5879SOL     OW18535   0.967   4.279   3.805
 5879SOL    HW118536   0.982   4.377   3.791
 5879SOL    HW218537   1.025   4.247   3.880
 5880SOL     OW18538   3.510   6.254   0.023
 5880SOL    HW118539   3.557   6.193   6.976
 5880SOL    HW218540   3.413   6.232   0.025
 5881SOL     OW18541   1.011   5.838   4.323
 5881SOL    HW118542   1.106   5.845   4.290
 5881SOL    HW218543   1.011   5.811   4.419
 5882SOL     OW18544   4.722   0.490   2.825
 5882SOL    HW118545   4.633   0.536   2.815
 5882SOL    HW218546   4.708   0.392   2.832
 5883SOL     OW18547   0.579   3.182   5.262
 5883SOL    HW118548   0.646   3.112   5.288
 5883SOL    HW218549   0.616   3.272   5.284
 5884SOL     OW18550   0.780   0.753   3.179
 5884SOL    HW118551   0.857   0.813   3.159
 5884SOL    HW218552   0.759   0.757   3.277
 5885SOL     OW18553   5.938   6.124   1.279
 5885SOL    HW118554   5.838   6.125   1.277
 5885SOL    HW218555   5.971   6.210   1.316
 5886SOL     OW18556   0.501   1.253   6.537
 5886SOL    HW118557   0.580   1.285   6.589
 5886SOL    HW218558   0.530   1.221   6.447
 5887SOL     OW18559   3.881   6.467   2.960
 5887SOL    HW118560   3.818   6.533   2.919
 5887SOL    HW218561   3.949   6.515   3.015
 5888SOL     OW18562   0.570   0.973   2.646
 5888SOL    HW118563   0.541   0.913   2.722
 5888SOL    HW218564   0.638   1.038   2.680
 5889SOL     OW18565   2.445   6.889   6.772
 5889SOL    HW118566   2.451   6.852   6.679
 5889SOL    HW218567   2.366   6.849   6.818
 5890SOL     OW18568   3.180   4.613   5.440
 5890SOL    HW118569   3.206   4.664   5.522
 5890SOL    HW218570   3.220   4.522   5.444
 5891SOL     OW18571   2.347   3.953   6.656
 5891SOL    HW118572   2.268   3.988   6.605
 5891SOL    HW218573   2.353   3.854   6.645
 5892SOL     OW18574   2.263   6.813   2.489
 5892SOL    HW118575   2.334   6.824   2.559
 5892SOL    HW218576   2.234   6.718   2.486
 5893SOL     OW18577   1.627   0.965   3.468
 5893SOL    HW118578   1.623   0.982   3.370
 5893SOL    HW218579   1.639   0.867   3.485
 5894SOL     OW18580   0.620   3.381   4.037
 5894SOL    HW118581   0.667   3.360   3.951
 5894SOL    HW218582   0.522   3.383   4.021
 5895SOL     OW18583   5.597   3.857   3.544
 5895SOL    HW118584   5.665   3.868   3.472
 5895SOL    HW218585   5.589   3.943   3.595
 5896SOL     OW18586   4.795   2.793   5.802
 5896SOL    HW118587   4.865   2.739   5.755
 5896SOL    HW218588   4.826   2.888   5.810
 5897SOL     OW18589   4.415   6.703   1.710
 5897SOL    HW118590   4.445   6.762   1.786
 5897SOL    HW218591   4.341   6.749   1.660
 5898SOL     OW18592   2.746   6.814   2.833
 5898SOL    HW118593   2.773   6.733   2.782
 5898SOL    HW218594   2.664   6.854   2.791
 5899SOL     OW18595   5.676   0.820   3.626
 5899SOL    HW118596   5.671   0.902   3.569
 5899SOL    HW218597   5.613   0.751   3.591
 5900SOL     OW18598   3.901   4.858   2.614
 5900SOL    HW118599   3.808   4.871   2.650
 5900SOL    HW218600   3.899   4.858   2.514
 5901SOL     OW18601   3.119   6.294   4.890
 5901SOL    HW118602   3.175   6.236   4.949
 5901SOL    HW218603   3.098   6.244   4.806
 5902SOL     OW18604   6.055   1.910   6.972
 5902SOL    HW118605   6.114   1.910   6.892
 5902SOL    HW218606   6.103   1.871   0.034
 5903SOL     OW18607   6.774   3.864   6.702
 5903SOL    HW118608   6.701   3.888   6.638
 5903SOL    HW218609   6.860   3.906   6.672
 5904SOL     OW18610   0.665   3.843   1.850
 5904SOL    HW118611   0.569   3.817   1.845
 5904SOL    HW218612   0.705   3.809   1.935
 5905SOL     OW18613   6.514   4.920   1.973
 5905SOL    HW118614   6.460   4.874   1.903
 5905SOL    HW218615   6.527   4.859   2.052
 5906SOL     OW18616   0.098   1.449   3.908
 5906SOL    HW118617   0.128   1.531   3.957
 5906SOL    HW218618   0.108   1.463   3.809
 5907SOL     OW18619   2.099   0.453   2.421
 5907SOL    HW118620   2.025   0.431   2.358
 5907SOL    HW218621   2.102   0.385   2.494
 5908SOL     OW18622   0.176   2.390   6.307
 5908SOL    HW118623   0.254   2.412   6.366
 5908SOL    HW218624   0.100   2.357   6.363
 5909SOL     OW18625   6.966   3.950   0.746
 5909SOL    HW118626   6.997   3.862   0.710
 5909SOL    HW218627   6.924   4.003   0.672
 5910SOL     OW18628   2.043   1.842   3.983
 5910SOL    HW118629   1.997   1.853   4.071
 5910SOL    HW218630   2.001   1.766   3.933
 5911SOL     OW18631   6.578   6.016   6.768
 5911SOL    HW118632   6.524   6.095   6.798
 5911SOL    HW218633   6.627   6.039   6.684
 5912SOL     OW18634   0.887   0.363   3.960
 5912SOL    HW118635   0.871   0.264   3.953
 5912SOL    HW218636   0.949   0.391   3.887
 5913SOL     OW18637   6.199   1.935   0.588
 5913SOL    HW118638   6.277   1.997   0.595
 5913SOL    HW218639   6.138   1.967   0.516
 5914SOL     OW18640   1.152   6.180   0.300
 5914SOL    HW118641   1.203   6.261   0.326
 5914SOL    HW218642   1.214   6.101   0.297
 5915SOL     OW18643   3.800   1.616   5.945
 5915SOL    HW118644   3.887   1.661   5.969
 5915SOL    HW218645   3.734   1.685   5.916
 5916SOL     OW18646   0.554   6.877   1.843
 5916SOL    HW118647   0.648   6.908   1.852
 5916SOL    HW218648   0.498   6.916   1.917
 5917SOL     OW18649   3.627   4.284   0.269
 5917SOL    HW118650   3.670   4.211   0.216
 5917SOL    HW218651   3.662   4.372   0.239
 5918SOL     OW18652   2.916   6.627   4.633
 5918SOL    HW118653   2.852   6.654   4.704
 5918SOL    HW218654   2.940   6.530   4.645
 5919SOL     OW18655   3.285   3.243   4.635
 5919SOL    HW118656   3.318   3.332   4.603
 5919SOL    HW218657   3.239   3.254   4.723
 5920SOL     OW18658   6.795   0.282   5.740
 5920SOL    HW118659   6.829   0.376   5.745
 5920SOL    HW218660   6.856   0.222   5.793
 5921SOL     OW18661   2.362   4.125   6.862
 5921SOL    HW118662   2.368   4.070   6.779
 5921SOL    HW218663   2.268   4.125   6.895
 5922SOL     OW18664   4.993   2.930   2.300
 5922SOL    HW118665   5.063   2.883   2.353
 5922SOL    HW218666   4.903   2.889   2.318
 5923SOL     OW18667   5.932   1.288   3.497
 5923SOL    HW118668   5.851   1.274   3.441
 5923SOL    HW218669   5.993   1.209   3.487
 5924SOL     OW18670   5.215   6.754   3.523
 5924SOL    HW118671   5.239   6.715   3.433
 5924SOL    HW218672   5.118   6.738   3.541
 5925SOL     OW18673   4.668   1.341   1.135
 5925SOL    HW118674   4.705   1.284   1.062
 5925SOL    HW218675   4.568   1.344   1.127
 5926SOL     OW18676   4.982   4.238   3.442
 5926SOL    HW118677   5.067   4.234   3.390
 5926SOL    HW218678   5.002   4.241   3.540
 5927SOL     OW18679   0.240   4.929   2.142
 5927SOL    HW118680   0.301   4.869   2.091
 5927SOL    HW218681   0.293   4.992   2.198
 5928SOL     OW18682   3.150   6.960   0.013
 5928SOL    HW118683   3.160   0.005   6.951
 5928SOL    HW218684   3.097   6.880   7.003
 5929SOL     OW18685   1.706   0.774   0.140
 5929SOL    HW118686   1.736   0.844   0.076
 5929SOL    HW218687   1.691   0.688   0.091
 5930SOL     OW18688   1.908   3.902   2.478
 5930SOL    HW118689   1.913   3.997   2.509
 5930SOL    HW218690   1.994   3.876   2.435
 5931SOL     OW18691   5.066   6.702   3.006
 5931SOL    HW118692   4.978   6.658   3.024
 5931SOL    HW218693   5.094   6.683   2.912
 5932SOL     OW18694   2.953   0.730   6.872
 5932SOL    HW118695   2.949   0.790   6.951
 5932SOL    HW218696   2.981   0.639   6.901
 5933SOL     OW18697   5.930   5.875   4.630
 5933SOL    HW118698   5.849   5.837   4.585
 5933SOL    HW218699   5.977   5.937   4.567
 5934SOL     OW18700   2.938   3.249   6.988
 5934SOL    HW118701   3.038   3.249   6.993
 5934SOL    HW218702   2.901   3.205   0.054
 5935SOL     OW18703   1.104   6.139   6.154
 5935SOL    HW118704   1.193   6.179   6.133
 5935SOL    HW218705   1.116   6.055   6.206
 5936SOL     OW18706   3.819   2.981   2.279
 5936SOL    HW118707   3.875   3.029   2.211
 5936SOL    HW218708   3.753   2.922   2.233
 5937SOL     OW18709   0.355   3.387   1.163
 5937SOL    HW118710   0.454   3.392   1.149
 5937SOL    HW218711   0.330   3.294   1.189
 5938SOL     OW18712   0.585   4.265   4.066
 5938SOL    HW118713   0.598   4.166   4.058
 5938SOL    HW218714   0.611   4.309   3.980
 5939SOL     OW18715   3.888   1.506   5.399
 5939SOL    HW118716   3.817   1.546   5.457
 5939SOL    HW218717   3.967   1.481   5.455
 5940SOL     OW18718   4.748   5.573   1.809
 5940SOL    HW118719   4.789   5.536   1.726
 5940SOL    HW218720   4.817   5.582   1.880
 5941SOL     OW18721   0.240   2.221   2.930
 5941SOL    HW118722   0.167   2.164   2.893
 5941SOL    HW218723   0.203   2.283   2.999
 5942SOL     OW18724   4.922   3.157   6.169
 5942SOL    HW118725   4.931   3.060   6.148
 5942SOL    HW218726   5.014   3.198   6.174
 5943SOL     OW18727   2.849   4.312   1.696
 5943SOL    HW118728   2.850   4.386   1.763
 5943SOL    HW218729   2.783   4.243   1.725
 5944SOL     OW18730   6.233   3.302   6.077
 5944SOL    HW118731   6.148   3.332   6.121
 5944SOL    HW218732   6.306   3.366   6.101
 5945SOL     OW18733   6.714   6.427   4.787
 5945SOL    HW118734   6.664   6.400   4.869
 5945SOL    HW218735   6.682   6.516   4.756
 5946SOL     OW18736   2.112   3.786   6.872
 5946SOL    HW118737   2.192   3.732   6.899
 5946SOL    HW218738   2.143   3.875   6.837
 5947SOL     OW18739   3.901   3.415   4.339
 5947SOL    HW118740   3.810   3.392   4.373
 5947SOL    HW218741   3.894   3.449   4.245
 5948SOL     OW18742   4.772   3.611   1.839
 5948SOL    HW118743   4.720   3.695   1.825
 5948SOL    HW218744   4.839   3.600   1.766
 5949SOL     OW18745   0.155   4.722   2.930
 5949SOL    HW118746   0.122   4.715   3.024
 5949SOL    HW218747   0.206   4.639   2.906
 5950SOL     OW18748   3.766   0.207   4.582
 5950SOL    HW118749   3.764   0.137   4.510
 5950SOL    HW218750   3.781   0.163   4.671
 5951SOL     OW18751   0.403   3.575   6.814
 5951SOL    HW118752   0.420   3.647   6.747
 5951SOL    HW218753   0.314   3.590   6.858
 5952SOL     OW18754   4.535   4.609   1.229
 5952SOL    HW118755   4.484   4.684   1.271
 5952SOL    HW218756   4.630   4.610   1.261
 5953SOL     OW18757   6.602   3.027   5.290
 5953SOL    HW118758   6.543   3.107   5.275
 5953SOL    HW218759   6.575   2.953   5.229
 5954SOL     OW18760   1.691   6.187   3.975
 5954SOL    HW118761   1.695   6.092   3.945
 5954SOL    HW218762   1.783   6.224   3.985
 5955SOL     OW18763   5.320   3.293   0.167
 5955SOL    HW118764   5.310   3.207   0.217
 5955SOL    HW218765   5.417   3.314   0.155
 5956SOL     OW18766   5.591   2.645   5.592
 5956SOL    HW118767   5.579   2.577   5.520
 5956SOL    HW218768   5.683   2.638   5.630
 5957SOL     OW18769   6.860   1.707   3.484
 5957SOL    HW118770   6.954   1.740   3.477
 5957SOL    HW218771   6.858   1.608   3.470
 5958SOL     OW18772   2.990   6.743   3.102
 5958SOL    HW118773   2.920   6.814   3.102
 5958SOL    HW218774   3.080   6.784   3.114
 5959SOL     OW18775   4.925   2.448   3.902
 5959SOL    HW118776   4.960   2.527   3.852
 5959SOL    HW218777   4.873   2.480   3.982
 5960SOL     OW18778   4.615   0.494   5.911
 5960SOL    HW118779   4.569   0.449   5.987
 5960SOL    HW218780   4.586   0.453   5.825
 5961SOL     OW18781   2.817   2.345   3.183
 5961SOL    HW118782   2.850   2.250   3.183
 5961SOL    HW218783   2.751   2.357   3.110
 5962SOL     OW18784   5.174   5.772   0.610
 5962SOL    HW118785   5.209   5.826   0.687
 5962SOL    HW218786   5.095   5.819   0.569
 5963SOL     OW18787   2.716   3.977   0.682
 5963SOL    HW118788   2.710   3.877   0.686
 5963SOL    HW218789   2.637   4.013   0.633
 5964SOL     OW18790   2.574   6.690   2.388
 5964SOL    HW118791   2.574   6.596   2.421
 5964SOL    HW218792   2.534   6.693   2.296
 5965SOL     OW18793   2.419   0.266   0.499
 5965SOL    HW118794   2.381   0.339   0.442
 5965SOL    HW218795   2.451   0.306   0.586
 5966SOL     OW18796   2.772   1.535   4.677
 5966SOL    HW118797   2.752   1.447   4.634
 5966SOL    HW218798   2.850   1.524   4.739
 5967SOL     OW18799   3.958   1.928   4.674
 5967SOL    HW118800   3.949   2.026   4.690
 5967SOL    HW218801   4.004   1.913   4.586
 5968SOL     OW18802   5.619   2.705   1.734
 5968SOL    HW118803   5.706   2.710   1.686
 5968SOL    HW218804   5.558   2.777   1.700
 5969SOL     OW18805   5.580   0.295   0.283
 5969SOL    HW118806   5.590   0.195   0.276
 5969SOL    HW218807   5.500   0.316   0.339
 5970SOL     OW18808   0.104   3.646   0.154
 5970SOL    HW118809   0.042   3.686   0.087
 5970SOL    HW218810   0.118   3.549   0.134
 5971SOL     OW18811   0.026   6.557   3.870
 5971SOL    HW118812   0.000   6.649   3.899
 5971SOL    HW218813   0.067   6.508   3.947
 5972SOL     OW18814   5.093   4.910   0.447
 5972SOL    HW118815   5.007   4.903   0.396
 5972SOL    HW218816   5.136   4.821   0.452
 5973SOL     OW18817   3.230   1.415   2.485
 5973SOL    HW118818   3.181   1.432   2.399
 5973SOL    HW218819   3.318   1.461   2.482
 5974SOL     OW18820   5.314   1.916   5.358
 5974SOL    HW118821   5.234   1.858   5.341
 5974SOL    HW218822   5.287   1.993   5.417
 5975SOL     OW18823   4.639   4.832   0.906
 5975SOL    HW118824   4.659   4.745   0.951
 5975SOL    HW218825   4.587   4.891   0.969
 5976SOL     OW18826   2.432   3.248   5.523
 5976SOL    HW118827   2.339   3.230   5.492
 5976SOL    HW218828   2.436   3.336   5.571
 5977SOL     OW18829   6.780   4.532   0.672
 5977SOL    HW118830   6.799   4.511   0.768
 5977SOL    HW218831   6.691   4.576   0.664
 5978SOL     OW18832   2.874   3.726   0.030
 5978SOL    HW118833   2.853   3.639   7.004
 5978SOL    HW218834   2.857   3.720   0.129
 5979SOL     OW18835   6.011   0.710   1.842
 5979SOL    HW118836   5.944   0.670   1.779
 5979SOL    HW218837   5.965   0.739   1.926
 5980SOL     OW18838   2.944   3.157   1.395
 5980SOL    HW118839   2.900   3.209   1.322
 5980SOL    HW218840   2.994   3.080   1.356
 5981SOL     OW18841   3.244   2.246   0.235
 5981SOL    HW118842   3.297   2.313   0.287
 5981SOL    HW218843   3.147   2.258   0.255
 5982SOL     OW18844   5.252   3.053   0.301
 5982SOL    HW118845   5.347   3.029   0.277
 5982SOL    HW218846   5.240   3.048   0.400
 5983SOL     OW18847   6.945   0.853   3.610
 5983SOL    HW118848   0.028   0.852   3.600
 5983SOL    HW218849   6.908   0.936   3.567
 5984SOL     OW18850   5.571   0.003   4.186
 5984SOL    HW118851   5.640   0.068   4.156
 5984SOL    HW218852   5.588   6.931   4.142
 5985SOL     OW18853   6.320   3.160   2.238
 5985SOL    HW118854   6.293   3.232   2.302
 5985SOL    HW218855   6.325   3.197   2.145
 5986SOL     OW18856   3.500   3.218   4.288
 5986SOL    HW118857   3.488   3.124   4.318
 5986SOL    HW218858   3.552   3.220   4.203
 5987SOL     OW18859   0.200   6.402   5.140
 5987SOL    HW118860   0.110   6.395   5.097
 5987SOL    HW218861   0.266   6.436   5.073
 5988SOL     OW18862   1.014   2.770   6.422
 5988SOL    HW118863   1.082   2.838   6.393
 5988SOL    HW218864   1.042   2.680   6.390
 5989SOL     OW18865   0.579   6.644   6.078
 5989SOL    HW118866   0.481   6.664   6.073
 5989SOL    HW218867   0.622   6.708   6.142
 5990SOL     OW18868   2.625   4.793   1.931
 5990SOL    HW118869   2.665   4.710   1.970
 5990SOL    HW218870   2.530   4.800   1.960
 5991SOL     OW18871   4.589   0.433   0.525
 5991SOL    HW118872   4.519   0.372   0.489
 5991SOL    HW218873   4.547   0.501   0.585
 5992SOL     OW18874   3.213   6.435   2.244
 5992SOL    HW118875   3.291   6.375   2.224
 5992SOL    HW218876   3.234   6.492   2.323
 5993SOL     OW18877   5.460   1.792   6.962
 5993SOL    HW118878   5.551   1.751   6.972
 5993SOL    HW218879   5.426   1.819   0.036
 5994SOL     OW18880   0.323   3.312   6.983
 5994SOL    HW118881   0.399   3.373   7.001
 5994SOL    HW218882   0.357   3.219   6.969
 5995SOL     OW18883   4.810   3.620   1.411
 5995SOL    HW118884   4.854   3.602   1.323
 5995SOL    HW218885   4.879   3.632   1.482
 5996SOL     OW18886   2.751   5.802   1.352
 5996SOL    HW118887   2.795   5.857   1.423
 5996SOL    HW218888   2.801   5.813   1.266
 5997SOL     OW18889   6.285   0.550   3.946
 5997SOL    HW118890   6.314   0.568   4.040
 5997SOL    HW218891   6.365   0.530   3.890
 5998SOL     OW18892   6.078   5.678   0.304
 5998SOL    HW118893   6.014   5.604   0.326
 5998SOL    HW218894   6.030   5.765   0.307
 5999SOL     OW18895   4.981   3.127   1.602
 5999SOL    HW118896   5.072   3.109   1.564
 5999SOL    HW218897   4.972   3.078   1.688
 6000SOL     OW18898   0.559   4.129   0.921
 6000SOL    HW118899   0.507   4.051   0.887
 6000SOL    HW218900   0.562   4.127   1.020
 6001SOL     OW18901   6.563   5.757   5.876
 6001SOL    HW118902   6.570   5.840   5.931
 6001SOL    HW218903   6.514   5.687   5.927
 6002SOL     OW18904   5.761   4.658   5.588
 6002SOL    HW118905   5.854   4.667   5.551
 6002SOL    HW218906   5.694   4.681   5.517
 6003SOL     OW18907   1.796   2.687   4.852
 6003SOL    HW118908   1.827   2.629   4.927
 6003SOL    HW218909   1.863   2.683   4.777
 6004SOL     OW18910   5.392   2.069   4.312
 6004SOL    HW118911   5.373   1.976   4.279
 6004SOL    HW218912   5.443   2.119   4.243
 6005SOL     OW18913   4.309   4.434   6.653
 6005SOL    HW118914   4.406   4.423   6.632
 6005SOL    HW218915   4.275   4.351   6.697
 6006SOL     OW18916   3.434   5.994   6.759
 6006SOL    HW118917   3.432   5.943   6.673
 6006SOL    HW218918   3.345   5.987   6.803
 6007SOL     OW18919   2.346   5.673   5.980
 6007SOL    HW118920   2.342   5.573   5.993
 6007SOL    HW218921   2.441   5.702   5.977
 6008SOL     OW18922   3.354   4.076   6.439
 6008SOL    HW118923   3.402   3.999   6.481
 6008SOL    HW218924   3.404   4.161   6.459
 6009SOL     OW18925   3.788   5.408   3.091
 6009SOL    HW118926   3.873   5.363   3.116
 6009SOL    HW218927   3.738   5.434   3.174
 6010SOL     OW18928   0.377   5.142   3.829
 6010SOL    HW118929   0.340   5.170   3.740
 6010SOL    HW218930   0.445   5.070   3.816
 6011SOL     OW18931   5.956   1.942   2.278
 6011SOL    HW118932   6.049   1.913   2.255
 6011SOL    HW218933   5.934   1.913   2.371
 6012SOL     OW18934   6.983   0.288   6.159
 6012SOL    HW118935   6.955   0.265   6.066
 6012SOL    HW218936   0.066   0.301   6.161
 6013SOL     OW18937   6.041   1.199   2.012
 6013SOL    HW118938   6.049   1.118   1.954
 6013SOL    HW218939   5.998   1.273   1.961
 6014SOL     OW18940   3.175   4.084   3.867
 6014SOL    HW118941   3.095   4.033   3.833
 6014SOL    HW218942   3.188   4.064   3.964
 6015SOL     OW18943   6.070   0.626   4.173
 6015SOL    HW118944   6.147   0.572   4.209
 6015SOL    HW218945   6.061   0.710   4.225
 6016SOL     OW18946   4.594   1.740   4.536
 6016SOL    HW118947   4.581   1.667   4.469
 6016SOL    HW218948   4.652   1.707   4.611
 6017SOL     OW18949   0.744   1.487   5.687
 6017SOL    HW118950   0.818   1.461   5.625
 6017SOL    HW218951   0.727   1.585   5.679
 6018SOL     OW18952   2.854   0.940   4.570
 6018SOL    HW118953   2.918   0.982   4.634
 6018SOL    HW218954   2.889   0.950   4.477
 6019SOL     OW18955   6.405   4.028   0.077
 6019SOL    HW118956   6.426   4.029   0.175
 6019SOL    HW218957   6.488   4.051   0.025
 6020SOL     OW18958   0.613   4.924   6.059
 6020SOL    HW118959   0.578   4.990   5.993
 6020SOL    HW218960   0.599   4.959   6.152
 6021SOL     OW18961   5.864   6.957   3.631
 6021SOL    HW118962   5.802   6.913   3.566
 6021SOL    HW218963   5.893   0.029   3.594
 6022SOL     OW18964   6.542   2.395   1.318
 6022SOL    HW118965   6.553   2.354   1.227
 6022SOL    HW218966   6.535   2.323   1.387
 6023SOL     OW18967   3.944   0.326   1.848
 6023SOL    HW118968   3.962   0.250   1.787
 6023SOL    HW218969   3.862   0.374   1.819
 6024SOL     OW18970   1.505   6.173   0.071
 6024SOL    HW118971   1.567   6.250   0.059
 6024SOL    HW218972   1.545   6.091   0.031
 6025SOL     OW18973   2.883   0.557   4.447
 6025SOL    HW118974   2.903   0.460   4.435
 6025SOL    HW218975   2.807   0.583   4.388
 6026SOL     OW18976   5.710   5.774   4.532
 6026SOL    HW118977   5.639   5.704   4.524
 6026SOL    HW218978   5.732   5.811   4.442
 6027SOL     OW18979   5.328   4.392   6.629
 6027SOL    HW118980   5.282   4.415   6.714
 6027SOL    HW218981   5.320   4.468   6.565
 6028SOL     OW18982   5.730   4.910   5.868
 6028SOL    HW118983   5.814   4.870   5.906
 6028SOL    HW218984   5.686   4.967   5.937
 6029SOL     OW18985   2.704   1.028   2.563
 6029SOL    HW118986   2.705   1.120   2.603
 6029SOL    HW218987   2.798   1.001   2.541
 6030SOL     OW18988   5.876   3.231   5.108
 6030SOL    HW118989   5.944   3.295   5.073
 6030SOL    HW218990   5.910   3.137   5.100
 6031SOL     OW18991   0.155   6.240   5.370
 6031SOL    HW118992   0.156   6.314   5.303
 6031SOL    HW218993   0.186   6.155   5.326
 6032SOL     OW18994   3.600   6.046   3.083
 6032SOL    HW118995   3.576   5.962   3.033
 6032SOL    HW218996   3.670   6.096   3.032
 6033SOL     OW18997   0.992   1.713   2.432
 6033SOL    HW118998   1.023   1.619   2.425
 6033SOL    HW218999   1.055   1.765   2.490
 6034SOL     OW19000   1.038   0.024   1.468
 6034SOL    HW119001   1.133   0.047   1.487
 6034SOL    HW219002   0.992   0.103   1.427
 6035SOL     OW19003   2.090   0.518   2.906
 6035SOL    HW119004   2.151   0.565   2.840
 6035SOL    HW219005   1.995   0.540   2.884
 6036SOL     OW19006   6.681   3.380   0.972
 6036SOL    HW119007   6.753   3.419   1.029
 6036SOL    HW219008   6.615   3.332   1.030
 6037SOL     OW19009   4.933   1.716   6.878
 6037SOL    HW119010   4.898   1.724   6.972
 6037SOL    HW219011   4.982   1.799   6.854
 6038SOL     OW19012   1.435   1.682   6.007
 6038SOL    HW119013   1.457   1.736   6.088
 6038SOL    HW219014   1.494   1.602   6.002
 6039SOL     OW19015   4.022   3.484   3.558
 6039SOL    HW119016   4.090   3.530   3.614
 6039SOL    HW219017   4.045   3.496   3.461
 6040SOL     OW19018   0.537   1.366   0.057
 6040SOL    HW119019   0.612   1.308   0.024
 6040SOL    HW219020   0.572   1.429   0.126
 6041SOL     OW19021   2.454   3.657   5.581
 6041SOL    HW119022   2.447   3.652   5.481
 6041SOL    HW219023   2.508   3.736   5.607
 6042SOL     OW19024   3.478   5.580   3.526
 6042SOL    HW119025   3.455   5.630   3.443
 6042SOL    HW219026   3.469   5.641   3.605
 6043SOL     OW19027   2.417   0.546   3.219
 6043SOL    HW119028   2.390   0.471   3.279
 6043SOL    HW219029   2.468   0.614   3.273
 6044SOL     OW19030   0.805   3.412   1.334
 6044SOL    HW119031   0.880   3.345   1.334
 6044SOL    HW219032   0.757   3.408   1.421
 6045SOL     OW19033   5.334   1.611   3.471
 6045SOL    HW119034   5.398   1.685   3.493
 6045SOL    HW219035   5.346   1.535   3.535
 6046SOL     OW19036   3.302   2.911   2.813
 6046SOL    HW119037   3.247   2.923   2.730
 6046SOL    HW219038   3.399   2.909   2.788
 6047SOL     OW19039   0.079   1.660   0.879
 6047SOL    HW119040   0.109   1.715   0.957
 6047SOL    HW219041   0.010   1.595   0.908
 6048SOL     OW19042   5.735   6.056   4.007
 6048SOL    HW119043   5.717   6.074   4.103
 6048SOL    HW219044   5.826   6.016   3.997
 6049SOL     OW19045   4.525   4.986   5.993
 6049SOL    HW119046   4.593   4.924   6.033
 6049SOL    HW219047   4.516   5.067   6.051
 6050SOL     OW19048   3.081   6.203   2.184
 6050SOL    HW119049   3.010   6.186   2.252
 6050SOL    HW219050   3.114   6.297   2.192
 6051SOL     OW19051   0.273   1.340   3.276
 6051SOL    HW119052   0.341   1.411   3.256
 6051SOL    HW219053   0.206   1.375   3.341
 6052SOL     OW19054   4.897   6.077   0.261
 6052SOL    HW119055   4.963   6.079   0.185
 6052SOL    HW219056   4.804   6.075   0.225
 6053SOL     OW19057   3.919   2.568   5.883
 6053SOL    HW119058   3.934   2.567   5.784
 6053SOL    HW219059   4.004   2.543   5.930
 6054SOL     OW19060   3.739   4.293   1.105
 6054SOL    HW119061   3.693   4.217   1.059
 6054SOL    HW219062   3.729   4.283   1.204
 6055SOL     OW19063   3.069   4.039   1.156
 6055SOL    HW119064   2.970   4.028   1.161
 6055SOL    HW219065   3.113   3.949   1.150
 6056SOL     OW19066   5.302   6.119   3.736
 6056SOL    HW119067   5.371   6.143   3.804
 6056SOL    HW219068   5.301   6.187   3.663
 6057SOL     OW19069   4.901   0.656   3.940
 6057SOL    HW119070   4.941   0.640   4.030
 6057SOL    HW219071   4.806   0.687   3.950
 6058SOL     OW19072   5.816   2.564   5.992
 6058SOL    HW119073   5.811   2.485   5.931
 6058SOL    HW219074   5.905   2.608   5.984
 6059SOL     OW19075   4.392   2.920   6.990
 6059SOL    HW119076   4.355   3.002   0.018
 6059SOL    HW219077   4.474   2.889   0.021
 6060SOL     OW19078   2.228   3.363   0.050
 6060SOL    HW119079   2.174   3.363   0.134
 6060SOL    HW219080   2.185   3.303   7.000
 6061SOL     OW19081   2.761   4.378   6.955
 6061SOL    HW119082   2.663   4.368   6.942
 6061SOL    HW219083   2.785   4.475   6.959
 6062SOL     OW19084   1.744   2.233   7.012
 6062SOL    HW119085   1.776   2.290   6.936
 6062SOL    HW219086   1.653   2.198   6.990
 6063SOL     OW19087   4.752   4.308   6.363
 6063SOL    HW119088   4.746   4.404   6.338
 6063SOL    HW219089   4.833   4.267   6.321
 6064SOL     OW19090   6.613   5.395   1.155
 6064SOL    HW119091   6.604   5.495   1.160
 6064SOL    HW219092   6.576   5.354   1.238
 6065SOL     OW19093   1.392   0.015   2.285
 6065SOL    HW119094   1.371   0.009   2.383
 6065SOL    HW219095   1.466   6.968   2.263
 6066SOL     OW19096   5.631   5.695   3.631
 6066SOL    HW119097   5.584   5.704   3.719
 6066SOL    HW219098   5.637   5.785   3.587
 6067SOL     OW19099   6.298   6.648   6.314
 6067SOL    HW119100   6.253   6.732   6.344
 6067SOL    HW219101   6.386   6.639   6.362
 6068SOL     OW19102   4.795   2.531   4.110
 6068SOL    HW119103   4.851   2.592   4.167
 6068SOL    HW219104   4.708   2.513   4.157
 6069SOL     OW19105   0.252   4.533   6.308
 6069SOL    HW119106   0.175   4.476   6.280
 6069SOL    HW219107   0.330   4.474   6.331
 6070SOL     OW19108   2.408   1.161   0.280
 6070SOL    HW119109   2.432   1.235   0.217
 6070SOL    HW219110   2.475   1.088   0.273
 6071SOL     OW19111   5.872   1.035   5.563
 6071SOL    HW119112   5.786   1.071   5.598
 6071SOL    HW219113   5.924   1.109   5.520
 6072SOL     OW19114   0.307   2.314   0.566
 6072SOL    HW119115   0.365   2.370   0.507
 6072SOL    HW219116   0.298   2.358   0.655
 6073SOL     OW19117   4.911   2.773   0.040
 6073SOL    HW119118   4.879   2.819   6.974
 6073SOL    HW219119   4.919   2.840   0.114
 6074SOL     OW19120   0.566   6.633   2.435
 6074SOL    HW119121   0.563   6.552   2.376
 6074SOL    HW219122   0.622   6.612   2.516
 6075SOL     OW19123   5.370   0.319   6.651
 6075SOL    HW119124   5.344   0.348   6.559
 6075SOL    HW219125   5.344   0.390   6.717
 6076SOL     OW19126   0.891   5.873   2.985
 6076SOL    HW119127   0.939   5.959   2.968
 6076SOL    HW219128   0.793   5.887   2.973
 6077SOL     OW19129   5.531   6.938   2.670
 6077SOL    HW119130   5.528   7.005   2.744
 6077SOL    HW219131   5.626   6.912   2.651
 6078SOL     OW19132   4.282   4.206   0.677
 6078SOL    HW119133   4.264   4.151   0.596
 6078SOL    HW219134   4.254   4.300   0.661
 6079SOL     OW19135   3.019   2.947   0.558
 6079SOL    HW119136   2.959   2.955   0.638
 6079SOL    HW219137   3.005   2.858   0.515
 6080SOL     OW19138   0.023   5.145   6.553
 6080SOL    HW119139   0.114   5.104   6.563
 6080SOL    HW219140   6.986   5.129   6.635
 6081SOL     OW19141   1.193   3.927   3.492
 6081SOL    HW119142   1.131   4.003   3.513
 6081SOL    HW219143   1.141   3.852   3.453
 6082SOL     OW19144   4.927   0.807   0.944
 6082SOL    HW119145   4.975   0.837   0.861
 6082SOL    HW219146   4.938   0.708   0.954
 6083SOL     OW19147   4.653   0.633   6.258
 6083SOL    HW119148   4.563   0.615   6.218
 6083SOL    HW219149   4.712   0.554   6.241
 6084SOL     OW19150   0.223   6.107   2.361
 6084SOL    HW119151   0.284   6.184   2.345
 6084SOL    HW219152   0.201   6.063   2.274
 6085SOL     OW19153   0.444   6.923   0.818
 6085SOL    HW119154   0.363   6.980   0.819
 6085SOL    HW219155   0.523   6.977   0.789
 6086SOL     OW19156   3.404   4.130   7.010
 6086SOL    HW119157   3.476   4.196   6.989
 6086SOL    HW219158   3.362   4.097   6.925
 6087SOL     OW19159   5.031   6.617   0.907
 6087SOL    HW119160   5.004   6.714   0.905
 6087SOL    HW219161   5.015   6.576   0.817
 6088SOL     OW19162   5.296   5.980   3.399
 6088SOL    HW119163   5.304   6.006   3.495
 6088SOL    HW219164   5.251   5.891   3.392
 6089SOL     OW19165   6.332   3.710   3.979
 6089SOL    HW119166   6.283   3.683   3.896
 6089SOL    HW219167   6.336   3.633   4.042
 6090SOL     OW19168   3.959   5.924   4.014
 6090SOL    HW119169   3.875   5.896   3.968
 6090SOL    HW219170   4.012   5.842   4.040
 6091SOL     OW19171   1.452   1.763   2.231
 6091SOL    HW119172   1.356   1.772   2.205
 6091SOL    HW219173   1.458   1.729   2.325
 6092SOL     OW19174   3.071   5.969   0.575
 6092SOL    HW119175   3.077   6.067   0.557
 6092SOL    HW219176   3.010   5.953   0.652
 6093SOL     OW19177   2.274   2.175   2.383
 6093SOL    HW119178   2.270   2.165   2.482
 6093SOL    HW219179   2.279   2.272   2.360
 6094SOL     OW19180   0.524   6.198   5.004
 6094SOL    HW119181   0.561   6.285   4.971
 6094SOL    HW219182   0.432   6.185   4.967
 6095SOL     OW19183   4.806   4.830   1.961
 6095SOL    HW119184   4.845   4.882   1.885
 6095SOL    HW219185   4.878   4.808   2.027
 6096SOL     OW19186   5.721   6.015   3.261
 6096SOL    HW119187   5.642   6.074   3.244
 6096SOL    HW219188   5.757   5.982   3.173
 6097SOL     OW19189   1.778   5.042   1.951
 6097SOL    HW119190   1.825   5.009   2.033
 6097SOL    HW219191   1.794   4.978   1.875
 6098SOL     OW19192   6.699   0.398   4.950
 6098SOL    HW119193   6.630   0.415   5.020
 6098SOL    HW219194   6.759   0.478   4.943
 6099SOL     OW19195   3.772   0.642   6.015
 6099SOL    HW119196   3.746   0.581   5.940
 6099SOL    HW219197   3.856   0.691   5.991
 6100SOL     OW19198   0.284   6.190   4.914
 6100SOL    HW119199   0.194   6.232   4.898
 6100SOL    HW219200   0.278   6.092   4.899
 6101SOL     OW19201   0.063   3.236   1.799
 6101SOL    HW119202   0.080   3.318   1.854
 6101SOL    HW219203   6.984   3.232   1.773
 6102SOL     OW19204   4.104   0.122   2.568
 6102SOL    HW119205   4.174   0.054   2.544
 6102SOL    HW219206   4.033   0.078   2.622
 6103SOL     OW19207   6.267   1.813   1.985
 6103SOL    HW119208   6.222   1.809   2.074
 6103SOL    HW219209   6.347   1.754   1.985
 6104SOL     OW19210   0.042   0.818   4.173
 6104SOL    HW119211   0.097   0.790   4.095
 6104SOL    HW219212   6.964   0.787   4.161
 6105SOL     OW19213   3.070   4.719   5.217
 6105SOL    HW119214   2.999   4.658   5.183
 6105SOL    HW219215   3.105   4.685   5.304
 6106SOL     OW19216   6.278   4.999   5.666
 6106SOL    HW119217   6.232   4.929   5.720
 6106SOL    HW219218   6.235   5.088   5.682
 6107SOL     OW19219   5.294   5.756   5.231
 6107SOL    HW119220   5.369   5.690   5.226
 6107SOL    HW219221   5.309   5.829   5.164
 6108SOL     OW19222   2.325   1.484   0.162
 6108SOL    HW119223   2.235   1.517   0.132
 6108SOL    HW219224   2.371   1.556   0.213
 6109SOL     OW19225   6.201   6.891   3.738
 6109SOL    HW119226   6.210   6.971   3.678
 6109SOL    HW219227   6.187   6.921   3.832
 6110SOL     OW19228   1.679   1.317   4.561
 6110SOL    HW119229   1.629   1.402   4.545
 6110SOL    HW219230   1.684   1.300   4.660
 6111SOL     OW19231   1.850   4.354   0.913
 6111SOL    HW119232   1.886   4.261   0.909
 6111SOL    HW219233   1.843   4.391   0.820
 6112SOL     OW19234   4.548   6.772   2.966
 6112SOL    HW119235   4.593   6.861   2.955
 6112SOL    HW219236   4.495   6.773   3.050
 6113SOL     OW19237   3.095   5.193   0.717
 6113SOL    HW119238   3.116   5.275   0.664
 6113SOL    HW219239   3.022   5.212   0.782
 6114SOL     OW19240   4.996   2.044   0.108
 6114SOL    HW119241   4.925   2.086   0.165
 6114SOL    HW219242   5.086   2.065   0.145
 6115SOL     OW19243   1.108   0.444   5.673
 6115SOL    HW119244   1.031   0.454   5.610
 6115SOL    HW219245   1.164   0.526   5.670
 6116SOL     OW19246   5.505   2.297   6.306
 6116SOL    HW119247   5.476   2.235   6.379
 6116SOL    HW219248   5.448   2.379   6.307
 6117SOL     OW19249   1.962   1.962   1.279
 6117SOL    HW119250   2.048   2.007   1.300
 6117SOL    HW219251   1.944   1.889   1.346
 6118SOL     OW19252   5.955   0.815   0.868
 6118SOL    HW119253   5.864   0.828   0.830
 6118SOL    HW219254   6.024   0.835   0.798
 6119SOL     OW19255   0.048   1.959   0.228
 6119SOL    HW119256   6.999   1.886   0.210
 6119SOL    HW219257   0.141   1.925   0.211
 6120SOL     OW19258   2.447   1.088   4.728
 6120SOL    HW119259   2.461   1.180   4.765
 6120SOL    HW219260   2.355   1.057   4.749
 6121SOL     OW19261   0.688   2.597   5.452
 6121SOL    HW119262   0.732   2.655   5.522
 6121SOL    HW219263   0.676   2.505   5.488
 6122SOL     OW19264   5.010   4.674   5.819
 6122SOL    HW119265   5.099   4.637   5.847
 6122SOL    HW219266   5.019   4.772   5.803
 6123SOL     OW19267   5.551   1.550   5.338
 6123SOL    HW119268   5.555   1.650   5.334
 6123SOL    HW219269   5.536   1.514   5.247
 6124SOL     OW19270   2.462   5.763   3.901
 6124SOL    HW119271   2.382   5.743   3.957
 6124SOL    HW219272   2.468   5.697   3.827
 6125SOL     OW19273   2.501   2.229   6.680
 6125SOL    HW119274   2.509   2.322   6.715
 6125SOL    HW219275   2.535   2.224   6.587
 6126SOL     OW19276   5.822   3.303   5.445
 6126SOL    HW119277   5.876   3.376   5.404
 6126SOL    HW219278   5.763   3.262   5.376
 6127SOL     OW19279   4.094   2.250   1.722
 6127SOL    HW119280   4.012   2.201   1.751
 6127SOL    HW219281   4.171   2.187   1.718
 6128SOL     OW19282   5.525   5.537   0.372
 6128SOL    HW119283   5.599   5.586   0.327
 6128SOL    HW219284   5.539   5.538   0.471
 6129SOL     OW19285   1.431   5.503   2.293
 6129SOL    HW119286   1.522   5.499   2.251
 6129SOL    HW219287   1.436   5.472   2.388
 6130SOL     OW19288   5.792   2.425   0.048
 6130SOL    HW119289   5.783   2.377   0.135
 6130SOL    HW219290   5.886   2.456   0.036
 6131SOL     OW19291   6.420   1.263   2.978
 6131SOL    HW119292   6.395   1.175   3.018
 6131SOL    HW219293   6.519   1.277   2.987
 6132SOL     OW19294   3.753   1.620   6.659
 6132SOL    HW119295   3.723   1.525   6.668
 6132SOL    HW219296   3.712   1.661   6.577
 6133SOL     OW19297   1.532   1.997   3.499
 6133SOL    HW119298   1.472   1.966   3.574
 6133SOL    HW219299   1.586   1.919   3.466
 6134SOL     OW19300   6.333   6.996   6.281
 6134SOL    HW119301   6.291   6.935   6.349
 6134SOL    HW219302   6.288   6.984   6.193
 6135SOL     OW19303   6.710   6.996   6.805
 6135SOL    HW119304   6.729   0.068   6.847
 6135SOL    HW219305   6.660   7.009   6.720
 6136SOL     OW19306   1.100   3.143   2.297
 6136SOL    HW119307   1.185   3.092   2.311
 6136SOL    HW219308   1.026   3.080   2.277
 6137SOL     OW19309   6.800   3.948   2.197
 6137SOL    HW119310   6.859   3.988   2.268
 6137SOL    HW219311   6.824   3.987   2.108
 6138SOL     OW19312   4.287   0.342   1.725
 6138SOL    HW119313   4.385   0.348   1.746
 6138SOL    HW219314   4.235   0.370   1.806
 6139SOL     OW19315   1.577   0.682   5.952
 6139SOL    HW119316   1.600   0.731   5.868
 6139SOL    HW219317   1.526   0.743   6.014
 6140SOL     OW19318   1.080   0.240   3.336
 6140SOL    HW119319   1.010   0.193   3.282
 6140SOL    HW219320   1.049   0.250   3.430
 6141SOL     OW19321   0.650   1.216   5.848
 6141SOL    HW119322   0.626   1.299   5.897
 6141SOL    HW219323   0.626   1.136   5.905
 6142SOL     OW19324   0.083   0.885   1.107
 6142SOL    HW119325   0.160   0.823   1.093
 6142SOL    HW219326   0.054   0.923   1.020
 6143SOL     OW19327   0.226   4.084   5.208
 6143SOL    HW119328   0.255   4.007   5.152
 6143SOL    HW219329   0.139   4.119   5.173
 6144SOL     OW19330   4.027   5.246   3.138
 6144SOL    HW119331   4.121   5.272   3.116
 6144SOL    HW219332   4.014   5.149   3.122
 6145SOL     OW19333   4.850   3.356   3.856
 6145SOL    HW119334   4.752   3.365   3.873
 6145SOL    HW219335   4.864   3.301   3.773
 6146SOL     OW19336   5.654   6.997   4.967
 6146SOL    HW119337   5.749   7.001   4.999
 6146SOL    HW219338   5.593   6.991   5.046
 6147SOL     OW19339   1.498   2.241   4.199
 6147SOL    HW119340   1.480   2.147   4.169
 6147SOL    HW219341   1.509   2.242   4.299
 6148SOL     OW19342   3.248   6.111   0.018
 6148SOL    HW119343   3.203   6.161   6.960
 6148SOL    HW219344   3.195   6.029   0.039
 6149SOL     OW19345   3.050   0.679   1.399
 6149SOL    HW119346   3.007   0.606   1.347
 6149SOL    HW219347   3.144   0.692   1.368
 6150SOL     OW19348   0.545   3.794   5.440
 6150SOL    HW119349   0.593   3.881   5.444
 6150SOL    HW219350   0.549   3.750   5.530
 6151SOL     OW19351   4.557   5.345   3.841
 6151SOL    HW119352   4.521   5.381   3.926
 6151SOL    HW219353   4.634   5.400   3.811
 6152SOL     OW19354   1.438   4.856   4.324
 6152SOL    HW119355   1.448   4.952   4.299
 6152SOL    HW219356   1.516   4.804   4.288
 6153SOL     OW19357   5.517   5.416   1.591
 6153SOL    HW119358   5.573   5.403   1.673
 6153SOL    HW219359   5.477   5.328   1.565
 6154SOL     OW19360   4.947   3.459   2.045
 6154SOL    HW119361   4.867   3.487   1.992
 6154SOL    HW219362   4.930   3.369   2.086
 6155SOL     OW19363   1.570   1.432   3.088
 6155SOL    HW119364   1.627   1.467   3.014
 6155SOL    HW219365   1.476   1.422   3.056
 6156SOL     OW19366   5.051   5.443   1.342
 6156SOL    HW119367   5.046   5.346   1.369
 6156SOL    HW219368   5.140   5.461   1.302
 6157SOL     OW19369   1.519   2.973   2.110
 6157SOL    HW119370   1.471   2.945   2.027
 6157SOL    HW219371   1.581   2.899   2.138
 6158SOL     OW19372   2.892   2.197   4.963
 6158SOL    HW119373   2.979   2.228   4.924
 6158SOL    HW219374   2.898   2.200   5.063
 6159SOL     OW19375   6.434   2.841   1.041
 6159SOL    HW119376   6.517   2.885   1.072
 6159SOL    HW219377   6.368   2.836   1.116
 6160SOL     OW19378   1.525   0.646   0.691
 6160SOL    HW119379   1.538   0.606   0.600
 6160SOL    HW219380   1.546   0.744   0.688
 6161SOL     OW19381   4.552   3.096   6.425
 6161SOL    HW119382   4.529   3.058   6.514
 6161SOL    HW219383   4.580   3.192   6.436
 6162SOL     OW19384   6.048   5.125   3.229
 6162SOL    HW119385   6.034   5.164   3.138
 6162SOL    HW219386   5.981   5.053   3.246
 6163SOL     OW19387   5.500   6.446   3.948
 6163SOL    HW119388   5.418   6.487   3.989
 6163SOL    HW219389   5.480   6.351   3.923
 6164SOL     OW19390   3.138   3.579   4.724
 6164SOL    HW119391   3.096   3.499   4.682
 6164SOL    HW219392   3.084   3.660   4.703
 6165SOL     OW19393   4.045   1.186   0.193
 6165SOL    HW119394   4.074   1.239   0.113
 6165SOL    HW219395   4.101   1.211   0.272
 6166SOL     OW19396   1.580   2.885   6.308
 6166SOL    HW119397   1.658   2.826   6.287
 6166SOL    HW219398   1.578   2.962   6.244
 6167SOL     OW19399   1.704   3.866   3.432
 6167SOL    HW119400   1.709   3.770   3.459
 6167SOL    HW219401   1.612   3.901   3.450
 6168SOL     OW19402   0.238   3.893   3.900
 6168SOL    HW119403   0.219   3.987   3.927
 6168SOL    HW219404   0.262   3.890   3.804
 6169SOL     OW19405   2.462   0.180   0.045
 6169SOL    HW119406   2.540   0.243   0.046
 6169SOL    HW219407   2.385   0.222   7.014
 6170SOL     OW19408   3.396   4.024   0.405
 6170SOL    HW119409   3.424   3.974   0.323
 6170SOL    HW219410   3.353   4.110   0.379
 6171SOL     OW19411   2.212   4.072   2.266
 6171SOL    HW119412   2.308   4.085   2.291
 6171SOL    HW219413   2.168   4.161   2.254
 6172SOL     OW19414   1.777   6.607   2.694
 6172SOL    HW119415   1.693   6.658   2.674
 6172SOL    HW219416   1.850   6.672   2.715
 6173SOL     OW19417   1.205   6.053   2.451
 6173SOL    HW119418   1.182   6.147   2.426
 6173SOL    HW219419   1.159   5.990   2.388
 6174SOL     OW19420   5.053   5.376   2.984
 6174SOL    HW119421   5.060   5.406   2.889
 6174SOL    HW219422   5.068   5.455   3.044
 6175SOL     OW19423   5.101   0.417   2.921
 6175SOL    HW119424   5.027   0.472   2.885
 6175SOL    HW219425   5.084   0.396   3.017
 6176SOL     OW19426   6.745   3.548   5.636
 6176SOL    HW119427   6.841   3.533   5.656
 6176SOL    HW219428   6.698   3.460   5.624
 6177SOL     OW19429   6.166   2.616   0.298
 6177SOL    HW119430   6.231   2.545   0.326
 6177SOL    HW219431   6.184   2.700   0.348
 6178SOL     OW19432   6.086   3.091   0.999
 6178SOL    HW119433   6.019   3.041   0.944
 6178SOL    HW219434   6.177   3.078   0.960
 6179SOL     OW19435   0.296   1.979   5.614
 6179SOL    HW119436   0.363   2.014   5.549
 6179SOL    HW219437   0.207   1.970   5.568
 6180SOL     OW19438   3.604   0.218   6.849
 6180SOL    HW119439   3.573   0.259   6.764
 6180SOL    HW219440   3.527   0.176   6.897
 6181SOL     OW19441   4.920   6.591   6.713
 6181SOL    HW119442   4.959   6.506   6.678
 6181SOL    HW219443   4.944   6.602   6.810
 6182SOL     OW19444   4.703   5.922   6.584
 6182SOL    HW119445   4.683   6.014   6.550
 6182SOL    HW219446   4.797   5.919   6.619
 6183SOL     OW19447   3.613   0.460   3.333
 6183SOL    HW119448   3.708   0.447   3.362
 6183SOL    HW219449   3.611   0.481   3.235
 6184SOL     OW19450   0.600   0.303   6.814
 6184SOL    HW119451   0.654   0.299   6.898
 6184SOL    HW219452   0.639   0.242   6.745
 6185SOL     OW19453   0.355   3.733   6.026
 6185SOL    HW119454   0.327   3.701   6.116
 6185SOL    HW219455   0.325   3.667   5.957
 6186SOL     OW19456   5.905   0.217   4.928
 6186SOL    HW119457   5.968   0.292   4.946
 6186SOL    HW219458   5.956   0.140   4.888
 6187SOL     OW19459   4.263   4.663   3.404
 6187SOL    HW119460   4.355   4.628   3.386
 6187SOL    HW219461   4.245   4.660   3.502
 6188SOL     OW19462   2.788   6.280   1.341
 6188SOL    HW119463   2.803   6.335   1.423
 6188SOL    HW219464   2.691   6.257   1.333
 6189SOL     OW19465   6.011   4.493   3.084
 6189SOL    HW119466   6.058   4.564   3.031
 6189SOL    HW219467   6.062   4.475   3.168
 6190SOL     OW19468   5.553   2.644   0.156
 6190SOL    HW119469   5.502   2.725   0.127
 6190SOL    HW219470   5.557   2.578   0.081
 6191SOL     OW19471   6.382   2.201   6.973
 6191SOL    HW119472   6.427   2.233   0.040
 6191SOL    HW219473   6.284   2.221   6.978
 6192SOL     OW19474   3.222   2.881   6.660
 6192SOL    HW119475   3.237   2.949   6.731
 6192SOL    HW219476   3.218   2.926   6.571
 6193SOL     OW19477   5.904   0.258   1.461
 6193SOL    HW119478   5.988   0.280   1.412
 6193SOL    HW219479   5.918   0.268   1.559
 6194SOL     OW19480   1.971   0.835   0.454
 6194SOL    HW119481   1.948   0.925   0.419
 6194SOL    HW219482   1.947   0.765   0.386
 6195SOL     OW19483   3.532   0.634   6.394
 6195SOL    HW119484   3.440   0.644   6.432
 6195SOL    HW219485   3.531   0.660   6.297
 6196SOL     OW19486   0.692   1.311   6.162
 6196SOL    HW119487   0.672   1.375   6.088
 6196SOL    HW219488   0.712   1.221   6.124
 6197SOL     OW19489   2.368   3.274   0.609
 6197SOL    HW119490   2.326   3.276   0.519
 6197SOL    HW219491   2.379   3.367   0.644
 6198SOL     OW19492   4.097   4.741   2.751
 6198SOL    HW119493   4.156   4.675   2.703
 6198SOL    HW219494   4.023   4.770   2.690
 6199SOL     OW19495   1.601   6.819   6.231
 6199SOL    HW119496   1.521   6.766   6.205
 6199SOL    HW219497   1.575   6.889   6.298
 6200SOL     OW19498   3.945   0.163   6.054
 6200SOL    HW119499   4.045   0.160   6.055
 6200SOL    HW219500   3.914   0.242   6.108
 6201SOL     OW19501   2.164   4.281   5.070
 6201SOL    HW119502   2.198   4.325   5.153
 6201SOL    HW219503   2.190   4.185   5.070
 6202SOL     OW19504   3.417   1.737   1.368
 6202SOL    HW119505   3.361   1.772   1.443
 6202SOL    HW219506   3.422   1.806   1.296
 6203SOL     OW19507   4.871   1.469   4.508
 6203SOL    HW119508   4.818   1.513   4.580
 6203SOL    HW219509   4.825   1.482   4.420
 6204SOL     OW19510   1.960   6.538   5.948
 6204SOL    HW119511   1.965   6.562   5.850
 6204SOL    HW219512   1.868   6.507   5.970
 6205SOL     OW19513   5.752   6.124   6.823
 6205SOL    HW119514   5.845   6.136   6.859
 6205SOL    HW219515   5.725   6.206   6.774
 6206SOL     OW19516   5.299   7.014   2.434
 6206SOL    HW119517   5.317   0.085   2.389
 6206SOL    HW219518   5.381   6.985   2.484
 6207SOL     OW19519   1.633   4.088   4.765
 6207SOL    HW119520   1.600   3.996   4.787
 6207SOL    HW219521   1.706   4.113   4.829
 6208SOL     OW19522   6.314   6.779   5.734
 6208SOL    HW119523   6.244   6.778   5.805
 6208SOL    HW219524   6.392   6.724   5.763
 6209SOL     OW19525   3.725   5.201   0.692
 6209SOL    HW119526   3.773   5.265   0.752
 6209SOL    HW219527   3.706   5.245   0.604
 6210SOL     OW19528   5.889   4.661   3.818
 6210SOL    HW119529   5.892   4.570   3.778
 6210SOL    HW219530   5.968   4.714   3.788
 6211SOL     OW19531   3.112   6.832   4.679
 6211SOL    HW119532   3.061   6.749   4.701
 6211SOL    HW219533   3.153   6.823   4.589
 6212SOL     OW19534   6.680   6.584   3.646
 6212SOL    HW119535   6.689   6.664   3.587
 6212SOL    HW219536   6.603   6.528   3.617
 6213SOL     OW19537   7.006   6.917   6.617
 6213SOL    HW119538   0.003   6.957   6.526
 6213SOL    HW219539   7.009   6.990   6.685
 6214SOL     OW19540   5.943   4.785   2.594
 6214SOL    HW119541   5.880   4.794   2.517
 6214SOL    HW219542   5.961   4.688   2.610
 6215SOL     OW19543   3.190   3.328   0.782
 6215SOL    HW119544   3.189   3.241   0.733
 6215SOL    HW219545   3.248   3.393   0.734
 6216SOL     OW19546   5.676   1.869   2.273
 6216SOL    HW119547   5.724   1.953   2.249
 6216SOL    HW219548   5.730   1.817   2.339
 6217SOL     OW19549   4.943   3.073   1.301
 6217SOL    HW119550   4.864   3.107   1.250
 6217SOL    HW219551   4.928   3.087   1.399
 6218SOL     OW19552   3.135   5.259   5.020
 6218SOL    HW119553   3.232   5.282   5.016
 6218SOL    HW219554   3.099   5.249   4.928
 6219SOL     OW19555   1.079   1.805   4.557
 6219SOL    HW119556   1.149   1.872   4.581
 6219SOL    HW219557   0.997   1.853   4.525
 6220SOL     OW19558   2.170   4.562   5.421
 6220SOL    HW119559   2.240   4.634   5.427
 6220SOL    HW219560   2.212   4.476   5.392
 6221SOL     OW19561   3.937   5.133   4.361
 6221SOL    HW119562   3.842   5.163   4.356
 6221SOL    HW219563   3.956   5.096   4.452
 6222SOL     OW19564   0.127   1.101   1.292
 6222SOL    HW119565   0.220   1.139   1.290
 6222SOL    HW219566   0.116   1.035   1.218
 6223SOL     OW19567   4.688   2.808   4.815
 6223SOL    HW119568   4.699   2.806   4.716
 6223SOL    HW219569   4.736   2.887   4.852
 6224SOL     OW19570   2.790   1.408   5.277
 6224SOL    HW119571   2.817   1.490   5.327
 6224SOL    HW219572   2.691   1.397   5.281
 6225SOL     OW19573   3.749   2.811   0.111
 6225SOL    HW119574   3.845   2.798   0.139
 6225SOL    HW219575   3.689   2.776   0.183
 6226SOL     OW19576   5.624   0.525   4.904
 6226SOL    HW119577   5.661   0.581   4.830
 6226SOL    HW219578   5.579   0.584   4.971
 6227SOL     OW19579   3.099   4.459   6.074
 6227SOL    HW119580   3.173   4.395   6.050
 6227SOL    HW219581   3.072   4.444   6.169
 6228SOL     OW19582   6.815   0.604   3.114
 6228SOL    HW119583   6.752   0.557   3.177
 6228SOL    HW219584   6.814   0.702   3.134
 6229SOL     OW19585   2.393   2.682   2.103
 6229SOL    HW119586   2.452   2.626   2.160
 6229SOL    HW219587   2.330   2.624   2.052
 6230SOL     OW19588   2.632   2.224   3.565
 6230SOL    HW119589   2.644   2.131   3.531
 6230SOL    HW219590   2.535   2.241   3.580
 6231SOL     OW19591   0.096   5.036   1.594
 6231SOL    HW119592   0.047   5.082   1.668
 6231SOL    HW219593   0.054   4.947   1.576
 6232SOL     OW19594   0.900   1.084   6.724
 6232SOL    HW119595   0.837   1.016   6.688
 6232SOL    HW219596   0.851   1.170   6.740
 6233SOL     OW19597   4.860   1.787   0.110
 6233SOL    HW119598   4.838   1.781   0.208
 6233SOL    HW219599   4.908   1.873   0.093
 6234SOL     OW19600   2.170   2.321   4.243
 6234SOL    HW119601   2.126   2.268   4.315
 6234SOL    HW219602   2.143   2.285   4.153
 6235SOL     OW19603   2.401   0.004   3.149
 6235SOL    HW119604   2.442   6.930   3.145
 6235SOL    HW219605   2.460   0.069   3.102
 6236SOL     OW19606   0.109   4.515   0.758
 6236SOL    HW119607   0.093   4.606   0.796
 6236SOL    HW219608   0.101   4.519   0.658
 6237SOL     OW19609   4.262   6.888   0.509
 6237SOL    HW119610   4.274   6.890   0.608
 6237SOL    HW219611   4.313   6.963   0.468
 6238SOL     OW19612   4.820   4.959   1.225
 6238SOL    HW119613   4.757   5.024   1.182
 6238SOL    HW219614   4.913   4.979   1.195
 6239SOL     OW19615   2.649   0.304   3.424
 6239SOL    HW119616   2.662   0.208   3.401
 6239SOL    HW219617   2.552   0.326   3.420
 6240SOL     OW19618   1.543   3.767   0.631
 6240SOL    HW119619   1.461   3.806   0.674
 6240SOL    HW219620   1.541   3.785   0.533
 6241SOL     OW19621   4.375   0.268   1.285
 6241SOL    HW119622   4.382   0.354   1.235
 6241SOL    HW219623   4.465   0.223   1.287
 6242SOL     OW19624   4.905   2.380   3.518
 6242SOL    HW119625   4.978   2.311   3.520
 6242SOL    HW219626   4.839   2.361   3.590
 6243SOL     OW19627   6.014   5.979   3.935
 6243SOL    HW119628   6.002   5.922   3.854
 6243SOL    HW219629   6.110   5.981   3.961
 6244SOL     OW19630   2.644   1.664   2.027
 6244SOL    HW119631   2.692   1.577   2.039
 6244SOL    HW219632   2.558   1.648   1.978
 6245SOL     OW19633   3.186   4.268   0.628
 6245SOL    HW119634   3.167   4.275   0.530
 6245SOL    HW219635   3.103   4.244   0.677
 6246SOL     OW19636   2.846   0.953   5.744
 6246SOL    HW119637   2.840   0.978   5.840
 6246SOL    HW219638   2.917   1.008   5.700
 6247SOL     OW19639   0.344   6.112   2.785
 6247SOL    HW119640   0.265   6.172   2.772
 6247SOL    HW219641   0.428   6.162   2.766
 6248SOL     OW19642   0.421   4.801   1.212
 6248SOL    HW119643   0.364   4.729   1.174
 6248SOL    HW219644   0.366   4.858   1.273
 6249SOL     OW19645   5.998   4.006   6.504
 6249SOL    HW119646   5.979   3.909   6.489
 6249SOL    HW219647   5.925   4.045   6.561
 6250SOL     OW19648   5.881   5.933   0.046
 6250SOL    HW119649   5.835   5.847   0.022
 6250SOL    HW219650   5.936   5.964   6.985
 6251SOL     OW19651   4.495   1.322   0.441
 6251SOL    HW119652   4.535   1.363   0.359
 6251SOL    HW219653   4.409   1.368   0.462
 6252SOL     OW19654   2.429   6.085   5.193
 6252SOL    HW119655   2.348   6.137   5.220
 6252SOL    HW219656   2.402   6.000   5.148
 6253SOL     OW19657   2.023   4.119   1.925
 6253SOL    HW119658   2.059   4.184   1.991
 6253SOL    HW219659   1.933   4.086   1.957
 6254SOL     OW19660   5.047   0.543   0.396
 6254SOL    HW119661   5.012   0.486   0.470
 6254SOL    HW219662   5.109   0.489   0.339
 6255SOL     OW19663   0.621   1.194   2.407
 6255SOL    HW119664   0.589   1.135   2.333
 6255SOL    HW219665   0.707   1.158   2.443
 6256SOL     OW19666   2.969   5.164   2.702
 6256SOL    HW119667   2.937   5.256   2.683
 6256SOL    HW219668   2.987   5.116   2.615
 6257SOL     OW19669   5.547   2.389   6.723
 6257SOL    HW119670   5.450   2.401   6.744
 6257SOL    HW219671   5.563   2.294   6.694
 6258SOL     OW19672   5.118   1.777   2.340
 6258SOL    HW119673   5.214   1.798   2.360
 6258SOL    HW219674   5.059   1.829   2.402
 6259SOL     OW19675   2.861   2.628   1.742
 6259SOL    HW119676   2.764   2.626   1.768
 6259SOL    HW219677   2.908   2.550   1.783
 6260SOL     OW19678   3.448   3.876   0.170
 6260SOL    HW119679   3.467   3.781   0.148
 6260SOL    HW219680   3.352   3.897   0.148
 6261SOL     OW19681   4.200   1.206   0.417
 6261SOL    HW119682   4.276   1.143   0.403
 6261SOL    HW219683   4.140   1.170   0.488
 6262SOL     OW19684   0.596   5.230   6.144
 6262SOL    HW119685   0.679   5.196   6.098
 6262SOL    HW219686   0.622   5.277   6.228
 6263SOL     OW19687   6.897   0.386   0.792
 6263SOL    HW119688   6.817   0.327   0.804
 6263SOL    HW219689   6.887   0.468   0.848
 6264SOL     OW19690   2.895   1.488   0.853
 6264SOL    HW119691   2.810   1.465   0.804
 6264SOL    HW219692   2.872   1.541   0.935
 6265SOL     OW19693   3.554   2.810   1.222
 6265SOL    HW119694   3.626   2.815   1.291
 6265SOL    HW219695   3.512   2.720   1.223
 6266SOL     OW19696   2.519   0.440   2.982
 6266SOL    HW119697   2.562   0.503   2.917
 6266SOL    HW219698   2.484   0.492   3.061
 6267SOL     OW19699   3.418   0.137   6.371
 6267SOL    HW119700   3.474   0.084   6.307
 6267SOL    HW219701   3.473   0.213   6.407
 6268SOL     OW19702   3.558   5.255   2.567
 6268SOL    HW119703   3.476   5.291   2.523
 6268SOL    HW219704   3.567   5.297   2.658
 6269SOL     OW19705   6.293   5.048   1.518
 6269SOL    HW119706   6.256   5.124   1.464
 6269SOL    HW219707   6.303   5.077   1.613
 6270SOL     OW19708   0.755   0.662   4.946
 6270SOL    HW119709   0.782   0.620   4.859
 6270SOL    HW219710   0.672   0.618   4.980
 6271SOL     OW19711   5.952   1.630   0.692
 6271SOL    HW119712   6.038   1.679   0.702
 6271SOL    HW219713   5.920   1.638   0.598
 6272SOL     OW19714   1.702   1.808   3.382
 6272SOL    HW119715   1.792   1.811   3.424
 6272SOL    HW219716   1.706   1.755   3.297
 6273SOL     OW19717   3.482   0.972   1.496
 6273SOL    HW119718   3.510   1.062   1.463
 6273SOL    HW219719   3.470   0.911   1.418
 6274SOL     OW19720   4.321   6.924   6.146
 6274SOL    HW119721   4.385   6.971   6.207
 6274SOL    HW219722   4.348   6.828   6.138
 6275SOL     OW19723   2.097   0.792   4.603
 6275SOL    HW119724   2.074   0.746   4.517
 6275SOL    HW219725   2.030   0.767   4.673
 6276SOL     OW19726   1.153   5.426   3.981
 6276SOL    HW119727   1.126   5.515   4.017
 6276SOL    HW219728   1.244   5.403   4.013
 6277SOL     OW19729   5.472   3.496   2.946
 6277SOL    HW119730   5.384   3.489   2.899
 6277SOL    HW219731   5.536   3.547   2.888
 6278SOL     OW19732   5.026   0.758   4.659
 6278SOL    HW119733   4.971   0.676   4.675
 6278SOL    HW219734   4.966   0.834   4.633
 6279SOL     OW19735   4.843   1.762   0.390
 6279SOL    HW119736   4.772   1.720   0.447
 6279SOL    HW219737   4.925   1.705   0.392
 6280SOL     OW19738   0.593   4.553   5.800
 6280SOL    HW119739   0.558   4.599   5.882
 6280SOL    HW219740   0.627   4.621   5.735
 6281SOL     OW19741   2.651   6.756   5.298
 6281SOL    HW119742   2.592   6.679   5.324
 6281SOL    HW219743   2.692   6.737   5.209
 6282SOL     OW19744   1.616   6.814   4.171
 6282SOL    HW119745   1.548   6.887   4.171
 6282SOL    HW219746   1.703   6.850   4.205
 6283SOL     OW19747   6.558   2.138   5.240
 6283SOL    HW119748   6.507   2.088   5.310
 6283SOL    HW219749   6.519   2.121   5.150
 6284SOL     OW19750   2.071   4.380   6.090
 6284SOL    HW119751   2.018   4.449   6.139
 6284SOL    HW219752   2.072   4.402   5.993
 6285SOL     OW19753   1.692   4.226   2.438
 6285SOL    HW119754   1.633   4.306   2.452
 6285SOL    HW219755   1.652   4.146   2.483
 6286SOL     OW19756   5.827   1.106   3.711
 6286SOL    HW119757   5.732   1.137   3.712
 6286SOL    HW219758   5.858   1.101   3.616
 6287SOL     OW19759   4.605   4.311   1.649
 6287SOL    HW119760   4.576   4.406   1.643
 6287SOL    HW219761   4.540   4.259   1.705
 6288SOL     OW19762   5.591   3.446   0.705
 6288SOL    HW119763   5.639   3.510   0.645
 6288SOL    HW219764   5.510   3.411   0.659
 6289SOL     OW19765   1.560   1.294   3.680
 6289SOL    HW119766   1.487   1.241   3.637
 6289SOL    HW219767   1.532   1.390   3.688
 6290SOL     OW19768   5.398   3.755   3.068
 6290SOL    HW119769   5.335   3.768   3.145
 6290SOL    HW219770   5.426   3.659   3.063
 6291SOL     OW19771   3.735   4.091   3.402
 6291SOL    HW119772   3.685   4.150   3.466
 6291SOL    HW219773   3.707   4.112   3.308
 6292SOL     OW19774   1.073   2.046   2.343
 6292SOL    HW119775   1.009   2.098   2.400
 6292SOL    HW219776   1.084   2.092   2.255
 6293SOL     OW19777   4.382   0.088   0.403
 6293SOL    HW119778   4.479   0.064   0.404
 6293SOL    HW219779   4.372   0.186   0.390
 6294SOL     OW19780   4.271   5.111   2.939
 6294SOL    HW119781   4.211   5.098   2.859
 6294SOL    HW219782   4.277   5.209   2.959
 6295SOL     OW19783   6.159   6.839   6.440
 6295SOL    HW119784   6.131   6.751   6.478
 6295SOL    HW219785   6.085   6.906   6.452
 6296SOL     OW19786   6.265   1.202   3.331
 6296SOL    HW119787   6.274   1.202   3.430
 6296SOL    HW219788   6.246   1.109   3.299
 6297SOL     OW19789   5.353   6.950   5.450
 6297SOL    HW119790   5.304   7.009   5.385
 6297SOL    HW219791   5.291   6.878   5.482
 6298SOL     OW19792   1.399   1.646   4.932
 6298SOL    HW119793   1.388   1.737   4.974
 6298SOL    HW219794   1.415   1.656   4.834
 6299SOL     OW19795   6.060   2.935   0.029
 6299SOL    HW119796   6.147   2.902   7.010
 6299SOL    HW219797   5.985   2.887   7.000
 6300SOL     OW19798   5.365   0.181   3.716
 6300SOL    HW119799   5.431   0.174   3.641
 6300SOL    HW219800   5.404   0.144   3.799
 6301SOL     OW19801   3.131   7.004   0.784
 6301SOL    HW119802   3.110   6.965   0.695
 6301SOL    HW219803   3.192   6.942   0.834
 6302SOL     OW19804   1.080   0.886   3.434
 6302SOL    HW119805   1.046   0.910   3.344
 6302SOL    HW219806   1.115   0.792   3.433
 6303SOL     OW19807   1.673   5.909   5.542
 6303SOL    HW119808   1.713   5.901   5.451
 6303SOL    HW219809   1.689   5.824   5.593
 6304SOL     OW19810   3.256   1.393   6.455
 6304SOL    HW119811   3.162   1.421   6.438
 6304SOL    HW219812   3.264   1.294   6.443
 6305SOL     OW19813   6.130   0.799   1.098
 6305SOL    HW119814   6.168   0.890   1.111
 6305SOL    HW219815   6.052   0.804   1.035
 6306SOL     OW19816   6.233   3.043   4.051
 6306SOL    HW119817   6.242   2.983   4.130
 6306SOL    HW219818   6.156   3.014   3.995
 6307SOL     OW19819   2.405   4.901   0.715
 6307SOL    HW119820   2.482   4.873   0.657
 6307SOL    HW219821   2.320   4.874   0.670
 6308SOL     OW19822   2.992   2.167   5.234
 6308SOL    HW119823   3.030   2.136   5.321
 6308SOL    HW219824   3.059   2.226   5.188
 6309SOL     OW19825   5.838   2.077   4.364
 6309SOL    HW119826   5.901   2.037   4.430
 6309SOL    HW219827   5.842   2.025   4.278
 6310SOL     OW19828   1.477   4.870   5.071
 6310SOL    HW119829   1.518   4.827   4.991
 6310SOL    HW219830   1.447   4.800   5.136
 6311SOL     OW19831   6.040   0.433   5.006
 6311SOL    HW119832   6.056   0.493   4.927
 6311SOL    HW219833   6.072   0.478   5.089
 6312SOL     OW19834   4.089   4.858   5.852
 6312SOL    HW119835   4.173   4.860   5.905
 6312SOL    HW219836   4.111   4.850   5.754
 6313SOL     OW19837   2.340   5.175   2.640
 6313SOL    HW119838   2.284   5.130   2.709
 6313SOL    HW219839   2.291   5.255   2.604
 6314SOL     OW19840   3.233   5.894   3.205
 6314SOL    HW119841   3.225   5.839   3.289
 6314SOL    HW219842   3.142   5.926   3.178
 6315SOL     OW19843   2.862   2.989   0.784
 6315SOL    HW119844   2.801   3.065   0.763
 6315SOL    HW219845   2.899   3.000   0.876
 6316SOL     OW19846   5.521   2.026   5.883
 6316SOL    HW119847   5.606   1.974   5.870
 6316SOL    HW219848   5.460   1.975   5.943
 6317SOL     OW19849   6.010   6.374   4.345
 6317SOL    HW119850   6.031   6.353   4.250
 6317SOL    HW219851   5.965   6.463   4.350
 6318SOL     OW19852   2.559   1.656   4.508
 6318SOL    HW119853   2.652   1.624   4.524
 6318SOL    HW219854   2.512   1.665   4.596
 6319SOL     OW19855   0.177   1.700   3.208
 6319SOL    HW119856   0.244   1.725   3.278
 6319SOL    HW219857   0.221   1.703   3.118
 6320SOL     OW19858   6.151   2.883   3.673
 6320SOL    HW119859   6.082   2.833   3.620
 6320SOL    HW219860   6.199   2.819   3.733
 6321SOL     OW19861   2.552   3.553   0.484
 6321SOL    HW119862   2.497   3.576   0.404
 6321SOL    HW219863   2.531   3.618   0.558
 6322SOL     OW19864   1.318   1.110   6.963
 6322SOL    HW119865   1.333   1.012   6.973
 6322SOL    HW219866   1.335   1.156   0.033
 6323SOL     OW19867   3.890   2.614   0.516
 6323SOL    HW119868   3.873   2.542   0.583
 6323SOL    HW219869   3.858   2.702   0.552
 6324SOL     OW19870   4.298   1.110   6.481
 6324SOL    HW119871   4.386   1.103   6.528
 6324SOL    HW219872   4.299   1.190   6.421
 6325SOL     OW19873   1.114   2.349   2.554
 6325SOL    HW119874   1.099   2.302   2.467
 6325SOL    HW219875   1.156   2.438   2.536
 6326SOL     OW19876   5.080   5.817   1.272
 6326SOL    HW119877   5.018   5.854   1.341
 6326SOL    HW219878   5.175   5.835   1.297
 6327SOL     OW19879   5.428   5.703   6.051
 6327SOL    HW119880   5.437   5.641   6.129
 6327SOL    HW219881   5.393   5.651   5.973
 6328SOL     OW19882   2.719   4.378   6.655
 6328SOL    HW119883   2.652   4.364   6.582
 6328SOL    HW219884   2.672   4.374   6.744
 6329SOL     OW19885   0.757   1.598   3.269
 6329SOL    HW119886   0.810   1.619   3.187
 6329SOL    HW219887   0.663   1.578   3.244
 6330SOL     OW19888   3.819   1.453   0.359
 6330SOL    HW119889   3.743   1.517   0.358
 6330SOL    HW219890   3.890   1.484   0.295
 6331SOL     OW19891   6.173   3.020   1.707
 6331SOL    HW119892   6.213   3.000   1.618
 6331SOL    HW219893   6.232   3.085   1.756
 6332SOL     OW19894   5.376   6.281   1.641
 6332SOL    HW119895   5.434   6.296   1.561
 6332SOL    HW219896   5.386   6.358   1.705
 6333SOL     OW19897   3.027   4.815   2.612
 6333SOL    HW119898   3.014   4.727   2.567
 6333SOL    HW219899   3.077   4.876   2.550
 6334SOL     OW19900   2.427   1.710   2.680
 6334SOL    HW119901   2.511   1.682   2.727
 6334SOL    HW219902   2.414   1.808   2.691
 6335SOL     OW19903   6.656   1.557   0.065
 6335SOL    HW119904   6.652   1.495   7.004
 6335SOL    HW219905   6.577   1.619   0.063
 6336SOL     OW19906   0.278   2.477   4.922
 6336SOL    HW119907   0.267   2.476   4.822
 6336SOL    HW219908   0.254   2.567   4.958
 6337SOL     OW19909   6.023   4.654   5.485
 6337SOL    HW119910   6.081   4.682   5.561
 6337SOL    HW219911   6.067   4.578   5.436
 6338SOL     OW19912   3.856   1.143   3.392
 6338SOL    HW119913   3.843   1.072   3.323
 6338SOL    HW219914   3.816   1.114   3.478
 6339SOL     OW19915   6.541   1.978   4.540
 6339SOL    HW119916   6.476   2.039   4.494
 6339SOL    HW219917   6.526   1.884   4.511
 6340SOL     OW19918   1.896   5.569   4.041
 6340SOL    HW119919   1.869   5.525   3.955
 6340SOL    HW219920   1.926   5.499   4.106
 6341SOL     OW19921   0.560   4.694   3.109
 6341SOL    HW119922   0.608   4.661   3.190
 6341SOL    HW219923   0.494   4.764   3.135
 6342SOL     OW19924   1.581   2.813   0.949
 6342SOL    HW119925   1.660   2.874   0.963
 6342SOL    HW219926   1.611   2.718   0.956
 6343SOL     OW19927   3.989   1.457   6.566
 6343SOL    HW119928   3.968   1.551   6.594
 6343SOL    HW219929   3.912   1.397   6.586
 6344SOL     OW19930   1.004   4.118   4.308
 6344SOL    HW119931   1.082   4.148   4.254
 6344SOL    HW219932   0.935   4.190   4.309
 6345SOL     OW19933   3.707   1.753   2.168
 6345SOL    HW119934   3.645   1.829   2.151
 6345SOL    HW219935   3.668   1.693   2.238
 6346SOL     OW19936   0.940   4.815   3.215
 6346SOL    HW119937   0.941   4.833   3.314
 6346SOL    HW219938   0.864   4.754   3.193
 6347SOL     OW19939   3.328   0.677   1.380
 6347SOL    HW119940   3.349   0.670   1.478
 6347SOL    HW219941   3.396   0.734   1.335
 6348SOL     OW19942   1.313   3.112   4.003
 6348SOL    HW119943   1.337   3.049   3.929
 6348SOL    HW219944   1.368   3.195   3.996
 6349SOL     OW19945   2.709   0.479   0.496
 6349SOL    HW119946   2.737   0.554   0.435
 6349SOL    HW219947   2.721   0.507   0.591
 6350SOL     OW19948   1.059   6.339   2.215
 6350SOL    HW119949   1.071   6.436   2.195
 6350SOL    HW219950   1.139   6.288   2.183
 6351SOL     OW19951   7.014   0.902   2.913
 6351SOL    HW119952   6.937   0.904   2.848
 6351SOL    HW219953   0.082   0.923   2.865
 6352SOL     OW19954   0.424   5.548   2.057
 6352SOL    HW119955   0.444   5.635   2.102
 6352SOL    HW219956   0.510   5.506   2.028
 6353SOL     OW19957   6.982   6.800   1.639
 6353SOL    HW119958   6.912   6.770   1.705
 6353SOL    HW219959   0.053   6.758   1.662
 6354SOL     OW19960   0.608   6.540   3.637
 6354SOL    HW119961   0.576   6.495   3.721
 6354SOL    HW219962   0.636   6.634   3.658
 6355SOL     OW19963   2.113   2.604   2.890
 6355SOL    HW119964   2.094   2.577   2.985
 6355SOL    HW219965   2.029   2.602   2.837
 6356SOL     OW19966   3.267   3.513   1.243
 6356SOL    HW119967   3.234   3.449   1.173
 6356SOL    HW219968   3.347   3.561   1.209
 6357SOL     OW19969   4.466   2.147   0.021
 6357SOL    HW119970   4.505   2.057   0.001
 6357SOL    HW219971   4.527   2.218   7.005
 6358SOL     OW19972   6.794   2.026   3.637
 6358SOL    HW119973   6.834   1.962   3.572
 6358SOL    HW219974   6.733   2.089   3.589
 6359SOL     OW19975   0.059   0.784   6.973
 6359SOL    HW119976   6.981   0.756   6.988
 6359SOL    HW219977   0.068   0.825   6.882
 6360SOL     OW19978   3.239   5.459   3.990
 6360SOL    HW119979   3.327   5.467   4.038
 6360SOL    HW219980   3.255   5.457   3.891
 6361SOL     OW19981   4.264   6.343   5.771
 6361SOL    HW119982   4.346   6.375   5.724
 6361SOL    HW219983   4.243   6.250   5.742
 6362SOL     OW19984   6.082   5.043   6.786
 6362SOL    HW119985   6.045   5.028   6.695
 6362SOL    HW219986   6.010   5.028   6.854
 6363SOL     OW19987   0.742   5.873   4.245
 6363SOL    HW119988   0.828   5.871   4.295
 6363SOL    HW219989   0.705   5.780   4.239
 6364SOL     OW19990   2.758   2.387   5.909
 6364SOL    HW119991   2.665   2.352   5.917
 6364SOL    HW219992   2.819   2.313   5.880
 6365SOL     OW19993   5.001   6.150   2.756
 6365SOL    HW119994   4.973   6.178   2.847
 6365SOL    HW219995   5.041   6.058   2.759
 6366SOL     OW19996   0.218   5.055   5.645
 6366SOL    HW119997   0.228   5.150   5.616
 6366SOL    HW219998   0.308   5.014   5.658
 6367SOL     OW19999   5.757   6.498   3.814
 6367SOL    HW120000   5.681   6.481   3.876
 6367SOL    HW220001   5.837   6.445   3.844
 6368SOL     OW20002   2.535   0.202   3.914
 6368SOL    HW120003   2.630   0.226   3.897
 6368SOL    HW220004   2.527   0.104   3.933
 6369SOL     OW20005   2.362   5.305   4.433
 6369SOL    HW120006   2.335   5.292   4.337
 6369SOL    HW220007   2.438   5.244   4.455
 6370SOL     OW20008   5.878   2.905   1.431
 6370SOL    HW120009   5.784   2.917   1.462
 6370SOL    HW220010   5.890   2.947   1.341
 6371SOL     OW20011   5.063   2.153   3.272
 6371SOL    HW120012   5.028   2.240   3.238
 6371SOL    HW220013   5.088   2.161   3.368
 6372SOL     OW20014   2.947   6.141   2.438
 6372SOL    HW120015   2.858   6.097   2.421
 6372SOL    HW220016   2.951   6.172   2.533
 6373SOL     OW20017   3.516   4.812   0.222
 6373SOL    HW120018   3.424   4.851   0.224
 6373SOL    HW220019   3.533   4.763   0.308
 6374SOL     OW20020   2.843   3.351   2.274
 6374SOL    HW120021   2.747   3.324   2.267
 6374SOL    HW220022   2.901   3.278   2.239
 6375SOL     OW20023   1.499   6.757   2.696
 6375SOL    HW120024   1.445   6.710   2.766
 6375SOL    HW220025   1.477   6.721   2.606
 6376SOL     OW20026   0.168   2.351   5.304
 6376SOL    HW120027   0.157   2.446   5.278
 6376SOL    HW220028   0.220   2.302   5.234
 6377SOL     OW20029   1.063   0.621   3.655
 6377SOL    HW120030   0.964   0.626   3.671
 6377SOL    HW220031   1.086   0.671   3.571
 6378SOL     OW20032   4.765   4.035   3.733
 6378SOL    HW120033   4.739   3.984   3.815
 6378SOL    HW220034   4.773   4.132   3.755
 6379SOL     OW20035   2.682   4.671   2.868
 6379SOL    HW120036   2.631   4.699   2.787
 6379SOL    HW220037   2.774   4.708   2.865
 6380SOL     OW20038   0.605   0.915   5.922
 6380SOL    HW120039   0.532   0.935   5.988
 6380SOL    HW220040   0.650   0.830   5.949
 6381SOL     OW20041   3.162   4.029   2.650
 6381SOL    HW120042   3.107   4.027   2.733
 6381SOL    HW220043   3.112   3.985   2.576
 6382SOL     OW20044   1.018   3.560   5.331
 6382SOL    HW120045   1.023   3.506   5.247
 6382SOL    HW220046   1.016   3.657   5.309
 6383SOL     OW20047   3.240   1.266   4.101
 6383SOL    HW120048   3.231   1.300   4.007
 6383SOL    HW220049   3.171   1.197   4.119
 6384SOL     OW20050   6.467   4.549   3.218
 6384SOL    HW120051   6.510   4.497   3.293
 6384SOL    HW220052   6.539   4.581   3.155
 6385SOL     OW20053   0.184   5.775   4.438
 6385SOL    HW120054   0.257   5.729   4.387
 6385SOL    HW220055   0.189   5.748   4.534
 6386SOL     OW20056   2.652   5.232   1.349
 6386SOL    HW120057   2.724   5.300   1.363
 6386SOL    HW220058   2.669   5.153   1.409
 6387SOL     OW20059   6.196   0.897   5.495
 6387SOL    HW120060   6.119   0.866   5.550
 6387SOL    HW220061   6.263   0.824   5.487
 6388SOL     OW20062   2.722   4.683   2.494
 6388SOL    HW120063   2.766   4.744   2.428
 6388SOL    HW220064   2.681   4.736   2.568
 6389SOL     OW20065   0.895   4.816   2.715
 6389SOL    HW120066   0.946   4.872   2.650
 6389SOL    HW220067   0.845   4.745   2.666
 6390SOL     OW20068   0.704   3.403   3.780
 6390SOL    HW120069   0.646   3.354   3.714
 6390SOL    HW220070   0.778   3.449   3.731
 6391SOL     OW20071   3.174   1.193   0.542
 6391SOL    HW120072   3.271   1.203   0.563
 6391SOL    HW220073   3.161   1.111   0.486
 6392SOL     OW20074   1.431   6.777   3.871
 6392SOL    HW120075   1.376   6.695   3.885
 6392SOL    HW220076   1.383   6.857   3.907
 6393SOL     OW20077   5.893   6.652   0.722
 6393SOL    HW120078   5.905   6.708   0.640
 6393SOL    HW220079   5.982   6.627   0.759
 6394SOL     OW20080   2.611   4.547   0.715
 6394SOL    HW120081   2.698   4.572   0.671
 6394SOL    HW220082   2.536   4.564   0.651
 6395SOL     OW20083   5.901   1.751   1.036
 6395SOL    HW120084   5.986   1.802   1.048
 6395SOL    HW220085   5.919   1.667   0.984
 6396SOL     OW20086   5.053   4.380   5.119
 6396SOL    HW120087   5.024   4.460   5.066
 6396SOL    HW220088   5.116   4.325   5.065
 6397SOL     OW20089   0.343   1.370   0.924
 6397SOL    HW120090   0.279   1.415   0.986
 6397SOL    HW220091   0.401   1.439   0.880
 6398SOL     OW20092   3.435   1.753   1.717
 6398SOL    HW120093   3.523   1.792   1.743
 6398SOL    HW220094   3.391   1.715   1.798
 6399SOL     OW20095   2.297   5.389   6.666
 6399SOL    HW120096   2.366   5.359   6.731
 6399SOL    HW220097   2.327   5.368   6.573
 6400SOL     OW20098   2.667   5.516   3.502
 6400SOL    HW120099   2.684   5.420   3.525
 6400SOL    HW220100   2.591   5.522   3.437
 6401SOL     OW20101   0.969   4.912   3.941
 6401SOL    HW120102   1.012   4.899   4.030
 6401SOL    HW220103   1.015   4.985   3.891
 6402SOL     OW20104   2.361   1.378   2.996
 6402SOL    HW120105   2.453   1.360   3.033
 6402SOL    HW220106   2.342   1.311   2.923
 6403SOL     OW20107   0.102   6.192   0.604
 6403SOL    HW120108   0.193   6.233   0.602
 6403SOL    HW220109   0.109   6.093   0.604
 6404SOL     OW20110   5.443   0.933   2.707
 6404SOL    HW120111   5.448   0.944   2.608
 6404SOL    HW220112   5.356   0.890   2.732
 6405SOL     OW20113   2.922   1.491   2.202
 6405SOL    HW120114   2.962   1.542   2.278
 6405SOL    HW220115   2.837   1.448   2.232
 6406SOL     OW20116   2.959   1.848   3.755
 6406SOL    HW120117   2.968   1.927   3.694
 6406SOL    HW220118   2.864   1.815   3.753
 6407SOL     OW20119   3.737   5.368   6.296
 6407SOL    HW120120   3.757   5.412   6.384
 6407SOL    HW220121   3.696   5.278   6.312
 6408SOL     OW20122   6.509   2.016   0.290
 6408SOL    HW120123   6.596   1.985   0.251
 6408SOL    HW220124   6.519   2.025   0.389
 6409SOL     OW20125   1.376   4.579   2.271
 6409SOL    HW120126   1.286   4.609   2.302
 6409SOL    HW220127   1.382   4.590   2.172
 6410SOL     OW20128   0.978   1.196   1.221
 6410SOL    HW120129   0.890   1.193   1.269
 6410SOL    HW220130   1.030   1.113   1.242
 6411SOL     OW20131   1.361   0.915   3.550
 6411SOL    HW120132   1.458   0.931   3.532
 6411SOL    HW220133   1.347   0.896   3.647
 6412SOL     OW20134   0.023   1.982   4.819
 6412SOL    HW120135   0.067   1.930   4.746
 6412SOL    HW220136   0.015   1.926   4.901
 6413SOL     OW20137   6.906   4.788   0.680
 6413SOL    HW120138   6.860   4.701   0.661
 6413SOL    HW220139   6.981   4.801   0.614
 6414SOL     OW20140   5.546   6.655   2.093
 6414SOL    HW120141   5.464   6.602   2.118
 6414SOL    HW220142   5.622   6.627   2.152
 6415SOL     OW20143   1.550   2.157   2.070
 6415SOL    HW120144   1.474   2.120   2.125
 6415SOL    HW220145   1.634   2.153   2.124
 6416SOL     OW20146   1.159   0.283   6.658
 6416SOL    HW120147   1.173   0.374   6.620
 6416SOL    HW220148   1.213   0.217   6.606
 6417SOL     OW20149   0.629   6.865   2.635
 6417SOL    HW120150   0.698   6.930   2.666
 6417SOL    HW220151   0.571   6.907   2.565
 6418SOL     OW20152   6.087   5.739   2.296
 6418SOL    HW120153   6.107   5.745   2.198
 6418SOL    HW220154   6.138   5.663   2.336
 6419SOL     OW20155   2.935   5.036   1.679
 6419SOL    HW120156   2.956   4.947   1.719
 6419SOL    HW220157   2.836   5.050   1.678
 6420SOL     OW20158   1.443   3.618   6.922
 6420SOL    HW120159   1.481   3.662   6.841
 6420SOL    HW220160   1.361   3.567   6.897
 6421SOL     OW20161   5.422   1.991   0.922
 6421SOL    HW120162   5.415   1.995   1.022
 6421SOL    HW220163   5.513   2.020   0.893
 6422SOL     OW20164   5.722   1.709   3.244
 6422SOL    HW120165   5.755   1.707   3.150
 6422SOL    HW220166   5.624   1.726   3.244
 6423SOL     OW20167   4.782   4.034   0.226
 6423SOL    HW120168   4.710   3.970   0.196
 6423SOL    HW220169   4.855   3.983   0.271
 6424SOL     OW20170   0.227   5.221   5.348
 6424SOL    HW120171   0.236   5.294   5.280
 6424SOL    HW220172   0.299   5.231   5.417
 6425SOL     OW20173   0.714   4.713   1.552
 6425SOL    HW120174   0.744   4.619   1.565
 6425SOL    HW220175   0.704   4.732   1.454
 6426SOL     OW20176   0.039   3.111   3.961
 6426SOL    HW120177   6.964   3.078   3.935
 6426SOL    HW220178   0.046   3.208   3.941
 6427SOL     OW20179   1.940   3.451   4.973
 6427SOL    HW120180   1.850   3.432   4.934
 6427SOL    HW220181   2.008   3.392   4.930
 6428SOL     OW20182   6.718   3.309   2.530
 6428SOL    HW120183   6.657   3.386   2.513
 6428SOL    HW220184   6.665   3.232   2.565
 6429SOL     OW20185   1.201   0.777   4.261
 6429SOL    HW120186   1.293   0.814   4.249
 6429SOL    HW220187   1.196   0.725   4.346
 6430SOL     OW20188   5.975   3.749   0.871
 6430SOL    HW120189   6.000   3.756   0.967
 6430SOL    HW220190   5.993   3.836   0.825
 6431SOL     OW20191   5.343   0.294   2.942
 6431SOL    HW120192   5.393   0.345   3.011
 6431SOL    HW220193   5.248   0.327   2.937
 6432SOL     OW20194   5.400   3.096   0.743
 6432SOL    HW120195   5.425   3.178   0.692
 6432SOL    HW220196   5.475   3.030   0.739
 6433SOL     OW20197   2.579   3.893   1.668
 6433SOL    HW120198   2.479   3.905   1.667
 6433SOL    HW220199   2.601   3.798   1.687
 6434SOL     OW20200   1.699   4.973   1.182
 6434SOL    HW120201   1.602   4.968   1.205
 6434SOL    HW220202   1.709   5.007   1.089
 6435SOL     OW20203   4.653   4.108   6.832
 6435SOL    HW120204   4.565   4.129   6.789
 6435SOL    HW220205   4.727   4.126   6.767
 6436SOL     OW20206   1.577   3.042   3.037
 6436SOL    HW120207   1.508   3.104   2.999
 6436SOL    HW220208   1.531   2.967   3.083
 6437SOL     OW20209   1.041   0.870   6.833
 6437SOL    HW120210   1.128   0.916   6.849
 6437SOL    HW220211   0.978   0.933   6.788
 6438SOL     OW20212   1.419   3.362   3.380
 6438SOL    HW120213   1.473   3.333   3.302
 6438SOL    HW220214   1.479   3.386   3.456
 6439SOL     OW20215   0.398   0.340   1.744
 6439SOL    HW120216   0.325   0.319   1.809
 6439SOL    HW220217   0.401   0.269   1.673
 6440SOL     OW20218   0.875   1.606   2.658
 6440SOL    HW120219   0.818   1.660   2.719
 6440SOL    HW220220   0.905   1.663   2.581
 6441SOL     OW20221   3.239   1.365   3.556
 6441SOL    HW120222   3.223   1.294   3.488
 6441SOL    HW220223   3.334   1.395   3.552
 6442SOL     OW20224   3.421   1.123   3.493
 6442SOL    HW120225   3.390   1.173   3.574
 6442SOL    HW220226   3.431   1.186   3.416
 6443SOL     OW20227   2.938   1.309   0.461
 6443SOL    HW120228   2.919   1.405   0.483
 6443SOL    HW220229   3.028   1.285   0.497
 6444SOL     OW20230   0.362   0.902   3.315
 6444SOL    HW120231   0.434   0.945   3.260
 6444SOL    HW220232   0.291   0.969   3.336
 6445SOL     OW20233   3.892   3.145   5.041
 6445SOL    HW120234   3.807   3.112   5.082
 6445SOL    HW220235   3.905   3.102   4.952
 6446SOL     OW20236   6.250   1.668   0.604
 6446SOL    HW120237   6.291   1.646   0.692
 6446SOL    HW220238   6.231   1.766   0.599
 6447SOL     OW20239   1.186   0.857   2.718
 6447SOL    HW120240   1.100   0.822   2.679
 6447SOL    HW220241   1.187   0.841   2.816
 6448SOL     OW20242   5.623   2.470   2.732
 6448SOL    HW120243   5.645   2.461   2.635
 6448SOL    HW220244   5.707   2.463   2.786
 6449SOL     OW20245   3.394   3.053   1.162
 6449SOL    HW120246   3.426   2.981   1.224
 6449SOL    HW220247   3.467   3.077   1.097
 6450SOL     OW20248   6.789   2.960   0.067
 6450SOL    HW120249   6.845   2.988   0.146
 6450SOL    HW220250   6.737   3.039   0.034
 6451SOL     OW20251   1.964   6.980   4.453
 6451SOL    HW120252   2.019   6.920   4.511
 6451SOL    HW220253   1.867   6.961   4.468
 6452SOL     OW20254   4.137   6.273   3.326
 6452SOL    HW120255   4.074   6.241   3.255
 6452SOL    HW220256   4.224   6.298   3.284
 6453SOL     OW20257   1.726   5.616   6.369
 6453SOL    HW120258   1.632   5.626   6.402
 6453SOL    HW220259   1.785   5.587   6.444
 6454SOL     OW20260   3.074   1.320   4.547
 6454SOL    HW120261   3.069   1.418   4.528
 6454SOL    HW220262   3.091   1.271   4.461
 6455SOL     OW20263   6.289   2.804   5.319
 6455SOL    HW120264   6.247   2.875   5.375
 6455SOL    HW220265   6.227   2.726   5.312
 6456SOL     OW20266   0.222   0.711   4.383
 6456SOL    HW120267   0.123   0.702   4.370
 6456SOL    HW220268   0.259   0.769   4.310
 6457SOL     OW20269   6.663   2.992   1.114
 6457SOL    HW120270   6.705   2.921   1.171
 6457SOL    HW220271   6.689   2.977   1.018
 6458SOL     OW20272   1.185   6.050   2.740
 6458SOL    HW120273   1.143   6.096   2.818
 6458SOL    HW220274   1.211   6.118   2.671
 6459SOL     OW20275   5.724   4.475   0.569
 6459SOL    HW120276   5.706   4.463   0.667
 6459SOL    HW220277   5.694   4.394   0.519
 6460SOL     OW20278   3.270   5.131   5.973
 6460SOL    HW120279   3.333   5.114   6.049
 6460SOL    HW220280   3.321   5.168   5.895
 6461SOL     OW20281   3.650   5.746   4.828
 6461SOL    HW120282   3.719   5.773   4.894
 6461SOL    HW220283   3.573   5.702   4.875
 6462SOL     OW20284   2.111   3.294   4.118
 6462SOL    HW120285   2.072   3.202   4.110
 6462SOL    HW220286   2.087   3.347   4.037
 6463SOL     OW20287   1.342   4.435   5.564
 6463SOL    HW120288   1.350   4.353   5.508
 6463SOL    HW220289   1.428   4.449   5.613
 6464SOL     OW20290   0.841   5.077   3.134
 6464SOL    HW120291   0.775   5.091   3.208
 6464SOL    HW220292   0.851   4.979   3.116
 6465SOL     OW20293   6.365   0.751   3.008
 6465SOL    HW120294   6.439   0.819   3.004
 6465SOL    HW220295   6.367   0.695   2.926
 6466SOL     OW20296   6.725   2.500   4.859
 6466SOL    HW120297   6.767   2.531   4.944
 6466SOL    HW220298   6.693   2.406   4.869
 6467SOL     OW20299   2.766   0.700   6.700
 6467SOL    HW120300   2.725   0.789   6.684
 6467SOL    HW220301   2.835   0.707   6.772
 6468SOL     OW20302   4.921   4.868   0.941
 6468SOL    HW120303   4.837   4.815   0.950
 6468SOL    HW220304   4.899   4.965   0.938
 6469SOL     OW20305   0.083   1.547   5.594
 6469SOL    HW120306   0.000   1.505   5.556
 6469SOL    HW220307   0.072   1.557   5.693
 6470SOL     OW20308   6.771   6.593   5.885
 6470SOL    HW120309   6.704   6.571   5.815
 6470SOL    HW220310   6.860   6.556   5.858
 6471SOL     OW20311   5.555   4.689   5.772
 6471SOL    HW120312   5.589   4.781   5.792
 6471SOL    HW220313   5.623   4.639   5.719
 6472SOL     OW20314   1.301   6.158   0.919
 6472SOL    HW120315   1.278   6.179   0.824
 6472SOL    HW220316   1.246   6.080   0.950
 6473SOL     OW20317   2.394   1.669   6.189
 6473SOL    HW120318   2.489   1.683   6.219
 6473SOL    HW220319   2.369   1.573   6.201
 6474SOL     OW20320   1.982   3.324   5.364
 6474SOL    HW120321   2.037   3.283   5.292
 6474SOL    HW220322   1.961   3.419   5.340
 6475SOL     OW20323   4.302   6.353   3.959
 6475SOL    HW120324   4.289   6.280   3.892
 6475SOL    HW220325   4.213   6.388   3.988
 6476SOL     OW20326   4.738   5.138   2.944
 6476SOL    HW120327   4.686   5.053   2.937
 6476SOL    HW220328   4.723   5.179   3.034
 6477SOL     OW20329   6.995   5.942   6.948
 6477SOL    HW120330   0.040   5.904   0.001
 6477SOL    HW220331   6.980   5.875   6.876
 6478SOL     OW20332   4.828   6.394   1.004
 6478SOL    HW120333   4.920   6.434   0.996
 6478SOL    HW220334   4.813   6.331   0.929
 6479SOL     OW20335   3.779   5.330   2.757
 6479SOL    HW120336   3.712   5.390   2.802
 6479SOL    HW220337   3.871   5.353   2.790
 6480SOL     OW20338   2.828   2.247   6.903
 6480SOL    HW120339   2.829   2.155   6.941
 6480SOL    HW220340   2.902   2.257   6.836
 6481SOL     OW20341   5.184   0.765   1.191
 6481SOL    HW120342   5.236   0.838   1.235
 6481SOL    HW220343   5.097   0.801   1.158
 6482SOL     OW20344   0.233   0.702   6.573
 6482SOL    HW120345   0.211   0.606   6.559
 6482SOL    HW220346   0.149   0.756   6.580
 6483SOL     OW20347   2.093   6.567   2.448
 6483SOL    HW120348   2.039   6.484   2.456
 6483SOL    HW220349   2.054   6.627   2.378
 6484SOL     OW20350   5.326   6.833   3.764
 6484SOL    HW120351   5.423   6.809   3.770
 6484SOL    HW220352   5.289   6.802   3.676
 6485SOL     OW20353   1.469   2.822   3.171
 6485SOL    HW120354   1.539   2.775   3.117
 6485SOL    HW220355   1.445   2.765   3.250
 6486SOL     OW20356   1.701   3.188   3.258
 6486SOL    HW120357   1.752   3.111   3.296
 6486SOL    HW220358   1.669   3.164   3.166
 6487SOL     OW20359   5.969   6.237   3.874
 6487SOL    HW120360   5.962   6.143   3.907
 6487SOL    HW220361   6.017   6.293   3.942
 6488SOL     OW20362   3.465   5.418   5.922
 6488SOL    HW120363   3.524   5.337   5.918
 6488SOL    HW220364   3.408   5.422   5.840
 6489SOL     OW20365   2.057   1.807   5.666
 6489SOL    HW120366   1.985   1.815   5.735
 6489SOL    HW220367   2.019   1.768   5.582
 6490SOL     OW20368   3.170   0.947   0.414
 6490SOL    HW120369   3.176   0.900   0.327
 6490SOL    HW220370   3.246   0.918   0.473
 6491SOL     OW20371   3.572   1.935   6.485
 6491SOL    HW120372   3.502   1.956   6.553
 6491SOL    HW220373   3.560   1.842   6.453
 6492SOL     OW20374   5.972   5.911   0.355
 6492SOL    HW120375   5.945   5.948   0.266
 6492SOL    HW220376   5.993   5.986   0.418
 6493SOL     OW20377   0.821   6.491   6.178
 6493SOL    HW120378   0.744   6.540   6.136
 6493SOL    HW220379   0.787   6.419   6.237
 6494SOL     OW20380   1.458   0.423   3.859
 6494SOL    HW120381   1.470   0.492   3.788
 6494SOL    HW220382   1.499   0.455   3.945
 6495SOL     OW20383   5.395   5.040   3.046
 6495SOL    HW120384   5.465   4.969   3.055
 6495SOL    HW220385   5.322   5.023   3.112
 6496SOL     OW20386   2.071   0.103   2.343
 6496SOL    HW120387   2.143   0.136   2.404
 6496SOL    HW220388   2.106   0.026   2.289
 6497SOL     OW20389   0.674   4.286   0.034
 6497SOL    HW120390   0.753   4.228   0.015
 6497SOL    HW220391   0.696   4.381   0.013
 6498SOL     OW20392   1.905   4.678   3.955
 6498SOL    HW120393   1.992   4.658   3.998
 6498SOL    HW220394   1.867   4.594   3.915
 6499SOL     OW20395   5.947   1.258   3.955
 6499SOL    HW120396   5.919   1.166   3.928
 6499SOL    HW220397   5.885   1.325   3.914
 6500SOL     OW20398   5.594   5.139   3.692
 6500SOL    HW120399   5.518   5.185   3.647
 6500SOL    HW220400   5.560   5.061   3.745
 6501SOL     OW20401   0.129   4.038   0.926
 6501SOL    HW120402   0.059   3.978   0.887
 6501SOL    HW220403   0.157   4.106   0.858
 6502SOL     OW20404   1.355   5.191   2.498
 6502SOL    HW120405   1.328   5.122   2.565
 6502SOL    HW220406   1.299   5.273   2.510
 6503SOL     OW20407   4.653   0.198   4.829
 6503SOL    HW120408   4.633   0.244   4.742
 6503SOL    HW220409   4.720   0.252   4.880
 6504SOL     OW20410   2.918   0.994   0.980
 6504SOL    HW120411   2.980   0.974   0.905
 6504SOL    HW220412   2.908   0.913   1.038
 6505SOL     OW20413   5.736   4.997   1.198
 6505SOL    HW120414   5.759   4.925   1.264
 6505SOL    HW220415   5.645   4.980   1.161
 6506SOL     OW20416   2.331   2.201   0.699
 6506SOL    HW120417   2.266   2.265   0.742
 6506SOL    HW220418   2.352   2.127   0.764
 6507SOL     OW20419   2.221   1.053   1.895
 6507SOL    HW120420   2.171   0.969   1.915
 6507SOL    HW220421   2.312   1.031   1.860
 6508SOL     OW20422   1.773   1.592   2.879
 6508SOL    HW120423   1.728   1.525   2.820
 6508SOL    HW220424   1.783   1.679   2.830
 6509SOL     OW20425   0.340   2.276   4.589
 6509SOL    HW120426   0.318   2.345   4.520
 6509SOL    HW220427   0.439   2.262   4.591
 6510SOL     OW20428   5.512   4.536   6.069
 6510SOL    HW120429   5.569   4.531   5.988
 6510SOL    HW220430   5.416   4.547   6.042
 6511SOL     OW20431   6.298   5.978   6.202
 6511SOL    HW120432   6.318   5.886   6.169
 6511SOL    HW220433   6.346   5.995   6.287
 6512SOL     OW20434   4.947   6.825   3.762
 6512SOL    HW120435   4.889   6.906   3.756
 6512SOL    HW220436   5.027   6.846   3.818
 6513SOL     OW20437   3.193   0.210   2.935
 6513SOL    HW120438   3.285   0.230   2.971
 6513SOL    HW220439   3.141   0.159   3.003
 6514SOL     OW20440   3.349   6.844   3.785
 6514SOL    HW120441   3.251   6.850   3.765
 6514SOL    HW220442   3.370   6.897   3.867
 6515SOL     OW20443   1.117   0.373   5.098
 6515SOL    HW120444   1.034   0.325   5.068
 6515SOL    HW220445   1.091   0.452   5.153
 6516SOL     OW20446   1.011   1.808   5.562
 6516SOL    HW120447   0.954   1.733   5.529
 6516SOL    HW220448   1.040   1.865   5.486
 6517SOL     OW20449   1.152   1.680   6.861
 6517SOL    HW120450   1.134   1.778   6.865
 6517SOL    HW220451   1.085   1.635   6.803
 6518SOL     OW20452   6.450   6.167   1.048
 6518SOL    HW120453   6.504   6.131   1.124
 6518SOL    HW220454   6.395   6.245   1.081
 6519SOL     OW20455   2.305   2.046   3.502
 6519SOL    HW120456   2.335   2.131   3.544
 6519SOL    HW220457   2.304   2.055   3.403
 6520SOL     OW20458   5.799   5.782   1.415
 6520SOL    HW120459   5.773   5.685   1.409
 6520SOL    HW220460   5.817   5.817   1.323
 6521SOL     OW20461   0.805   1.661   5.419
 6521SOL    HW120462   0.717   1.674   5.466
 6521SOL    HW220463   0.799   1.582   5.358
 6522SOL     OW20464   2.320   5.170   5.507
 6522SOL    HW120465   2.366   5.111   5.574
 6522SOL    HW220466   2.388   5.219   5.452
 6523SOL     OW20467   1.902   1.956   6.252
 6523SOL    HW120468   1.838   1.995   6.318
 6523SOL    HW220469   1.995   1.985   6.274
 6524SOL     OW20470   3.183   4.105   4.417
 6524SOL    HW120471   3.279   4.090   4.397
 6524SOL    HW220472   3.172   4.192   4.467
 6525SOL     OW20473   6.998   2.777   3.752
 6525SOL    HW120474   0.006   2.814   3.841
 6525SOL    HW220475   6.903   2.748   3.753
 6526SOL     OW20476   1.579   6.202   4.595
 6526SOL    HW120477   1.609   6.130   4.532
 6526SOL    HW220478   1.587   6.291   4.549
 6527SOL     OW20479   1.480   1.229   4.366
 6527SOL    HW120480   1.411   1.167   4.328
 6527SOL    HW220481   1.565   1.220   4.315
 6528SOL     OW20482   6.518   0.601   3.825
 6528SOL    HW120483   6.606   0.565   3.854
 6528SOL    HW220484   6.502   0.577   3.729
 6529SOL     OW20485   6.952   2.112   2.409
 6529SOL    HW120486   6.853   2.127   2.409
 6529SOL    HW220487   6.989   2.130   2.318
 6530SOL     OW20488   6.959   2.008   0.645
 6530SOL    HW120489   6.929   2.052   0.730
 6530SOL    HW220490   0.041   2.015   0.637
 6531SOL     OW20491   4.779   2.819   4.538
 6531SOL    HW120492   4.861   2.871   4.511
 6531SOL    HW220493   4.788   2.724   4.509
 6532SOL     OW20494   6.999   1.912   6.548
 6532SOL    HW120495   7.001   1.922   6.648
 6532SOL    HW220496   0.074   1.889   6.515
 6533SOL     OW20497   4.701   0.412   1.084
 6533SOL    HW120498   4.628   0.470   1.121
 6533SOL    HW220499   4.665   0.320   1.068
 6534SOL     OW20500   2.102   3.766   1.107
 6534SOL    HW120501   2.158   3.708   1.166
 6534SOL    HW220502   2.014   3.784   1.151
 6535SOL     OW20503   1.253   4.000   5.564
 6535SOL    HW120504   1.157   4.029   5.565
 6535SOL    HW220505   1.259   3.906   5.530
 6536SOL     OW20506   0.192   2.714   0.113
 6536SOL    HW120507   0.160   2.779   0.182
 6536SOL    HW220508   0.134   2.632   0.115
 6537SOL     OW20509   1.291   6.942   0.713
 6537SOL    HW120510   1.302   0.016   0.671
 6537SOL    HW220511   1.340   6.874   0.660
 6538SOL     OW20512   2.179   3.237   6.521
 6538SOL    HW120513   2.124   3.157   6.496
 6538SOL    HW220514   2.119   3.313   6.544
 6539SOL     OW20515   2.360   1.785   6.900
 6539SOL    HW120516   2.270   1.783   6.856
 6539SOL    HW220517   2.409   1.700   6.880
 6540SOL     OW20518   3.029   1.076   4.046
 6540SOL    HW120519   2.992   1.133   3.974
 6540SOL    HW220520   2.978   0.991   4.052
 6541SOL     OW20521   2.304   2.029   6.035
 6541SOL    HW120522   2.382   1.993   6.086
 6541SOL    HW220523   2.247   1.954   6.003
 6542SOL     OW20524   6.188   4.451   3.314
 6542SOL    HW120525   6.258   4.522   3.316
 6542SOL    HW220526   6.230   4.362   3.327
 6543SOL     OW20527   6.668   5.924   0.254
 6543SOL    HW120528   6.568   5.920   0.261
 6543SOL    HW220529   6.694   5.973   0.171
 6544SOL     OW20530   6.525   6.306   4.462
 6544SOL    HW120531   6.435   6.321   4.502
 6544SOL    HW220532   6.557   6.390   4.418
 6545SOL     OW20533   5.111   2.096   5.739
 6545SOL    HW120534   5.121   2.053   5.828
 6545SOL    HW220535   5.065   2.184   5.749
 6546SOL     OW20536   2.862   4.310   6.325
 6546SOL    HW120537   2.800   4.365   6.381
 6546SOL    HW220538   2.839   4.213   6.334
 6547SOL     OW20539   4.590   2.300   6.683
 6547SOL    HW120540   4.550   2.218   6.642
 6547SOL    HW220541   4.530   2.333   6.757
 6548SOL     OW20542   6.877   5.240   5.441
 6548SOL    HW120543   6.793   5.259   5.390
 6548SOL    HW220544   6.854   5.212   5.534
 6549SOL     OW20545   3.697   1.481   1.146
 6549SOL    HW120546   3.754   1.415   1.098
 6549SOL    HW220547   3.713   1.572   1.109
 6550SOL     OW20548   0.520   5.371   3.284
 6550SOL    HW120549   0.571   5.457   3.292
 6550SOL    HW220550   0.573   5.297   3.325
 6551SOL     OW20551   1.875   5.221   2.617
 6551SOL    HW120552   1.973   5.201   2.622
 6551SOL    HW220553   1.831   5.156   2.555
 6552SOL     OW20554   3.394   4.952   6.170
 6552SOL    HW120555   3.464   4.902   6.118
 6552SOL    HW220556   3.330   4.887   6.211
 6553SOL     OW20557   0.002   2.919   2.618
 6553SOL    HW120558   0.044   3.002   2.583
 6553SOL    HW220559   6.964   2.941   2.699
 6554SOL     OW20560   0.384   2.731   5.396
 6554SOL    HW120561   0.449   2.657   5.375
 6554SOL    HW220562   0.422   2.818   5.366
 6555SOL     OW20563   0.165   1.429   2.035
 6555SOL    HW120564   0.145   1.418   1.938
 6555SOL    HW220565   0.086   1.468   2.081
 6556SOL     OW20566   3.501   6.883   4.155
 6556SOL    HW120567   3.453   6.796   4.163
 6556SOL    HW220568   3.590   6.877   4.200
 6557SOL     OW20569   6.463   5.885   0.991
 6557SOL    HW120570   6.469   5.831   1.075
 6557SOL    HW220571   6.440   5.980   1.013
 6558SOL     OW20572   6.179   5.414   6.886
 6558SOL    HW120573   6.173   5.387   6.790
 6558SOL    HW220574   6.160   5.512   6.894
 6559SOL     OW20575   3.784   3.414   0.795
 6559SOL    HW120576   3.863   3.422   0.856
 6559SOL    HW220577   3.816   3.399   0.701
 6560SOL     OW20578   3.840   2.320   0.166
 6560SOL    HW120579   3.892   2.294   0.085
 6560SOL    HW220580   3.888   2.394   0.213
 6561SOL     OW20581   4.064   3.766   4.583
 6561SOL    HW120582   4.092   3.732   4.493
 6561SOL    HW220583   4.029   3.860   4.574
 6562SOL     OW20584   6.078   3.968   5.705
 6562SOL    HW120585   6.145   3.957   5.632
 6562SOL    HW220586   6.116   3.934   5.791
 6563SOL     OW20587   1.661   5.583   1.903
 6563SOL    HW120588   1.661   5.580   2.003
 6563SOL    HW220589   1.569   5.606   1.870
 6564SOL     OW20590   1.188   5.350   2.632
 6564SOL    HW120591   1.181   5.313   2.725
 6564SOL    HW220592   1.183   5.450   2.636
 6565SOL     OW20593   6.429   2.891   5.643
 6565SOL    HW120594   6.392   2.984   5.634
 6565SOL    HW220595   6.499   2.890   5.714
 6566SOL     OW20596   3.401   6.846   0.540
 6566SOL    HW120597   3.341   6.790   0.483
 6566SOL    HW220598   3.376   6.942   0.532
 6567SOL     OW20599   5.677   3.087   1.501
 6567SOL    HW120600   5.706   3.183   1.508
 6567SOL    HW220601   5.631   3.073   1.413
 6568SOL     OW20602   3.857   4.865   1.371
 6568SOL    HW120603   3.779   4.895   1.424
 6568SOL    HW220604   3.825   4.821   1.287
 6569SOL     OW20605   0.151   4.489   6.584
 6569SOL    HW120606   0.212   4.542   6.643
 6569SOL    HW220607   0.110   4.550   6.516
 6570SOL     OW20608   6.532   2.358   0.909
 6570SOL    HW120609   6.447   2.315   0.879
 6570SOL    HW220610   6.511   2.434   0.971
 6571SOL     OW20611   2.820   5.927   3.834
 6571SOL    HW120612   2.750   5.982   3.880
 6571SOL    HW220613   2.846   5.851   3.893
 6572SOL     OW20614   0.789   3.766   6.219
 6572SOL    HW120615   0.887   3.749   6.223
 6572SOL    HW220616   0.763   3.787   6.125
 6573SOL     OW20617   1.943   1.833   2.460
 6573SOL    HW120618   1.897   1.746   2.478
 6573SOL    HW220619   2.031   1.834   2.509
 6574SOL     OW20620   2.886   5.158   2.961
 6574SOL    HW120621   2.923   5.081   3.012
 6574SOL    HW220622   2.925   5.160   2.869
 6575SOL     OW20623   0.537   1.247   3.131
 6575SOL    HW120624   0.523   1.240   3.033
 6575SOL    HW220625   0.554   1.156   3.169
 6576SOL     OW20626   0.995   6.149   5.902
 6576SOL    HW120627   1.078   6.179   5.856
 6576SOL    HW220628   1.016   6.120   5.995
 6577SOL     OW20629   6.232   1.752   4.038
 6577SOL    HW120630   6.252   1.693   4.116
 6577SOL    HW220631   6.136   1.742   4.012
 6578SOL     OW20632   6.294   5.028   3.717
 6578SOL    HW120633   6.342   5.008   3.802
 6578SOL    HW220634   6.328   5.115   3.680
 6579SOL     OW20635   0.561   3.957   2.476
 6579SOL    HW120636   0.549   3.884   2.409
 6579SOL    HW220637   0.532   3.925   2.566
 6580SOL     OW20638   6.225   2.504   1.712
 6580SOL    HW120639   6.201   2.588   1.760
 6580SOL    HW220640   6.145   2.470   1.661
 6581SOL     OW20641   2.594   1.829   5.835
 6581SOL    HW120642   2.661   1.897   5.807
 6581SOL    HW220643   2.629   1.737   5.816
 6582SOL     OW20644   6.771   6.925   2.927
 6582SOL    HW120645   6.681   6.883   2.914
 6582SOL    HW220646   6.761   0.008   2.933
 6583SOL     OW20647   6.132   1.871   5.657
 6583SOL    HW120648   6.061   1.938   5.639
 6583SOL    HW220649   6.142   1.857   5.755
 6584SOL     OW20650   5.864   1.474   6.535
 6584SOL    HW120651   5.830   1.380   6.531
 6584SOL    HW220652   5.953   1.480   6.490
 6585SOL     OW20653   1.984   1.100   0.020
 6585SOL    HW120654   1.985   1.154   0.103
 6585SOL    HW220655   2.040   1.145   6.967
 6586SOL     OW20656   6.923   2.586   5.986
 6586SOL    HW120657   6.935   2.681   6.016
 6586SOL    HW220658   7.001   2.531   6.015
 6587SOL     OW20659   2.231   6.585   2.834
 6587SOL    HW120660   2.315   6.613   2.788
 6587SOL    HW220661   2.195   6.502   2.791
 6588SOL     OW20662   2.125   3.204   6.862
 6588SOL    HW120663   2.060   3.170   6.794
 6588SOL    HW220664   2.170   3.128   6.907
 6589SOL     OW20665   4.642   1.842   5.707
 6589SOL    HW120666   4.596   1.799   5.785
 6589SOL    HW220667   4.648   1.777   5.631
 6590SOL     OW20668   6.633   1.188   5.319
 6590SOL    HW120669   6.696   1.243   5.374
 6590SOL    HW220670   6.685   1.118   5.269
 6591SOL     OW20671   5.695   0.820   2.705
 6591SOL    HW120672   5.731   0.803   2.797
 6591SOL    HW220673   5.597   0.840   2.711
 6592SOL     OW20674   4.669   5.891   4.666
 6592SOL    HW120675   4.578   5.882   4.627
 6592SOL    HW220676   4.713   5.801   4.670
 6593SOL     OW20677   3.904   0.808   2.476
 6593SOL    HW120678   3.889   0.718   2.518
 6593SOL    HW220679   3.956   0.866   2.538
 6594SOL     OW20680   5.853   0.585   5.979
 6594SOL    HW120681   5.760   0.620   5.962
 6594SOL    HW220682   5.919   0.640   5.929
 6595SOL     OW20683   1.123   4.123   0.440
 6595SOL    HW120684   1.071   4.146   0.522
 6595SOL    HW220685   1.219   4.111   0.464
 6596SOL     OW20686   4.046   6.826   4.815
 6596SOL    HW120687   4.042   6.886   4.894
 6596SOL    HW220688   4.047   6.881   4.731
 6597SOL     OW20689   0.214   4.747   5.399
 6597SOL    HW120690   0.313   4.758   5.405
 6597SOL    HW220691   0.175   4.745   5.491
 6598SOL     OW20692   1.694   5.695   5.678
 6598SOL    HW120693   1.733   5.604   5.688
 6598SOL    HW220694   1.657   5.725   5.766
 6599SOL     OW20695   4.166   4.135   6.057
 6599SOL    HW120696   4.148   4.141   6.155
 6599SOL    HW220697   4.086   4.168   6.006
 6600SOL     OW20698   4.858   6.140   4.244
 6600SOL    HW120699   4.824   6.202   4.315
 6600SOL    HW220700   4.881   6.194   4.163
 6601SOL     OW20701   1.419   0.194   1.219
 6601SOL    HW120702   1.382   0.114   1.173
 6601SOL    HW220703   1.513   0.209   1.189
 6602SOL     OW20704   6.580   1.362   1.396
 6602SOL    HW120705   6.591   1.398   1.488
 6602SOL    HW220706   6.483   1.350   1.376
 6603SOL     OW20707   2.200   3.125   3.431
 6603SOL    HW120708   2.203   3.199   3.363
 6603SOL    HW220709   2.276   3.062   3.414
 6604SOL     OW20710   3.528   6.137   2.675
 6604SOL    HW120711   3.585   6.219   2.661
 6604SOL    HW220712   3.564   6.062   2.620
 6605SOL     OW20713   6.023   6.588   0.289
 6605SOL    HW120714   5.961   6.664   0.306
 6605SOL    HW220715   6.030   6.571   0.191
 6606SOL     OW20716   5.068   1.053   2.719
 6606SOL    HW120717   5.043   1.136   2.769
 6606SOL    HW220718   5.130   0.998   2.774
 6607SOL     OW20719   1.065   2.812   3.088
 6607SOL    HW120720   1.039   2.791   3.182
 6607SOL    HW220721   1.081   2.910   3.079
 6608SOL     OW20722   5.908   3.644   4.867
 6608SOL    HW120723   5.941   3.565   4.814
 6608SOL    HW220724   5.809   3.649   4.860
 6609SOL     OW20725   5.873   1.664   6.745
 6609SOL    HW120726   5.799   1.672   6.811
 6609SOL    HW220727   5.855   1.586   6.684
 6610SOL     OW20728   2.708   0.894   0.318
 6610SOL    HW120729   2.777   0.844   0.266
 6610SOL    HW220730   2.626   0.837   0.327
 6611SOL     OW20731   5.733   2.961   2.922
 6611SOL    HW120732   5.772   3.051   2.898
 6611SOL    HW220733   5.717   2.957   3.021
 6612SOL     OW20734   1.585   6.408   6.730
 6612SOL    HW120735   1.646   6.465   6.675
 6612SOL    HW220736   1.494   6.406   6.688
 6613SOL     OW20737   4.801   5.512   1.531
 6613SOL    HW120738   4.894   5.511   1.494
 6613SOL    HW220739   4.750   5.435   1.494
 6614SOL     OW20740   5.675   5.457   6.237
 6614SOL    HW120741   5.578   5.435   6.226
 6614SOL    HW220742   5.684   5.546   6.281
 6615SOL     OW20743   0.968   3.748   4.991
 6615SOL    HW120744   0.925   3.796   4.914
 6615SOL    HW220745   1.042   3.691   4.956
 6616SOL     OW20746   4.816   0.544   4.925
 6616SOL    HW120747   4.876   0.472   4.888
 6616SOL    HW220748   4.731   0.546   4.872
 6617SOL     OW20749   3.988   6.992   5.004
 6617SOL    HW120750   4.057   6.988   5.076
 6617SOL    HW220751   3.969   0.071   4.981
 6618SOL     OW20752   0.967   4.290   1.681
 6618SOL    HW120753   1.026   4.261   1.606
 6618SOL    HW220754   1.018   4.349   1.744
 6619SOL     OW20755   5.183   5.742   2.595
 6619SOL    HW120756   5.091   5.752   2.633
 6619SOL    HW220757   5.192   5.652   2.553
 6620SOL     OW20758   2.464   3.003   5.657
 6620SOL    HW120759   2.384   2.945   5.673
 6620SOL    HW220760   2.436   3.087   5.611
 6621SOL     OW20761   2.565   4.057   0.040
 6621SOL    HW120762   2.474   4.083   0.010
 6621SOL    HW220763   2.608   4.000   6.986
 6622SOL     OW20764   6.704   0.162   0.732
 6622SOL    HW120765   6.767   0.096   0.689
 6622SOL    HW220766   6.699   0.245   0.676
 6623SOL     OW20767   3.631   3.650   2.005
 6623SOL    HW120768   3.690   3.667   1.927
 6623SOL    HW220769   3.543   3.614   1.973
 6624SOL     OW20770   4.315   4.815   4.020
 6624SOL    HW120771   4.311   4.913   4.036
 6624SOL    HW220772   4.410   4.785   4.017
 6625SOL     OW20773   6.339   0.324   0.497
 6625SOL    HW120774   6.308   0.384   0.570
 6625SOL    HW220775   6.434   0.299   0.512
 6626SOL     OW20776   3.283   4.894   3.340
 6626SOL    HW120777   3.367   4.894   3.394
 6626SOL    HW220778   3.306   4.901   3.243
 6627SOL     OW20779   1.911   6.047   1.728
 6627SOL    HW120780   1.927   6.108   1.651
 6627SOL    HW220781   1.876   5.959   1.695
 6628SOL     OW20782   3.912   6.163   3.183
 6628SOL    HW120783   3.862   6.177   3.097
 6628SOL    HW220784   3.850   6.127   3.252
 6629SOL     OW20785   3.339   4.595   0.027
 6629SOL    HW120786   3.300   4.564   0.114
 6629SOL    HW220787   3.345   4.695   0.026
 6630SOL     OW20788   2.874   2.182   6.286
 6630SOL    HW120789   2.852   2.278   6.265
 6630SOL    HW220790   2.966   2.177   6.326
 6631SOL     OW20791   4.464   0.763   2.214
 6631SOL    HW120792   4.457   0.670   2.250
 6631SOL    HW220793   4.547   0.807   2.248
 6632SOL     OW20794   0.057   2.082   2.079
 6632SOL    HW120795   0.077   2.050   1.986
 6632SOL    HW220796   0.128   2.050   2.141
 6633SOL     OW20797   0.371   0.054   1.111
 6633SOL    HW120798   0.360   6.976   1.139
 6633SOL    HW220799   0.339   0.064   1.016
 6634SOL     OW20800   6.656   2.935   5.828
 6634SOL    HW120801   6.669   2.880   5.911
 6634SOL    HW220802   6.737   2.925   5.769
 6635SOL     OW20803   4.801   4.377   3.640
 6635SOL    HW120804   4.806   4.292   3.588
 6635SOL    HW220805   4.727   4.434   3.605
 6636SOL     OW20806   1.848   2.524   4.298
 6636SOL    HW120807   1.942   2.555   4.304
 6636SOL    HW220808   1.832   2.484   4.207
 6637SOL     OW20809   6.381   1.392   1.056
 6637SOL    HW120810   6.471   1.349   1.059
 6637SOL    HW220811   6.337   1.382   1.146
 6638SOL     OW20812   2.249   5.692   5.708
 6638SOL    HW120813   2.162   5.740   5.719
 6638SOL    HW220814   2.296   5.689   5.796
 6639SOL     OW20815   5.657   5.755   0.088
 6639SOL    HW120816   5.683   5.759   0.185
 6639SOL    HW220817   5.567   5.798   0.076
 6640SOL     OW20818   5.548   3.369   3.667
 6640SOL    HW120819   5.465   3.348   3.615
 6640SOL    HW220820   5.545   3.463   3.699
 6641SOL     OW20821   1.960   4.226   6.429
 6641SOL    HW120822   1.907   4.230   6.344
 6641SOL    HW220823   2.028   4.299   6.429
 6642SOL     OW20824   0.344   6.298   0.552
 6642SOL    HW120825   0.390   6.213   0.527
 6642SOL    HW220826   0.410   6.372   0.556
 6643SOL     OW20827   4.481   5.250   0.058
 6643SOL    HW120828   4.526   5.187   0.122
 6643SOL    HW220829   4.533   5.252   6.989
 6644SOL     OW20830   2.799   4.801   2.218
 6644SOL    HW120831   2.790   4.717   2.164
 6644SOL    HW220832   2.732   4.869   2.186
 6645SOL     OW20833   0.506   5.098   5.391
 6645SOL    HW120834   0.455   5.134   5.468
 6645SOL    HW220835   0.566   5.024   5.422
 6646SOL     OW20836   2.479   5.654   3.643
 6646SOL    HW120837   2.554   5.608   3.595
 6646SOL    HW220838   2.391   5.617   3.611
 6647SOL     OW20839   3.409   1.952   2.336
 6647SOL    HW120840   3.330   2.013   2.348
 6647SOL    HW220841   3.461   1.981   2.256
 6648SOL     OW20842   4.580   5.551   2.202
 6648SOL    HW120843   4.641   5.630   2.199
 6648SOL    HW220844   4.607   5.492   2.278
 6649SOL     OW20845   3.995   2.657   6.306
 6649SOL    HW120846   3.946   2.695   6.228
 6649SOL    HW220847   3.950   2.573   6.336
 6650SOL     OW20848   3.150   2.009   3.156
 6650SOL    HW120849   3.115   2.081   3.215
 6650SOL    HW220850   3.210   2.049   3.086
 6651SOL     OW20851   1.330   2.328   6.795
 6651SOL    HW120852   1.288   2.292   6.878
 6651SOL    HW220853   1.260   2.340   6.724
 6652SOL     OW20854   6.675   5.364   3.097
 6652SOL    HW120855   6.750   5.422   3.129
 6652SOL    HW220856   6.602   5.421   3.060
 6653SOL     OW20857   3.701   3.279   3.507
 6653SOL    HW120858   3.619   3.267   3.562
 6653SOL    HW220859   3.680   3.335   3.427
 6654SOL     OW20860   2.039   3.480   1.778
 6654SOL    HW120861   2.098   3.455   1.855
 6654SOL    HW220862   2.064   3.425   1.698
 6655SOL     OW20863   2.370   6.841   1.435
 6655SOL    HW120864   2.373   6.760   1.377
 6655SOL    HW220865   2.458   6.888   1.431
 6656SOL     OW20866   6.168   2.675   1.283
 6656SOL    HW120867   6.144   2.597   1.225
 6656SOL    HW220868   6.245   2.649   1.342
 6657SOL     OW20869   2.768   6.441   6.285
 6657SOL    HW120870   2.828   6.363   6.266
 6657SOL    HW220871   2.725   6.472   6.200
 6658SOL     OW20872   5.020   0.855   5.797
 6658SOL    HW120873   5.050   0.926   5.860
 6658SOL    HW220874   5.070   0.862   5.711
 6659SOL     OW20875   1.413   3.167   6.460
 6659SOL    HW120876   1.453   3.196   6.374
 6659SOL    HW220877   1.482   3.120   6.515
 6660SOL     OW20878   6.720   6.571   3.074
 6660SOL    HW120879   6.653   6.499   3.055
 6660SOL    HW220880   6.690   6.623   3.154
 6661SOL     OW20881   0.248   6.414   3.690
 6661SOL    HW120882   0.310   6.399   3.612
 6661SOL    HW220883   0.155   6.425   3.656
 6662SOL     OW20884   1.228   3.095   6.812
 6662SOL    HW120885   1.155   3.160   6.792
 6662SOL    HW220886   1.229   3.023   6.743
 6663SOL     OW20887   0.425   5.773   2.205
 6663SOL    HW120888   0.360   5.783   2.281
 6663SOL    HW220889   0.484   5.853   2.200
 6664SOL     OW20890   1.076   1.366   3.114
 6664SOL    HW120891   1.054   1.383   3.018
 6664SOL    HW220892   1.099   1.453   3.159
 6665SOL     OW20893   2.563   6.746   3.036
 6665SOL    HW120894   2.626   6.773   2.964
 6665SOL    HW220895   2.537   6.650   3.025
 6666SOL     OW20896   6.408   0.440   6.955
 6666SOL    HW120897   6.408   0.378   0.017
 6666SOL    HW220898   6.315   0.455   6.923
 6667SOL     OW20899   6.731   4.930   4.793
 6667SOL    HW120900   6.719   4.999   4.722
 6667SOL    HW220901   6.780   4.851   4.755
 6668SOL     OW20902   1.030   4.763   1.542
 6668SOL    HW120903   1.040   4.815   1.458
 6668SOL    HW220904   0.933   4.739   1.555
 6669SOL     OW20905   2.322   6.158   2.635
 6669SOL    HW120906   2.259   6.149   2.558
 6669SOL    HW220907   2.380   6.077   2.640
 6670SOL     OW20908   3.886   4.780   0.045
 6670SOL    HW120909   3.804   4.796   7.007
 6670SOL    HW220910   3.895   4.853   0.112
 6671SOL     OW20911   0.071   2.750   4.774
 6671SOL    HW120912   0.021   2.665   4.756
 6671SOL    HW220913   0.156   2.728   4.822
 6672SOL     OW20914   1.879   0.985   5.544
 6672SOL    HW120915   1.911   0.900   5.586
 6672SOL    HW220916   1.874   0.973   5.445
 6673SOL     OW20917   4.702   4.796   1.426
 6673SOL    HW120918   4.729   4.700   1.414
 6673SOL    HW220919   4.739   4.851   1.351
 6674SOL     OW20920   0.876   6.870   4.370
 6674SOL    HW120921   0.934   6.948   4.393
 6674SOL    HW220922   0.831   6.887   4.282
 6675SOL     OW20923   6.063   5.184   0.359
 6675SOL    HW120924   6.057   5.227   0.449
 6675SOL    HW220925   6.145   5.217   0.311
 6676SOL     OW20926   1.173   2.518   6.083
 6676SOL    HW120927   1.203   2.612   6.068
 6676SOL    HW220928   1.124   2.485   6.002
 6677SOL     OW20929   0.554   3.419   0.160
 6677SOL    HW120930   0.581   3.508   0.196
 6677SOL    HW220931   0.627   3.382   0.103
 6678SOL     OW20932   1.322   3.123   5.469
 6678SOL    HW120933   1.332   3.146   5.566
 6678SOL    HW220934   1.252   3.183   5.428
 6679SOL     OW20935   1.371   1.897   4.505
 6679SOL    HW120936   1.322   1.842   4.437
 6679SOL    HW220937   1.436   1.957   4.459
 6680SOL     OW20938   3.049   6.654   6.332
 6680SOL    HW120939   2.959   6.617   6.310
 6680SOL    HW220940   3.039   6.748   6.366
 6681SOL     OW20941   5.556   5.125   0.154
 6681SOL    HW120942   5.644   5.104   0.195
 6681SOL    HW220943   5.483   5.109   0.221
 6682SOL     OW20944   0.066   6.332   1.856
 6682SOL    HW120945   0.068   6.431   1.862
 6682SOL    HW220946   0.079   6.303   1.761
 6683SOL     OW20947   5.500   2.221   4.101
 6683SOL    HW120948   5.581   2.200   4.046
 6683SOL    HW220949   5.452   2.299   4.062
 6684SOL     OW20950   2.019   6.988   2.682
 6684SOL    HW120951   2.008   6.898   2.724
 6684SOL    HW220952   1.934   0.023   2.693
 6685SOL     OW20953   5.291   3.505   6.471
 6685SOL    HW120954   5.343   3.585   6.443
 6685SOL    HW220955   5.352   3.434   6.505
 6686SOL     OW20956   6.146   3.643   3.776
 6686SOL    HW120957   6.105   3.556   3.803
 6686SOL    HW220958   6.075   3.705   3.743
 6687SOL     OW20959   1.674   1.797   0.152
 6687SOL    HW120960   1.626   1.721   0.199
 6687SOL    HW220961   1.750   1.828   0.209
 6688SOL     OW20962   0.529   4.959   2.764
 6688SOL    HW120963   0.554   5.055   2.768
 6688SOL    HW220964   0.601   4.903   2.805
 6689SOL     OW20965   4.319   4.787   0.140
 6689SOL    HW120966   4.370   4.770   0.225
 6689SOL    HW220967   4.258   4.711   0.123
 6690SOL     OW20968   2.033   2.209   1.065
 6690SOL    HW120969   1.984   2.167   1.141
 6690SOL    HW220970   2.130   2.217   1.088
 6691SOL     OW20971   1.929   4.660   1.482
 6691SOL    HW120972   1.850   4.721   1.484
 6691SOL    HW220973   2.003   4.703   1.430
 6692SOL     OW20974   3.309   3.996   6.014
 6692SOL    HW120975   3.227   4.052   6.014
 6692SOL    HW220976   3.292   3.913   6.068
 6693SOL     OW20977   4.135   3.291   5.109
 6693SOL    HW120978   4.054   3.233   5.103
 6693SOL    HW220979   4.207   3.255   5.050
 6694SOL     OW20980   3.056   6.142   0.933
 6694SOL    HW120981   2.998   6.125   0.854
 6694SOL    HW220982   3.069   6.057   0.984
 6695SOL     OW20983   1.620   2.247   0.247
 6695SOL    HW120984   1.652   2.260   0.153
 6695SOL    HW220985   1.610   2.336   0.291
 6696SOL     OW20986   2.201   3.064   1.849
 6696SOL    HW120987   2.278   3.112   1.808
 6696SOL    HW220988   2.182   3.103   1.939
 6697SOL     OW20989   4.935   1.471   3.143
 6697SOL    HW120990   4.900   1.546   3.087
 6697SOL    HW220991   4.866   1.444   3.210
 6698SOL     OW20992   3.691   3.591   0.176
 6698SOL    HW120993   3.757   3.518   0.155
 6698SOL    HW220994   3.726   3.647   0.251
 6699SOL     OW20995   1.098   3.761   0.156
 6699SOL    HW120996   1.049   3.824   0.096
 6699SOL    HW220997   1.057   3.670   0.150
 6700SOL     OW20998   6.808   6.480   0.118
 6700SOL    HW120999   6.783   6.392   0.158
 6700SOL    HW221000   6.730   6.543   0.122
 6701SOL     OW21001   1.035   1.887   0.841
 6701SOL    HW121002   1.032   1.805   0.899
 6701SOL    HW221003   1.004   1.966   0.894
 6702SOL     OW21004   2.665   2.426   0.781
 6702SOL    HW121005   2.664   2.450   0.684
 6702SOL    HW221006   2.734   2.356   0.797
 6703SOL     OW21007   0.435   2.256   6.559
 6703SOL    HW121008   0.487   2.211   6.632
 6703SOL    HW221009   0.453   2.354   6.561
 6704SOL     OW21010   5.219   2.030   2.559
 6704SOL    HW121011   5.318   2.026   2.542
 6704SOL    HW221012   5.194   1.958   2.624
 6705SOL     OW21013   5.903   1.305   0.215
 6705SOL    HW121014   5.926   1.322   0.311
 6705SOL    HW221015   5.968   1.239   0.177
 6706SOL     OW21016   0.275   5.008   6.264
 6706SOL    HW121017   0.330   4.927   6.288
 6706SOL    HW221018   0.313   5.088   6.310
 6707SOL     OW21019   1.134   6.535   2.452
 6707SOL    HW121020   1.134   6.443   2.492
 6707SOL    HW221021   1.196   6.538   2.374
 6708SOL     OW21022   2.345   5.916   1.361
 6708SOL    HW121023   2.248   5.891   1.370
 6708SOL    HW221024   2.397   5.835   1.334
 6709SOL     OW21025   4.615   1.357   2.941
 6709SOL    HW121026   4.679   1.430   2.921
 6709SOL    HW221027   4.663   1.269   2.939
 6710SOL     OW21028   2.886   2.585   0.994
 6710SOL    HW121029   2.839   2.503   1.028
 6710SOL    HW221030   2.903   2.575   0.896
 6711SOL     OW21031   3.547   3.940   1.218
 6711SOL    HW121032   3.629   3.903   1.261
 6711SOL    HW221033   3.572   4.016   1.158
 6712SOL     OW21034   3.367   5.750   0.355
 6712SOL    HW121035   3.314   5.671   0.324
 6712SOL    HW221036   3.427   5.781   0.281
 6713SOL     OW21037   2.019   2.072   2.297
 6713SOL    HW121038   2.095   2.099   2.356
 6713SOL    HW221039   1.986   1.982   2.325
 6714SOL     OW21040   6.122   0.283   3.805
 6714SOL    HW121041   6.197   0.345   3.830
 6714SOL    HW221042   6.136   0.250   3.712
 6715SOL     OW21043   0.744   1.691   1.227
 6715SOL    HW121044   0.657   1.732   1.256
 6715SOL    HW221045   0.795   1.661   1.307
 6716SOL     OW21046   2.567   5.869   0.753
 6716SOL    HW121047   2.532   5.868   0.660
 6716SOL    HW221048   2.498   5.907   0.814
 6717SOL     OW21049   3.444   1.686   6.759
 6717SOL    HW121050   3.461   1.695   6.857
 6717SOL    HW221051   3.415   1.775   6.722
 6718SOL     OW21052   3.722   0.479   6.805
 6718SOL    HW121053   3.648   0.441   6.750
 6718SOL    HW221054   3.747   0.569   6.769
 6719SOL     OW21055   0.629   0.467   5.725
 6719SOL    HW121056   0.578   0.389   5.688
 6719SOL    HW221057   0.565   0.539   5.752
 6720SOL     OW21058   1.965   4.714   1.986
 6720SOL    HW121059   1.949   4.795   2.043
 6720SOL    HW221060   1.931   4.632   2.033
 6721SOL     OW21061   6.450   6.664   4.002
 6721SOL    HW121062   6.378   6.665   3.933
 6721SOL    HW221063   6.534   6.625   3.963
 6722SOL     OW21064   4.512   3.742   0.164
 6722SOL    HW121065   4.448   3.676   0.125
 6722SOL    HW221066   4.569   3.781   0.091
 6723SOL     OW21067   3.933   6.747   2.139
 6723SOL    HW121068   3.975   6.772   2.052
 6723SOL    HW221069   3.877   6.823   2.172
 6724SOL     OW21070   3.462   4.673   5.312
 6724SOL    HW121071   3.491   4.578   5.295
 6724SOL    HW221072   3.368   4.674   5.344
 6725SOL     OW21073   0.565   4.730   2.491
 6725SOL    HW121074   0.539   4.794   2.563
 6725SOL    HW221075   0.655   4.755   2.455
 6726SOL     OW21076   2.547   2.140   2.632
 6726SOL    HW121077   2.572   2.067   2.568
 6726SOL    HW221078   2.573   2.229   2.594
 6727SOL     OW21079   3.910   4.226   0.183
 6727SOL    HW121080   3.857   4.144   0.206
 6727SOL    HW221081   3.998   4.222   0.229
 6728SOL     OW21082   4.567   0.928   4.270
 6728SOL    HW121083   4.510   0.897   4.345
 6728SOL    HW221084   4.511   0.975   4.202
 6729SOL     OW21085   5.801   6.900   2.606
 6729SOL    HW121086   5.791   6.959   2.526
 6729SOL    HW221087   5.843   6.952   2.680
 6730SOL     OW21088   1.742   0.415   0.732
 6730SOL    HW121089   1.693   0.330   0.711
 6730SOL    HW221090   1.816   0.429   0.667
 6731SOL     OW21091   2.376   4.829   2.072
 6731SOL    HW121092   2.319   4.870   2.001
 6731SOL    HW221093   2.320   4.772   2.132
 6732SOL     OW21094   2.114   4.166   1.139
 6732SOL    HW121095   2.019   4.134   1.147
 6732SOL    HW221096   2.113   4.266   1.132
 6733SOL     OW21097   5.687   5.809   6.035
 6733SOL    HW121098   5.697   5.895   6.085
 6733SOL    HW221099   5.596   5.771   6.052
 6734SOL     OW21100   2.144   3.565   5.663
 6734SOL    HW121101   2.200   3.583   5.583
 6734SOL    HW221102   2.189   3.496   5.721
 6735SOL     OW21103   0.044   5.195   5.934
 6735SOL    HW121104   0.102   5.115   5.952
 6735SOL    HW221105   6.993   5.204   6.007
 6736SOL     OW21106   2.143   3.781   2.660
 6736SOL    HW121107   2.141   3.799   2.562
 6736SOL    HW221108   2.137   3.683   2.677
 6737SOL     OW21109   2.305   1.329   0.954
 6737SOL    HW121110   2.227   1.375   0.912
 6737SOL    HW221111   2.330   1.250   0.899
 6738SOL     OW21112   3.877   1.622   2.004
 6738SOL    HW121113   3.808   1.679   2.049
 6738SOL    HW221114   3.961   1.675   1.993
 6739SOL     OW21115   3.855   6.606   4.838
 6739SOL    HW121116   3.790   6.642   4.905
 6739SOL    HW221117   3.929   6.671   4.824
 6740SOL     OW21118   6.173   2.923   4.531
 6740SOL    HW121119   6.154   2.827   4.514
 6740SOL    HW221120   6.103   2.980   4.487
 6741SOL     OW21121   0.048   7.016   6.362
 6741SOL    HW121122   0.146   0.005   6.344
 6741SOL    HW221123   7.017   6.988   6.279
 6742SOL     OW21124   6.449   6.048   5.922
 6742SOL    HW121125   6.423   6.110   5.995
 6742SOL    HW221126   6.378   6.048   5.851
 6743SOL     OW21127   4.829   3.367   1.017
 6743SOL    HW121128   4.756   3.311   1.056
 6743SOL    HW221129   4.792   3.455   0.986
 6744SOL     OW21130   4.911   4.975   5.832
 6744SOL    HW121131   5.010   4.960   5.824
 6744SOL    HW221132   4.888   5.065   5.794
 6745SOL     OW21133   6.971   3.860   3.930
 6745SOL    HW121134   6.900   3.836   3.864
 6745SOL    HW221135   0.043   3.863   3.885
 6746SOL     OW21136   0.198   1.484   1.140
 6746SOL    HW121137   0.261   1.516   1.211
 6746SOL    HW221138   0.107   1.522   1.156
 6747SOL     OW21139   5.675   6.035   6.178
 6747SOL    HW121140   5.643   6.101   6.110
 6747SOL    HW221141   5.772   6.049   6.196
 6748SOL     OW21142   0.012   0.319   2.043
 6748SOL    HW121143   0.054   0.235   2.079
 6748SOL    HW221144   6.968   0.358   2.112
 6749SOL     OW21145   3.626   6.048   1.273
 6749SOL    HW121146   3.632   6.145   1.250
 6749SOL    HW221147   3.606   6.039   1.371
 6750SOL     OW21148   2.638   3.222   5.353
 6750SOL    HW121149   2.575   3.246   5.427
 6750SOL    HW221150   2.592   3.159   5.291
 6751SOL     OW21151   3.115   2.209   5.470
 6751SOL    HW121152   3.074   2.288   5.516
 6751SOL    HW221153   3.192   2.238   5.414
 6752SOL     OW21154   6.192   2.260   0.378
 6752SOL    HW121155   6.163   2.229   0.288
 6752SOL    HW221156   6.258   2.335   0.368
 6753SOL     OW21157   5.187   1.980   6.026
 6753SOL    HW121158   5.273   1.959   6.072
 6753SOL    HW221159   5.111   1.944   6.079
 6754SOL     OW21160   5.399   0.835   0.373
 6754SOL    HW121161   5.440   0.761   0.426
 6754SOL    HW221162   5.356   0.798   0.290
 6755SOL     OW21163   5.361   1.498   3.226
 6755SOL    HW121164   5.348   1.511   3.324
 6755SOL    HW221165   5.372   1.587   3.182
 6756SOL     OW21166   5.054   4.121   3.989
 6756SOL    HW121167   5.069   4.112   4.087
 6756SOL    HW221168   4.956   4.123   3.970
 6757SOL     OW21169   5.100   5.121   2.025
 6757SOL    HW121170   5.044   5.123   2.109
 6757SOL    HW221171   5.150   5.035   2.021
 6758SOL     OW21172   5.299   2.025   3.087
 6758SOL    HW121173   5.215   2.080   3.085
 6758SOL    HW221174   5.358   2.051   3.011
 6759SOL     OW21175   0.292   4.841   3.650
 6759SOL    HW121176   0.334   4.763   3.695
 6759SOL    HW221177   0.252   4.812   3.563
 6760SOL     OW21178   0.141   4.201   4.810
 6760SOL    HW121179   0.087   4.223   4.891
 6760SOL    HW221180   0.239   4.213   4.830
 6761SOL     OW21181   5.799   3.413   6.433
 6761SOL    HW121182   5.802   3.315   6.413
 6761SOL    HW221183   5.730   3.431   6.503
 6762SOL     OW21184   5.642   4.867   3.824
 6762SOL    HW121185   5.701   4.836   3.749
 6762SOL    HW221186   5.692   4.863   3.910
 6763SOL     OW21187   5.320   6.191   5.936
 6763SOL    HW121188   5.254   6.194   5.861
 6763SOL    HW221189   5.317   6.101   5.980
 6764SOL     OW21190   2.310   3.579   6.924
 6764SOL    HW121191   2.275   3.508   6.986
 6764SOL    HW221192   2.410   3.578   6.925
 6765SOL     OW21193   4.850   5.192   2.718
 6765SOL    HW121194   4.810   5.177   2.809
 6765SOL    HW221195   4.826   5.116   2.658
 6766SOL     OW21196   1.362   1.471   5.380
 6766SOL    HW121197   1.336   1.401   5.447
 6766SOL    HW221198   1.404   1.548   5.428
 6767SOL     OW21199   1.219   2.522   5.529
 6767SOL    HW121200   1.201   2.486   5.438
 6767SOL    HW221201   1.134   2.524   5.582
 6768SOL     OW21202   0.320   0.433   5.502
 6768SOL    HW121203   0.227   0.403   5.524
 6768SOL    HW221204   0.386   0.367   5.539
 6769SOL     OW21205   1.538   2.937   6.567
 6769SOL    HW121206   1.563   2.865   6.632
 6769SOL    HW221207   1.579   2.918   6.478
 6770SOL     OW21208   6.819   1.147   3.985
 6770SOL    HW121209   6.826   1.222   4.050
 6770SOL    HW221210   6.911   1.122   3.953
 6771SOL     OW21211   4.094   1.792   1.987
 6771SOL    HW121212   4.173   1.826   2.039
 6771SOL    HW221213   4.024   1.862   1.983
 6772SOL     OW21214   0.482   1.137   1.553
 6772SOL    HW121215   0.418   1.135   1.630
 6772SOL    HW221216   0.439   1.183   1.475
 6773SOL     OW21217   1.077   1.061   1.991
 6773SOL    HW121218   1.023   1.142   2.015
 6773SOL    HW221219   1.069   0.992   2.063
 6774SOL     OW21220   2.940   1.239   5.523
 6774SOL    HW121221   3.028   1.257   5.480
 6774SOL    HW221222   2.872   1.303   5.488
 6775SOL     OW21223   0.798   2.823   4.977
 6775SOL    HW121224   0.880   2.787   4.932
 6775SOL    HW221225   0.780   2.771   5.060
 6776SOL     OW21226   3.398   3.602   3.451
 6776SOL    HW121227   3.304   3.588   3.481
 6776SOL    HW221228   3.457   3.618   3.530
 6777SOL     OW21229   0.155   6.441   6.730
 6777SOL    HW121230   0.097   6.413   6.653
 6777SOL    HW221231   0.104   6.502   6.790
 6778SOL     OW21232   5.844   5.650   2.385
 6778SOL    HW121233   5.802   5.727   2.433
 6778SOL    HW221234   5.929   5.680   2.341
 6779SOL     OW21235   5.095   4.169   6.471
 6779SOL    HW121236   5.193   4.151   6.482
 6779SOL    HW221237   5.066   4.136   6.381
 6780SOL     OW21238   3.967   1.402   1.873
 6780SOL    HW121239   3.955   1.490   1.918
 6780SOL    HW221240   3.886   1.345   1.890
 6781SOL     OW21241   6.184   2.587   2.980
 6781SOL    HW121242   6.128   2.586   3.063
 6781SOL    HW221243   6.125   2.604   2.901
 6782SOL     OW21244   6.976   1.870   3.196
 6782SOL    HW121245   6.915   1.818   3.136
 6782SOL    HW221246   0.043   1.817   3.212
 6783SOL     OW21247   0.558   6.298   6.020
 6783SOL    HW121248   0.593   6.245   5.944
 6783SOL    HW221249   0.617   6.377   6.036
 6784SOL     OW21250   1.333   4.509   1.230
 6784SOL    HW121251   1.432   4.502   1.244
 6784SOL    HW221252   1.288   4.532   1.316
 6785SOL     OW21253   5.365   4.612   3.558
 6785SOL    HW121254   5.319   4.666   3.487
 6785SOL    HW221255   5.318   4.524   3.567
 6786SOL     OW21256   6.399   2.232   5.913
 6786SOL    HW121257   6.310   2.215   5.870
 6786SOL    HW221258   6.396   2.202   6.008
 6787SOL     OW21259   2.950   1.567   0.590
 6787SOL    HW121260   2.884   1.642   0.583
 6787SOL    HW221261   2.945   1.526   0.681
 6788SOL     OW21262   0.572   4.407   1.002
 6788SOL    HW121263   0.519   4.470   0.946
 6788SOL    HW221264   0.550   4.313   0.976
 6789SOL     OW21265   5.758   4.841   2.403
 6789SOL    HW121266   5.669   4.886   2.414
 6789SOL    HW221267   5.747   4.757   2.351
 6790SOL     OW21268   0.467   6.036   0.455
 6790SOL    HW121269   0.537   5.974   0.419
 6790SOL    HW221270   0.429   5.998   0.539
 6791SOL     OW21271   2.238   6.438   3.264
 6791SOL    HW121272   2.228   6.369   3.192
 6791SOL    HW221273   2.241   6.393   3.353
 6792SOL     OW21274   3.818   6.880   6.042
 6792SOL    HW121275   3.894   6.885   5.977
 6792SOL    HW221276   3.846   6.921   6.129
 6793SOL     OW21277   1.975   3.164   6.105
 6793SOL    HW121278   1.973   3.237   6.037
 6793SOL    HW221279   2.000   3.202   6.194
 6794SOL     OW21280   5.559   2.580   5.329
 6794SOL    HW121281   5.637   2.639   5.350
 6794SOL    HW221282   5.492   2.631   5.274
 6795SOL     OW21283   1.271   0.698   1.592
 6795SOL    HW121284   1.258   0.767   1.663
 6795SOL    HW221285   1.368   0.692   1.568
 6796SOL     OW21286   6.792   1.766   3.029
 6796SOL    HW121287   6.729   1.719   3.092
 6796SOL    HW221288   6.837   1.698   2.971
 6797SOL     OW21289   0.656   3.134   1.096
 6797SOL    HW121290   0.704   3.121   1.183
 6797SOL    HW221291   0.716   3.104   1.021
 6798SOL     OW21292   4.949   1.416   1.843
 6798SOL    HW121293   4.967   1.351   1.917
 6798SOL    HW221294   4.903   1.496   1.880
 6799SOL     OW21295   6.687   0.172   2.943
 6799SOL    HW121296   6.662   0.163   2.847
 6799SOL    HW221297   6.677   0.267   2.972
 6800SOL     OW21298   6.581   2.839   1.469
 6800SOL    HW121299   6.638   2.837   1.551
 6800SOL    HW221300   6.485   2.832   1.496
 6801SOL     OW21301   1.113   5.912   6.289
 6801SOL    HW121302   1.200   5.913   6.339
 6801SOL    HW221303   1.084   5.817   6.274
 6802SOL     OW21304   2.934   4.757   1.760
 6802SOL    HW121305   3.009   4.781   1.821
 6802SOL    HW221306   2.877   4.687   1.804
 6803SOL     OW21307   5.181   5.435   6.440
 6803SOL    HW121308   5.090   5.415   6.403
 6803SOL    HW221309   5.211   5.358   6.497
 6804SOL     OW21310   3.568   5.327   2.133
 6804SOL    HW121311   3.511   5.379   2.070
 6804SOL    HW221312   3.597   5.387   2.208
 6805SOL     OW21313   0.803   3.941   4.309
 6805SOL    HW121314   0.889   3.991   4.316
 6805SOL    HW221315   0.738   3.977   4.376
 6806SOL     OW21316   6.230   3.330   2.025
 6806SOL    HW121317   6.141   3.296   2.055
 6806SOL    HW221318   6.249   3.417   2.071
 6807SOL     OW21319   3.318   4.127   2.322
 6807SOL    HW121320   3.316   4.194   2.248
 6807SOL    HW221321   3.256   4.157   2.395
 6808SOL     OW21322   3.487   0.626   3.541
 6808SOL    HW121323   3.529   0.555   3.485
 6808SOL    HW221324   3.505   0.715   3.500
 6809SOL     OW21325   5.854   2.970   0.331
 6809SOL    HW121326   5.827   2.874   0.326
 6809SOL    HW221327   5.952   2.979   0.313
 6810SOL     OW21328   2.719   0.683   4.671
 6810SOL    HW121329   2.773   0.754   4.626
 6810SOL    HW221330   2.623   0.693   4.643
 6811SOL     OW21331   6.644   1.635   1.237
 6811SOL    HW121332   6.611   1.545   1.265
 6811SOL    HW221333   6.705   1.672   1.307
 6812SOL     OW21334   3.232   4.857   5.040
 6812SOL    HW121335   3.311   4.804   5.009
 6812SOL    HW221336   3.182   4.805   5.108
 6813SOL     OW21337   0.379   4.057   2.200
 6813SOL    HW121338   0.378   4.124   2.274
 6813SOL    HW221339   0.469   4.057   2.156
 6814SOL     OW21340   5.730   1.340   0.909
 6814SOL    HW121341   5.679   1.259   0.880
 6814SOL    HW221342   5.668   1.404   0.954
 6815SOL     OW21343   0.760   5.974   6.781
 6815SOL    HW121344   0.687   5.995   6.846
 6815SOL    HW221345   0.720   5.947   6.693
 6816SOL     OW21346   6.577   6.663   4.717
 6816SOL    HW121347   6.621   6.732   4.659
 6816SOL    HW221348   6.492   6.634   4.675
 6817SOL     OW21349   4.679   2.054   1.349
 6817SOL    HW121350   4.707   2.114   1.424
 6817SOL    HW221351   4.645   1.968   1.387
 6818SOL     OW21352   0.844   0.175   5.287
 6818SOL    HW121353   0.800   0.088   5.310
 6818SOL    HW221354   0.844   0.187   5.188
 6819SOL     OW21355   4.965   4.301   1.708
 6819SOL    HW121356   4.941   4.317   1.804
 6819SOL    HW221357   4.927   4.374   1.652
 6820SOL     OW21358   2.496   4.992   1.746
 6820SOL    HW121359   2.552   5.004   1.828
 6820SOL    HW221360   2.517   4.904   1.703
 6821SOL     OW21361   3.304   2.910   5.984
 6821SOL    HW121362   3.272   2.894   6.078
 6821SOL    HW221363   3.235   2.963   5.934
 6822SOL     OW21364   5.652   3.923   5.550
 6822SOL    HW121365   5.656   3.829   5.516
 6822SOL    HW221366   5.575   3.931   5.614
 6823SOL     OW21367   0.930   2.688   5.990
 6823SOL    HW121368   0.964   2.760   5.930
 6823SOL    HW221369   0.933   2.600   5.942
 6824SOL     OW21370   1.342   0.432   5.369
 6824SOL    HW121371   1.362   0.386   5.282
 6824SOL    HW221372   1.355   0.367   5.444
 6825SOL     OW21373   4.182   4.393   1.289
 6825SOL    HW121374   4.116   4.340   1.236
 6825SOL    HW221375   4.168   4.491   1.271
 6826SOL     OW21376   6.021   0.499   3.539
 6826SOL    HW121377   5.981   0.563   3.474
 6826SOL    HW221378   6.039   0.546   3.626
 6827SOL     OW21379   4.546   5.918   5.262
 6827SOL    HW121380   4.449   5.932   5.285
 6827SOL    HW221381   4.601   5.927   5.345
 6828SOL     OW21382   3.488   1.974   2.064
 6828SOL    HW121383   3.403   1.958   2.015
 6828SOL    HW221384   3.529   2.060   2.033
 6829SOL     OW21385   4.169   6.975   3.409
 6829SOL    HW121386   4.071   6.970   3.427
 6829SOL    HW221387   4.206   6.882   3.400
 6830SOL     OW21388   4.170   4.863   2.109
 6830SOL    HW121389   4.083   4.900   2.141
 6830SOL    HW221390   4.210   4.804   2.179
 6831SOL     OW21391   2.159   1.268   6.482
 6831SOL    HW121392   2.062   1.272   6.508
 6831SOL    HW221393   2.168   1.210   6.401
 6832SOL     OW21394   2.833   2.556   6.723
 6832SOL    HW121395   2.891   2.633   6.696
 6832SOL    HW221396   2.889   2.474   6.733
 6833SOL     OW21397   3.683   5.084   6.217
 6833SOL    HW121398   3.612   5.020   6.186
 6833SOL    HW221399   3.740   5.109   6.139
 6834SOL     OW21400   6.317   6.341   6.546
 6834SOL    HW121401   6.274   6.352   6.456
 6834SOL    HW221402   6.335   6.431   6.585
 6835SOL     OW21403   3.461   0.974   4.044
 6835SOL    HW121404   3.461   0.946   3.948
 6835SOL    HW221405   3.541   1.031   4.062
 6836SOL     OW21406   0.531   4.383   6.296
 6836SOL    HW121407   0.587   4.326   6.356
 6836SOL    HW221408   0.590   4.444   6.243
 6837SOL     OW21409   5.917   0.557   2.180
 6837SOL    HW121410   5.824   0.577   2.149
 6837SOL    HW221411   5.973   0.640   2.174
 6838SOL     OW21412   2.958   3.880   6.095
 6838SOL    HW121413   2.952   3.974   6.129
 6838SOL    HW221414   3.035   3.833   6.137
 6839SOL     OW21415   5.943   3.122   4.616
 6839SOL    HW121416   5.929   3.137   4.518
 6839SOL    HW221417   5.855   3.101   4.659
 6840SOL     OW21418   2.555   6.235   4.420
 6840SOL    HW121419   2.621   6.187   4.478
 6840SOL    HW221420   2.604   6.282   4.346
 6841SOL     OW21421   4.597   6.561   1.098
 6841SOL    HW121422   4.535   6.504   1.153
 6841SOL    HW221423   4.679   6.508   1.075
 6842SOL     OW21424   0.640   4.112   4.502
 6842SOL    HW121425   0.559   4.054   4.492
 6842SOL    HW221426   0.656   4.130   4.599
 6843SOL     OW21427   4.562   2.594   1.582
 6843SOL    HW121428   4.589   2.633   1.670
 6843SOL    HW221429   4.620   2.631   1.510
 6844SOL     OW21430   3.492   5.630   4.335
 6844SOL    HW121431   3.513   5.586   4.248
 6844SOL    HW221432   3.513   5.566   4.410
 6845SOL     OW21433   3.990   4.155   0.586
 6845SOL    HW121434   3.948   4.245   0.597
 6845SOL    HW221435   4.033   4.149   0.496
 6846SOL     OW21436   3.911   3.177   2.465
 6846SOL    HW121437   3.859   3.112   2.411
 6846SOL    HW221438   3.972   3.229   2.405
 6847SOL     OW21439   6.491   3.644   1.125
 6847SOL    HW121440   6.563   3.711   1.104
 6847SOL    HW221441   6.442   3.621   1.040
 6848SOL     OW21442   6.609   6.226   3.874
 6848SOL    HW121443   6.681   6.166   3.910
 6848SOL    HW221444   6.530   6.171   3.850
 6849SOL     OW21445   3.717   6.457   4.195
 6849SOL    HW121446   3.810   6.468   4.161
 6849SOL    HW221447   3.652   6.469   4.119
 6850SOL     OW21448   5.367   3.307   1.429
 6850SOL    HW121449   5.449   3.328   1.377
 6850SOL    HW221450   5.338   3.389   1.479
 6851SOL     OW21451   1.127   5.324   4.870
 6851SOL    HW121452   1.178   5.266   4.933
 6851SOL    HW221453   1.191   5.387   4.825
 6852SOL     OW21454   0.017   5.068   2.127
 6852SOL    HW121455   7.011   5.121   2.208
 6852SOL    HW221456   0.101   5.016   2.143
 6853SOL     OW21457   6.309   3.892   5.162
 6853SOL    HW121458   6.367   3.870   5.241
 6853SOL    HW221459   6.217   3.914   5.193
 6854SOL     OW21460   0.232   1.794   0.010
 6854SOL    HW121461   0.277   1.815   6.940
 6854SOL    HW221462   0.278   1.717   0.054
 6855SOL     OW21463   2.726   7.014   2.064
 6855SOL    HW121464   2.784   0.013   2.144
 6855SOL    HW221465   2.695   6.918   2.063
 6856SOL     OW21466   0.364   4.947   4.931
 6856SOL    HW121467   0.273   4.933   4.893
 6856SOL    HW221468   0.359   4.950   5.031
 6857SOL     OW21469   3.840   1.196   5.666
 6857SOL    HW121470   3.849   1.278   5.722
 6857SOL    HW221471   3.829   1.116   5.725
 6858SOL     OW21472   3.836   2.787   5.292
 6858SOL    HW121473   3.837   2.808   5.194
 6858SOL    HW221474   3.850   2.871   5.344
 6859SOL     OW21475   3.614   0.691   0.415
 6859SOL    HW121476   3.711   0.691   0.390
 6859SOL    HW221477   3.592   0.608   0.467
 6860SOL     OW21478   4.265   4.908   6.915
 6860SOL    HW121479   4.224   4.820   6.891
 6860SOL    HW221480   4.292   4.908   7.011
 6861SOL     OW21481   5.764   4.114   0.931
 6861SOL    HW121482   5.791   4.202   0.969
 6861SOL    HW221483   5.713   4.128   0.846
 6862SOL     OW21484   2.856   5.112   3.686
 6862SOL    HW121485   2.800   5.157   3.756
 6862SOL    HW221486   2.894   5.027   3.723
 6863SOL     OW21487   0.951   3.018   4.192
 6863SOL    HW121488   1.016   3.036   4.118
 6863SOL    HW221489   0.869   2.976   4.154
 6864SOL     OW21490   4.267   5.530   5.836
 6864SOL    HW121491   4.272   5.440   5.793
 6864SOL    HW221492   4.359   5.563   5.857
 6865SOL     OW21493   6.673   2.964   4.408
 6865SOL    HW121494   6.605   2.917   4.464
 6865SOL    HW221495   6.629   3.035   4.354
 6866SOL     OW21496   0.454   3.103   1.858
 6866SOL    HW121497   0.416   3.084   1.767
 6866SOL    HW221498   0.544   3.061   1.866
 6867SOL     OW21499   2.073   4.930   2.611
 6867SOL    HW121500   2.160   4.902   2.651
 6867SOL    HW221501   1.998   4.878   2.652
 6868SOL     OW21502   1.793   5.107   4.786
 6868SOL    HW121503   1.696   5.108   4.765
 6868SOL    HW221504   1.807   5.113   4.885
 6869SOL     OW21505   6.306   3.312   5.286
 6869SOL    HW121506   6.259   3.346   5.368
 6869SOL    HW221507   6.397   3.355   5.281
 6870SOL     OW21508   5.291   3.828   2.329
 6870SOL    HW121509   5.274   3.829   2.230
 6870SOL    HW221510   5.293   3.734   2.362
 6871SOL     OW21511   4.553   0.105   1.426
 6871SOL    HW121512   4.472   0.092   1.483
 6871SOL    HW221513   4.607   0.181   1.462
 6872SOL     OW21514   2.831   3.472   6.883
 6872SOL    HW121515   2.835   3.430   6.793
 6872SOL    HW221516   2.871   3.410   6.951
 6873SOL     OW21517   4.750   3.804   5.528
 6873SOL    HW121518   4.779   3.753   5.609
 6873SOL    HW221519   4.671   3.861   5.552
 6874SOL     OW21520   1.246   2.759   5.312
 6874SOL    HW121521   1.184   2.831   5.280
 6874SOL    HW221522   1.218   2.672   5.273
 6875SOL     OW21523   3.364   1.967   3.799
 6875SOL    HW121524   3.313   1.972   3.885
 6875SOL    HW221525   3.301   1.978   3.722
 6876SOL     OW21526   3.632   6.383   5.116
 6876SOL    HW121527   3.719   6.430   5.101
 6876SOL    HW221528   3.561   6.425   5.060
 6877SOL     OW21529   2.633   3.709   0.207
 6877SOL    HW121530   2.657   3.806   0.202
 6877SOL    HW221531   2.540   3.700   0.243
 6878SOL     OW21532   1.340   1.894   5.000
 6878SOL    HW121533   1.263   1.924   4.944
 6878SOL    HW221534   1.422   1.945   4.975
 6879SOL     OW21535   1.076   1.120   5.576
 6879SOL    HW121536   1.109   1.030   5.548
 6879SOL    HW221537   1.030   1.112   5.665
 6880SOL     OW21538   1.918   4.050   4.784
 6880SOL    HW121539   2.016   4.068   4.774
 6880SOL    HW221540   1.905   3.961   4.827
 6881SOL     OW21541   6.024   5.306   1.783
 6881SOL    HW121542   5.959   5.246   1.829
 6881SOL    HW221543   6.027   5.283   1.686
 6882SOL     OW21544   2.416   6.679   4.970
 6882SOL    HW121545   2.413   6.599   5.029
 6882SOL    HW221546   2.465   6.753   5.016
 6883SOL     OW21547   2.938   6.519   1.324
 6883SOL    HW121548   3.024   6.468   1.326
 6883SOL    HW221549   2.864   6.460   1.293
 6884SOL     OW21550   2.710   4.964   2.907
 6884SOL    HW121551   2.790   4.912   2.878
 6884SOL    HW221552   2.735   5.060   2.921
 6885SOL     OW21553   3.862   5.445   5.002
 6885SOL    HW121554   3.809   5.368   4.968
 6885SOL    HW221555   3.943   5.411   5.050
 6886SOL     OW21556   5.154   2.349   2.249
 6886SOL    HW121557   5.251   2.372   2.251
 6886SOL    HW221558   5.101   2.431   2.228
 6887SOL     OW21559   5.020   1.201   5.002
 6887SOL    HW121560   4.942   1.146   5.033
 6887SOL    HW221561   5.053   1.166   4.914
 6888SOL     OW21562   5.316   6.511   4.991
 6888SOL    HW121563   5.380   6.488   5.064
 6888SOL    HW221564   5.222   6.504   5.026
 6889SOL     OW21565   1.404   4.185   6.316
 6889SOL    HW121566   1.399   4.254   6.244
 6889SOL    HW221567   1.323   4.190   6.374
 6890SOL     OW21568   2.079   0.785   0.707
 6890SOL    HW121569   2.044   0.783   0.613
 6890SOL    HW221570   2.073   0.693   0.747
 6891SOL     OW21571   3.620   4.893   5.202
 6891SOL    HW121572   3.572   4.813   5.236
 6891SOL    HW221573   3.610   4.898   5.102
 6892SOL     OW21574   3.630   1.011   4.458
 6892SOL    HW121575   3.722   0.982   4.484
 6892SOL    HW221576   3.620   1.006   4.359
 6893SOL     OW21577   6.359   6.806   1.582
 6893SOL    HW121578   6.340   6.898   1.550
 6893SOL    HW221579   6.295   6.742   1.540
 6894SOL     OW21580   6.265   4.501   5.934
 6894SOL    HW121581   6.302   4.418   5.891
 6894SOL    HW221582   6.178   4.525   5.891
 6895SOL     OW21583   3.597   5.214   6.647
 6895SOL    HW121584   3.598   5.314   6.642
 6895SOL    HW221585   3.666   5.177   6.585
 6896SOL     OW21586   4.302   0.303   3.211
 6896SOL    HW121587   4.366   0.380   3.217
 6896SOL    HW221588   4.292   0.261   3.301
 6897SOL     OW21589   3.556   1.764   0.639
 6897SOL    HW121590   3.543   1.856   0.602
 6897SOL    HW221591   3.636   1.764   0.700
 6898SOL     OW21592   3.662   1.246   2.952
 6898SOL    HW121593   3.564   1.266   2.953
 6898SOL    HW221594   3.694   1.240   2.857
 6899SOL     OW21595   5.687   6.393   6.592
 6899SOL    HW121596   5.590   6.370   6.586
 6899SOL    HW221597   5.697   6.485   6.630
 6900SOL     OW21598   4.094   1.180   5.588
 6900SOL    HW121599   4.000   1.189   5.621
 6900SOL    HW221600   4.149   1.132   5.656
 6901SOL     OW21601   1.331   0.601   0.012
 6901SOL    HW121602   1.275   0.537   6.976
 6901SOL    HW221603   1.303   0.599   0.108
 6902SOL     OW21604   6.474   5.688   1.466
 6902SOL    HW121605   6.429   5.769   1.503
 6902SOL    HW221606   6.565   5.679   1.506
 6903SOL     OW21607   4.066   4.615   0.873
 6903SOL    HW121608   4.089   4.625   0.777
 6903SOL    HW221609   4.148   4.626   0.929
 6904SOL     OW21610   0.554   1.942   3.023
 6904SOL    HW121611   0.487   2.016   3.032
 6904SOL    HW221612   0.635   1.963   3.078
 6905SOL     OW21613   4.299   4.987   1.041
 6905SOL    HW121614   4.266   4.990   0.946
 6905SOL    HW221615   4.222   5.002   1.103
 6906SOL     OW21616   4.483   5.684   3.839
 6906SOL    HW121617   4.577   5.719   3.844
 6906SOL    HW221618   4.460   5.638   3.924
 6907SOL     OW21619   3.788   1.103   1.209
 6907SOL    HW121620   3.721   1.091   1.136
 6907SOL    HW221621   3.877   1.126   1.169
 6908SOL     OW21622   6.995   6.649   6.799
 6908SOL    HW121623   0.045   6.678   6.730
 6908SOL    HW221624   6.956   6.730   6.843
 6909SOL     OW21625   4.166   3.222   6.773
 6909SOL    HW121626   4.112   3.161   6.714
 6909SOL    HW221627   4.237   3.168   6.820
 6910SOL     OW21628   6.833   1.242   2.011
 6910SOL    HW121629   6.900   1.177   1.976
 6910SOL    HW221630   6.742   1.215   1.981
 6911SOL     OW21631   4.439   0.754   5.313
 6911SOL    HW121632   4.434   0.658   5.342
 6911SOL    HW221633   4.348   0.796   5.323
 6912SOL     OW21634   4.729   5.206   1.503
 6912SOL    HW121635   4.728   5.226   1.601
 6912SOL    HW221636   4.637   5.181   1.472
 6913SOL     OW21637   4.371   5.753   5.487
 6913SOL    HW121638   4.426   5.808   5.551
 6913SOL    HW221639   4.314   5.815   5.432
 6914SOL     OW21640   6.324   5.028   6.903
 6914SOL    HW121641   6.350   5.115   6.945
 6914SOL    HW221642   6.239   5.040   6.850
 6915SOL     OW21643   1.264   5.719   1.426
 6915SOL    HW121644   1.248   5.817   1.417
 6915SOL    HW221645   1.342   5.702   1.487
 6916SOL     OW21646   6.441   0.938   6.207
 6916SOL    HW121647   6.454   1.029   6.168
 6916SOL    HW221648   6.478   0.869   6.144
 6917SOL     OW21649   4.858   0.040   6.403
 6917SOL    HW121650   4.842   0.138   6.409
 6917SOL    HW221651   4.907   0.019   6.318
 6918SOL     OW21652   2.397   2.782   4.049
 6918SOL    HW121653   2.467   2.710   4.043
 6918SOL    HW221654   2.345   2.784   3.963
 6919SOL     OW21655   1.372   6.038   3.335
 6919SOL    HW121656   1.307   6.101   3.377
 6919SOL    HW221657   1.458   6.085   3.317
 6920SOL     OW21658   4.733   6.813   4.554
 6920SOL    HW121659   4.715   6.765   4.640
 6920SOL    HW221660   4.796   6.888   4.570
 6921SOL     OW21661   0.173   6.387   2.961
 6921SOL    HW121662   0.083   6.363   2.925
 6921SOL    HW221663   0.202   6.475   2.925
 6922SOL     OW21664   1.691   5.817   6.795
 6922SOL    HW121665   1.756   5.873   6.744
 6922SOL    HW221666   1.616   5.790   6.734
 6923SOL     OW21667   4.328   6.694   4.206
 6923SOL    HW121668   4.373   6.728   4.289
 6923SOL    HW221669   4.247   6.642   4.232
 6924SOL     OW21670   6.801   5.931   1.380
 6924SOL    HW121671   6.861   6.001   1.419
 6924SOL    HW221672   6.844   5.841   1.387
 6925SOL     OW21673   6.245   5.669   3.069
 6925SOL    HW121674   6.194   5.630   3.145
 6925SOL    HW221675   6.232   5.768   3.067
 6926SOL     OW21676   3.214   4.010   4.923
 6926SOL    HW121677   3.184   4.105   4.930
 6926SOL    HW221678   3.298   3.998   4.976
 6927SOL     OW21679   3.953   3.624   6.669
 6927SOL    HW121680   4.025   3.576   6.620
 6927SOL    HW221681   3.948   3.719   6.639
 6928SOL     OW21682   6.493   6.923   6.602
 6928SOL    HW121683   6.518   6.846   6.545
 6928SOL    HW221684   6.503   7.008   6.550
 6929SOL     OW21685   3.514   4.982   0.474
 6929SOL    HW121686   3.459   5.003   0.393
 6929SOL    HW221687   3.470   5.020   0.555
 6930SOL     OW21688   0.912   0.057   3.146
 6930SOL    HW121689   0.879   0.026   3.235
 6930SOL    HW221690   0.860   0.012   3.074
 6931SOL     OW21691   1.481   0.695   1.839
 6931SOL    HW121692   1.571   0.723   1.873
 6931SOL    HW221693   1.492   0.638   1.758
 6932SOL     OW21694   2.687   1.995   0.412
 6932SOL    HW121695   2.750   2.070   0.433
 6932SOL    HW221696   2.649   2.008   0.320
 6933SOL     OW21697   3.116   6.440   6.563
 6933SOL    HW121698   3.181   6.366   6.552
 6933SOL    HW221699   3.153   6.524   6.522
 6934SOL     OW21700   5.990   4.161   6.259
 6934SOL    HW121701   5.912   4.148   6.197
 6934SOL    HW221702   5.988   4.091   6.330
 6935SOL     OW21703   4.177   5.299   3.492
 6935SOL    HW121704   4.131   5.388   3.481
 6935SOL    HW221705   4.269   5.314   3.528
 6936SOL     OW21706   1.080   4.755   0.992
 6936SOL    HW121707   1.180   4.750   0.991
 6936SOL    HW221708   1.050   4.831   1.050
 6937SOL     OW21709   4.537   6.687   5.996
 6937SOL    HW121710   4.613   6.685   6.062
 6937SOL    HW221711   4.454   6.655   6.041
 6938SOL     OW21712   5.587   2.180   4.974
 6938SOL    HW121713   5.499   2.160   4.931
 6938SOL    HW221714   5.661   2.159   4.910
 6939SOL     OW21715   0.643   5.039   2.360
 6939SOL    HW121716   0.666   5.108   2.429
 6939SOL    HW221717   0.549   5.053   2.328
 6940SOL     OW21718   3.874   0.916   4.957
 6940SOL    HW121719   3.793   0.879   4.911
 6940SOL    HW221720   3.890   1.010   4.925
 6941SOL     OW21721   3.740   2.924   3.038
 6941SOL    HW121722   3.661   2.982   3.059
 6941SOL    HW221723   3.733   2.838   3.089
 6942SOL     OW21724   0.050   1.665   0.589
 6942SOL    HW121725   6.975   1.663   0.548
 6942SOL    HW221726   0.041   1.662   0.689
 6943SOL     OW21727   5.527   6.418   7.000
 6943SOL    HW121728   5.450   6.475   0.011
 6943SOL    HW221729   5.498   6.354   6.929
 6944SOL     OW21730   1.254   6.497   6.046
 6944SOL    HW121731   1.163   6.477   6.009
 6944SOL    HW221732   1.299   6.412   6.072
 6945SOL     OW21733   4.449   2.050   5.429
 6945SOL    HW121734   4.432   1.954   5.407
 6945SOL    HW221735   4.547   2.065   5.440
 6946SOL     OW21736   5.862   4.205   3.987
 6946SOL    HW121737   5.871   4.292   3.940
 6946SOL    HW221738   5.953   4.165   4.000
 6947SOL     OW21739   3.872   0.077   2.734
 6947SOL    HW121740   3.894   0.071   2.832
 6947SOL    HW221741   3.878   7.003   2.693
 6948SOL     OW21742   3.947   2.199   4.677
 6948SOL    HW121743   3.934   2.238   4.768
 6948SOL    HW221744   3.858   2.185   4.634
 6949SOL     OW21745   4.703   0.882   2.311
 6949SOL    HW121746   4.729   0.815   2.380
 6949SOL    HW221747   4.771   0.882   2.237
 6950SOL     OW21748   2.304   1.357   3.514
 6950SOL    HW121749   2.378   1.298   3.544
 6950SOL    HW221750   2.294   1.434   3.577
 6951SOL     OW21751   5.587   5.332   5.729
 6951SOL    HW121752   5.534   5.247   5.728
 6951SOL    HW221753   5.597   5.363   5.824
 6952SOL     OW21754   0.338   5.339   4.662
 6952SOL    HW121755   0.275   5.387   4.600
 6952SOL    HW221756   0.430   5.377   4.653
 6953SOL     OW21757   5.514   2.295   5.647
 6953SOL    HW121758   5.482   2.275   5.554
 6953SOL    HW221759   5.437   2.292   5.710
 6954SOL     OW21760   0.881   5.298   2.963
 6954SOL    HW121761   0.840   5.245   3.037
 6954SOL    HW221762   0.825   5.379   2.945
 6955SOL     OW21763   6.345   5.633   2.743
 6955SOL    HW121764   6.270   5.575   2.713
 6955SOL    HW221765   6.310   5.706   2.802
 6956SOL     OW21766   3.097   4.896   1.231
 6956SOL    HW121767   3.191   4.929   1.229
 6956SOL    HW221768   3.087   4.829   1.304
 6957SOL     OW21769   0.672   3.650   0.282
 6957SOL    HW121770   0.713   3.656   0.372
 6957SOL    HW221771   0.742   3.626   0.214
 6958SOL     OW21772   2.255   3.766   6.079
 6958SOL    HW121773   2.281   3.687   6.024
 6958SOL    HW221774   2.333   3.828   6.089
 6959SOL     OW21775   3.304   1.129   3.747
 6959SOL    HW121776   3.371   1.067   3.789
 6959SOL    HW221777   3.294   1.211   3.804
 6960SOL     OW21778   6.951   4.954   0.188
 6960SOL    HW121779   7.000   4.885   0.134
 6960SOL    HW221780   6.884   4.909   0.247
 6961SOL     OW21781   6.676   1.170   3.000
 6961SOL    HW121782   6.758   1.147   3.053
 6961SOL    HW221783   6.700   1.180   2.904
 6962SOL     OW21784   4.129   3.368   0.737
 6962SOL    HW121785   4.126   3.468   0.744
 6962SOL    HW221786   4.057   3.337   0.675
 6963SOL     OW21787   5.847   5.543   2.011
 6963SOL    HW121788   5.841   5.565   1.914
 6963SOL    HW221789   5.787   5.604   2.064
 6964SOL     OW21790   3.713   6.130   4.825
 6964SOL    HW121791   3.696   6.073   4.744
 6964SOL    HW221792   3.754   6.217   4.796
 6965SOL     OW21793   6.738   3.221   5.807
 6965SOL    HW121794   6.725   3.125   5.833
 6965SOL    HW221795   6.790   3.268   5.878
 6966SOL     OW21796   4.829   2.756   3.582
 6966SOL    HW121797   4.847   2.798   3.671
 6966SOL    HW221798   4.786   2.823   3.521
 6967SOL     OW21799   2.192   1.529   6.589
 6967SOL    HW121800   2.192   1.440   6.543
 6967SOL    HW221801   2.190   1.516   6.688
 6968SOL     OW21802   4.413   0.100   2.092
 6968SOL    HW121803   4.345   0.044   2.138
 6968SOL    HW221804   4.505   0.065   2.112
 6969SOL     OW21805   3.178   2.026   1.312
 6969SOL    HW121806   3.217   2.008   1.403
 6969SOL    HW221807   3.173   2.125   1.298
 6970SOL     OW21808   4.783   3.858   0.547
 6970SOL    HW121809   4.715   3.796   0.509
 6970SOL    HW221810   4.806   3.829   0.640
 6971SOL     OW21811   5.435   0.620   2.371
 6971SOL    HW121812   5.341   0.643   2.347
 6971SOL    HW221813   5.438   0.588   2.466
 6972SOL     OW21814   5.231   5.065   4.542
 6972SOL    HW121815   5.161   5.114   4.594
 6972SOL    HW221816   5.242   4.972   4.579
 6973SOL     OW21817   1.781   4.889   3.811
 6973SOL    HW121818   1.830   4.812   3.851
 6973SOL    HW221819   1.686   4.863   3.791
 6974SOL     OW21820   3.898   3.725   4.797
 6974SOL    HW121821   3.803   3.702   4.776
 6974SOL    HW221822   3.943   3.761   4.716
 6975SOL     OW21823   3.879   1.227   5.328
 6975SOL    HW121824   3.862   1.322   5.357
 6975SOL    HW221825   3.914   1.175   5.406
 6976SOL     OW21826   1.903   5.316   6.916
 6976SOL    HW121827   1.992   5.309   6.872
 6976SOL    HW221828   1.861   5.403   6.891
 6977SOL     OW21829   4.105   2.245   2.897
 6977SOL    HW121830   4.133   2.214   2.806
 6977SOL    HW221831   4.082   2.342   2.893
 6978SOL     OW21832   6.124   0.885   2.812
 6978SOL    HW121833   6.212   0.890   2.766
 6978SOL    HW221834   6.074   0.804   2.780
 6979SOL     OW21835   0.670   4.595   3.339
 6979SOL    HW121836   0.593   4.545   3.378
 6979SOL    HW221837   0.752   4.538   3.342
 6980SOL     OW21838   3.504   1.460   3.946
 6980SOL    HW121839   3.523   1.527   4.018
 6980SOL    HW221840   3.561   1.379   3.960
 6981SOL     OW21841   2.627   4.690   6.513
 6981SOL    HW121842   2.702   4.626   6.491
 6981SOL    HW221843   2.571   4.704   6.431
 6982SOL     OW21844   0.243   6.674   4.646
 6982SOL    HW121845   0.217   6.695   4.740
 6982SOL    HW221846   0.342   6.680   4.636
 6983SOL     OW21847   6.144   1.042   3.817
 6983SOL    HW121848   6.208   1.086   3.753
 6983SOL    HW221849   6.051   1.069   3.795
 6984SOL     OW21850   2.382   1.218   6.605
 6984SOL    HW121851   2.413   1.129   6.571
 6984SOL    HW221852   2.301   1.247   6.554
 6985SOL     OW21853   5.279   5.975   2.502
 6985SOL    HW121854   5.240   5.985   2.411
 6985SOL    HW221855   5.232   5.902   2.552
 6986SOL     OW21856   2.178   6.688   4.798
 6986SOL    HW121857   2.116   6.622   4.839
 6986SOL    HW221858   2.268   6.680   4.839
 6987SOL     OW21859   6.970   3.607   6.711
 6987SOL    HW121860   6.926   3.679   6.764
 6987SOL    HW221861   0.032   3.572   6.761
 6988SOL     OW21862   5.159   1.341   5.220
 6988SOL    HW121863   5.234   1.278   5.238
 6988SOL    HW221864   5.137   1.339   5.122
 6989SOL     OW21865   1.403   2.937   3.800
 6989SOL    HW121866   1.476   2.939   3.732
 6989SOL    HW221867   1.316   2.913   3.756
 6990SOL     OW21868   4.016   3.297   0.284
 6990SOL    HW121869   3.960   3.229   0.236
 6990SOL    HW221870   4.057   3.359   0.217
 6991SOL     OW21871   4.359   4.448   5.427
 6991SOL    HW121872   4.439   4.402   5.390
 6991SOL    HW221873   4.296   4.381   5.466
 6992SOL     OW21874   5.296   6.314   5.530
 6992SOL    HW121875   5.280   6.348   5.437
 6992SOL    HW221876   5.394   6.298   5.543
 6993SOL     OW21877   0.651   6.415   3.164
 6993SOL    HW121878   0.603   6.473   3.230
 6993SOL    HW221879   0.719   6.470   3.115
 6994SOL     OW21880   1.450   2.973   0.118
 6994SOL    HW121881   1.425   2.906   0.048
 6994SOL    HW221882   1.436   2.934   0.209
 6995SOL     OW21883   0.412   5.301   3.009
 6995SOL    HW121884   0.320   5.340   3.003
 6995SOL    HW221885   0.457   5.336   3.091
 6996SOL     OW21886   2.576   6.937   5.730
 6996SOL    HW121887   2.517   6.923   5.650
 6996SOL    HW221888   2.658   6.988   5.701
 6997SOL     OW21889   4.938   0.245   4.547
 6997SOL    HW121890   4.889   0.303   4.482
 6997SOL    HW221891   5.036   0.255   4.534
 6998SOL     OW21892   1.749   2.453   3.336
 6998SOL    HW121893   1.732   2.356   3.353
 6998SOL    HW221894   1.797   2.463   3.249
 6999SOL     OW21895   4.012   1.822   6.359
 6999SOL    HW121896   3.914   1.819   6.339
 6999SOL    HW221897   4.063   1.813   6.274
 7000SOL     OW21898   6.760   6.440   1.524
 7000SOL    HW121899   6.789   6.421   1.618
 7000SOL    HW221900   6.836   6.482   1.474
 7001SOL     OW21901   2.795   1.814   5.494
 7001SOL    HW121902   2.706   1.770   5.494
 7001SOL    HW221903   2.809   1.862   5.407
 7002SOL     OW21904   1.970   5.270   3.222
 7002SOL    HW121905   1.939   5.176   3.209
 7002SOL    HW221906   1.913   5.332   3.168
 7003SOL     OW21907   2.427   6.239   0.088
 7003SOL    HW121908   2.369   6.305   0.041
 7003SOL    HW221909   2.374   6.157   0.110
 7004SOL     OW21910   0.919   4.986   0.754
 7004SOL    HW121911   0.964   5.041   0.824
 7004SOL    HW221912   0.987   4.930   0.706
 7005SOL     OW21913   5.376   6.606   5.338
 7005SOL    HW121914   5.313   6.638   5.408
 7005SOL    HW221915   5.340   6.628   5.248
 7006SOL     OW21916   4.300   4.829   4.969
 7006SOL    HW121917   4.329   4.741   4.932
 7006SOL    HW221918   4.258   4.815   5.059
 7007SOL     OW21919   5.045   5.338   2.277
 7007SOL    HW121920   5.060   5.240   2.291
 7007SOL    HW221921   5.114   5.373   2.214
 7008SOL     OW21922   1.007   4.879   4.201
 7008SOL    HW121923   1.084   4.823   4.231
 7008SOL    HW221924   1.026   4.975   4.219
 7009SOL     OW21925   0.302   4.788   2.428
 7009SOL    HW121926   0.402   4.782   2.435
 7009SOL    HW221927   0.272   4.745   2.343
 7010SOL     OW21928   3.994   4.794   6.587
 7010SOL    HW121929   3.918   4.802   6.652
 7010SOL    HW221930   4.042   4.882   6.580
 7011SOL     OW21931   2.564   1.564   4.893
 7011SOL    HW121932   2.663   1.558   4.891
 7011SOL    HW221933   2.533   1.631   4.825
 7012SOL     OW21934   1.100   1.369   1.720
 7012SOL    HW121935   1.114   1.271   1.711
 7012SOL    HW221936   1.179   1.410   1.765
 7013SOL     OW21937   0.683   0.776   2.373
 7013SOL    HW121938   0.674   0.679   2.351
 7013SOL    HW221939   0.592   0.815   2.387
 7014SOL     OW21940   2.313   4.617   1.292
 7014SOL    HW121941   2.406   4.651   1.275
 7014SOL    HW221942   2.257   4.691   1.328
 7015SOL     OW21943   4.958   2.505   2.044
 7015SOL    HW121944   4.859   2.498   2.030
 7015SOL    HW221945   5.005   2.437   1.987
 7016SOL     OW21946   3.040   4.827   0.837
 7016SOL    HW121947   3.102   4.905   0.850
 7016SOL    HW221948   2.960   4.857   0.785
 7017SOL     OW21949   4.251   1.739   4.165
 7017SOL    HW121950   4.227   1.831   4.197
 7017SOL    HW221951   4.181   1.674   4.193
 7018SOL     OW21952   0.272   5.216   3.570
 7018SOL    HW121953   0.178   5.190   3.545
 7018SOL    HW221954   0.298   5.298   3.518
 7019SOL     OW21955   2.279   6.241   0.880
 7019SOL    HW121956   2.219   6.175   0.835
 7019SOL    HW221957   2.287   6.322   0.823
 7020SOL     OW21958   0.359   6.740   5.502
 7020SOL    HW121959   0.376   6.670   5.571
 7020SOL    HW221960   0.430   6.736   5.432
 7021SOL     OW21961   3.367   0.280   5.358
 7021SOL    HW121962   3.337   0.374   5.375
 7021SOL    HW221963   3.296   0.216   5.386
 7022SOL     OW21964   5.177   5.035   6.048
 7022SOL    HW121965   5.197   5.041   5.951
 7022SOL    HW221966   5.234   5.099   6.099
 7023SOL     OW21967   5.789   3.912   3.344
 7023SOL    HW121968   5.770   3.860   3.261
 7023SOL    HW221969   5.887   3.918   3.358
 7024SOL     OW21970   0.428   5.928   1.063
 7024SOL    HW121971   0.468   5.997   1.003
 7024SOL    HW221972   0.332   5.915   1.039
 7025SOL     OW21973   2.895   0.491   6.387
 7025SOL    HW121974   2.885   0.468   6.484
 7025SOL    HW221975   2.805   0.509   6.348
 7026SOL     OW21976   4.011   1.970   0.954
 7026SOL    HW121977   4.106   1.979   0.926
 7026SOL    HW221978   4.007   1.959   1.054
 7027SOL     OW21979   4.436   6.741   4.482
 7027SOL    HW121980   4.426   6.733   4.581
 7027SOL    HW221981   4.532   6.755   4.459
 7028SOL     OW21982   2.908   6.385   4.165
 7028SOL    HW121983   2.916   6.485   4.166
 7028SOL    HW221984   2.948   6.349   4.081
 7029SOL     OW21985   3.496   0.002   4.643
 7029SOL    HW121986   3.512   0.096   4.612
 7029SOL    HW221987   3.583   6.976   4.667
 7030SOL     OW21988   2.005   3.719   3.757
 7030SOL    HW121989   1.905   3.717   3.758
 7030SOL    HW221990   2.038   3.700   3.664
 7031SOL     OW21991   2.332   7.007   5.180
 7031SOL    HW121992   2.388   0.026   5.105
 7031SOL    HW221993   2.237   7.000   5.150
 7032SOL     OW21994   5.860   2.420   2.815
 7032SOL    HW121995   5.927   2.488   2.783
 7032SOL    HW221996   5.881   2.332   2.774
 7033SOL     OW21997   6.775   0.137   4.581
 7033SOL    HW121998   6.748   0.229   4.554
 7033SOL    HW221999   6.825   0.093   4.506
 7034SOL     OW22000   6.703   5.704   2.899
 7034SOL    HW122001   6.652   5.777   2.853
 7034SOL    HW222002   6.757   5.743   2.973
 7035SOL     OW22003   6.613   5.205   1.991
 7035SOL    HW122004   6.532   5.263   2.003
 7035SOL    HW222005   6.585   5.115   1.960
 7036SOL     OW22006   6.896   4.230   1.349
 7036SOL    HW122007   6.847   4.158   1.398
 7036SOL    HW222008   6.947   4.190   1.273
 7037SOL     OW22009   0.927   6.835   0.300
 7037SOL    HW122010   1.027   6.840   0.310
 7037SOL    HW222011   0.897   6.740   0.306
 7038SOL     OW22012   1.717   3.838   4.096
 7038SOL    HW122013   1.642   3.821   4.032
 7038SOL    HW222014   1.785   3.765   4.087
 7039SOL     OW22015   4.233   1.586   5.969
 7039SOL    HW122016   4.233   1.552   6.063
 7039SOL    HW222017   4.156   1.648   5.956
 7040SOL     OW22018   4.780   2.487   6.264
 7040SOL    HW122019   4.711   2.476   6.335
 7040SOL    HW222020   4.754   2.561   6.202
 7041SOL     OW22021   2.523   1.451   2.585
 7041SOL    HW122022   2.477   1.401   2.512
 7041SOL    HW222023   2.467   1.449   2.668
 7042SOL     OW22024   1.782   0.403   6.791
 7042SOL    HW122025   1.770   0.343   6.870
 7042SOL    HW222026   1.829   0.353   6.718
 7043SOL     OW22027   1.453   2.414   3.244
 7043SOL    HW122028   1.543   2.433   3.205
 7043SOL    HW222029   1.384   2.418   3.172
 7044SOL     OW22030   4.909   6.123   2.442
 7044SOL    HW122031   4.936   6.205   2.491
 7044SOL    HW222032   4.822   6.139   2.396
 7045SOL     OW22033   5.911   5.039   1.006
 7045SOL    HW122034   6.001   5.031   1.050
 7045SOL    HW222035   5.840   5.035   1.076
 7046SOL     OW22036   2.471   1.050   4.206
 7046SOL    HW122037   2.433   1.019   4.293
 7046SOL    HW222038   2.460   0.979   4.137
 7047SOL     OW22039   2.239   1.425   4.097
 7047SOL    HW122040   2.264   1.382   4.184
 7047SOL    HW222041   2.148   1.467   4.105
 7048SOL     OW22042   6.641   6.496   0.827
 7048SOL    HW122043   6.688   6.410   0.849
 7048SOL    HW222044   6.644   6.510   0.728
 7049SOL     OW22045   1.722   1.186   0.568
 7049SOL    HW122046   1.676   1.198   0.657
 7049SOL    HW222047   1.789   1.113   0.575
 7050SOL     OW22048   4.280   3.551   5.237
 7050SOL    HW122049   4.313   3.461   5.266
 7050SOL    HW222050   4.304   3.619   5.306
 7051SOL     OW22051   6.265   6.613   2.358
 7051SOL    HW122052   6.323   6.533   2.338
 7051SOL    HW222053   6.265   6.674   2.278
 7052SOL     OW22054   6.688   1.864   3.331
 7052SOL    HW122055   6.768   1.828   3.379
 7052SOL    HW222056   6.649   1.792   3.273
 7053SOL     OW22057   6.619   4.341   6.185
 7053SOL    HW122058   6.603   4.247   6.216
 7053SOL    HW222059   6.616   4.403   6.264
 7054SOL     OW22060   6.720   0.067   1.662
 7054SOL    HW122061   6.643   0.052   1.724
 7054SOL    HW222062   6.768   0.151   1.689
 7055SOL     OW22063   3.339   6.958   5.310
 7055SOL    HW122064   3.408   6.949   5.381
 7055SOL    HW222065   3.257   7.002   5.347
 7056SOL     OW22066   4.962   5.123   3.859
 7056SOL    HW122067   4.898   5.050   3.836
 7056SOL    HW222068   5.016   5.097   3.939
 7057SOL     OW22069   0.536   5.881   3.353
 7057SOL    HW122070   0.546   5.846   3.446
 7057SOL    HW222071   0.547   5.981   3.355
 7058SOL     OW22072   0.333   5.373   4.999
 7058SOL    HW122073   0.240   5.339   5.017
 7058SOL    HW222074   0.393   5.296   4.978
 7059SOL     OW22075   1.758   0.653   2.546
 7059SOL    HW122076   1.831   0.661   2.477
 7059SOL    HW222077   1.699   0.576   2.524
 7060SOL     OW22078   3.346   0.238   1.530
 7060SOL    HW122079   3.285   0.161   1.511
 7060SOL    HW222080   3.342   0.303   1.454
 7061SOL     OW22081   0.114   1.019   2.505
 7061SOL    HW122082   0.205   1.027   2.465
 7061SOL    HW222083   0.046   1.052   2.439
 7062SOL     OW22084   6.166   1.459   5.177
 7062SOL    HW122085   6.256   1.437   5.215
 7062SOL    HW222086   6.106   1.489   5.251
 7063SOL     OW22087   2.687   6.929   1.673
 7063SOL    HW122088   2.664   6.949   1.577
 7063SOL    HW222089   2.610   6.954   1.732
 7064SOL     OW22090   4.297   2.417   0.345
 7064SOL    HW122091   4.337   2.327   0.361
 7064SOL    HW222092   4.328   2.452   0.257
 7065SOL     OW22093   4.302   4.111   1.639
 7065SOL    HW122094   4.326   4.154   1.553
 7065SOL    HW222095   4.343   4.162   1.715
 7066SOL     OW22096   3.286   6.360   0.661
 7066SOL    HW122097   3.248   6.449   0.684
 7066SOL    HW222098   3.221   6.310   0.604
 7067SOL     OW22099   0.301   3.824   4.752
 7067SOL    HW122100   0.213   3.820   4.705
 7067SOL    HW222101   0.352   3.740   4.735
 7068SOL     OW22102   0.781   1.158   2.699
 7068SOL    HW122103   0.848   1.087   2.722
 7068SOL    HW222104   0.829   1.243   2.678
 7069SOL     OW22105   1.506   3.869   4.878
 7069SOL    HW122106   1.477   3.805   4.807
 7069SOL    HW222107   1.554   3.819   4.950
 7070SOL     OW22108   5.219   5.948   4.305
 7070SOL    HW122109   5.195   5.864   4.258
 7070SOL    HW222110   5.226   5.930   4.403
 7071SOL     OW22111   1.596   6.594   5.467
 7071SOL    HW122112   1.564   6.520   5.408
 7071SOL    HW222113   1.532   6.606   5.543
 7072SOL     OW22114   6.966   6.507   6.484
 7072SOL    HW122115   6.929   6.533   6.394
 7072SOL    HW222116   6.910   6.434   6.523
 7073SOL     OW22117   1.370   1.118   6.205
 7073SOL    HW122118   1.424   1.122   6.289
 7073SOL    HW222119   1.331   1.208   6.185
 7074SOL     OW22120   3.555   2.212   1.235
 7074SOL    HW122121   3.499   2.244   1.311
 7074SOL    HW222122   3.651   2.212   1.261
 7075SOL     OW22123   0.978   5.468   3.185
 7075SOL    HW122124   1.000   5.412   3.106
 7075SOL    HW222125   0.926   5.548   3.156
 7076SOL     OW22126   3.042   2.359   6.708
 7076SOL    HW122127   3.108   2.428   6.677
 7076SOL    HW222128   3.046   2.280   6.647
 7077SOL     OW22129   1.956   5.265   5.853
 7077SOL    HW122130   1.927   5.360   5.854
 7077SOL    HW222131   1.898   5.212   5.791
 7078SOL     OW22132   6.734   0.630   2.858
 7078SOL    HW122133   6.703   0.540   2.828
 7078SOL    HW222134   6.777   0.623   2.948
 7079SOL     OW22135   5.322   5.351   5.363
 7079SOL    HW122136   5.308   5.416   5.437
 7079SOL    HW222137   5.420   5.338   5.347
 7080SOL     OW22138   5.490   0.299   4.136
 7080SOL    HW122139   5.497   0.397   4.156
 7080SOL    HW222140   5.581   0.259   4.130
 7081SOL     OW22141   3.698   1.150   5.141
 7081SOL    HW122142   3.757   1.172   5.219
 7081SOL    HW222143   3.733   1.069   5.095
 7082SOL     OW22144   5.504   1.056   5.998
 7082SOL    HW122145   5.582   1.024   6.051
 7082SOL    HW222146   5.503   1.155   5.995
 7083SOL     OW22147   3.591   6.763   5.941
 7083SOL    HW122148   3.582   6.778   5.842
 7083SOL    HW222149   3.667   6.818   5.976
 7084SOL     OW22150   6.250   6.643   0.702
 7084SOL    HW122151   6.270   6.733   0.665
 7084SOL    HW222152   6.238   6.577   0.628
 7085SOL     OW22153   2.518   2.677   0.822
 7085SOL    HW122154   2.447   2.648   0.758
 7085SOL    HW222155   2.587   2.606   0.830
 7086SOL     OW22156   6.924   0.887   6.374
 7086SOL    HW122157   6.952   0.840   6.457
 7086SOL    HW222158   6.824   0.892   6.370
 7087SOL     OW22159   2.121   2.583   4.302
 7087SOL    HW122160   2.195   2.650   4.305
 7087SOL    HW222161   2.156   2.495   4.268
 7088SOL     OW22162   6.787   2.300   5.205
 7088SOL    HW122163   6.705   2.244   5.217
 7088SOL    HW222164   6.867   2.241   5.194
 7089SOL     OW22165   2.763   1.633   0.262
 7089SOL    HW122166   2.792   1.618   0.357
 7089SOL    HW222167   2.835   1.683   0.213
 7090SOL     OW22168   2.447   2.555   4.761
 7090SOL    HW122169   2.419   2.647   4.787
 7090SOL    HW222170   2.513   2.520   4.827
 7091SOL     OW22171   0.575   6.111   6.944
 7091SOL    HW122172   0.478   6.114   6.970
 7091SOL    HW222173   0.593   6.179   6.874
 7092SOL     OW22174   2.903   3.407   0.806
 7092SOL    HW122175   2.991   3.363   0.786
 7092SOL    HW222176   2.886   3.481   0.741
 7093SOL     OW22177   3.653   2.936   4.823
 7093SOL    HW122178   3.580   2.976   4.767
 7093SOL    HW222179   3.740   2.979   4.800
 7094SOL     OW22180   0.770   0.667   5.874
 7094SOL    HW122181   0.812   0.720   5.800
 7094SOL    HW222182   0.732   0.583   5.836
 7095SOL     OW22183   0.386   2.976   6.432
 7095SOL    HW122184   0.314   3.023   6.485
 7095SOL    HW222185   0.462   3.039   6.418
 7096SOL     OW22186   4.884   1.418   2.162
 7096SOL    HW122187   4.833   1.504   2.159
 7096SOL    HW222188   4.968   1.431   2.216
 7097SOL     OW22189   0.485   0.674   1.975
 7097SOL    HW122190   0.448   0.661   1.883
 7097SOL    HW222191   0.520   0.586   2.009
 7098SOL     OW22192   2.033   6.927   5.956
 7098SOL    HW122193   1.947   6.878   5.968
 7098SOL    HW222194   2.106   6.861   5.937
 7099SOL     OW22195   0.722   0.898   6.340
 7099SOL    HW122196   0.756   0.898   6.433
 7099SOL    HW222197   0.689   0.807   6.316
 7100SOL     OW22198   5.603   2.786   1.181
 7100SOL    HW122199   5.535   2.756   1.114
 7100SOL    HW222200   5.676   2.718   1.187
 7101SOL     OW22201   2.198   0.085   4.885
 7101SOL    HW122202   2.251   0.018   4.834
 7101SOL    HW222203   2.157   0.151   4.822
 7102SOL     OW22204   4.598   2.658   0.458
 7102SOL    HW122205   4.528   2.603   0.503
 7102SOL    HW222206   4.620   2.737   0.516
 7103SOL     OW22207   4.049   6.508   6.110
 7103SOL    HW122208   4.068   6.546   6.200
 7103SOL    HW222209   3.953   6.522   6.087
 7104SOL     OW22210   1.007   1.954   2.871
 7104SOL    HW122211   0.910   1.948   2.849
 7104SOL    HW222212   1.048   2.031   2.822
 7105SOL     OW22213   2.705   3.960   5.301
 7105SOL    HW122214   2.773   3.971   5.229
 7105SOL    HW222215   2.614   3.955   5.260
 7106SOL     OW22216   3.124   2.494   5.445
 7106SOL    HW122217   3.028   2.506   5.468
 7106SOL    HW222218   3.133   2.479   5.347
 7107SOL     OW22219   2.800   1.070   6.846
 7107SOL    HW122220   2.754   1.022   6.772
 7107SOL    HW222221   2.828   1.161   6.814
 7108SOL     OW22222   4.743   6.992   1.281
 7108SOL    HW122223   4.819   0.038   1.295
 7108SOL    HW222224   4.666   0.002   1.339
 7109SOL     OW22225   3.745   5.779   6.540
 7109SOL    HW122226   3.673   5.729   6.588
 7109SOL    HW222227   3.728   5.775   6.441
 7110SOL     OW22228   4.427   4.476   3.161
 7110SOL    HW122229   4.339   4.519   3.184
 7110SOL    HW222230   4.438   4.476   3.061
 7111SOL     OW22231   1.750   3.012   3.629
 7111SOL    HW122232   1.808   2.952   3.684
 7111SOL    HW222233   1.670   2.961   3.597
 7112SOL     OW22234   1.103   6.784   2.843
 7112SOL    HW122235   1.109   6.883   2.833
 7112SOL    HW222236   1.189   6.749   2.880
 7113SOL     OW22237   3.917   3.994   4.565
 7113SOL    HW122238   3.818   3.998   4.553
 7113SOL    HW222239   3.941   4.029   4.656
 7114SOL     OW22240   4.217   0.922   0.859
 7114SOL    HW122241   4.199   0.824   0.852
 7114SOL    HW222242   4.264   0.941   0.945
 7115SOL     OW22243   4.273   1.911   0.855
 7115SOL    HW122244   4.358   1.867   0.828
 7115SOL    HW222245   4.250   1.983   0.790
 7116SOL     OW22246   5.680   3.610   2.818
 7116SOL    HW122247   5.767   3.572   2.849
 7116SOL    HW222248   5.671   3.596   2.719
 7117SOL     OW22249   6.037   6.541   1.723
 7117SOL    HW122250   5.942   6.511   1.723
 7117SOL    HW222251   6.050   6.612   1.793
 7118SOL     OW22252   6.761   3.306   1.364
 7118SOL    HW122253   6.708   3.229   1.401
 7118SOL    HW222254   6.849   3.312   1.412
 7119SOL     OW22255   6.421   1.694   2.732
 7119SOL    HW122256   6.499   1.637   2.755
 7119SOL    HW222257   6.338   1.640   2.733
 7120SOL     OW22258   5.143   0.636   3.510
 7120SOL    HW122259   5.157   0.538   3.524
 7120SOL    HW222260   5.083   0.672   3.582
 7121SOL     OW22261   3.479   6.612   2.305
 7121SOL    HW122262   3.396   6.666   2.318
 7121SOL    HW222263   3.517   6.631   2.214
 7122SOL     OW22264   6.664   0.815   6.567
 7122SOL    HW122265   6.714   0.841   6.650
 7122SOL    HW222266   6.676   0.717   6.550
 7123SOL     OW22267   2.605   4.694   1.285
 7123SOL    HW122268   2.658   4.638   1.349
 7123SOL    HW222269   2.646   4.785   1.278
 7124SOL     OW22270   0.819   5.301   1.477
 7124SOL    HW122271   0.831   5.393   1.439
 7124SOL    HW222272   0.863   5.296   1.567
 7125SOL     OW22273   6.285   5.977   2.488
 7125SOL    HW122274   6.325   5.894   2.450
 7125SOL    HW222275   6.265   5.963   2.585
 7126SOL     OW22276   0.858   4.603   0.213
 7126SOL    HW122277   0.879   4.699   0.231
 7126SOL    HW222278   0.918   4.568   0.141
 7127SOL     OW22279   3.512   6.579   4.351
 7127SOL    HW122280   3.512   6.603   4.448
 7127SOL    HW222281   3.591   6.522   4.331
 7128SOL     OW22282   2.973   4.471   1.429
 7128SOL    HW122283   2.878   4.446   1.444
 7128SOL    HW222284   3.025   4.390   1.402
 7129SOL     OW22285   2.558   0.977   1.912
 7129SOL    HW122286   2.658   0.980   1.915
 7129SOL    HW222287   2.521   1.056   1.961
 7130SOL     OW22288   1.978   5.706   2.723
 7130SOL    HW122289   1.956   5.618   2.683
 7130SOL    HW222290   1.941   5.710   2.817
 7131SOL     OW22291   2.908   0.852   2.944
 7131SOL    HW122292   2.896   0.942   2.901
 7131SOL    HW222293   2.879   0.781   2.880
 7132SOL     OW22294   3.646   4.116   3.110
 7132SOL    HW122295   3.740   4.106   3.078
 7132SOL    HW222296   3.584   4.123   3.032
 7133SOL     OW22297   5.355   4.937   2.801
 7133SOL    HW122298   5.336   4.960   2.897
 7133SOL    HW222299   5.454   4.932   2.788
 7134SOL     OW22300   5.154   3.863   3.965
 7134SOL    HW122301   5.115   3.954   3.983
 7134SOL    HW222302   5.211   3.836   4.043
 7135SOL     OW22303   1.065   1.537   4.663
 7135SOL    HW122304   1.070   1.632   4.633
 7135SOL    HW222305   0.969   1.511   4.676
 7136SOL     OW22306   2.486   1.695   0.271
 7136SOL    HW122307   2.469   1.746   0.356
 7136SOL    HW222308   2.583   1.669   0.267
 7137SOL     OW22309   4.194   0.851   4.756
 7137SOL    HW122310   4.212   0.772   4.697
 7137SOL    HW222311   4.194   0.822   4.852
 7138SOL     OW22312   2.446   3.956   0.342
 7138SOL    HW122313   2.414   3.864   0.362
 7138SOL    HW222314   2.543   3.954   0.320
 7139SOL     OW22315   3.412   2.037   0.849
 7139SOL    HW122316   3.377   2.120   0.892
 7139SOL    HW222317   3.511   2.032   0.863
 7140SOL     OW22318   6.479   3.637   5.291
 7140SOL    HW122319   6.526   3.550   5.303
 7140SOL    HW222320   6.437   3.665   5.377
 7141SOL     OW22321   2.916   6.636   0.770
 7141SOL    HW122322   2.849   6.565   0.794
 7141SOL    HW222323   2.898   6.718   0.824
 7142SOL     OW22324   3.861   6.353   4.436
 7142SOL    HW122325   3.811   6.351   4.350
 7142SOL    HW222326   3.885   6.259   4.463
 7143SOL     OW22327   1.852   3.729   4.807
 7143SOL    HW122328   1.927   3.690   4.753
 7143SOL    HW222329   1.823   3.662   4.876
 7144SOL     OW22330   0.734   2.724   3.953
 7144SOL    HW122331   0.666   2.651   3.950
 7144SOL    HW222332   0.733   2.766   4.044
 7145SOL     OW22333   4.615   7.004   6.723
 7145SOL    HW122334   4.660   6.951   6.651
 7145SOL    HW222335   4.542   6.949   6.765
 7146SOL     OW22336   2.890   4.384   0.406
 7146SOL    HW122337   2.959   4.414   0.340
 7146SOL    HW222338   2.892   4.285   0.415
 7147SOL     OW22339   0.449   0.218   3.998
 7147SOL    HW122340   0.472   0.162   4.077
 7147SOL    HW222341   0.369   0.274   4.018
 7148SOL     OW22342   0.719   1.305   0.395
 7148SOL    HW122343   0.684   1.257   0.475
 7148SOL    HW222344   0.771   1.242   0.338
 7149SOL     OW22345   6.229   1.344   3.981
 7149SOL    HW122346   6.132   1.320   3.971
 7149SOL    HW222347   6.249   1.426   3.928
 7150SOL     OW22348   5.611   3.433   0.021
 7150SOL    HW122349   5.522   3.463   7.004
 7150SOL    HW222350   5.667   3.513   0.044
 7151SOL     OW22351   2.536   6.168   1.342
 7151SOL    HW122352   2.492   6.082   1.370
 7151SOL    HW222353   2.552   6.166   1.243
 7152SOL     OW22354   1.328   2.610   3.877
 7152SOL    HW122355   1.313   2.530   3.936
 7152SOL    HW222356   1.322   2.693   3.931
 7153SOL     OW22357   3.769   1.323   4.011
 7153SOL    HW122358   3.829   1.303   3.933
 7153SOL    HW222359   3.825   1.350   4.090
 7154SOL     OW22360   4.863   5.967   4.487
 7154SOL    HW122361   4.795   5.973   4.560
 7154SOL    HW222362   4.829   6.018   4.407
 7155SOL     OW22363   2.817   0.508   1.783
 7155SOL    HW122364   2.757   0.440   1.826
 7155SOL    HW222365   2.797   0.598   1.820
 7156SOL     OW22366   6.937   5.632   4.440
 7156SOL    HW122367   6.973   5.704   4.381
 7156SOL    HW222368   6.844   5.608   4.412
 7157SOL     OW22369   4.994   4.268   0.920
 7157SOL    HW122370   4.895   4.270   0.936
 7157SOL    HW222371   5.015   4.200   0.850
 7158SOL     OW22372   6.106   6.651   4.309
 7158SOL    HW122373   6.124   6.647   4.407
 7158SOL    HW222374   6.186   6.618   4.259
 7159SOL     OW22375   0.733   6.005   0.126
 7159SOL    HW122376   0.784   6.067   0.185
 7159SOL    HW222377   0.703   6.054   0.044
 7160SOL     OW22378   5.679   0.598   2.074
 7160SOL    HW122379   5.703   0.629   1.982
 7160SOL    HW222380   5.640   0.675   2.125
 7161SOL     OW22381   4.134   3.675   3.712
 7161SOL    HW122382   4.227   3.710   3.697
 7161SOL    HW222383   4.081   3.743   3.763
 7162SOL     OW22384   3.076   4.991   3.069
 7162SOL    HW122385   3.049   4.938   3.150
 7162SOL    HW222386   3.173   4.975   3.050
 7163SOL     OW22387   2.550   0.181   3.018
 7163SOL    HW122388   2.625   0.173   2.952
 7163SOL    HW222389   2.540   0.276   3.046
 7164SOL     OW22390   2.647   1.619   2.812
 7164SOL    HW122391   2.730   1.596   2.763
 7164SOL    HW222392   2.655   1.590   2.908
 7165SOL     OW22393   4.937   0.539   1.700
 7165SOL    HW122394   4.984   0.582   1.623
 7165SOL    HW222395   4.838   0.552   1.690
 7166SOL     OW22396   4.929   4.934   1.705
 7166SOL    HW122397   5.021   4.964   1.729
 7166SOL    HW222398   4.925   4.913   1.607
 7167SOL     OW22399   4.699   2.927   5.217
 7167SOL    HW122400   4.773   2.915   5.283
 7167SOL    HW222401   4.667   2.837   5.186
 7168SOL     OW22402   1.426   1.040   4.573
 7168SOL    HW122403   1.451   1.094   4.492
 7168SOL    HW222404   1.449   1.092   4.656
 7169SOL     OW22405   1.815   2.762   6.219
 7169SOL    HW122406   1.836   2.702   6.142
 7169SOL    HW222407   1.837   2.856   6.196
 7170SOL     OW22408   6.755   4.775   4.479
 7170SOL    HW122409   6.837   4.720   4.468
 7170SOL    HW222410   6.686   4.723   4.530
 7171SOL     OW22411   3.822   2.859   5.032
 7171SOL    HW122412   3.890   2.796   4.995
 7171SOL    HW222413   3.753   2.878   4.962
 7172SOL     OW22414   1.519   6.779   1.133
 7172SOL    HW122415   1.582   6.772   1.055
 7172SOL    HW222416   1.463   6.697   1.138
 7173SOL     OW22417   6.259   6.068   5.704
 7173SOL    HW122418   6.255   6.154   5.654
 7173SOL    HW222419   6.167   6.035   5.723
 7174SOL     OW22420   1.015   5.767   0.283
 7174SOL    HW122421   0.950   5.783   0.209
 7174SOL    HW222422   0.997   5.677   0.324
 7175SOL     OW22423   6.568   3.399   5.368
 7175SOL    HW122424   6.652   3.362   5.329
 7175SOL    HW222425   6.551   3.356   5.457
 7176SOL     OW22426   6.133   4.097   1.467
 7176SOL    HW122427   6.210   4.052   1.511
 7176SOL    HW222428   6.129   4.193   1.496
 7177SOL     OW22429   0.649   6.473   1.761
 7177SOL    HW122430   0.720   6.544   1.768
 7177SOL    HW222431   0.567   6.504   1.810
 7178SOL     OW22432   0.209   2.768   6.106
 7178SOL    HW122433   0.246   2.786   6.197
 7178SOL    HW222434   0.284   2.770   6.039
 7179SOL     OW22435   2.530   4.390   6.455
 7179SOL    HW122436   2.498   4.373   6.361
 7179SOL    HW222437   2.459   4.437   6.507
 7180SOL     OW22438   0.016   6.464   2.186
 7180SOL    HW122439   0.093   6.407   2.216
 7180SOL    HW222440   6.980   6.495   2.265
 7181SOL     OW22441   4.947   0.927   2.461
 7181SOL    HW122442   4.930   0.952   2.365
 7181SOL    HW222443   5.023   0.981   2.496
 7182SOL     OW22444   2.919   3.636   5.425
 7182SOL    HW122445   2.897   3.722   5.378
 7182SOL    HW222446   2.859   3.564   5.391
 7183SOL     OW22447   1.137   5.387   2.937
 7183SOL    HW122448   1.052   5.336   2.931
 7183SOL    HW222449   1.118   5.485   2.935
 7184SOL     OW22450   1.602   6.851   3.355
 7184SOL    HW122451   1.678   6.820   3.298
 7184SOL    HW222452   1.638   6.895   3.437
 7185SOL     OW22453   4.118   2.249   6.431
 7185SOL    HW122454   4.102   2.166   6.485
 7185SOL    HW222455   4.148   2.223   6.339
 7186SOL     OW22456   0.712   6.640   4.432
 7186SOL    HW122457   0.764   6.726   4.436
 7186SOL    HW222458   0.768   6.565   4.467
 7187SOL     OW22459   1.963   5.077   1.507
 7187SOL    HW122460   1.942   5.022   1.427
 7187SOL    HW222461   2.053   5.119   1.495
 7188SOL     OW22462   5.258   1.075   1.583
 7188SOL    HW122463   5.268   1.033   1.492
 7188SOL    HW222464   5.268   1.174   1.575
 7189SOL     OW22465   6.388   0.707   4.520
 7189SOL    HW122466   6.352   0.756   4.600
 7189SOL    HW222467   6.438   0.771   4.462
 7190SOL     OW22468   4.853   4.827   3.755
 7190SOL    HW122469   4.795   4.761   3.802
 7190SOL    HW222470   4.923   4.778   3.703
 7191SOL     OW22471   1.414   3.230   2.390
 7191SOL    HW122472   1.388   3.135   2.410
 7191SOL    HW222473   1.460   3.234   2.302
 7192SOL     OW22474   3.542   4.864   5.950
 7192SOL    HW122475   3.513   4.864   5.855
 7192SOL    HW222476   3.642   4.867   5.955
 7193SOL     OW22477   4.790   1.150   2.885
 7193SOL    HW122478   4.814   1.223   2.820
 7193SOL    HW222479   4.816   1.062   2.847
 7194SOL     OW22480   3.033   1.572   1.788
 7194SOL    HW122481   3.063   1.559   1.882
 7194SOL    HW222482   3.027   1.670   1.768
 7195SOL     OW22483   0.899   5.313   1.722
 7195SOL    HW122484   0.899   5.218   1.752
 7195SOL    HW222485   0.809   5.354   1.742
 7196SOL     OW22486   3.960   3.008   1.686
 7196SOL    HW122487   3.970   3.062   1.602
 7196SOL    HW222488   3.997   2.916   1.672
 7197SOL     OW22489   1.328   2.229   5.572
 7197SOL    HW122490   1.316   2.327   5.558
 7197SOL    HW222491   1.400   2.195   5.511
 7198SOL     OW22492   1.224   5.836   6.675
 7198SOL    HW122493   1.133   5.798   6.691
 7198SOL    HW222494   1.258   5.877   6.760
 7199SOL     OW22495   6.193   6.498   2.884
 7199SOL    HW122496   6.250   6.545   2.951
 7199SOL    HW222497   6.179   6.557   2.805
 7200SOL     OW22498   2.356   1.692   0.858
 7200SOL    HW122499   2.282   1.631   0.832
 7200SOL    HW222500   2.330   1.744   0.939
 7201SOL     OW22501   2.395   4.336   3.703
 7201SOL    HW122502   2.390   4.370   3.609
 7201SOL    HW222503   2.397   4.236   3.702
 7202SOL     OW22504   3.877   0.884   6.498
 7202SOL    HW122505   3.814   0.807   6.510
 7202SOL    HW222506   3.826   0.968   6.481
 7203SOL     OW22507   5.890   0.710   6.737
 7203SOL    HW122508   5.980   0.750   6.755
 7203SOL    HW222509   5.850   0.753   6.656
 7204SOL     OW22510   5.821   1.308   2.282
 7204SOL    HW122511   5.897   1.268   2.333
 7204SOL    HW222512   5.851   1.395   2.241
 7205SOL     OW22513   1.994   4.599   2.426
 7205SOL    HW122514   2.028   4.693   2.429
 7205SOL    HW222515   1.958   4.574   2.516
 7206SOL     OW22516   5.934   1.401   1.849
 7206SOL    HW122517   5.846   1.440   1.873
 7206SOL    HW222518   5.981   1.461   1.784
 7207SOL     OW22519   3.711   0.046   1.756
 7207SOL    HW122520   3.735   0.083   1.666
 7207SOL    HW222521   3.616   0.016   1.756
 7208SOL     OW22522   3.050   6.989   4.902
 7208SOL    HW122523   3.079   6.935   4.823
 7208SOL    HW222524   3.131   0.003   4.952
 7209SOL     OW22525   4.139   3.579   4.887
 7209SOL    HW122526   4.072   3.631   4.834
 7209SOL    HW222527   4.188   3.517   4.826
 7210SOL     OW22528   3.951   0.408   4.460
 7210SOL    HW122529   3.894   0.487   4.437
 7210SOL    HW222530   3.904   0.353   4.529
 7211SOL     OW22531   1.490   5.469   2.723
 7211SOL    HW122532   1.439   5.402   2.669
 7211SOL    HW222533   1.533   5.535   2.662
 7212SOL     OW22534   5.225   6.799   4.420
 7212SOL    HW122535   5.151   6.767   4.360
 7212SOL    HW222536   5.244   6.895   4.400
 7213SOL     OW22537   5.176   0.857   5.581
 7213SOL    HW122538   5.173   0.907   5.494
 7213SOL    HW222539   5.216   0.766   5.566
 7214SOL     OW22540   0.768   4.937   5.105
 7214SOL    HW122541   0.758   5.028   5.066
 7214SOL    HW222542   0.731   4.869   5.041
 7215SOL     OW22543   0.917   3.336   3.143
 7215SOL    HW122544   0.944   3.384   3.060
 7215SOL    HW222545   0.989   3.343   3.211
 7216SOL     OW22546   2.183   1.150   1.166
 7216SOL    HW122547   2.247   1.180   1.096
 7216SOL    HW222548   2.096   1.199   1.155
 7217SOL     OW22549   0.877   2.981   2.298
 7217SOL    HW122550   0.875   2.937   2.388
 7217SOL    HW222551   0.784   2.986   2.260
 7218SOL     OW22552   5.735   2.544   6.258
 7218SOL    HW122553   5.751   2.554   6.160
 7218SOL    HW222554   5.753   2.450   6.286
 7219SOL     OW22555   4.166   1.418   1.672
 7219SOL    HW122556   4.099   1.398   1.744
 7219SOL    HW222557   4.131   1.385   1.584
 7220SOL     OW22558   6.999   0.611   2.620
 7220SOL    HW122559   0.067   0.569   2.585
 7220SOL    HW222560   6.961   0.553   2.692
 7221SOL     OW22561   6.061   5.326   5.450
 7221SOL    HW122562   6.019   5.281   5.371
 7221SOL    HW222563   5.993   5.379   5.499
 7222SOL     OW22564   6.344   6.271   2.497
 7222SOL    HW122565   6.247   6.292   2.490
 7222SOL    HW222566   6.358   6.173   2.484
 7223SOL     OW22567   3.641   0.515   5.123
 7223SOL    HW122568   3.543   0.518   5.141
 7223SOL    HW222569   3.684   0.448   5.184
 7224SOL     OW22570   4.546   0.077   4.398
 7224SOL    HW122571   4.552   7.004   4.355
 7224SOL    HW222572   4.586   0.146   4.336
 7225SOL     OW22573   2.127   6.630   0.058
 7225SOL    HW122574   2.205   6.668   0.108
 7225SOL    HW222575   2.066   6.584   0.123
 7226SOL     OW22576   6.426   7.009   0.382
 7226SOL    HW122577   6.500   7.002   0.314
 7226SOL    HW222578   6.444   6.946   0.457
 7227SOL     OW22579   6.720   2.692   6.257
 7227SOL    HW122580   6.739   2.595   6.273
 7227SOL    HW222581   6.804   2.745   6.265
 7228SOL     OW22582   1.437   0.896   2.663
 7228SOL    HW122583   1.419   0.933   2.572
 7228SOL    HW222584   1.350   0.880   2.710
 7229SOL     OW22585   0.649   0.489   3.972
 7229SOL    HW122586   0.618   0.503   4.066
 7229SOL    HW222587   0.743   0.456   3.973
 7230SOL     OW22588   5.599   4.378   2.979
 7230SOL    HW122589   5.603   4.388   3.079
 7230SOL    HW222590   5.504   4.385   2.948
 7231SOL     OW22591   5.750   1.228   6.211
 7231SOL    HW122592   5.663   1.220   6.259
 7231SOL    HW222593   5.824   1.233   6.279
 7232SOL     OW22594   3.718   4.649   1.202
 7232SOL    HW122595   3.722   4.571   1.140
 7232SOL    HW222596   3.676   4.727   1.154
 7233SOL     OW22597   0.323   2.387   5.865
 7233SOL    HW122598   0.395   2.319   5.853
 7233SOL    HW222599   0.262   2.385   5.785
 7234SOL     OW22600   5.497   2.001   2.557
 7234SOL    HW122601   5.589   1.974   2.584
 7234SOL    HW222602   5.501   2.080   2.495
 7235SOL     OW22603   6.275   3.147   5.031
 7235SOL    HW122604   6.374   3.152   5.017
 7235SOL    HW222605   6.246   3.221   5.091
 7236SOL     OW22606   3.063   1.179   2.849
 7236SOL    HW122607   3.102   1.122   2.921
 7236SOL    HW222608   3.133   1.199   2.781
 7237SOL     OW22609   6.278   5.697   6.179
 7237SOL    HW122610   6.185   5.734   6.189
 7237SOL    HW222611   6.311   5.664   6.267
 7238SOL     OW22612   1.067   1.111   1.608
 7238SOL    HW122613   1.130   1.060   1.667
 7238SOL    HW222614   1.091   1.093   1.512
 7239SOL     OW22615   4.495   1.175   2.088
 7239SOL    HW122616   4.583   1.161   2.131
 7239SOL    HW222617   4.440   1.091   2.094
 7240SOL     OW22618   3.093   3.525   0.971
 7240SOL    HW122619   3.131   3.485   0.888
 7240SOL    HW222620   2.997   3.500   0.980
 7241SOL     OW22621   3.897   0.214   4.972
 7241SOL    HW122622   3.945   0.269   5.040
 7241SOL    HW222623   3.821   0.266   4.934
 7242SOL     OW22624   4.655   4.863   0.633
 7242SOL    HW122625   4.664   4.837   0.729
 7242SOL    HW222626   4.738   4.839   0.584
 7243SOL     OW22627   0.134   5.869   0.169
 7243SOL    HW122628   0.049   5.902   0.211
 7243SOL    HW222629   0.180   5.806   0.232
 7244SOL     OW22630   5.459   1.512   0.955
 7244SOL    HW122631   5.397   1.587   0.933
 7244SOL    HW222632   5.532   1.545   1.015
 7245SOL     OW22633   6.554   1.711   4.434
 7245SOL    HW122634   6.580   1.662   4.350
 7245SOL    HW222635   6.536   1.645   4.507
 7246SOL     OW22636   1.065   5.832   5.440
 7246SOL    HW122637   1.018   5.905   5.390
 7246SOL    HW222638   1.007   5.751   5.443
 7247SOL     OW22639   3.513   5.602   2.587
 7247SOL    HW122640   3.493   5.561   2.499
 7247SOL    HW222641   3.612   5.599   2.604
 7248SOL     OW22642   3.362   0.802   4.677
 7248SOL    HW122643   3.355   0.808   4.577
 7248SOL    HW222644   3.297   0.735   4.711
 7249SOL     OW22645   6.100   4.592   6.729
 7249SOL    HW122646   6.147   4.566   6.645
 7249SOL    HW222647   6.003   4.568   6.722
 7250SOL     OW22648   2.922   4.153   6.817
 7250SOL    HW122649   2.872   4.227   6.862
 7250SOL    HW222650   2.973   4.190   6.739
 7251SOL     OW22651   5.362   0.302   5.392
 7251SOL    HW122652   5.369   0.359   5.474
 7251SOL    HW222653   5.297   0.228   5.408
 7252SOL     OW22654   4.429   3.753   5.374
 7252SOL    HW122655   4.482   3.680   5.416
 7252SOL    HW222656   4.480   3.792   5.298
 7253SOL     OW22657   5.317   5.300   0.824
 7253SOL    HW122658   5.416   5.286   0.815
 7253SOL    HW222659   5.291   5.384   0.776
 7254SOL     OW22660   5.033   6.479   5.066
 7254SOL    HW122661   5.057   6.383   5.056
 7254SOL    HW222662   4.968   6.489   5.142
 7255SOL     OW22663   3.639   3.934   2.063
 7255SOL    HW122664   3.625   3.841   2.028
 7255SOL    HW222665   3.728   3.940   2.109
 7256SOL     OW22666   4.572   4.940   3.967
 7256SOL    HW122667   4.570   5.010   4.039
 7256SOL    HW222668   4.506   4.964   3.896
 7257SOL     OW22669   6.086   3.846   3.346
 7257SOL    HW122670   6.180   3.872   3.370
 7257SOL    HW222671   6.077   3.747   3.350
 7258SOL     OW22672   3.032   6.392   5.344
 7258SOL    HW122673   2.991   6.332   5.413
 7258SOL    HW222674   2.973   6.472   5.330
 7259SOL     OW22675   1.576   5.805   5.922
 7259SOL    HW122676   1.663   5.854   5.932
 7259SOL    HW222677   1.500   5.869   5.925
 7260SOL     OW22678   3.865   1.950   1.985
 7260SOL    HW122679   3.871   2.033   1.929
 7260SOL    HW222680   3.794   1.961   2.055
 7261SOL     OW22681   1.432   4.289   1.598
 7261SOL    HW122682   1.453   4.192   1.596
 7261SOL    HW222683   1.334   4.303   1.583
 7262SOL     OW22684   6.203   1.850   5.934
 7262SOL    HW122685   6.162   1.887   6.017
 7262SOL    HW222686   6.204   1.750   5.939
 7263SOL     OW22687   4.950   6.748   2.022
 7263SOL    HW122688   4.927   6.790   2.109
 7263SOL    HW222689   4.889   6.670   2.005
 7264SOL     OW22690   1.271   6.834   4.534
 7264SOL    HW122691   1.299   6.773   4.460
 7264SOL    HW222692   1.349   6.852   4.593
 7265SOL     OW22693   4.085   3.771   6.333
 7265SOL    HW122694   4.041   3.681   6.330
 7265SOL    HW222695   4.028   3.833   6.387
 7266SOL     OW22696   4.951   1.342   1.582
 7266SOL    HW122697   4.903   1.417   1.536
 7266SOL    HW222698   4.941   1.352   1.681
 7267SOL     OW22699   0.547   2.871   4.360
 7267SOL    HW122700   0.456   2.831   4.353
 7267SOL    HW222701   0.541   2.964   4.396
 7268SOL     OW22702   2.997   0.222   0.744
 7268SOL    HW122703   3.055   0.146   0.772
 7268SOL    HW222704   2.990   0.225   0.645
 7269SOL     OW22705   1.138   6.947   1.973
 7269SOL    HW122706   1.206   6.892   2.020
 7269SOL    HW222707   1.150   6.937   1.874
 7270SOL     OW22708   3.258   1.787   2.477
 7270SOL    HW122709   3.254   1.850   2.554
 7270SOL    HW222710   3.318   1.824   2.406
 7271SOL     OW22711   6.005   4.867   4.607
 7271SOL    HW122712   5.922   4.814   4.622
 7271SOL    HW222713   6.085   4.809   4.625
 7272SOL     OW22714   6.224   1.752   1.179
 7272SOL    HW122715   6.298   1.819   1.189
 7272SOL    HW222716   6.230   1.685   1.253
 7273SOL     OW22717   6.054   6.063   6.055
 7273SOL    HW122718   6.036   6.155   6.020
 7273SOL    HW222719   6.150   6.058   6.085
 7274SOL     OW22720   0.744   4.286   4.330
 7274SOL    HW122721   0.687   4.269   4.250
 7274SOL    HW222722   0.722   4.221   4.402
 7275SOL     OW22723   5.446   6.675   1.377
 7275SOL    HW122724   5.387   6.750   1.408
 7275SOL    HW222725   5.511   6.652   1.449
 7276SOL     OW22726   2.689   2.023   3.957
 7276SOL    HW122727   2.637   1.939   3.973
 7276SOL    HW222728   2.628   2.094   3.924
 7277SOL     OW22729   5.216   1.378   3.839
 7277SOL    HW122730   5.147   1.424   3.894
 7277SOL    HW222731   5.194   1.389   3.742
 7278SOL     OW22732   2.445   1.765   2.990
 7278SOL    HW122733   2.496   1.769   2.904
 7278SOL    HW222734   2.489   1.699   3.051
 7279SOL     OW22735   4.001   4.237   1.143
 7279SOL    HW122736   3.904   4.253   1.127
 7279SOL    HW222737   4.039   4.183   1.067
 7280SOL     OW22738   6.658   2.014   5.667
 7280SOL    HW122739   6.716   1.991   5.590
 7280SOL    HW222740   6.681   1.955   5.745
 7281SOL     OW22741   3.607   5.816   2.201
 7281SOL    HW122742   3.688   5.770   2.237
 7281SOL    HW222743   3.623   5.839   2.104
 7282SOL     OW22744   6.942   3.706   2.153
 7282SOL    HW122745   6.876   3.778   2.175
 7282SOL    HW222746   7.014   3.744   2.094
 7283SOL     OW22747   4.332   5.009   3.223
 7283SOL    HW122748   4.308   5.071   3.149
 7283SOL    HW222749   4.270   4.930   3.222
 7284SOL     OW22750   0.652   1.361   2.177
 7284SOL    HW122751   0.670   1.345   2.274
 7284SOL    HW222752   0.581   1.431   2.168
 7285SOL     OW22753   4.720   3.223   1.710
 7285SOL    HW122754   4.809   3.189   1.679
 7285SOL    HW222755   4.679   3.156   1.772
 7286SOL     OW22756   6.282   1.926   3.701
 7286SOL    HW122757   6.339   1.937   3.620
 7286SOL    HW222758   6.243   1.834   3.703
 7287SOL     OW22759   2.995   1.454   2.928
 7287SOL    HW122760   2.989   1.354   2.937
 7287SOL    HW222761   3.078   1.479   2.879
 7288SOL     OW22762   2.547   1.273   1.982
 7288SOL    HW122763   2.464   1.325   1.962
 7288SOL    HW222764   2.621   1.306   1.924
 7289SOL     OW22765   6.719   2.361   1.881
 7289SOL    HW122766   6.674   2.347   1.969
 7289SOL    HW222767   6.689   2.448   1.842
 7290SOL     OW22768   3.682   1.483   4.956
 7290SOL    HW122769   3.613   1.501   4.886
 7290SOL    HW222770   3.709   1.386   4.952
 7291SOL     OW22771   2.682   1.130   0.767
 7291SOL    HW122772   2.731   1.105   0.684
 7291SOL    HW222773   2.746   1.129   0.844
 7292SOL     OW22774   2.613   0.324   2.575
 7292SOL    HW122775   2.603   0.422   2.593
 7292SOL    HW222776   2.523   0.281   2.570
 7293SOL     OW22777   6.512   1.521   4.194
 7293SOL    HW122778   6.513   1.432   4.149
 7293SOL    HW222779   6.597   1.570   4.174
 7294SOL     OW22780   3.166   6.444   2.554
 7294SOL    HW122781   3.092   6.483   2.608
 7294SOL    HW222782   3.183   6.350   2.585
 7295SOL     OW22783   5.312   4.472   1.249
 7295SOL    HW122784   5.232   4.426   1.210
 7295SOL    HW222785   5.301   4.479   1.349
 7296SOL     OW22786   4.320   5.280   2.356
 7296SOL    HW122787   4.374   5.204   2.319
 7296SOL    HW222788   4.344   5.364   2.307
 7297SOL     OW22789   4.160   6.777   0.765
 7297SOL    HW122790   4.065   6.747   0.759
 7297SOL    HW222791   4.210   6.715   0.826
 7298SOL     OW22792   4.157   5.321   0.802
 7298SOL    HW122793   4.137   5.227   0.827
 7298SOL    HW222794   4.239   5.352   0.851
 7299SOL     OW22795   1.254   3.018   5.962
 7299SOL    HW122796   1.298   3.046   5.877
 7299SOL    HW222797   1.160   3.054   5.964
 7300SOL     OW22798   0.119   5.566   2.383
 7300SOL    HW122799   0.144   5.539   2.290
 7300SOL    HW222800   0.141   5.663   2.396
 7301SOL     OW22801   4.186   2.143   6.188
 7301SOL    HW122802   4.105   2.112   6.140
 7301SOL    HW222803   4.238   2.206   6.130
 7302SOL     OW22804   5.606   2.251   6.042
 7302SOL    HW122805   5.568   2.257   6.135
 7302SOL    HW222806   5.571   2.169   5.997
 7303SOL     OW22807   3.024   1.834   1.721
 7303SOL    HW122808   2.964   1.879   1.655
 7303SOL    HW222809   3.012   1.876   1.811
 7304SOL     OW22810   2.407   5.101   0.894
 7304SOL    HW122811   2.418   5.029   0.825
 7304SOL    HW222812   2.365   5.062   0.976
 7305SOL     OW22813   6.088   1.040   6.770
 7305SOL    HW122814   6.058   0.990   6.852
 7305SOL    HW222815   6.087   1.138   6.789
 7306SOL     OW22816   1.009   2.951   1.629
 7306SOL    HW122817   1.025   3.031   1.688
 7306SOL    HW222818   1.051   2.966   1.540
 7307SOL     OW22819   2.139   0.400   1.560
 7307SOL    HW122820   2.095   0.348   1.633
 7307SOL    HW222821   2.084   0.393   1.476
 7308SOL     OW22822   3.741   1.303   2.703
 7308SOL    HW122823   3.761   1.401   2.702
 7308SOL    HW222824   3.664   1.285   2.641
 7309SOL     OW22825   1.926   5.385   3.796
 7309SOL    HW122826   1.932   5.287   3.777
 7309SOL    HW222827   1.905   5.434   3.711
 7310SOL     OW22828   2.786   2.809   6.288
 7310SOL    HW122829   2.713   2.775   6.230
 7310SOL    HW222830   2.752   2.885   6.344
 7311SOL     OW22831   0.357   6.101   5.623
 7311SOL    HW122832   0.426   6.044   5.577
 7311SOL    HW222833   0.348   6.188   5.574
 7312SOL     OW22834   6.024   1.918   4.161
 7312SOL    HW122835   6.093   1.853   4.129
 7312SOL    HW222836   6.069   1.993   4.211
 7313SOL     OW22837   2.604   0.614   2.796
 7313SOL    HW122838   2.698   0.630   2.768
 7313SOL    HW222839   2.542   0.635   2.720
 7314SOL     OW22840   1.128   4.512   5.825
 7314SOL    HW122841   1.180   4.458   5.759
 7314SOL    HW222842   1.102   4.454   5.903
 7315SOL     OW22843   2.100   4.868   2.332
 7315SOL    HW122844   2.181   4.813   2.316
 7315SOL    HW222845   2.094   4.891   2.429
 7316SOL     OW22846   3.990   1.431   1.425
 7316SOL    HW122847   3.907   1.415   1.479
 7316SOL    HW222848   3.977   1.395   1.333
 7317SOL     OW22849   4.057   2.100   0.209
 7317SOL    HW122850   4.039   2.150   0.294
 7317SOL    HW222851   4.099   2.162   0.143
 7318SOL     OW22852   5.210   6.878   0.416
 7318SOL    HW122853   5.289   6.837   0.461
 7318SOL    HW222854   5.195   6.970   0.452
 7319SOL     OW22855   6.072   6.617   6.632
 7319SOL    HW122856   6.163   6.625   6.673
 7319SOL    HW222857   6.037   6.524   6.644
 7320SOL     OW22858   0.609   2.825   1.033
 7320SOL    HW122859   0.556   2.816   0.949
 7320SOL    HW222860   0.636   2.921   1.045
 7321SOL     OW22861   2.149   1.957   0.180
 7321SOL    HW122862   2.245   1.982   0.193
 7321SOL    HW222863   2.111   2.010   0.104
 7322SOL     OW22864   0.690   3.379   3.290
 7322SOL    HW122865   0.615   3.316   3.269
 7322SOL    HW222866   0.764   3.366   3.224
 7323SOL     OW22867   1.284   2.551   0.361
 7323SOL    HW122868   1.329   2.520   0.277
 7323SOL    HW222869   1.353   2.565   0.432
 7324SOL     OW22870   4.903   3.828   3.261
 7324SOL    HW122871   4.875   3.879   3.342
 7324SOL    HW222872   4.915   3.731   3.284
 7325SOL     OW22873   4.009   1.274   6.030
 7325SOL    HW122874   3.989   1.331   6.110
 7325SOL    HW222875   3.978   1.320   5.947
 7326SOL     OW22876   3.627   0.214   0.405
 7326SOL    HW122877   3.688   0.249   0.476
 7326SOL    HW222878   3.574   0.289   0.366
 7327SOL     OW22879   1.834   4.335   3.705
 7327SOL    HW122880   1.783   4.270   3.649
 7327SOL    HW222881   1.834   4.424   3.660
 7328SOL     OW22882   4.622   4.941   5.444
 7328SOL    HW122883   4.631   4.892   5.531
 7328SOL    HW222884   4.648   5.037   5.457
 7329SOL     OW22885   2.514   3.253   0.937
 7329SOL    HW122886   2.414   3.248   0.935
 7329SOL    HW222887   2.550   3.241   0.845
 7330SOL     OW22888   2.313   3.204   1.242
 7330SOL    HW122889   2.215   3.191   1.255
 7330SOL    HW222890   2.330   3.295   1.203
 7331SOL     OW22891   5.438   2.459   2.250
 7331SOL    HW122892   5.458   2.544   2.299
 7331SOL    HW222893   5.490   2.456   2.165
 7332SOL     OW22894   3.288   6.513   6.314
 7332SOL    HW122895   3.368   6.569   6.290
 7332SOL    HW222896   3.205   6.569   6.306
 7333SOL     OW22897   0.705   1.179   1.331
 7333SOL    HW122898   0.648   1.133   1.400
 7333SOL    HW222899   0.670   1.272   1.316
 7334SOL     OW22900   1.413   5.388   4.087
 7334SOL    HW122901   1.442   5.484   4.089
 7334SOL    HW222902   1.484   5.332   4.045
 7335SOL     OW22903   6.708   3.647   2.297
 7335SOL    HW122904   6.782   3.650   2.230
 7335SOL    HW222905   6.732   3.704   2.376
 7336SOL     OW22906   2.235   6.603   1.751
 7336SOL    HW122907   2.332   6.617   1.771
 7336SOL    HW222908   2.226   6.549   1.667
 7337SOL     OW22909   2.910   1.304   3.290
 7337SOL    HW122910   3.006   1.278   3.300
 7337SOL    HW222911   2.852   1.226   3.311
 7338SOL     OW22912   5.260   4.099   1.071
 7338SOL    HW122913   5.353   4.097   1.107
 7338SOL    HW222914   5.216   4.185   1.098
 7339SOL     OW22915   6.968   6.401   5.013
 7339SOL    HW122916   7.011   6.355   4.935
 7339SOL    HW222917   6.896   6.343   5.051
 7340SOL     OW22918   3.212   6.195   0.284
 7340SOL    HW122919   3.222   6.186   0.185
 7340SOL    HW222920   3.301   6.215   0.325
 7341SOL     OW22921   6.631   5.898   4.968
 7341SOL    HW122922   6.556   5.832   4.975
 7341SOL    HW222923   6.694   5.886   5.046
 7342SOL     OW22924   1.616   5.377   1.401
 7342SOL    HW122925   1.527   5.334   1.418
 7342SOL    HW222926   1.637   5.440   1.476
 7343SOL     OW22927   5.311   2.419   3.552
 7343SOL    HW122928   5.309   2.428   3.651
 7343SOL    HW222929   5.405   2.427   3.520
 7344SOL     OW22930   2.661   0.968   0.049
 7344SOL    HW122931   2.681   0.982   6.969
 7344SOL    HW222932   2.659   0.870   0.069
 7345SOL     OW22933   2.922   6.146   0.142
 7345SOL    HW122934   2.894   6.241   0.157
 7345SOL    HW222935   3.006   6.127   0.192
 7346SOL     OW22936   3.724   4.910   1.742
 7346SOL    HW122937   3.666   4.986   1.713
 7346SOL    HW222938   3.702   4.885   1.837
 7347SOL     OW22939   6.851   3.197   2.332
 7347SOL    HW122940   6.798   3.240   2.404
 7347SOL    HW222941   6.944   3.178   2.365
 7348SOL     OW22942   0.491   1.559   4.704
 7348SOL    HW122943   0.452   1.480   4.659
 7348SOL    HW222944   0.591   1.550   4.707
 7349SOL     OW22945   3.630   1.224   0.783
 7349SOL    HW122946   3.619   1.243   0.881
 7349SOL    HW222947   3.701   1.283   0.745
 7350SOL     OW22948   2.020   1.226   2.850
 7350SOL    HW122949   2.076   1.259   2.773
 7350SOL    HW222950   1.940   1.285   2.861
 7351SOL     OW22951   4.859   5.004   0.204
 7351SOL    HW122952   4.906   5.080   0.248
 7351SOL    HW222953   4.761   5.026   0.197
 7352SOL     OW22954   6.427   0.718   3.286
 7352SOL    HW122955   6.415   0.729   3.187
 7352SOL    HW222956   6.348   0.670   3.324
 7353SOL     OW22957   5.353   2.015   4.571
 7353SOL    HW122958   5.390   2.042   4.482
 7353SOL    HW222959   5.394   1.929   4.600
 7354SOL     OW22960   6.756   4.343   5.328
 7354SOL    HW122961   6.701   4.290   5.264
 7354SOL    HW222962   6.849   4.306   5.331
 7355SOL     OW22963   0.963   4.845   1.283
 7355SOL    HW122964   0.870   4.876   1.263
 7355SOL    HW222965   0.986   4.768   1.222
 7356SOL     OW22966   0.079   2.002   5.844
 7356SOL    HW122967   0.029   2.068   5.900
 7356SOL    HW222968   0.151   1.959   5.898
 7357SOL     OW22969   0.791   1.809   0.628
 7357SOL    HW122970   0.824   1.716   0.608
 7357SOL    HW222971   0.867   1.873   0.620
 7358SOL     OW22972   3.120   0.595   3.831
 7358SOL    HW122973   3.170   0.655   3.769
 7358SOL    HW222974   3.167   0.507   3.837
 7359SOL     OW22975   3.213   3.520   2.941
 7359SOL    HW122976   3.114   3.529   2.930
 7359SOL    HW222977   3.239   3.425   2.923
 7360SOL     OW22978   0.269   3.531   5.862
 7360SOL    HW122979   0.200   3.460   5.845
 7360SOL    HW222980   0.327   3.540   5.781
 7361SOL     OW22981   4.770   6.536   1.966
 7361SOL    HW122982   4.732   6.582   1.886
 7361SOL    HW222983   4.705   6.466   1.998
 7362SOL     OW22984   1.853   6.549   6.580
 7362SOL    HW122985   1.888   6.538   6.673
 7362SOL    HW222986   1.920   6.599   6.525
 7363SOL     OW22987   5.271   3.155   6.434
 7363SOL    HW122988   5.333   3.098   6.380
 7363SOL    HW222989   5.322   3.205   6.503
 7364SOL     OW22990   5.353   0.916   1.337
 7364SOL    HW122991   5.405   0.839   1.375
 7364SOL    HW222992   5.416   0.980   1.293
 7365SOL     OW22993   3.531   0.659   1.861
 7365SOL    HW122994   3.507   0.654   1.958
 7365SOL    HW222995   3.516   0.752   1.828
 7366SOL     OW22996   1.415   5.420   6.994
 7366SOL    HW122997   1.483   5.377   6.935
 7366SOL    HW222998   1.354   5.351   0.015
 7367SOL     OW22999   4.490   3.229   6.834
 7367SOL    HW123000   4.524   3.188   6.750
 7367SOL    HW223001   4.561   3.286   6.875
 7368SOL     OW23002   3.136   3.631   3.549
 7368SOL    HW123003   3.113   3.536   3.529
 7368SOL    HW223004   3.104   3.654   3.641
 7369SOL     OW23005   5.081   2.043   6.342
 7369SOL    HW123006   4.989   2.079   6.327
 7369SOL    HW223007   5.136   2.112   6.390
 7370SOL     OW23008   1.793   5.695   1.173
 7370SOL    HW123009   1.718   5.707   1.108
 7370SOL    HW223010   1.794   5.601   1.207
 7371SOL     OW23011   2.532   5.025   3.712
 7371SOL    HW123012   2.465   5.052   3.781
 7371SOL    HW223013   2.485   4.980   3.636
 7372SOL     OW23014   2.992   5.976   5.573
 7372SOL    HW123015   3.062   5.955   5.641
 7372SOL    HW223016   2.907   5.928   5.597
 7373SOL     OW23017   3.732   0.505   1.846
 7373SOL    HW123018   3.652   0.566   1.845
 7373SOL    HW223019   3.788   0.526   1.926
 7374SOL     OW23020   2.407   3.700   6.706
 7374SOL    HW123021   2.338   3.659   6.766
 7374SOL    HW223022   2.498   3.675   6.739
 7375SOL     OW23023   1.649   6.588   3.146
 7375SOL    HW123024   1.675   6.532   3.067
 7375SOL    HW223025   1.696   6.677   3.140
 7376SOL     OW23026   2.850   4.100   5.679
 7376SOL    HW123027   2.755   4.070   5.668
 7376SOL    HW223028   2.885   4.067   5.767
 7377SOL     OW23029   4.945   5.268   1.863
 7377SOL    HW123030   4.970   5.364   1.879
 7377SOL    HW223031   5.004   5.209   1.917
 7378SOL     OW23032   6.630   2.539   5.967
 7378SOL    HW123033   6.602   2.485   5.888
 7378SOL    HW223034   6.729   2.550   5.966
 7379SOL     OW23035   4.414   1.401   1.124
 7379SOL    HW123036   4.364   1.480   1.158
 7379SOL    HW223037   4.397   1.389   1.026
 7380SOL     OW23038   6.128   2.054   5.408
 7380SOL    HW123039   6.058   2.088   5.345
 7380SOL    HW223040   6.174   1.975   5.366
 7381SOL     OW23041   5.243   2.106   0.244
 7381SOL    HW123042   5.299   2.188   0.250
 7381SOL    HW223043   5.196   2.091   0.331
 7382SOL     OW23044   6.926   6.107   3.772
 7382SOL    HW123045   6.877   6.154   3.699
 7382SOL    HW223046   6.957   6.174   3.840
 7383SOL     OW23047   0.070   5.814   3.588
 7383SOL    HW123048   0.122   5.751   3.645
 7383SOL    HW223049   0.103   5.908   3.601
 7384SOL     OW23050   6.293   1.606   1.734
 7384SOL    HW123051   6.258   1.534   1.794
 7384SOL    HW223052   6.227   1.681   1.731
 7385SOL     OW23053   5.379   0.266   1.609
 7385SOL    HW123054   5.467   0.264   1.656
 7385SOL    HW223055   5.334   0.353   1.626
 7386SOL     OW23056   0.456   2.882   6.038
 7386SOL    HW123057   0.529   2.816   6.055
 7386SOL    HW223058   0.455   2.906   5.941
 7387SOL     OW23059   4.325   5.927   3.943
 7387SOL    HW123060   4.386   5.855   3.910
 7387SOL    HW223061   4.293   5.904   4.034
 7388SOL     OW23062   5.859   4.440   4.693
 7388SOL    HW123063   5.788   4.481   4.636
 7388SOL    HW223064   5.948   4.456   4.650
 7389SOL     OW23065   0.789   4.255   5.033
 7389SOL    HW123066   0.807   4.256   4.934
 7389SOL    HW223067   0.756   4.345   5.062
 7390SOL     OW23068   2.535   0.327   5.787
 7390SOL    HW123069   2.463   0.277   5.835
 7390SOL    HW223070   2.519   0.322   5.688
 7391SOL     OW23071   6.864   4.177   0.057
 7391SOL    HW123072   6.869   4.146   0.151
 7391SOL    HW223073   6.945   4.145   0.007
 7392SOL     OW23074   2.015   4.958   2.997
 7392SOL    HW123075   1.974   5.012   3.071
 7392SOL    HW223076   2.049   4.871   3.033
 7393SOL     OW23077   0.767   3.233   0.251
 7393SOL    HW123078   0.684   3.286   0.269
 7393SOL    HW223079   0.802   3.196   0.337
 7394SOL     OW23080   3.104   3.231   6.614
 7394SOL    HW123081   3.082   3.319   6.571
 7394SOL    HW223082   3.179   3.244   6.679
 7395SOL     OW23083   1.896   6.105   0.561
 7395SOL    HW123084   1.804   6.138   0.581
 7395SOL    HW223085   1.948   6.177   0.515
 7396SOL     OW23086   0.670   0.169   1.464
 7396SOL    HW123087   0.577   0.205   1.477
 7396SOL    HW223088   0.666   0.087   1.408
 7397SOL     OW23089   6.092   4.495   4.586
 7397SOL    HW123090   6.153   4.574   4.592
 7397SOL    HW223091   6.100   4.454   4.495
 7398SOL     OW23092   3.983   5.926   3.060
 7398SOL    HW123093   3.967   6.008   3.115
 7398SOL    HW223094   4.043   5.948   2.983
 7399SOL     OW23095   4.990   4.538   4.897
 7399SOL    HW123096   5.037   4.554   4.810
 7399SOL    HW223097   4.922   4.609   4.912
 7400SOL     OW23098   2.009   5.093   6.704
 7400SOL    HW123099   2.028   5.038   6.785
 7400SOL    HW223100   1.982   5.033   6.628
 7401SOL     OW23101   5.611   1.789   4.919
 7401SOL    HW123102   5.676   1.721   4.885
 7401SOL    HW223103   5.585   1.768   5.013
 7402SOL     OW23104   2.353   6.851   3.802
 7402SOL    HW123105   2.339   6.777   3.736
 7402SOL    HW223106   2.380   6.934   3.753
 7403SOL     OW23107   2.041   3.171   1.348
 7403SOL    HW123108   1.957   3.162   1.402
 7403SOL    HW223109   2.019   3.208   1.258
 7404SOL     OW23110   1.143   1.715   2.833
 7404SOL    HW123111   1.086   1.797   2.819
 7404SOL    HW223112   1.234   1.743   2.865
 7405SOL     OW23113   3.384   5.097   6.397
 7405SOL    HW123114   3.459   5.041   6.430
 7405SOL    HW223115   3.372   5.082   6.299
 7406SOL     OW23116   0.908   5.685   2.318
 7406SOL    HW123117   0.909   5.634   2.404
 7406SOL    HW223118   0.958   5.634   2.248
 7407SOL     OW23119   2.111   0.838   5.829
 7407SOL    HW123120   2.067   0.790   5.753
 7407SOL    HW223121   2.209   0.845   5.812
 7408SOL     OW23122   0.768   3.535   5.079
 7408SOL    HW123123   0.812   3.600   5.018
 7408SOL    HW223124   0.672   3.524   5.052
 7409SOL     OW23125   3.196   5.865   5.728
 7409SOL    HW123126   3.252   5.832   5.804
 7409SOL    HW223127   3.143   5.789   5.690
 7410SOL     OW23128   5.619   4.796   0.166
 7410SOL    HW123129   5.603   4.746   0.251
 7410SOL    HW223130   5.683   4.871   0.183
 7411SOL     OW23131   5.199   5.148   5.598
 7411SOL    HW123132   5.183   5.237   5.641
 7411SOL    HW223133   5.205   5.160   5.499
 7412SOL     OW23134   1.548   2.015   0.036
 7412SOL    HW123135   1.471   2.052   0.088
 7412SOL    HW223136   1.594   1.945   0.091
 7413SOL     OW23137   0.110   3.208   4.652
 7413SOL    HW123138   0.134   3.113   4.633
 7413SOL    HW223139   0.059   3.246   4.575
 7414SOL     OW23140   6.829   5.572   2.693
 7414SOL    HW123141   6.776   5.616   2.765
 7414SOL    HW223142   6.772   5.505   2.645
 7415SOL     OW23143   2.864   1.888   2.661
 7415SOL    HW123144   2.893   1.807   2.611
 7415SOL    HW223145   2.939   1.919   2.720
 7416SOL     OW23146   5.556   0.540   3.878
 7416SOL    HW123147   5.559   0.511   3.783
 7416SOL    HW223148   5.590   0.466   3.937
 7417SOL     OW23149   0.920   6.208   0.711
 7417SOL    HW123150   0.980   6.285   0.689
 7417SOL    HW223151   0.826   6.230   0.686
 7418SOL     OW23152   1.245   3.885   0.367
 7418SOL    HW123153   1.193   3.896   0.283
 7418SOL    HW223154   1.302   3.803   0.361
 7419SOL     OW23155   5.689   1.300   5.371
 7419SOL    HW123156   5.720   1.266   5.460
 7419SOL    HW223157   5.634   1.383   5.384
 7420SOL     OW23158   0.061   5.953   2.200
 7420SOL    HW123159   6.991   5.993   2.171
 7420SOL    HW223160   0.042   5.874   2.260
 7421SOL     OW23161   3.754   2.908   1.406
 7421SOL    HW123162   3.705   2.896   1.492
 7421SOL    HW223163   3.850   2.884   1.419
 7422SOL     OW23164   0.866   2.691   1.205
 7422SOL    HW123165   0.771   2.711   1.184
 7422SOL    HW223166   0.871   2.630   1.284
 7423SOL     OW23167   2.256   5.170   0.287
 7423SOL    HW123168   2.207   5.107   0.347
 7423SOL    HW223169   2.204   5.256   0.279
 7424SOL     OW23170   6.155   1.059   4.706
 7424SOL    HW123171   6.168   1.140   4.764
 7424SOL    HW223172   6.089   1.080   4.634
 7425SOL     OW23173   4.205   6.930   5.179
 7425SOL    HW123174   4.278   6.960   5.116
 7425SOL    HW223175   4.188   7.001   5.246
 7426SOL     OW23176   0.958   1.401   0.218
 7426SOL    HW123177   1.039   1.444   0.177
 7426SOL    HW223178   0.880   1.464   0.211
 7427SOL     OW23179   4.339   5.526   4.606
 7427SOL    HW123180   4.366   5.451   4.665
 7427SOL    HW223181   4.323   5.492   4.513
 7428SOL     OW23182   2.745   1.567   5.801
 7428SOL    HW123183   2.837   1.588   5.834
 7428SOL    HW223184   2.729   1.468   5.809
 7429SOL     OW23185   6.417   0.028   3.948
 7429SOL    HW123186   6.392   0.124   3.936
 7429SOL    HW223187   6.499   0.009   3.894
 7430SOL     OW23188   0.823   4.588   4.729
 7430SOL    HW123189   0.812   4.687   4.732
 7430SOL    HW223190   0.770   4.550   4.654
 7431SOL     OW23191   0.924   4.364   2.440
 7431SOL    HW123192   0.867   4.418   2.378
 7431SOL    HW223193   0.871   4.337   2.519
 7432SOL     OW23194   1.223   6.308   4.925
 7432SOL    HW123195   1.203   6.221   4.881
 7432SOL    HW223196   1.209   6.300   5.023
 7433SOL     OW23197   6.824   6.283   1.157
 7433SOL    HW123198   6.767   6.299   1.237
 7433SOL    HW223199   6.848   6.370   1.114
 7434SOL     OW23200   4.551   0.204   6.576
 7434SOL    HW123201   4.568   0.108   6.600
 7434SOL    HW223202   4.474   0.239   6.629
 7435SOL     OW23203   1.380   5.836   0.116
 7435SOL    HW123204   1.314   5.764   0.096
 7435SOL    HW223205   1.349   5.888   0.196
 7436SOL     OW23206   5.085   2.596   6.828
 7436SOL    HW123207   4.991   2.616   6.801
 7436SOL    HW223208   5.092   2.595   6.928
 7437SOL     OW23209   0.095   5.632   5.858
 7437SOL    HW123210   0.126   5.615   5.951
 7437SOL    HW223211   0.132   5.719   5.825
 7438SOL     OW23212   6.360   4.764   1.854
 7438SOL    HW123213   6.372   4.675   1.898
 7438SOL    HW223214   6.262   4.779   1.835
 7439SOL     OW23215   1.135   5.824   3.807
 7439SOL    HW123216   1.071   5.813   3.883
 7439SOL    HW223217   1.221   5.777   3.829
 7440SOL     OW23218   0.691   2.069   3.716
 7440SOL    HW123219   0.753   2.115   3.780
 7440SOL    HW223220   0.746   2.023   3.645
 7441SOL     OW23221   5.757   0.213   4.057
 7441SOL    HW123222   5.830   0.231   4.122
 7441SOL    HW223223   5.788   0.237   3.965
 7442SOL     OW23224   1.975   0.869   6.723
 7442SOL    HW123225   2.068   0.898   6.747
 7442SOL    HW223226   1.959   0.778   6.761
 7443SOL     OW23227   6.866   1.370   0.644
 7443SOL    HW123228   6.953   1.391   0.688
 7443SOL    HW223229   6.860   1.273   0.623
 7444SOL     OW23230   0.645   2.668   6.059
 7444SOL    HW123231   0.737   2.694   6.031
 7444SOL    HW223232   0.650   2.598   6.130
 7445SOL     OW23233   5.704   3.006   2.120
 7445SOL    HW123234   5.791   2.961   2.098
 7445SOL    HW223235   5.648   3.013   2.037
 7446SOL     OW23236   7.003   3.523   0.893
 7446SOL    HW123237   6.939   3.561   0.827
 7446SOL    HW223238   6.957   3.508   0.980
 7447SOL     OW23239   0.029   4.385   6.237
 7447SOL    HW123240   0.023   4.326   6.318
 7447SOL    HW223241   0.052   4.329   6.157
 7448SOL     OW23242   6.899   6.608   6.239
 7448SOL    HW123243   6.979   6.647   6.193
 7448SOL    HW223244   6.816   6.642   6.194
 7449SOL     OW23245   4.353   0.855   1.554
 7449SOL    HW123246   4.271   0.876   1.607
 7449SOL    HW223247   4.389   0.766   1.583
 7450SOL     OW23248   3.302   0.077   2.718
 7450SOL    HW123249   3.394   0.067   2.756
 7450SOL    HW223250   3.245   0.129   2.781
 7451SOL     OW23251   1.337   1.197   2.908
 7451SOL    HW123252   1.279   1.158   2.980
 7451SOL    HW223253   1.291   1.186   2.820
 7452SOL     OW23254   1.571   6.439   4.477
 7452SOL    HW123255   1.554   6.466   4.382
 7452SOL    HW223256   1.629   6.507   4.521
 7453SOL     OW23257   5.645   5.671   5.626
 7453SOL    HW123258   5.599   5.751   5.665
 7453SOL    HW223259   5.687   5.618   5.700
 7454SOL     OW23260   0.475   3.064   0.227
 7454SOL    HW123261   0.500   3.159   0.210
 7454SOL    HW223262   0.427   3.057   0.315
 7455SOL     OW23263   5.563   1.331   0.382
 7455SOL    HW123264   5.548   1.356   0.478
 7455SOL    HW223265   5.577   1.232   0.376
 7456SOL     OW23266   1.830   2.938   5.755
 7456SOL    HW123267   1.793   3.024   5.789
 7456SOL    HW223268   1.844   2.943   5.656
 7457SOL     OW23269   6.343   0.149   6.003
 7457SOL    HW123270   6.275   0.075   5.996
 7457SOL    HW223271   6.389   0.161   5.915
 7458SOL     OW23272   2.336   0.610   0.618
 7458SOL    HW123273   2.266   0.618   0.547
 7458SOL    HW223274   2.347   0.514   0.644
 7459SOL     OW23275   4.613   0.323   4.575
 7459SOL    HW123276   4.591   0.240   4.523
 7459SOL    HW223277   4.664   0.386   4.518
 7460SOL     OW23278   0.736   5.481   6.878
 7460SOL    HW123279   0.827   5.506   6.911
 7460SOL    HW223280   0.710   5.392   6.916
 7461SOL     OW23281   4.848   0.367   3.789
 7461SOL    HW123282   4.870   0.457   3.827
 7461SOL    HW223283   4.778   0.377   3.717
 7462SOL     OW23284   1.513   1.454   2.598
 7462SOL    HW123285   1.598   1.417   2.636
 7462SOL    HW223286   1.449   1.379   2.580
 7463SOL     OW23287   3.523   3.563   2.264
 7463SOL    HW123288   3.563   3.565   2.173
 7463SOL    HW223289   3.457   3.638   2.273
 7464SOL     OW23290   4.863   6.581   6.438
 7464SOL    HW123291   4.794   6.542   6.378
 7464SOL    HW223292   4.818   6.635   6.510
 7465SOL     OW23293   3.167   1.026   2.070
 7465SOL    HW123294   3.200   1.049   1.979
 7465SOL    HW223295   3.176   0.928   2.085
 7466SOL     OW23296   0.414   0.372   6.438
 7466SOL    HW123297   0.471   0.453   6.427
 7466SOL    HW223298   0.325   0.398   6.475
 7467SOL     OW23299   5.843   1.463   1.329
 7467SOL    HW123300   5.920   1.523   1.352
 7467SOL    HW223301   5.878   1.383   1.279
 7468SOL     OW23302   6.222   3.463   4.759
 7468SOL    HW123303   6.309   3.471   4.808
 7468SOL    HW223304   6.199   3.367   4.746
 7469SOL     OW23305   6.699   1.184   1.778
 7469SOL    HW123306   6.797   1.173   1.762
 7469SOL    HW223307   6.648   1.129   1.713
 7470SOL     OW23308   0.185   2.464   2.406
 7470SOL    HW123309   0.154   2.536   2.468
 7470SOL    HW223310   0.215   2.504   2.320
 7471SOL     OW23311   5.976   5.047   6.536
 7471SOL    HW123312   5.926   5.084   6.458
 7471SOL    HW223313   6.036   4.973   6.506
 7472SOL     OW23314   3.432   5.300   3.477
 7472SOL    HW123315   3.468   5.392   3.491
 7472SOL    HW223316   3.337   5.306   3.446
 7473SOL     OW23317   0.591   3.427   4.692
 7473SOL    HW123318   0.493   3.422   4.672
 7473SOL    HW223319   0.633   3.338   4.677
 7474SOL     OW23320   3.964   1.218   2.582
 7474SOL    HW123321   3.884   1.245   2.636
 7474SOL    HW223322   4.001   1.298   2.535
 7475SOL     OW23323   4.340   1.255   0.087
 7475SOL    HW123324   4.284   1.327   0.046
 7475SOL    HW223325   4.425   1.294   0.121
 7476SOL     OW23326   3.164   6.791   5.111
 7476SOL    HW123327   3.244   6.845   5.137
 7476SOL    HW223328   3.184   6.739   5.027
 7477SOL     OW23329   4.748   2.743   3.029
 7477SOL    HW123330   4.679   2.717   2.961
 7477SOL    HW223331   4.826   2.785   2.982
 7478SOL     OW23332   1.935   4.936   1.282
 7478SOL    HW123333   1.838   4.947   1.263
 7478SOL    HW223334   1.986   4.932   1.196
 7479SOL     OW23335   4.422   0.658   6.086
 7479SOL    HW123336   4.495   0.633   6.023
 7479SOL    HW223337   4.401   0.756   6.077
 7480SOL     OW23338   0.034   4.840   1.245
 7480SOL    HW123339   6.991   4.919   1.231
 7480SOL    HW223340   0.033   4.814   1.342
 7481SOL     OW23341   6.307   6.045   0.534
 7481SOL    HW123342   6.281   5.961   0.581
 7481SOL    HW223343   6.391   6.082   0.573
 7482SOL     OW23344   4.968   0.757   3.685
 7482SOL    HW123345   4.890   0.731   3.628
 7482SOL    HW223346   4.949   0.735   3.781
 7483SOL     OW23347   3.458   0.048   6.013
 7483SOL    HW123348   3.365   0.081   6.001
 7483SOL    HW223349   3.459   6.965   6.011
 7484SOL     OW23350   2.889   0.560   2.415
 7484SOL    HW123351   2.876   0.568   2.316
 7484SOL    HW223352   2.966   0.499   2.433
 7485SOL     OW23353   1.565   6.676   5.910
 7485SOL    HW123354   1.614   6.639   5.831
 7485SOL    HW223355   1.473   6.704   5.881
 7486SOL     OW23356   1.464   0.318   5.130
 7486SOL    HW123357   1.499   0.388   5.068
 7486SOL    HW223358   1.395   0.263   5.084
 7487SOL     OW23359   4.200   5.035   3.623
 7487SOL    HW123360   4.216   4.977   3.543
 7487SOL    HW223361   4.174   5.127   3.593
 7488SOL     OW23362   3.583   0.734   5.351
 7488SOL    HW123363   3.579   0.833   5.362
 7488SOL    HW223364   3.670   0.708   5.310
 7489SOL     OW23365   6.194   3.539   3.100
 7489SOL    HW123366   6.274   3.591   3.069
 7489SOL    HW223367   6.171   3.564   3.194
 7490SOL     OW23368   5.500   1.452   1.927
 7490SOL    HW123369   5.511   1.538   1.977
 7490SOL    HW223370   5.492   1.473   1.829
 7491SOL     OW23371   6.734   6.052   0.001
 7491SOL    HW123372   6.655   6.049   6.956
 7491SOL    HW223373   6.818   6.034   6.966
 7492SOL     OW23374   2.549   2.531   4.152
 7492SOL    HW123375   2.517   2.604   4.212
 7492SOL    HW223376   2.596   2.461   4.205
 7493SOL     OW23377   5.185   4.009   7.002
 7493SOL    HW123378   5.114   4.078   6.993
 7493SOL    HW223379   5.220   4.009   0.078
 7494SOL     OW23380   4.958   1.938   0.696
 7494SOL    HW123381   4.930   2.032   0.710
 7494SOL    HW223382   4.883   1.876   0.718
 7495SOL     OW23383   0.404   1.507   2.185
 7495SOL    HW123384   0.320   1.491   2.133
 7495SOL    HW223385   0.403   1.452   2.268
 7496SOL     OW23386   1.157   4.611   5.438
 7496SOL    HW123387   1.227   4.582   5.502
 7496SOL    HW223388   1.109   4.531   5.402
 7497SOL     OW23389   1.989   5.244   2.067
 7497SOL    HW123390   2.028   5.285   2.149
 7497SOL    HW223391   2.008   5.302   1.987
 7498SOL     OW23392   4.695   1.161   4.447
 7498SOL    HW123393   4.674   1.067   4.419
 7498SOL    HW223394   4.687   1.222   4.369
 7499SOL     OW23395   4.609   6.020   3.801
 7499SOL    HW123396   4.642   5.933   3.836
 7499SOL    HW223397   4.589   6.081   3.878
 7500SOL     OW23398   5.317   4.592   1.488
 7500SOL    HW123399   5.250   4.665   1.489
 7500SOL    HW223400   5.393   4.617   1.427
 7501SOL     OW23401   0.032   4.514   4.027
 7501SOL    HW123402   6.951   4.517   4.007
 7501SOL    HW223403   0.084   4.521   3.941
 7502SOL     OW23404   2.408   1.616   4.301
 7502SOL    HW123405   2.336   1.547   4.308
 7502SOL    HW223406   2.455   1.623   4.389
 7503SOL     OW23407   2.701   2.631   6.466
 7503SOL    HW123408   2.763   2.704   6.438
 7503SOL    HW223409   2.749   2.567   6.527
 7504SOL     OW23410   4.533   5.593   4.112
 7504SOL    HW123411   4.629   5.618   4.126
 7504SOL    HW223412   4.490   5.571   4.200
 7505SOL     OW23413   1.556   2.120   4.477
 7505SOL    HW123414   1.583   2.112   4.573
 7505SOL    HW223415   1.474   2.178   4.471
 7506SOL     OW23416   4.342   1.690   3.534
 7506SOL    HW123417   4.250   1.726   3.551
 7506SOL    HW223418   4.390   1.678   3.620
 7507SOL     OW23419   1.719   6.520   6.050
 7507SOL    HW123420   1.706   6.509   6.148
 7507SOL    HW223421   1.673   6.603   6.019
 7508SOL     OW23422   4.770   0.024   4.098
 7508SOL    HW123423   4.779   0.045   4.001
 7508SOL    HW223424   4.860   0.003   4.137
 7509SOL     OW23425   4.410   3.265   6.075
 7509SOL    HW123426   4.468   3.227   6.003
 7509SOL    HW223427   4.359   3.192   6.119
 7510SOL     OW23428   3.628   4.036   4.679
 7510SOL    HW123429   3.575   3.953   4.693
 7510SOL    HW223430   3.638   4.084   4.767
 7511SOL     OW23431   1.232   1.010   2.476
 7511SOL    HW123432   1.213   1.043   2.569
 7511SOL    HW223433   1.186   0.922   2.462
 7512SOL     OW23434   2.284   2.804   1.797
 7512SOL    HW123435   2.272   2.903   1.811
 7512SOL    HW223436   2.322   2.788   1.707
 7513SOL     OW23437   1.000   3.248   6.734
 7513SOL    HW123438   0.983   3.192   6.654
 7513SOL    HW223439   0.969   3.342   6.717
 7514SOL     OW23440   2.515   6.074   3.239
 7514SOL    HW123441   2.502   6.054   3.142
 7514SOL    HW223442   2.444   6.027   3.292
 7515SOL     OW23443   6.288   5.338   2.945
 7515SOL    HW123444   6.352   5.409   2.974
 7515SOL    HW223445   6.305   5.314   2.849
 7516SOL     OW23446   1.047   0.857   3.140
 7516SOL    HW123447   1.092   0.797   3.075
 7516SOL    HW223448   1.094   0.945   3.144
 7517SOL     OW23449   0.827   4.287   1.300
 7517SOL    HW123450   0.817   4.375   1.255
 7517SOL    HW223451   0.739   4.239   1.300
 7518SOL     OW23452   5.108   6.001   3.186
 7518SOL    HW123453   5.136   6.002   3.090
 7518SOL    HW223454   5.189   5.994   3.244
 7519SOL     OW23455   2.078   5.752   3.732
 7519SOL    HW123456   2.137   5.681   3.695
 7519SOL    HW223457   2.103   5.840   3.692
 7520SOL     OW23458   2.255   6.953   4.252
 7520SOL    HW123459   2.305   6.989   4.331
 7520SOL    HW223460   2.164   6.923   4.280
 7521SOL     OW23461   5.371   4.270   6.170
 7521SOL    HW123462   5.303   4.336   6.201
 7521SOL    HW223463   5.460   4.316   6.161
 7522SOL     OW23464   1.655   0.665   2.130
 7522SOL    HW123465   1.640   0.581   2.183
 7522SOL    HW223466   1.591   0.736   2.162
 7523SOL     OW23467   5.894   6.797   6.892
 7523SOL    HW123468   5.795   6.800   6.877
 7523SOL    HW223469   5.937   6.873   6.843
 7524SOL     OW23470   6.390   1.308   4.357
 7524SOL    HW123471   6.402   1.275   4.263
 7524SOL    HW223472   6.479   1.322   4.399
 7525SOL     OW23473   1.863   6.403   0.981
 7525SOL    HW123474   1.837   6.448   1.067
 7525SOL    HW223475   1.785   6.401   0.920
 7526SOL     OW23476   3.606   3.065   5.152
 7526SOL    HW123477   3.542   3.133   5.116
 7526SOL    HW223478   3.579   2.974   5.121
 7527SOL     OW23479   5.673   4.745   2.033
 7527SOL    HW123480   5.648   4.728   2.128
 7527SOL    HW223481   5.598   4.718   1.973
 7528SOL     OW23482   6.371   3.705   5.780
 7528SOL    HW123483   6.343   3.778   5.843
 7528SOL    HW223484   6.464   3.676   5.801
 7529SOL     OW23485   3.045   6.855   5.337
 7529SOL    HW123486   2.980   6.931   5.340
 7529SOL    HW223487   3.084   6.850   5.245
 7530SOL     OW23488   6.979   3.377   2.630
 7530SOL    HW123489   6.890   3.335   2.610
 7530SOL    HW223490   7.002   3.360   2.726
 7531SOL     OW23491   3.178   1.627   3.478
 7531SOL    HW123492   3.215   1.654   3.567
 7531SOL    HW223493   3.170   1.528   3.474
 7532SOL     OW23494   4.919   4.422   2.157
 7532SOL    HW123495   4.887   4.459   2.244
 7532SOL    HW223496   4.950   4.328   2.169
 7533SOL     OW23497   3.289   0.001   4.396
 7533SOL    HW123498   3.350   0.046   4.331
 7533SOL    HW223499   3.319   0.020   4.490
 7534SOL     OW23500   5.434   0.095   4.532
 7534SOL    HW123501   5.437   0.046   4.619
 7534SOL    HW223502   5.429   0.029   4.457
 7535SOL     OW23503   3.466   4.320   6.739
 7535SOL    HW123504   3.392   4.259   6.770
 7535SOL    HW223505   3.479   4.309   6.640
 7536SOL     OW23506   4.005   6.119   3.842
 7536SOL    HW123507   4.092   6.103   3.794
 7536SOL    HW223508   3.992   6.048   3.911
 7537SOL     OW23509   2.327   4.644   5.869
 7537SOL    HW123510   2.301   4.556   5.828
 7537SOL    HW223511   2.283   4.719   5.819
 7538SOL     OW23512   3.237   3.202   2.834
 7538SOL    HW123513   3.245   3.228   2.738
 7538SOL    HW223514   3.236   3.102   2.841
 7539SOL     OW23515   1.734   2.346   4.777
 7539SOL    HW123516   1.663   2.386   4.718
 7539SOL    HW223517   1.759   2.412   4.848
 7540SOL     OW23518   1.912   1.581   0.275
 7540SOL    HW123519   1.892   1.679   0.276
 7540SOL    HW223520   1.845   1.532   0.333
 7541SOL     OW23521   6.744   2.882   5.495
 7541SOL    HW123522   6.748   2.982   5.494
 7541SOL    HW223523   6.660   2.851   5.452
 7542SOL     OW23524   1.892   0.159   6.673
 7542SOL    HW123525   1.821   0.117   6.730
 7542SOL    HW223526   1.879   0.131   6.577
 7543SOL     OW23527   4.130   2.810   6.975
 7543SOL    HW123528   4.216   2.855   6.954
 7543SOL    HW223529   4.103   2.753   6.897
 7544SOL     OW23530   2.313   2.012   2.891
 7544SOL    HW123531   2.410   2.035   2.885
 7544SOL    HW223532   2.298   1.951   2.970
 7545SOL     OW23533   5.428   0.103   3.966
 7545SOL    HW123534   5.444   0.184   4.022
 7545SOL    HW223535   5.482   0.027   4.002
 7546SOL     OW23536   4.834   0.338   6.603
 7546SOL    HW123537   4.849   0.384   6.691
 7546SOL    HW223538   4.742   0.301   6.600
 7547SOL     OW23539   3.206   0.175   0.193
 7547SOL    HW123540   3.161   0.264   0.204
 7547SOL    HW223541   3.144   0.112   0.146
 7548SOL     OW23542   0.988   3.198   1.380
 7548SOL    HW123543   1.002   3.110   1.336
 7548SOL    HW223544   1.072   3.225   1.427
 7549SOL     OW23545   6.128   2.363   1.982
 7549SOL    HW123546   6.169   2.407   1.902
 7549SOL    HW223547   6.061   2.295   1.952
 7550SOL     OW23548   1.732   5.101   0.949
 7550SOL    HW123549   1.716   5.082   0.852
 7550SOL    HW223550   1.692   5.189   0.973
 7551SOL     OW23551   4.559   4.138   6.287
 7551SOL    HW123552   4.575   4.053   6.338
 7551SOL    HW223553   4.631   4.204   6.310
 7552SOL     OW23554   3.197   4.912   3.614
 7552SOL    HW123555   3.186   4.936   3.518
 7552SOL    HW223556   3.108   4.908   3.658
 7553SOL     OW23557   4.459   4.445   6.179
 7553SOL    HW123558   4.414   4.457   6.268
 7553SOL    HW223559   4.467   4.347   6.159
 7554SOL     OW23560   6.497   0.986   1.169
 7554SOL    HW123561   6.522   0.946   1.081
 7554SOL    HW223562   6.577   1.032   1.208
 7555SOL     OW23563   0.669   5.743   5.480
 7555SOL    HW123564   0.705   5.740   5.386
 7555SOL    HW223565   0.645   5.837   5.503
 7556SOL     OW23566   6.857   2.609   4.370
 7556SOL    HW123567   6.880   2.707   4.373
 7556SOL    HW223568   6.781   2.591   4.432
 7557SOL     OW23569   4.457   3.530   6.860
 7557SOL    HW123570   4.481   3.627   6.859
 7557SOL    HW223571   4.404   3.510   6.942
 7558SOL     OW23572   1.646   3.415   4.068
 7558SOL    HW123573   1.696   3.352   4.009
 7558SOL    HW223574   1.547   3.399   4.059
 7559SOL     OW23575   1.103   4.782   0.646
 7559SOL    HW123576   1.123   4.773   0.548
 7559SOL    HW223577   1.090   4.691   0.686
 7560SOL     OW23578   4.705   6.783   6.202
 7560SOL    HW123579   4.694   6.746   6.294
 7560SOL    HW223580   4.790   6.749   6.162
 7561SOL     OW23581   0.942   3.418   0.715
 7561SOL    HW123582   0.994   3.332   0.717
 7561SOL    HW223583   0.956   3.467   0.801
 7562SOL     OW23584   4.919   5.468   5.693
 7562SOL    HW123585   4.914   5.470   5.593
 7562SOL    HW223586   4.860   5.539   5.731
 7563SOL     OW23587   2.120   1.169   2.406
 7563SOL    HW123588   2.150   1.121   2.323
 7563SOL    HW223589   2.172   1.136   2.484
 7564SOL     OW23590   5.070   6.278   3.782
 7564SOL    HW123591   5.119   6.223   3.849
 7564SOL    HW223592   5.127   6.357   3.757
 7565SOL     OW23593   5.091   4.436   0.642
 7565SOL    HW123594   5.004   4.470   0.606
 7565SOL    HW223595   5.083   4.338   0.660
 7566SOL     OW23596   1.700   5.689   5.161
 7566SOL    HW123597   1.617   5.637   5.176
 7566SOL    HW223598   1.723   5.690   5.064
 7567SOL     OW23599   2.617   3.205   6.899
 7567SOL    HW123600   2.574   3.259   6.828
 7567SOL    HW223601   2.713   3.189   6.876
 7568SOL     OW23602   4.831   4.472   3.089
 7568SOL    HW123603   4.804   4.525   3.170
 7568SOL    HW223604   4.926   4.492   3.066
 7569SOL     OW23605   3.777   0.520   1.022
 7569SOL    HW123606   3.872   0.523   1.054
 7569SOL    HW223607   3.746   0.614   1.004
 7570SOL     OW23608   6.103   4.811   4.910
 7570SOL    HW123609   6.165   4.757   4.854
 7570SOL    HW223610   6.119   4.791   5.006
 7571SOL     OW23611   5.111   4.107   1.873
 7571SOL    HW123612   5.040   4.098   1.942
 7571SOL    HW223613   5.072   4.143   1.789
 7572SOL     OW23614   1.798   2.049   4.365
 7572SOL    HW123615   1.719   2.095   4.404
 7572SOL    HW223616   1.882   2.095   4.396
 7573SOL     OW23617   2.624   5.853   5.044
 7573SOL    HW123618   2.668   5.890   5.126
 7573SOL    HW223619   2.527   5.838   5.063
 7574SOL     OW23620   4.697   5.832   2.800
 7574SOL    HW123621   4.720   5.738   2.775
 7574SOL    HW223622   4.640   5.832   2.882
 7575SOL     OW23623   4.464   2.517   5.005
 7575SOL    HW123624   4.448   2.488   4.911
 7575SOL    HW223625   4.379   2.549   5.045
 7576SOL     OW23626   6.167   3.573   1.153
 7576SOL    HW123627   6.220   3.607   1.231
 7576SOL    HW223628   6.137   3.480   1.171
 7577SOL     OW23629   4.501   0.640   4.979
 7577SOL    HW123630   4.510   0.595   4.891
 7577SOL    HW223631   4.445   0.584   5.040
 7578SOL     OW23632   2.636   4.776   4.559
 7578SOL    HW123633   2.627   4.794   4.657
 7578SOL    HW223634   2.592   4.689   4.536
 7579SOL     OW23635   4.414   2.020   3.359
 7579SOL    HW123636   4.397   2.088   3.287
 7579SOL    HW223637   4.350   2.035   3.434
 7580SOL     OW23638   1.947   3.803   3.314
 7580SOL    HW123639   1.865   3.851   3.344
 7580SOL    HW223640   1.983   3.749   3.390
 7581SOL     OW23641   6.148   0.531   1.135
 7581SOL    HW123642   6.112   0.625   1.139
 7581SOL    HW223643   6.248   0.534   1.133
 7582SOL     OW23644   2.973   1.339   1.239
 7582SOL    HW123645   2.938   1.354   1.331
 7582SOL    HW223646   3.053   1.398   1.224
 7583SOL     OW23647   0.329   3.454   2.382
 7583SOL    HW123648   0.418   3.412   2.365
 7583SOL    HW223649   0.308   3.450   2.480
 7584SOL     OW23650   2.262   1.473   1.197
 7584SOL    HW123651   2.281   1.414   1.118
 7584SOL    HW223652   2.346   1.515   1.229
 7585SOL     OW23653   1.537   5.026   6.018
 7585SOL    HW123654   1.601   5.060   6.086
 7585SOL    HW223655   1.473   5.099   5.994
 7586SOL     OW23656   2.159   1.306   1.701
 7586SOL    HW123657   2.129   1.398   1.676
 7586SOL    HW223658   2.080   1.251   1.728
 7587SOL     OW23659   2.383   0.812   6.097
 7587SOL    HW123660   2.429   0.901   6.090
 7587SOL    HW223661   2.395   0.762   6.011
 7588SOL     OW23662   0.354   4.094   1.360
 7588SOL    HW123663   0.359   4.146   1.445
 7588SOL    HW223664   0.266   4.048   1.354
 7589SOL     OW23665   5.352   6.163   0.061
 7589SOL    HW123666   5.401   6.081   0.088
 7589SOL    HW223667   5.375   6.186   6.983
 7590SOL     OW23668   2.434   0.722   6.362
 7590SOL    HW123669   2.366   0.654   6.389
 7590SOL    HW223670   2.403   0.770   6.280
 7591SOL     OW23671   6.759   5.289   0.459
 7591SOL    HW123672   6.753   5.202   0.510
 7591SOL    HW223673   6.742   5.272   0.362
 7592SOL     OW23674   5.296   5.921   0.315
 7592SOL    HW123675   5.233   5.845   0.332
 7592SOL    HW223676   5.303   5.977   0.397
 7593SOL     OW23677   6.424   2.949   6.622
 7593SOL    HW123678   6.479   3.024   6.587
 7593SOL    HW223679   6.465   2.915   6.707
 7594SOL     OW23680   1.323   6.024   4.002
 7594SOL    HW123681   1.399   6.083   4.029
 7594SOL    HW223682   1.324   6.012   3.902
 7595SOL     OW23683   6.364   2.448   0.342
 7595SOL    HW123684   6.428   2.473   0.269
 7595SOL    HW223685   6.415   2.430   0.426
 7596SOL     OW23686   5.041   4.654   1.666
 7596SOL    HW123687   4.976   4.704   1.724
 7596SOL    HW223688   5.005   4.647   1.573
 7597SOL     OW23689   3.334   5.624   1.743
 7597SOL    HW123690   3.342   5.611   1.644
 7597SOL    HW223691   3.255   5.682   1.762
 7598SOL     OW23692   6.665   0.456   3.302
 7598SOL    HW123693   6.595   0.391   3.272
 7598SOL    HW223694   6.725   0.413   3.369
 7599SOL     OW23695   6.302   2.048   1.840
 7599SOL    HW123696   6.235   2.032   1.768
 7599SOL    HW223697   6.299   1.972   1.906
 7600SOL     OW23698   2.388   2.041   1.487
 7600SOL    HW123699   2.336   2.116   1.528
 7600SOL    HW223700   2.479   2.037   1.528
 7601SOL     OW23701   2.081   6.902   4.992
 7601SOL    HW123702   2.113   6.979   4.937
 7601SOL    HW223703   2.132   6.820   4.965
 7602SOL     OW23704   2.153   3.327   4.866
 7602SOL    HW123705   2.208   3.245   4.880
 7602SOL    HW223706   2.143   3.344   4.768
 7603SOL     OW23707   0.821   0.622   2.124
 7603SOL    HW123708   0.742   0.576   2.164
 7603SOL    HW223709   0.817   0.614   2.024
 7604SOL     OW23710   4.685   6.225   6.230
 7604SOL    HW123711   4.775   6.268   6.232
 7604SOL    HW223712   4.695   6.127   6.213
 7605SOL     OW23713   5.831   4.426   5.724
 7605SOL    HW123714   5.816   4.504   5.664
 7605SOL    HW223715   5.765   4.354   5.702
 7606SOL     OW23716   5.705   1.948   3.040
 7606SOL    HW123717   5.805   1.950   3.033
 7606SOL    HW223718   5.667   1.903   2.960
 7607SOL     OW23719   5.320   6.868   6.838
 7607SOL    HW123720   5.289   6.960   6.859
 7607SOL    HW223721   5.267   6.831   6.762
 7608SOL     OW23722   3.553   2.884   3.567
 7608SOL    HW123723   3.468   2.837   3.590
 7608SOL    HW223724   3.536   2.946   3.491
 7609SOL     OW23725   1.598   2.946   4.256
 7609SOL    HW123726   1.676   2.938   4.319
 7609SOL    HW223727   1.537   2.869   4.269
 7610SOL     OW23728   5.285   0.537   1.410
 7610SOL    HW123729   5.378   0.546   1.377
 7610SOL    HW223730   5.286   0.527   1.510
 7611SOL     OW23731   1.732   1.547   1.443
 7611SOL    HW123732   1.668   1.481   1.405
 7611SOL    HW223733   1.724   1.549   1.542
 7612SOL     OW23734   4.123   1.414   2.468
 7612SOL    HW123735   4.187   1.351   2.423
 7612SOL    HW223736   4.123   1.502   2.419
 7613SOL     OW23737   4.781   1.172   2.165
 7613SOL    HW123738   4.832   1.109   2.107
 7613SOL    HW223739   4.832   1.258   2.174
 7614SOL     OW23740   4.264   1.614   0.193
 7614SOL    HW123741   4.311   1.694   0.230
 7614SOL    HW223742   4.291   1.602   0.097
 7615SOL     OW23743   3.609   5.077   5.614
 7615SOL    HW123744   3.566   5.012   5.552
 7615SOL    HW223745   3.671   5.137   5.563
 7616SOL     OW23746   6.474   4.999   3.933
 7616SOL    HW123747   6.549   4.945   3.895
 7616SOL    HW223748   6.436   4.952   4.013
 7617SOL     OW23749   3.274   5.925   2.465
 7617SOL    HW123750   3.180   5.893   2.451
 7617SOL    HW223751   3.331   5.849   2.495
 7618SOL     OW23752   1.684   2.606   0.701
 7618SOL    HW123753   1.765   2.563   0.663
 7618SOL    HW223754   1.652   2.554   0.780
 7619SOL     OW23755   5.741   3.215   5.880
 7619SOL    HW123756   5.824   3.161   5.893
 7619SOL    HW223757   5.664   3.169   5.924
 7620SOL     OW23758   3.163   6.669   1.537
 7620SOL    HW123759   3.256   6.700   1.559
 7620SOL    HW223760   3.118   6.738   1.479
 7621SOL     OW23761   2.535   1.745   1.650
 7621SOL    HW123762   2.535   1.699   1.739
 7621SOL    HW223763   2.597   1.697   1.588
 7622SOL     OW23764   4.489   2.020   0.587
 7622SOL    HW123765   4.489   1.923   0.564
 7622SOL    HW223766   4.451   2.073   0.512
 7623SOL     OW23767   5.184   0.566   5.570
 7623SOL    HW123768   5.130   0.580   5.487
 7623SOL    HW223769   5.130   0.513   5.636
 7624SOL     OW23770   6.818   0.292   4.100
 7624SOL    HW123771   6.900   0.308   4.154
 7624SOL    HW223772   6.746   0.355   4.127
 7625SOL     OW23773   4.211   0.022   1.344
 7625SOL    HW123774   4.261   0.101   1.309
 7625SOL    HW223775   4.113   0.044   1.349
 7626SOL     OW23776   1.845   4.839   4.745
 7626SOL    HW123777   1.857   4.938   4.754
 7626SOL    HW223778   1.916   4.792   4.798
 7627SOL     OW23779   0.490   2.456   0.420
 7627SOL    HW123780   0.446   2.520   0.358
 7627SOL    HW223781   0.589   2.468   0.417
 7628SOL     OW23782   3.680   2.061   0.785
 7628SOL    HW123783   3.727   1.978   0.757
 7628SOL    HW223784   3.744   2.121   0.834
 7629SOL     OW23785   6.495   5.535   4.048
 7629SOL    HW123786   6.427   5.539   4.122
 7629SOL    HW223787   6.448   5.521   3.961
 7630SOL     OW23788   6.283   0.950   2.117
 7630SOL    HW123789   6.349   0.896   2.168
 7630SOL    HW223790   6.198   0.958   2.170
 7631SOL     OW23791   0.531   2.302   3.731
 7631SOL    HW123792   0.603   2.234   3.718
 7631SOL    HW223793   0.448   2.256   3.764
 7632SOL     OW23794   4.479   1.649   6.199
 7632SOL    HW123795   4.532   1.566   6.180
 7632SOL    HW223796   4.389   1.624   6.234
 7633SOL     OW23797   5.843   4.469   6.725
 7633SOL    HW123798   5.855   4.497   6.821
 7633SOL    HW223799   5.838   4.369   6.720
 7634SOL     OW23800   1.084   1.898   2.003
 7634SOL    HW123801   1.041   1.988   1.994
 7634SOL    HW223802   1.095   1.857   1.913
 7635SOL     OW23803   2.975   4.698   6.089
 7635SOL    HW123804   3.030   4.616   6.077
 7635SOL    HW223805   2.978   4.727   6.184
 7636SOL     OW23806   1.455   0.139   4.323
 7636SOL    HW123807   1.388   0.101   4.387
 7636SOL    HW223808   1.431   0.234   4.302
 7637SOL     OW23809   1.879   5.896   4.472
 7637SOL    HW123810   1.848   5.866   4.381
 7637SOL    HW223811   1.931   5.823   4.516
 7638SOL     OW23812   4.606   4.631   1.933
 7638SOL    HW123813   4.668   4.552   1.929
 7638SOL    HW223814   4.659   4.715   1.942
 7639SOL     OW23815   0.800   1.775   4.189
 7639SOL    HW123816   0.830   1.810   4.101
 7639SOL    HW223817   0.811   1.675   4.190
 7640SOL     OW23818   2.439   2.701   6.415
 7640SOL    HW123819   2.535   2.675   6.427
 7640SOL    HW223820   2.382   2.620   6.426
 7641SOL     OW23821   6.335   3.251   3.081
 7641SOL    HW123822   6.296   3.163   3.111
 7641SOL    HW223823   6.269   3.324   3.100
 7642SOL     OW23824   2.906   1.931   2.317
 7642SOL    HW123825   2.918   2.001   2.387
 7642SOL    HW223826   2.830   1.957   2.257
 7643SOL     OW23827   4.918   3.207   2.738
 7643SOL    HW123828   4.923   3.214   2.838
 7643SOL    HW223829   4.849   3.270   2.703
 7644SOL     OW23830   6.663   3.731   3.384
 7644SOL    HW123831   6.715   3.653   3.349
 7644SOL    HW223832   6.721   3.785   3.445
 7645SOL     OW23833   4.674   3.340   6.474
 7645SOL    HW123834   4.734   3.384   6.407
 7645SOL    HW223835   4.665   3.398   6.555
 7646SOL     OW23836   1.128   1.770   1.767
 7646SOL    HW123837   1.057   1.789   1.700
 7646SOL    HW223838   1.171   1.682   1.746
 7647SOL     OW23839   1.816   4.015   1.408
 7647SOL    HW123840   1.805   4.114   1.401
 7647SOL    HW223841   1.825   3.989   1.504
 7648SOL     OW23842   4.016   0.692   3.314
 7648SOL    HW123843   4.028   0.617   3.249
 7648SOL    HW223844   3.919   0.715   3.321
 7649SOL     OW23845   2.668   0.934   1.312
 7649SOL    HW123846   2.669   1.026   1.351
 7649SOL    HW223847   2.575   0.897   1.316
 7650SOL     OW23848   5.577   4.838   3.026
 7650SOL    HW123849   5.509   4.764   3.026
 7650SOL    HW223850   5.668   4.800   3.046
 7651SOL     OW23851   3.961   1.400   6.305
 7651SOL    HW123852   3.972   1.388   6.403
 7651SOL    HW223853   3.903   1.479   6.287
 7652SOL     OW23854   0.764   2.773   2.753
 7652SOL    HW123855   0.683   2.828   2.767
 7652SOL    HW223856   0.755   2.686   2.801
 7653SOL     OW23857   3.410   2.308   1.437
 7653SOL    HW123858   3.419   2.390   1.494
 7653SOL    HW223859   3.388   2.230   1.495
 7654SOL     OW23860   4.886   3.566   3.631
 7654SOL    HW123861   4.908   3.629   3.706
 7654SOL    HW223862   4.879   3.473   3.667
 7655SOL     OW23863   4.702   6.309   5.485
 7655SOL    HW123864   4.616   6.285   5.441
 7655SOL    HW223865   4.735   6.396   5.448
 7656SOL     OW23866   1.189   6.034   4.854
 7656SOL    HW123867   1.249   6.048   4.775
 7656SOL    HW223868   1.184   5.936   4.875
 7657SOL     OW23869   4.493   1.329   4.565
 7657SOL    HW123870   4.466   1.310   4.659
 7657SOL    HW223871   4.571   1.272   4.540
 7658SOL     OW23872   4.191   0.550   6.254
 7658SOL    HW123873   4.116   0.613   6.273
 7658SOL    HW223874   4.270   0.603   6.222
 7659SOL     OW23875   5.526   0.015   0.299
 7659SOL    HW123876   5.496   6.963   0.365
 7659SOL    HW223877   5.456   0.027   0.229
 7660SOL     OW23878   6.218   4.751   4.207
 7660SOL    HW123879   6.303   4.763   4.155
 7660SOL    HW223880   6.168   4.673   4.171
 7661SOL     OW23881   5.646   3.482   3.152
 7661SOL    HW123882   5.658   3.390   3.190
 7661SOL    HW223883   5.588   3.477   3.070
 7662SOL     OW23884   0.041   5.670   1.926
 7662SOL    HW123885   0.089   5.652   1.840
 7662SOL    HW223886   0.016   5.767   1.931
 7663SOL     OW23887   0.018   5.321   0.199
 7663SOL    HW123888   6.997   5.413   0.199
 7663SOL    HW223889   6.969   5.259   0.155
 7664SOL     OW23890   2.112   5.365   4.507
 7664SOL    HW123891   2.062   5.286   4.544
 7664SOL    HW223892   2.209   5.341   4.498
 7665SOL     OW23893   2.359   6.172   4.771
 7665SOL    HW123894   2.412   6.235   4.828
 7665SOL    HW223895   2.356   6.207   4.677
 7666SOL     OW23896   1.455   1.314   1.636
 7666SOL    HW123897   1.461   1.322   1.537
 7666SOL    HW223898   1.507   1.388   1.679
 7667SOL     OW23899   4.947   5.421   6.326
 7667SOL    HW123900   4.922   5.383   6.415
 7667SOL    HW223901   4.924   5.355   6.254
 7668SOL     OW23902   3.008   3.966   1.535
 7668SOL    HW123903   3.067   3.893   1.502
 7668SOL    HW223904   2.929   3.926   1.581
 7669SOL     OW23905   4.717   6.303   4.445
 7669SOL    HW123906   4.621   6.317   4.420
 7669SOL    HW223907   4.726   6.299   4.544
 7670SOL     OW23908   2.061   4.893   1.024
 7670SOL    HW123909   2.160   4.900   1.036
 7670SOL    HW223910   2.031   4.957   0.953
 7671SOL     OW23911   5.593   2.450   4.684
 7671SOL    HW123912   5.605   2.352   4.671
 7671SOL    HW223913   5.516   2.466   4.746
 7672SOL     OW23914   5.202   0.772   2.287
 7672SOL    HW123915   5.116   0.815   2.316
 7672SOL    HW223916   5.242   0.826   2.213
 7673SOL     OW23917   0.646   4.879   0.772
 7673SOL    HW123918   0.594   4.921   0.847
 7673SOL    HW223919   0.731   4.930   0.757
 7674SOL     OW23920   6.525   0.677   5.177
 7674SOL    HW123921   6.616   0.657   5.212
 7674SOL    HW223922   6.479   0.592   5.152
 7675SOL     OW23923   4.550   6.993   3.667
 7675SOL    HW123924   4.474   0.038   3.685
 7675SOL    HW223925   4.543   6.912   3.724
 7676SOL     OW23926   1.868   6.774   1.048
 7676SOL    HW123927   1.962   6.738   1.047
 7676SOL    HW223928   1.867   6.863   1.093
 7677SOL     OW23929   1.816   2.960   2.948
 7677SOL    HW123930   1.733   3.014   2.960
 7677SOL    HW223931   1.856   2.939   3.037
 7678SOL     OW23932   5.630   0.068   6.997
 7678SOL    HW123933   5.534   0.081   0.006
 7678SOL    HW223934   5.648   0.117   6.912
 7679SOL     OW23935   0.825   5.135   5.340
 7679SOL    HW123936   0.779   5.083   5.267
 7679SOL    HW223937   0.906   5.180   5.303
 7680SOL     OW23938   4.474   2.054   6.605
 7680SOL    HW123939   4.417   2.032   6.526
 7680SOL    HW223940   4.549   1.989   6.612
 7681SOL     OW23941   2.976   1.602   0.044
 7681SOL    HW123942   2.994   1.654   6.977
 7681SOL    HW223943   3.003   1.657   0.123
 7682SOL     OW23944   3.326   6.805   0.858
 7682SOL    HW123945   3.413   6.799   0.809
 7682SOL    HW223946   3.341   6.788   0.955
 7683SOL     OW23947   5.913   1.900   3.345
 7683SOL    HW123948   5.844   1.839   3.305
 7683SOL    HW223949   5.955   1.855   3.425
 7684SOL     OW23950   4.025   1.709   5.702
 7684SOL    HW123951   4.114   1.753   5.691
 7684SOL    HW223952   3.971   1.723   5.619
 7685SOL     OW23953   3.722   3.648   0.939
 7685SOL    HW123954   3.684   3.728   0.893
 7685SOL    HW223955   3.725   3.571   0.875
 7686SOL     OW23956   3.085   0.321   4.086
 7686SOL    HW123957   3.059   0.229   4.116
 7686SOL    HW223958   3.144   0.315   4.006
 7687SOL     OW23959   4.331   4.982   5.414
 7687SOL    HW123960   4.429   4.963   5.421
 7687SOL    HW223961   4.314   5.079   5.432
 7688SOL     OW23962   6.911   6.816   4.408
 7688SOL    HW123963   6.957   6.839   4.494
 7688SOL    HW223964   6.909   6.897   4.349
 7689SOL     OW23965   4.010   6.561   4.507
 7689SOL    HW123966   4.084   6.532   4.569
 7689SOL    HW223967   3.953   6.482   4.485
 7690SOL     OW23968   6.912   5.886   3.398
 7690SOL    HW123969   6.971   5.851   3.471
 7690SOL    HW223970   6.820   5.902   3.435
 7691SOL     OW23971   5.235   4.286   4.906
 7691SOL    HW123972   5.278   4.234   4.979
 7691SOL    HW223973   5.303   4.305   4.834
 7692SOL     OW23974   1.905   6.386   1.789
 7692SOL    HW123975   1.894   6.467   1.732
 7692SOL    HW223976   2.002   6.368   1.804
 7693SOL     OW23977   5.406   1.016   6.551
 7693SOL    HW123978   5.478   0.973   6.606
 7693SOL    HW223979   5.369   1.095   6.600
 7694SOL     OW23980   7.001   5.066   4.537
 7694SOL    HW123981   0.063   5.088   4.594
 7694SOL    HW223982   6.917   5.090   4.584
 7695SOL     OW23983   4.259   0.081   6.495
 7695SOL    HW123984   4.262   0.127   6.584
 7695SOL    HW223985   4.235   0.148   6.425
 7696SOL     OW23986   0.465   3.224   5.683
 7696SOL    HW123987   0.436   3.317   5.703
 7696SOL    HW223988   0.427   3.195   5.595
 7697SOL     OW23989   4.221   1.962   1.739
 7697SOL    HW123990   4.205   1.866   1.764
 7697SOL    HW223991   4.313   1.973   1.703
 7698SOL     OW23992   7.014   3.496   5.633
 7698SOL    HW123993   0.030   3.416   5.684
 7698SOL    HW223994   0.057   3.574   5.654
 7699SOL     OW23995   2.145   4.627   6.830
 7699SOL    HW123996   2.165   4.587   6.919
 7699SOL    HW223997   2.122   4.554   6.765
 7700SOL     OW23998   5.216   6.747   5.154
 7700SOL    HW123999   5.294   6.809   5.146
 7700SOL    HW224000   5.182   6.724   5.063
 7701SOL     OW24001   6.149   1.653   4.974
 7701SOL    HW124002   6.157   1.583   5.045
 7701SOL    HW224003   6.086   1.622   4.903
 7702SOL     OW24004   2.527   6.228   6.164
 7702SOL    HW124005   2.444   6.284   6.174
 7702SOL    HW224006   2.601   6.269   6.216
 7703SOL     OW24007   0.480   2.035   6.786
 7703SOL    HW124008   0.454   1.940   6.801
 7703SOL    HW224009   0.548   2.040   6.713
 7704SOL     OW24010   4.581   4.668   0.035
 7704SOL    HW124011   4.625   4.640   6.967
 7704SOL    HW224012   4.484   4.687   0.018
 7705SOL     OW24013   3.383   5.373   5.063
 7705SOL    HW124014   3.473   5.334   5.043
 7705SOL    HW224015   3.377   5.394   5.160
 7706SOL     OW24016   6.753   0.616   5.271
 7706SOL    HW124017   6.775   0.522   5.295
 7706SOL    HW224018   6.835   0.672   5.274
 7707SOL     OW24019   0.237   4.951   5.999
 7707SOL    HW124020   0.219   4.856   6.024
 7707SOL    HW224021   0.255   5.004   6.081
 7708SOL     OW24022   4.459   6.589   4.943
 7708SOL    HW124023   4.373   6.577   4.992
 7708SOL    HW224024   4.514   6.506   4.950
 7709SOL     OW24025   3.861   2.144   1.799
 7709SOL    HW124026   3.783   2.198   1.830
 7709SOL    HW224027   3.846   2.114   1.705
 7710SOL     OW24028   2.787   2.024   0.032
 7710SOL    HW124029   2.731   2.059   0.108
 7710SOL    HW224030   2.727   1.987   6.978
 7711SOL     OW24031   5.965   6.331   6.311
 7711SOL    HW124032   5.894   6.400   6.326
 7711SOL    HW224033   5.923   6.241   6.307
 7712SOL     OW24034   5.265   5.592   0.948
 7712SOL    HW124035   5.170   5.603   0.978
 7712SOL    HW224036   5.267   5.566   0.852
 7713SOL     OW24037   1.375   4.641   6.596
 7713SOL    HW124038   1.297   4.703   6.607
 7713SOL    HW224039   1.402   4.604   6.685
 7714SOL     OW24040   5.434   4.329   3.853
 7714SOL    HW124041   5.515   4.387   3.865
 7714SOL    HW224042   5.354   4.376   3.892
 7715SOL     OW24043   4.756   1.771   0.748
 7715SOL    HW124044   4.733   1.719   0.665
 7715SOL    HW224045   4.678   1.828   0.774
 7716SOL     OW24046   4.494   2.557   2.984
 7716SOL    HW124047   4.562   2.562   3.057
 7716SOL    HW224048   4.421   2.493   3.010
 7717SOL     OW24049   3.763   0.935   6.199
 7717SOL    HW124050   3.721   0.970   6.282
 7717SOL    HW224051   3.692   0.911   6.133
 7718SOL     OW24052   2.864   5.614   3.661
 7718SOL    HW124053   2.851   5.708   3.692
 7718SOL    HW224054   2.791   5.589   3.597
 7719SOL     OW24055   6.561   1.697   4.964
 7719SOL    HW124056   6.609   1.713   5.050
 7719SOL    HW224057   6.582   1.771   4.900
 7720SOL     OW24058   5.750   5.530   1.388
 7720SOL    HW124059   5.768   5.447   1.335
 7720SOL    HW224060   5.667   5.518   1.442
 7721SOL     OW24061   1.511   4.450   2.467
 7721SOL    HW124062   1.598   4.498   2.462
 7721SOL    HW224063   1.448   4.486   2.398
 7722SOL     OW24064   0.150   5.272   4.066
 7722SOL    HW124065   0.120   5.232   3.980
 7722SOL    HW224066   0.228   5.333   4.050
 7723SOL     OW24067   6.444   2.986   0.142
 7723SOL    HW124068   6.530   2.965   0.189
 7723SOL    HW224069   6.435   3.085   0.131
 7724SOL     OW24070   1.998   4.610   1.039
 7724SOL    HW124071   2.000   4.708   1.016
 7724SOL    HW224072   1.948   4.561   0.967
 7725SOL     OW24073   4.893   3.304   4.669
 7725SOL    HW124074   4.865   3.396   4.697
 7725SOL    HW224075   4.990   3.292   4.688
 7726SOL     OW24076   6.831   4.434   3.563
 7726SOL    HW124077   6.894   4.511   3.573
 7726SOL    HW224078   6.740   4.460   3.597
 7727SOL     OW24079   6.675   2.716   1.701
 7727SOL    HW124080   6.680   2.761   1.790
 7727SOL    HW224081   6.616   2.635   1.708
 7728SOL     OW24082   2.639   2.402   2.557
 7728SOL    HW124083   2.660   2.401   2.655
 7728SOL    HW224084   2.579   2.479   2.536
 7729SOL     OW24085   5.507   2.175   0.540
 7729SOL    HW124086   5.476   2.084   0.511
 7729SOL    HW224087   5.430   2.226   0.577
 7730SOL     OW24088   4.958   0.863   2.159
 7730SOL    HW124089   4.972   0.775   2.113
 7730SOL    HW224090   4.929   0.931   2.092
 7731SOL     OW24091   6.187   1.117   6.221
 7731SOL    HW124092   6.271   1.171   6.216
 7731SOL    HW224093   6.182   1.055   6.143
 7732SOL     OW24094   4.209   5.010   0.776
 7732SOL    HW124095   4.158   4.957   0.708
 7732SOL    HW224096   4.270   5.074   0.729
 7733SOL     OW24097   2.989   0.036   2.185
 7733SOL    HW124098   3.047   6.974   2.168
 7733SOL    HW224099   2.999   0.065   2.281
 7734SOL     OW24100   1.459   1.569   3.645
 7734SOL    HW124101   1.526   1.641   3.661
 7734SOL    HW224102   1.448   1.555   3.546
 7735SOL     OW24103   5.108   4.161   0.451
 7735SOL    HW124104   5.097   4.223   0.373
 7735SOL    HW224105   5.044   4.085   0.442
 7736SOL     OW24106   5.993   4.472   6.145
 7736SOL    HW124107   5.957   4.441   6.233
 7736SOL    HW224108   6.092   4.459   6.143
 7737SOL     OW24109   5.006   1.213   0.302
 7737SOL    HW124110   5.033   1.145   0.234
 7737SOL    HW224111   5.086   1.268   0.327
 7738SOL     OW24112   2.356   4.875   6.666
 7738SOL    HW124113   2.416   4.903   6.591
 7738SOL    HW224114   2.335   4.954   6.723
 7739SOL     OW24115   6.191   3.299   1.637
 7739SOL    HW124116   6.163   3.235   1.565
 7739SOL    HW224117   6.278   3.269   1.676
 7740SOL     OW24118   0.502   6.547   3.359
 7740SOL    HW124119   0.520   6.642   3.332
 7740SOL    HW224120   0.533   6.533   3.453
 7741SOL     OW24121   2.997   5.407   4.531
 7741SOL    HW124122   3.089   5.448   4.528
 7741SOL    HW224123   2.943   5.441   4.454
 7742SOL     OW24124   6.128   0.796   3.541
 7742SOL    HW124125   6.215   0.844   3.551
 7742SOL    HW224126   6.112   0.738   3.620
 7743SOL     OW24127   4.530   2.603   2.709
 7743SOL    HW124128   4.600   2.667   2.676
 7743SOL    HW224129   4.515   2.618   2.807
 7744SOL     OW24130   0.062   0.133   5.113
 7744SOL    HW124131   7.017   0.163   5.041
 7744SOL    HW224132   0.108   0.212   5.153
 7745SOL     OW24133   5.080   3.588   5.460
 7745SOL    HW124134   5.028   3.513   5.501
 7745SOL    HW224135   5.177   3.578   5.483
 7746SOL     OW24136   1.559   0.859   0.340
 7746SOL    HW124137   1.606   0.832   0.256
 7746SOL    HW224138   1.467   0.891   0.318
 7747SOL     OW24139   5.734   5.577   0.873
 7747SOL    HW124140   5.709   5.492   0.919
 7747SOL    HW224141   5.653   5.635   0.863
 7748SOL     OW24142   3.466   3.339   7.013
 7748SOL    HW124143   3.500   3.354   0.089
 7748SOL    HW224144   3.541   3.309   6.955
 7749SOL     OW24145   5.757   3.127   6.442
 7749SOL    HW124146   5.756   3.096   6.347
 7749SOL    HW224147   5.783   3.050   6.501
 7750SOL     OW24148   5.836   4.957   2.771
 7750SOL    HW124149   5.858   4.885   2.705
 7750SOL    HW224150   5.776   4.920   2.841
 7751SOL     OW24151   0.338   2.565   2.193
 7751SOL    HW124152   0.434   2.567   2.165
 7751SOL    HW224153   0.287   2.504   2.133
 7752SOL     OW24154   4.709   2.094   3.365
 7752SOL    HW124155   4.647   2.155   3.315
 7752SOL    HW224156   4.802   2.107   3.331
 7753SOL     OW24157   3.260   1.914   4.511
 7753SOL    HW124158   3.304   1.875   4.592
 7753SOL    HW224159   3.216   2.000   4.535
 7754SOL     OW24160   5.567   6.052   2.428
 7754SOL    HW124161   5.580   6.055   2.329
 7754SOL    HW224162   5.470   6.065   2.449
 7755SOL     OW24163   0.687   5.138   4.315
 7755SOL    HW124164   0.688   5.054   4.260
 7755SOL    HW224165   0.712   5.116   4.410
 7756SOL     OW24166   2.749   5.068   1.966
 7756SOL    HW124167   2.749   5.084   2.064
 7756SOL    HW224168   2.746   4.969   1.948
 7757SOL     OW24169   7.015   4.746   2.104
 7757SOL    HW124170   0.065   4.706   2.040
 7757SOL    HW224171   0.030   4.835   2.134
 7758SOL     OW24172   1.706   1.602   5.174
 7758SOL    HW124173   1.727   1.591   5.271
 7758SOL    HW224174   1.664   1.518   5.139
 7759SOL     OW24175   3.172   2.312   1.314
 7759SOL    HW124176   3.268   2.303   1.340
 7759SOL    HW224177   3.154   2.406   1.284
 7760SOL     OW24178   4.860   3.283   0.222
 7760SOL    HW124179   4.866   3.191   0.261
 7760SOL    HW224180   4.940   3.300   0.165
 7761SOL     OW24181   4.737   5.500   3.665
 7761SOL    HW124182   4.648   5.543   3.677
 7761SOL    HW224183   4.784   5.541   3.587
 7762SOL     OW24184   5.804   1.627   1.968
 7762SOL    HW124185   5.708   1.612   1.991
 7762SOL    HW224186   5.816   1.720   1.934
 7763SOL     OW24187   2.358   0.324   4.074
 7763SOL    HW124188   2.437   0.286   4.026
 7763SOL    HW224189   2.281   0.261   4.068
 7764SOL     OW24190   2.289   4.175   6.067
 7764SOL    HW124191   2.300   4.113   5.989
 7764SOL    HW224192   2.193   4.201   6.075
 7765SOL     OW24193   5.411   3.146   4.825
 7765SOL    HW124194   5.487   3.208   4.843
 7765SOL    HW224195   5.374   3.112   4.911
 7766SOL     OW24196   6.508   3.524   6.550
 7766SOL    HW124197   6.482   3.599   6.610
 7766SOL    HW224198   6.453   3.528   6.466
 7767SOL     OW24199   3.415   0.693   4.136
 7767SOL    HW124200   3.359   0.770   4.105
 7767SOL    HW224201   3.433   0.702   4.234
 7768SOL     OW24202   4.016   5.530   3.493
 7768SOL    HW124203   3.972   5.608   3.448
 7768SOL    HW224204   3.950   5.486   3.554
 7769SOL     OW24205   3.600   2.837   5.595
 7769SOL    HW124206   3.554   2.749   5.578
 7769SOL    HW224207   3.596   2.893   5.512
 7770SOL     OW24208   1.793   3.035   4.480
 7770SOL    HW124209   1.784   2.942   4.445
 7770SOL    HW224210   1.882   3.046   4.525
 7771SOL     OW24211   2.550   3.540   6.511
 7771SOL    HW124212   2.630   3.598   6.523
 7771SOL    HW224213   2.471   3.584   6.553
 7772SOL     OW24214   5.216   6.807   1.990
 7772SOL    HW124215   5.252   6.899   1.975
 7772SOL    HW224216   5.116   6.810   1.985
 7773SOL     OW24217   2.893   6.407   0.222
 7773SOL    HW124218   2.991   6.424   0.209
 7773SOL    HW224219   2.855   6.477   0.282
 7774SOL     OW24220   4.826   1.349   2.706
 7774SOL    HW124221   4.764   1.418   2.744
 7774SOL    HW224222   4.841   1.367   2.609
 7775SOL     OW24223   2.635   2.309   1.347
 7775SOL    HW124224   2.707   2.320   1.279
 7775SOL    HW224225   2.546   2.314   1.301
 7776SOL     OW24226   2.222   1.455   4.631
 7776SOL    HW124227   2.193   1.469   4.725
 7776SOL    HW224228   2.153   1.493   4.569
 7777SOL     OW24229   6.163   5.945   3.642
 7777SOL    HW124230   6.157   5.928   3.544
 7777SOL    HW224231   6.114   5.873   3.692
 7778SOL     OW24232   6.772   4.710   2.853
 7778SOL    HW124233   6.753   4.728   2.950
 7778SOL    HW224234   6.861   4.665   2.845
 7779SOL     OW24235   4.196   6.001   2.208
 7779SOL    HW124236   4.123   6.068   2.196
 7779SOL    HW224237   4.262   6.035   2.275
 7780SOL     OW24238   5.994   6.222   4.780
 7780SOL    HW124239   5.921   6.273   4.734
 7780SOL    HW224240   5.982   6.124   4.765
 7781SOL     OW24241   1.341   2.817   0.781
 7781SOL    HW124242   1.433   2.830   0.817
 7781SOL    HW224243   1.291   2.753   0.839
 7782SOL     OW24244   5.078   2.965   4.979
 7782SOL    HW124245   5.091   2.990   5.075
 7782SOL    HW224246   4.998   3.014   4.942
 7783SOL     OW24247   1.862   6.409   4.385
 7783SOL    HW124248   1.886   6.414   4.288
 7783SOL    HW224249   1.880   6.316   4.419
 7784SOL     OW24250   1.710   1.936   1.473
 7784SOL    HW124251   1.737   1.842   1.495
 7784SOL    HW224252   1.643   1.968   1.541
 7785SOL     OW24253   6.959   6.702   3.179
 7785SOL    HW124254   6.877   6.684   3.125
 7785SOL    HW224255   6.949   6.788   3.229
 7786SOL     OW24256   4.415   0.992   5.520
 7786SOL    HW124257   4.445   1.086   5.535
 7786SOL    HW224258   4.493   0.931   5.526
 7787SOL     OW24259   2.605   2.325   1.963
 7787SOL    HW124260   2.599   2.411   1.912
 7787SOL    HW224261   2.699   2.311   1.994
 7788SOL     OW24262   0.457   4.666   1.580
 7788SOL    HW124263   0.555   4.684   1.575
 7788SOL    HW224264   0.430   4.606   1.504
 7789SOL     OW24265   3.375   1.420   5.961
 7789SOL    HW124266   3.473   1.418   5.980
 7789SOL    HW224267   3.357   1.378   5.872
 7790SOL     OW24268   4.285   5.137   1.689
 7790SOL    HW124269   4.342   5.081   1.748
 7790SOL    HW224270   4.192   5.101   1.687
 7791SOL     OW24271   2.832   5.885   2.687
 7791SOL    HW124272   2.916   5.931   2.715
 7791SOL    HW224273   2.838   5.862   2.590
 7792SOL     OW24274   1.020   1.478   2.871
 7792SOL    HW124275   0.982   1.452   2.782
 7792SOL    HW224276   1.063   1.569   2.863
 7793SOL     OW24277   4.973   0.704   0.198
 7793SOL    HW124278   4.998   0.635   0.266
 7793SOL    HW224279   4.933   0.783   0.244
 7794SOL     OW24280   0.804   6.686   3.303
 7794SOL    HW124281   0.853   6.693   3.216
 7794SOL    HW224282   0.712   6.723   3.293
 7795SOL     OW24283   3.179   4.582   0.562
 7795SOL    HW124284   3.106   4.643   0.531
 7795SOL    HW224285   3.155   4.543   0.651
 7796SOL     OW24286   3.167   2.610   0.229
 7796SOL    HW124287   3.244   2.628   0.167
 7796SOL    HW224288   3.110   2.538   0.191
 7797SOL     OW24289   0.582   5.648   3.243
 7797SOL    HW124290   0.588   5.743   3.273
 7797SOL    HW224291   0.520   5.641   3.165
 7798SOL     OW24292   1.665   3.121   0.832
 7798SOL    HW124293   1.607   3.183   0.778
 7798SOL    HW224294   1.697   3.046   0.774
 7799SOL     OW24295   3.343   5.738   3.759
 7799SOL    HW124296   3.329   5.819   3.816
 7799SOL    HW224297   3.258   5.716   3.712
 7800SOL     OW24298   0.516   6.788   2.196
 7800SOL    HW124299   0.420   6.796   2.171
 7800SOL    HW224300   0.524   6.737   2.281
 7801SOL     OW24301   0.965   2.095   1.749
 7801SOL    HW124302   0.966   2.003   1.710
 7801SOL    HW224303   0.967   2.162   1.675
 7802SOL     OW24304   6.980   3.403   4.472
 7802SOL    HW124305   6.976   3.489   4.422
 7802SOL    HW224306   6.898   3.349   4.453
 7803SOL     OW24307   2.882   2.600   5.816
 7803SOL    HW124308   2.820   2.540   5.866
 7803SOL    HW224309   2.976   2.576   5.837
 7804SOL     OW24310   3.478   1.781   5.136
 7804SOL    HW124311   3.548   1.714   5.160
 7804SOL    HW224312   3.492   1.813   5.042
 7805SOL     OW24313   5.351   2.802   0.027
 7805SOL    HW124314   5.305   2.734   0.083
 7805SOL    HW224315   5.403   2.865   0.086
 7806SOL     OW24316   6.862   1.583   6.253
 7806SOL    HW124317   6.957   1.582   6.286
 7806SOL    HW224318   6.830   1.677   6.244
 7807SOL     OW24319   2.388   5.062   6.117
 7807SOL    HW124320   2.358   5.124   6.045
 7807SOL    HW224321   2.327   5.070   6.196
 7808SOL     OW24322   6.593   3.956   3.668
 7808SOL    HW124323   6.595   3.920   3.761
 7808SOL    HW224324   6.676   3.930   3.620
 7809SOL     OW24325   4.961   5.723   2.376
 7809SOL    HW124326   4.975   5.746   2.472
 7809SOL    HW224327   5.049   5.712   2.331
 7810SOL     OW24328   2.640   6.505   6.049
 7810SOL    HW124329   2.557   6.450   6.039
 7810SOL    HW224330   2.622   6.599   6.018
 7811SOL     OW24331   1.473   5.788   3.112
 7811SOL    HW124332   1.422   5.709   3.078
 7811SOL    HW224333   1.419   5.835   3.181
 7812SOL     OW24334   3.279   0.953   5.935
 7812SOL    HW124335   3.249   0.995   6.021
 7812SOL    HW224336   3.207   0.893   5.900
 7813SOL     OW24337   5.353   0.279   0.889
 7813SOL    HW124338   5.349   0.181   0.905
 7813SOL    HW224339   5.260   0.315   0.881
 7814SOL     OW24340   6.305   2.845   2.513
 7814SOL    HW124341   6.358   2.873   2.433
 7814SOL    HW224342   6.208   2.865   2.499
 7815SOL     OW24343   5.025   5.295   4.808
 7815SOL    HW124344   4.949   5.234   4.783
 7815SOL    HW224345   5.103   5.239   4.839
 7816SOL     OW24346   0.309   1.185   5.295
 7816SOL    HW124347   0.295   1.276   5.336
 7816SOL    HW224348   0.402   1.155   5.313
 7817SOL     OW24349   4.026   2.806   0.242
 7817SOL    HW124350   4.100   2.819   0.176
 7817SOL    HW224351   4.021   2.710   0.269
 7818SOL     OW24352   5.868   0.677   3.402
 7818SOL    HW124353   5.943   0.742   3.392
 7818SOL    HW224354   5.803   0.712   3.469
 7819SOL     OW24355   1.446   3.185   4.856
 7819SOL    HW124356   1.455   3.134   4.771
 7819SOL    HW224357   1.522   3.249   4.865
 7820SOL     OW24358   1.268   1.114   5.197
 7820SOL    HW124359   1.360   1.139   5.228
 7820SOL    HW224360   1.211   1.196   5.189
 7821SOL     OW24361   3.749   6.387   6.867
 7821SOL    HW124362   3.812   6.389   6.945
 7821SOL    HW224363   3.708   6.296   6.859
 7822SOL     OW24364   0.082   1.086   4.770
 7822SOL    HW124365   0.110   0.993   4.794
 7822SOL    HW224366   0.121   1.150   4.837
 7823SOL     OW24367   2.715   3.486   5.329
 7823SOL    HW124368   2.672   3.398   5.348
 7823SOL    HW224369   2.643   3.556   5.319
 7824SOL     OW24370   5.183   3.799   2.777
 7824SOL    HW124371   5.191   3.899   2.776
 7824SOL    HW224372   5.086   3.774   2.778
 7825SOL     OW24373   3.605   3.237   2.664
 7825SOL    HW124374   3.683   3.295   2.642
 7825SOL    HW224375   3.617   3.147   2.623
 7826SOL     OW24376   6.973   0.606   0.980
 7826SOL    HW124377   6.909   0.631   1.052
 7826SOL    HW224378   0.017   0.534   1.013
 7827SOL     OW24379   4.527   3.594   0.662
 7827SOL    HW124380   4.496   3.499   0.662
 7827SOL    HW224381   4.559   3.618   0.570
 7828SOL     OW24382   0.171   5.910   0.599
 7828SOL    HW124383   0.098   5.864   0.651
 7828SOL    HW224384   0.212   5.845   0.536
 7829SOL     OW24385   4.166   3.513   2.998
 7829SOL    HW124386   4.109   3.433   3.014
 7829SOL    HW224387   4.262   3.491   3.018
 7830SOL     OW24388   5.376   3.722   0.228
 7830SOL    HW124389   5.462   3.672   0.214
 7830SOL    HW224390   5.395   3.819   0.243
 7831SOL     OW24391   1.803   2.790   6.509
 7831SOL    HW124392   1.888   2.763   6.464
 7831SOL    HW224393   1.824   2.851   6.585
 7832SOL     OW24394   2.851   2.492   5.481
 7832SOL    HW124395   2.811   2.460   5.396
 7832SOL    HW224396   2.794   2.463   5.558
 7833SOL     OW24397   0.805   0.120   1.141
 7833SOL    HW124398   0.727   0.177   1.116
 7833SOL    HW224399   0.850   0.157   1.222
 7834SOL     OW24400   6.623   0.428   1.499
 7834SOL    HW124401   6.553   0.472   1.555
 7834SOL    HW224402   6.587   0.344   1.459
 7835SOL     OW24403   2.719   2.096   4.222
 7835SOL    HW124404   2.678   2.033   4.289
 7835SOL    HW224405   2.710   2.057   4.130
 7836SOL     OW24406   2.321   0.631   6.674
 7836SOL    HW124407   2.227   0.604   6.653
 7836SOL    HW224408   2.380   0.612   6.595
 7837SOL     OW24409   4.720   6.091   2.737
 7837SOL    HW124410   4.709   5.993   2.757
 7837SOL    HW224411   4.817   6.113   2.736
 7838SOL     OW24412   3.225   6.427   4.062
 7838SOL    HW124413   3.304   6.431   4.001
 7838SOL    HW224414   3.151   6.483   4.023
 7839SOL     OW24415   0.115   4.545   3.762
 7839SOL    HW124416   0.050   4.593   3.703
 7839SOL    HW224417   0.197   4.601   3.775
 7840SOL     OW24418   5.127   3.006   5.769
 7840SOL    HW124419   5.168   2.924   5.729
 7840SOL    HW224420   5.198   3.068   5.800
 7841SOL     OW24421   1.748   1.788   6.089
 7841SOL    HW124422   1.681   1.743   6.147
 7841SOL    HW224423   1.806   1.848   6.144
 7842SOL     OW24424   2.788   0.718   1.919
 7842SOL    HW124425   2.708   0.715   1.979
 7842SOL    HW224426   2.840   0.802   1.936
 7843SOL     OW24427   6.915   3.450   1.135
 7843SOL    HW124428   6.922   3.493   1.225
 7843SOL    HW224429   6.957   3.359   1.138
 7844SOL     OW24430   3.652   1.125   4.185
 7844SOL    HW124431   3.701   1.197   4.136
 7844SOL    HW224432   3.573   1.165   4.233
 7845SOL     OW24433   1.073   0.875   3.925
 7845SOL    HW124434   1.100   0.922   3.841
 7845SOL    HW224435   1.126   0.791   3.934
 7846SOL     OW24436   3.618   6.691   2.067
 7846SOL    HW124437   3.640   6.597   2.094
 7846SOL    HW224438   3.660   6.711   1.979
 7847SOL     OW24439   6.958   0.630   0.253
 7847SOL    HW124440   0.025   0.619   0.200
 7847SOL    HW224441   6.960   0.570   0.333
 7848SOL     OW24442   4.187   4.146   0.920
 7848SOL    HW124443   4.214   4.166   0.826
 7848SOL    HW224444   4.268   4.148   0.979
 7849SOL     OW24445   5.709   3.862   5.059
 7849SOL    HW124446   5.716   3.825   5.151
 7849SOL    HW224447   5.768   3.943   5.051
 7850SOL     OW24448   0.748   1.496   4.114
 7850SOL    HW124449   0.704   1.419   4.066
 7850SOL    HW224450   0.833   1.465   4.155
 7851SOL     OW24451   4.638   6.526   0.814
 7851SOL    HW124452   4.596   6.564   0.897
 7851SOL    HW224453   4.701   6.452   0.840
 7852SOL     OW24454   1.678   0.073   6.816
 7852SOL    HW124455   1.724   0.083   6.904
 7852SOL    HW224456   1.637   6.999   6.810
 7853SOL     OW24457   1.869   2.740   0.454
 7853SOL    HW124458   1.831   2.808   0.392
 7853SOL    HW224459   1.830   2.651   0.434
 7854SOL     OW24460   3.477   4.128   2.881
 7854SOL    HW124461   3.435   4.209   2.839
 7854SOL    HW224462   3.414   4.051   2.876
 7855SOL     OW24463   3.682   6.964   5.287
 7855SOL    HW124464   3.652   0.031   5.333
 7855SOL    HW224465   3.760   6.926   5.336
 7856SOL     OW24466   3.941   3.530   6.355
 7856SOL    HW124467   3.878   3.474   6.301
 7856SOL    HW224468   3.934   3.506   6.451
 7857SOL     OW24469   0.814   2.119   4.624
 7857SOL    HW124470   0.902   2.135   4.669
 7857SOL    HW224471   0.768   2.042   4.668
 7858SOL     OW24472   5.909   4.216   2.982
 7858SOL    HW124473   5.825   4.250   3.023
 7858SOL    HW224474   5.975   4.290   2.974
 7859SOL     OW24475   1.004   5.850   6.816
 7859SOL    HW124476   1.048   5.888   6.897
 7859SOL    HW224477   0.913   5.891   6.805
 7860SOL     OW24478   3.500   0.210   2.049
 7860SOL    HW124479   3.426   0.195   1.983
 7860SOL    HW224480   3.585   0.171   2.014
 7861SOL     OW24481   5.647   3.990   0.504
 7861SOL    HW124482   5.651   4.064   0.570
 7861SOL    HW224483   5.715   3.921   0.527
 7862SOL     OW24484   3.081   4.447   1.672
 7862SOL    HW124485   3.003   4.437   1.734
 7862SOL    HW224486   3.049   4.482   1.584
 7863SOL     OW24487   6.048   5.663   2.724
 7863SOL    HW124488   5.967   5.677   2.781
 7863SOL    HW224489   6.043   5.573   2.680
 7864SOL     OW24490   0.650   5.649   4.198
 7864SOL    HW124491   0.682   5.557   4.219
 7864SOL    HW224492   0.569   5.670   4.253
 7865SOL     OW24493   3.675   1.031   2.722
 7865SOL    HW124494   3.609   0.982   2.665
 7865SOL    HW224495   3.698   1.118   2.678
 7866SOL     OW24496   2.449   2.179   3.890
 7866SOL    HW124497   2.416   2.263   3.933
 7866SOL    HW224498   2.377   2.110   3.891
 7867SOL     OW24499   5.623   3.863   2.094
 7867SOL    HW124500   5.589   3.950   2.130
 7867SOL    HW224501   5.554   3.823   2.033
 7868SOL     OW24502   5.581   6.955   0.995
 7868SOL    HW124503   5.491   6.948   0.951
 7868SOL    HW224504   5.648   6.901   0.944
 7869SOL     OW24505   6.689   2.042   3.896
 7869SOL    HW124506   6.741   2.051   3.812
 7869SOL    HW224507   6.675   1.946   3.917
 7870SOL     OW24508   0.237   6.687   3.208
 7870SOL    HW124509   0.191   6.639   3.133
 7870SOL    HW224510   0.180   6.682   3.290
 7871SOL     OW24511   5.435   3.173   4.128
 7871SOL    HW124512   5.348   3.222   4.126
 7871SOL    HW224513   5.467   3.166   4.223
 7872SOL     OW24514   6.529   3.168   4.285
 7872SOL    HW124515   6.472   3.250   4.288
 7872SOL    HW224516   6.560   3.153   4.191
 7873SOL     OW24517   6.839   5.349   5.073
 7873SOL    HW124518   6.776   5.273   5.061
 7873SOL    HW224519   6.813   5.402   5.154
 7874SOL     OW24520   6.179   1.394   0.583
 7874SOL    HW124521   6.177   1.371   0.681
 7874SOL    HW224522   6.194   1.492   0.573
 7875SOL     OW24523   4.538   3.169   0.129
 7875SOL    HW124524   4.591   3.170   0.045
 7875SOL    HW224525   4.585   3.113   0.198
 7876SOL     OW24526   6.852   0.827   4.629
 7876SOL    HW124527   6.827   0.893   4.558
 7876SOL    HW224528   6.779   0.821   4.696
 7877SOL     OW24529   6.151   2.272   2.591
 7877SOL    HW124530   6.078   2.224   2.543
 7877SOL    HW224531   6.240   2.236   2.562
 7878SOL     OW24532   4.580   4.342   1.177
 7878SOL    HW124533   4.553   4.438   1.176
 7878SOL    HW224534   4.645   4.326   1.252
 7879SOL     OW24535   5.488   0.728   5.274
 7879SOL    HW124536   5.403   0.781   5.272
 7879SOL    HW224537   5.566   0.790   5.270
 7880SOL     OW24538   1.052   6.841   6.394
 7880SOL    HW124539   1.076   6.767   6.331
 7880SOL    HW224540   0.972   6.814   6.448
 7881SOL     OW24541   0.664   5.151   3.355
 7881SOL    HW124542   0.574   5.109   3.359
 7881SOL    HW224543   0.710   5.140   3.443
 7882SOL     OW24544   0.711   4.025   1.657
 7882SOL    HW124545   0.781   4.093   1.681
 7882SOL    HW224546   0.721   3.945   1.716
 7883SOL     OW24547   3.680   2.013   3.272
 7883SOL    HW124548   3.734   2.061   3.203
 7883SOL    HW224549   3.686   1.915   3.258
 7884SOL     OW24550   0.785   3.671   4.369
 7884SOL    HW124551   0.793   3.764   4.332
 7884SOL    HW224552   0.817   3.605   4.302
 7885SOL     OW24553   5.695   5.106   3.192
 7885SOL    HW124554   5.717   5.165   3.270
 7885SOL    HW224555   5.707   5.157   3.107
 7886SOL     OW24556   5.011   3.449   2.857
 7886SOL    HW124557   4.979   3.502   2.935
 7886SOL    HW224558   5.005   3.352   2.878
 7887SOL     OW24559   2.046   2.424   1.618
 7887SOL    HW124560   2.062   2.522   1.618
 7887SOL    HW224561   1.980   2.401   1.690
 7888SOL     OW24562   6.340   0.875   4.757
 7888SOL    HW124563   6.266   0.943   4.752
 7888SOL    HW224564   6.399   0.895   4.835
 7889SOL     OW24565   5.531   5.339   6.991
 7889SOL    HW124566   5.534   5.245   0.008
 7889SOL    HW224567   5.623   5.379   6.995
 7890SOL     OW24568   1.980   3.072   4.101
 7890SOL    HW124569   2.012   3.025   4.183
 7890SOL    HW224570   1.953   3.005   4.032
 7891SOL     OW24571   6.266   1.621   4.298
 7891SOL    HW124572   6.343   1.564   4.273
 7891SOL    HW224573   6.255   1.622   4.397
 7892SOL     OW24574   0.736   1.556   5.169
 7892SOL    HW124575   0.693   1.548   5.079
 7892SOL    HW224576   0.828   1.592   5.159
 7893SOL     OW24577   5.235   0.439   0.195
 7893SOL    HW124578   5.148   0.420   0.149
 7893SOL    HW224579   5.285   0.510   0.145
 7894SOL     OW24580   3.348   1.529   6.239
 7894SOL    HW124581   3.341   1.467   6.161
 7894SOL    HW224582   3.327   1.478   6.323
 7895SOL     OW24583   5.839   6.822   3.048
 7895SOL    HW124584   5.923   6.778   3.079
 7895SOL    HW224585   5.798   6.873   3.124
 7896SOL     OW24586   2.571   2.373   0.483
 7896SOL    HW124587   2.543   2.452   0.430
 7896SOL    HW224588   2.511   2.295   0.462
 7897SOL     OW24589   3.263   2.621   0.792
 7897SOL    HW124590   3.184   2.624   0.853
 7897SOL    HW224591   3.245   2.559   0.716
 7898SOL     OW24592   5.549   6.325   3.400
 7898SOL    HW124593   5.530   6.234   3.364
 7898SOL    HW224594   5.502   6.393   3.343
 7899SOL     OW24595   6.336   4.198   4.209
 7899SOL    HW124596   6.369   4.122   4.266
 7899SOL    HW224597   6.379   4.283   4.239
 7900SOL     OW24598   0.831   3.708   1.046
 7900SOL    HW124599   0.891   3.628   1.058
 7900SOL    HW224600   0.871   3.769   0.978
 7901SOL     OW24601   0.768   1.746   6.770
 7901SOL    HW124602   0.832   1.723   6.844
 7901SOL    HW224603   0.743   1.663   6.721
 7902SOL     OW24604   1.349   6.997   2.561
 7902SOL    HW124605   1.300   0.019   2.639
 7902SOL    HW224606   1.401   6.917   2.590
 7903SOL     OW24607   2.416   1.885   4.988
 7903SOL    HW124608   2.334   1.933   5.019
 7903SOL    HW224609   2.468   1.854   5.068
 7904SOL     OW24610   4.534   1.559   2.689
 7904SOL    HW124611   4.529   1.527   2.594
 7904SOL    HW224612   4.455   1.619   2.707
 7905SOL     OW24613   5.168   1.398   0.605
 7905SOL    HW124614   5.154   1.374   0.701
 7905SOL    HW224615   5.097   1.461   0.575
 7906SOL     OW24616   1.379   5.117   0.475
 7906SOL    HW124617   1.293   5.142   0.430
 7906SOL    HW224618   1.430   5.054   0.418
 7907SOL     OW24619   5.735   6.233   2.567
 7907SOL    HW124620   5.643   6.195   2.550
 7907SOL    HW224621   5.758   6.223   2.663
 7908SOL     OW24622   1.027   0.035   6.197
 7908SOL    HW124623   1.118   0.071   6.173
 7908SOL    HW224624   1.037   6.975   6.260
 7909SOL     OW24625   5.549   4.105   2.163
 7909SOL    HW124626   5.617   4.178   2.156
 7909SOL    HW224627   5.506   4.109   2.254
 7910SOL     OW24628   0.833   3.618   6.621
 7910SOL    HW124629   0.775   3.607   6.702
 7910SOL    HW224630   0.799   3.693   6.565
 7911SOL     OW24631   6.857   4.587   6.289
 7911SOL    HW124632   6.911   4.519   6.240
 7911SOL    HW224633   6.766   4.550   6.307
 7912SOL     OW24634   6.306   5.180   1.041
 7912SOL    HW124635   6.372   5.112   1.073
 7912SOL    HW224636   6.270   5.231   1.119
 7913SOL     OW24637   1.368   4.861   0.661
 7913SOL    HW124638   1.364   4.835   0.565
 7913SOL    HW224639   1.280   4.841   0.705
 7914SOL     OW24640   0.456   6.919   5.234
 7914SOL    HW124641   0.533   6.932   5.171
 7914SOL    HW224642   0.399   6.844   5.202
 7915SOL     OW24643   3.600   5.506   2.930
 7915SOL    HW124644   3.669   5.462   2.987
 7915SOL    HW224645   3.611   5.606   2.936
 7916SOL     OW24646   1.095   0.290   4.432
 7916SOL    HW124647   0.998   0.311   4.443
 7916SOL    HW224648   1.115   0.273   4.336
 7917SOL     OW24649   4.071   2.328   1.240
 7917SOL    HW124650   4.145   2.390   1.267
 7917SOL    HW224651   3.991   2.382   1.214
 7918SOL     OW24652   1.997   2.226   3.696
 7918SOL    HW124653   2.050   2.307   3.671
 7918SOL    HW224654   1.982   2.170   3.614
 7919SOL     OW24655   1.663   6.211   5.126
 7919SOL    HW124656   1.648   6.118   5.159
 7919SOL    HW224657   1.666   6.210   5.026
 7920SOL     OW24658   4.945   0.530   1.054
 7920SOL    HW124659   5.012   0.508   1.125
 7920SOL    HW224660   4.859   0.483   1.074
 7921SOL     OW24661   5.766   2.577   1.264
 7921SOL    HW124662   5.705   2.523   1.322
 7921SOL    HW224663   5.839   2.615   1.320
 7922SOL     OW24664   2.656   6.665   1.708
 7922SOL    HW124665   2.675   6.749   1.656
 7922SOL    HW224666   2.659   6.685   1.806
 7923SOL     OW24667   5.398   1.076   0.168
 7923SOL    HW124668   5.407   0.980   0.140
 7923SOL    HW224669   5.470   1.098   0.234
 7924SOL     OW24670   6.251   6.271   0.390
 7924SOL    HW124671   6.322   6.272   0.320
 7924SOL    HW224672   6.268   6.197   0.455
 7925SOL     OW24673   1.682   5.068   6.661
 7925SOL    HW124674   1.646   5.001   6.725
 7925SOL    HW224675   1.780   5.051   6.647
 7926SOL     OW24676   4.821   5.864   0.009
 7926SOL    HW124677   4.917   5.839   0.001
 7926SOL    HW224678   4.812   5.964   0.005
 7927SOL     OW24679   4.273   6.947   2.255
 7927SOL    HW124680   4.184   6.988   2.240
 7927SOL    HW224681   4.279   6.913   2.349
 7928SOL     OW24682   5.638   2.034   3.342
 7928SOL    HW124683   5.605   2.120   3.303
 7928SOL    HW224684   5.672   1.975   3.268
 7929SOL     OW24685   4.157   4.345   6.421
 7929SOL    HW124686   4.211   4.370   6.501
 7929SOL    HW224687   4.194   4.263   6.379
 7930SOL     OW24688   4.419   6.153   6.650
 7930SOL    HW124689   4.422   6.079   6.717
 7930SOL    HW224690   4.340   6.141   6.591
 7931SOL     OW24691   4.285   2.279   0.878
 7931SOL    HW124692   4.324   2.237   0.960
 7931SOL    HW224693   4.221   2.351   0.905
 7932SOL     OW24694   1.495   3.920   1.895
 7932SOL    HW124695   1.425   3.919   1.967
 7932SOL    HW224696   1.451   3.933   1.806
 7933SOL     OW24697   0.865   1.702   0.376
 7933SOL    HW124698   0.853   1.756   0.459
 7933SOL    HW224699   0.954   1.724   0.335
 7934SOL     OW24700   0.662   5.663   1.197
 7934SOL    HW124701   0.749   5.712   1.199
 7934SOL    HW224702   0.630   5.647   1.290
 7935SOL     OW24703   5.338   3.152   2.818
 7935SOL    HW124704   5.300   3.242   2.798
 7935SOL    HW224705   5.321   3.091   2.741
 7936SOL     OW24706   3.158   5.671   3.580
 7936SOL    HW124707   3.218   5.614   3.524
 7936SOL    HW224708   3.070   5.625   3.592
 7937SOL     OW24709   3.250   0.940   6.917
 7937SOL    HW124710   3.274   1.010   6.849
 7937SOL    HW224711   3.160   0.960   6.955
 7938SOL     OW24712   2.594   6.373   3.784
 7938SOL    HW124713   2.575   6.291   3.729
 7938SOL    HW224714   2.625   6.447   3.724
 7939SOL     OW24715   0.354   1.260   3.555
 7939SOL    HW124716   0.384   1.345   3.598
 7939SOL    HW224717   0.358   1.270   3.456
 7940SOL     OW24718   5.385   1.281   4.086
 7940SOL    HW124719   5.354   1.352   4.023
 7940SOL    HW224720   5.404   1.321   4.175
 7941SOL     OW24721   3.734   0.295   0.814
 7941SOL    HW124722   3.779   0.379   0.842
 7941SOL    HW224723   3.641   0.293   0.851
 7942SOL     OW24724   1.131   4.914   0.221
 7942SOL    HW124725   1.203   4.888   0.156
 7942SOL    HW224726   1.086   4.831   0.255
 7943SOL     OW24727   1.355   6.236   6.123
 7943SOL    HW124728   1.433   6.247   6.061
 7943SOL    HW224729   1.388   6.236   6.217
 7944SOL     OW24730   1.406   2.692   1.630
 7944SOL    HW124731   1.452   2.630   1.694
 7944SOL    HW224732   1.337   2.641   1.579
 7945SOL     OW24733   6.176   4.262   3.668
 7945SOL    HW124734   6.213   4.292   3.756
 7945SOL    HW224735   6.157   4.164   3.673
 7946SOL     OW24736   4.145   0.904   6.550
 7946SOL    HW124737   4.194   0.988   6.526
 7946SOL    HW224738   4.050   0.912   6.520
 7947SOL     OW24739   0.054   3.820   6.580
 7947SOL    HW124740   0.120   3.866   6.638
 7947SOL    HW224741   0.031   3.731   6.619
 7948SOL     OW24742   1.806   5.474   3.090
 7948SOL    HW124743   1.780   5.412   3.017
 7948SOL    HW224744   1.793   5.569   3.060
 7949SOL     OW24745   3.051   5.917   6.259
 7949SOL    HW124746   3.005   5.904   6.171
 7949SOL    HW224747   3.144   5.881   6.254
 7950SOL     OW24748   5.762   4.409   5.364
 7950SOL    HW124749   5.746   4.359   5.449
 7950SOL    HW224750   5.861   4.422   5.351
 7951SOL     OW24751   4.077   5.846   2.375
 7951SOL    HW124752   4.148   5.891   2.320
 7951SOL    HW224753   4.118   5.810   2.459
 7952SOL     OW24754   6.258   4.529   6.504
 7952SOL    HW124755   6.271   4.474   6.422
 7952SOL    HW224756   6.294   4.621   6.489
 7953SOL     OW24757   1.697   6.779   0.574
 7953SOL    HW124758   1.724   6.691   0.536
 7953SOL    HW224759   1.716   6.780   0.673
 7954SOL     OW24760   4.216   4.229   6.807
 7954SOL    HW124761   4.123   4.199   6.828
 7954SOL    HW224762   4.279   4.194   6.877
 7955SOL     OW24763   1.968   1.739   6.469
 7955SOL    HW124764   1.885   1.792   6.486
 7955SOL    HW224765   1.944   1.641   6.464
 7956SOL     OW24766   6.658   6.226   0.475
 7956SOL    HW124767   6.743   6.267   0.507
 7956SOL    HW224768   6.656   6.227   0.375
 7957SOL     OW24769   4.737   1.093   5.742
 7957SOL    HW124770   4.754   1.139   5.829
 7957SOL    HW224771   4.726   0.995   5.758
 7958SOL     OW24772   5.792   2.727   0.245
 7958SOL    HW124773   5.845   2.651   0.281
 7958SOL    HW224774   5.700   2.695   0.220
 7959SOL     OW24775   6.223   1.898   0.263
 7959SOL    HW124776   6.141   1.937   0.305
 7959SOL    HW224777   6.302   1.955   0.285
 7960SOL     OW24778   0.532   1.077   5.439
 7960SOL    HW124779   0.551   1.015   5.362
 7960SOL    HW224780   0.550   1.029   5.525
 7961SOL     OW24781   6.198   6.506   0.474
 7961SOL    HW124782   6.222   6.411   0.455
 7961SOL    HW224783   6.143   6.543   0.400
 7962SOL     OW24784   5.929   6.686   5.511
 7962SOL    HW124785   5.871   6.761   5.541
 7962SOL    HW224786   6.025   6.715   5.514
 7963SOL     OW24787   6.450   6.888   4.156
 7963SOL    HW124788   6.446   6.957   4.083
 7963SOL    HW224789   6.466   6.798   4.116
 7964SOL     OW24790   6.552   4.068   1.884
 7964SOL    HW124791   6.500   3.999   1.833
 7964SOL    HW224792   6.540   4.157   1.841
 7965SOL     OW24793   4.217   2.706   6.149
 7965SOL    HW124794   4.220   2.751   6.060
 7965SOL    HW224795   4.123   2.705   6.182
 7966SOL     OW24796   4.939   3.596   4.783
 7966SOL    HW124797   4.996   3.678   4.773
 7966SOL    HW224798   4.891   3.600   4.871
 7967SOL     OW24799   1.580   4.482   1.322
 7967SOL    HW124800   1.679   4.470   1.309
 7967SOL    HW224801   1.560   4.488   1.420
 7968SOL     OW24802   0.235   2.730   5.022
 7968SOL    HW124803   0.227   2.690   5.114
 7968SOL    HW224804   0.223   2.829   5.028
 7969SOL     OW24805   3.975   5.586   6.460
 7969SOL    HW124806   4.004   5.682   6.452
 7969SOL    HW224807   3.895   5.580   6.518
 7970SOL     OW24808   6.516   2.664   3.674
 7970SOL    HW124809   6.538   2.583   3.619
 7970SOL    HW224810   6.537   2.747   3.623
 7971SOL     OW24811   2.748   1.454   7.004
 7971SOL    HW124812   2.825   1.512   0.014
 7971SOL    HW224813   2.740   1.378   0.051
 7972SOL     OW24814   3.777   3.959   4.029
 7972SOL    HW124815   3.820   3.911   4.106
 7972SOL    HW224816   3.740   4.046   4.060
 7973SOL     OW24817   5.867   4.334   2.588
 7973SOL    HW124818   5.824   4.319   2.678
 7973SOL    HW224819   5.922   4.255   2.564
 7974SOL     OW24820   0.209   2.921   5.646
 7974SOL    HW124821   0.216   2.971   5.733
 7974SOL    HW224822   0.124   2.869   5.644
 7975SOL     OW24823   5.683   0.204   1.020
 7975SOL    HW124824   5.648   0.111   1.008
 7975SOL    HW224825   5.665   0.257   0.937
 7976SOL     OW24826   0.554   0.613   1.147
 7976SOL    HW124827   0.636   0.564   1.177
 7976SOL    HW224828   0.505   0.647   1.227
 7977SOL     OW24829   5.489   6.144   3.956
 7977SOL    HW124830   5.467   6.096   4.041
 7977SOL    HW224831   5.589   6.147   3.945
 7978SOL     OW24832   0.377   4.495   1.382
 7978SOL    HW124833   0.338   4.514   1.292
 7978SOL    HW224834   0.419   4.404   1.381
 7979SOL     OW24835   1.710   2.074   4.738
 7979SOL    HW124836   1.658   2.069   4.823
 7979SOL    HW224837   1.731   2.170   4.717
 7980SOL     OW24838   3.740   5.633   0.529
 7980SOL    HW124839   3.813   5.680   0.480
 7980SOL    HW224840   3.760   5.635   0.627
 7981SOL     OW24841   1.578   4.617   3.779
 7981SOL    HW124842   1.565   4.582   3.686
 7981SOL    HW224843   1.609   4.542   3.838
 7982SOL     OW24844   6.518   0.963   5.754
 7982SOL    HW124845   6.563   0.893   5.699
 7982SOL    HW224846   6.442   1.003   5.703
 7983SOL     OW24847   4.694   0.770   1.634
 7983SOL    HW124848   4.613   0.780   1.692
 7983SOL    HW224849   4.669   0.718   1.552
 7984SOL     OW24850   0.502   2.283   2.804
 7984SOL    HW124851   0.410   2.304   2.836
 7984SOL    HW224852   0.538   2.361   2.753
 7985SOL     OW24853   2.899   3.154   5.368
 7985SOL    HW124854   2.928   3.068   5.410
 7985SOL    HW224855   2.800   3.164   5.376
 7986SOL     OW24856   3.854   0.887   4.167
 7986SOL    HW124857   3.826   0.983   4.154
 7986SOL    HW224858   3.796   0.828   4.110
 7987SOL     OW24859   0.910   3.536   0.144
 7987SOL    HW124860   0.940   3.516   0.238
 7987SOL    HW224861   0.954   3.472   0.081
 7988SOL     OW24862   6.529   1.292   2.384
 7988SOL    HW124863   6.545   1.388   2.361
 7988SOL    HW224864   6.480   1.247   2.309
 7989SOL     OW24865   0.186   4.388   1.050
 7989SOL    HW124866   0.087   4.385   1.040
 7989SOL    HW224867   0.228   4.384   0.959
 7990SOL     OW24868   4.699   5.934   5.502
 7990SOL    HW124869   4.606   5.941   5.538
 7990SOL    HW224870   4.747   5.857   5.545
 7991SOL     OW24871   6.045   0.849   5.145
 7991SOL    HW124872   6.032   0.944   5.175
 7991SOL    HW224873   6.027   0.842   5.047
 7992SOL     OW24874   2.400   6.722   0.122
 7992SOL    HW124875   2.437   6.645   0.175
 7992SOL    HW224876   2.460   6.801   0.131
 7993SOL     OW24877   6.236   5.811   0.656
 7993SOL    HW124878   6.136   5.809   0.650
 7993SOL    HW224879   6.273   5.729   0.612
 7994SOL     OW24880   6.100   0.192   4.072
 7994SOL    HW124881   6.098   0.235   3.982
 7994SOL    HW224882   6.060   0.101   4.067
 7995SOL     OW24883   0.678   4.783   1.245
 7995SOL    HW124884   0.705   4.697   1.201
 7995SOL    HW224885   0.581   4.800   1.228
 7996SOL     OW24886   3.019   6.746   3.385
 7996SOL    HW124887   3.092   6.708   3.442
 7996SOL    HW224888   3.047   6.743   3.289
 7997SOL     OW24889   1.627   1.460   5.958
 7997SOL    HW124890   1.723   1.475   5.933
 7997SOL    HW224891   1.623   1.413   6.046
 7998SOL     OW24892   2.305   0.936   0.414
 7998SOL    HW124893   2.334   1.025   0.380
 7998SOL    HW224894   2.212   0.942   0.449
 7999SOL     OW24895   1.265   0.340   4.622
 7999SOL    HW124896   1.204   0.331   4.543
 7999SOL    HW224897   1.331   0.265   4.622
 8000SOL     OW24898   3.814   5.331   0.304
 8000SOL    HW124899   3.743   5.376   0.359
 8000SOL    HW224900   3.805   5.232   0.313
 8001SOL     OW24901   4.233   5.432   1.199
 8001SOL    HW124902   4.197   5.352   1.249
 8001SOL    HW224903   4.256   5.504   1.264
 8002SOL     OW24904   1.152   0.098   5.329
 8002SOL    HW124905   1.092   0.166   5.288
 8002SOL    HW224906   1.202   0.139   5.405
 8003SOL     OW24907   2.232   5.768   2.233
 8003SOL    HW124908   2.288   5.849   2.214
 8003SOL    HW224909   2.233   5.708   2.153
 8004SOL     OW24910   0.933   3.108   3.678
 8004SOL    HW124911   0.916   3.011   3.696
 8004SOL    HW224912   0.866   3.142   3.611
 8005SOL     OW24913   2.274   0.662   3.032
 8005SOL    HW124914   2.327   0.607   3.098
 8005SOL    HW224915   2.195   0.609   3.001
 8006SOL     OW24916   3.813   4.618   5.378
 8006SOL    HW124917   3.812   4.519   5.362
 8006SOL    HW224918   3.749   4.640   5.451
 8007SOL     OW24919   6.709   0.666   0.384
 8007SOL    HW124920   6.789   0.673   0.324
 8007SOL    HW224921   6.632   0.715   0.343
 8008SOL     OW24922   5.001   6.414   0.151
 8008SOL    HW124923   4.936   6.411   0.227
 8008SOL    HW224924   5.093   6.396   0.186
 8009SOL     OW24925   5.639   0.812   6.868
 8009SOL    HW124926   5.675   0.860   6.949
 8009SOL    HW224927   5.699   0.735   6.846
 8010SOL     OW24928   3.267   0.110   5.772
 8010SOL    HW124929   3.181   0.137   5.816
 8010SOL    HW224930   3.328   0.190   5.766
 8011SOL     OW24931   3.899   2.119   3.095
 8011SOL    HW124932   3.932   2.186   3.028
 8011SOL    HW224933   3.935   2.142   3.186
 8012SOL     OW24934   5.755   1.794   4.564
 8012SOL    HW124935   5.677   1.747   4.606
 8012SOL    HW224936   5.753   1.779   4.465
 8013SOL     OW24937   3.320   1.235   2.210
 8013SOL    HW124938   3.350   1.308   2.148
 8013SOL    HW224939   3.264   1.169   2.160
 8014SOL     OW24940   2.085   2.530   2.611
 8014SOL    HW124941   2.146   2.460   2.649
 8014SOL    HW224942   2.138   2.591   2.551
 8015SOL     OW24943   3.379   7.013   4.902
 8015SOL    HW124944   3.346   0.091   4.896
 8015SOL    HW224945   3.394   6.978   4.809
 8016SOL     OW24946   3.544   2.107   5.096
 8016SOL    HW124947   3.471   2.123   5.163
 8016SOL    HW224948   3.633   2.119   5.139
 8017SOL     OW24949   6.696   5.906   0.848
 8017SOL    HW124950   6.619   5.934   0.905
 8017SOL    HW224951   6.781   5.945   0.884
 8018SOL     OW24952   4.237   2.176   6.712
 8018SOL    HW124953   4.328   2.147   6.686
 8018SOL    HW224954   4.175   2.097   6.712
 8019SOL     OW24955   2.615   3.563   0.984
 8019SOL    HW124956   2.701   3.601   1.017
 8019SOL    HW224957   2.628   3.467   0.958
 8020SOL     OW24958   0.877   0.832   5.683
 8020SOL    HW124959   0.963   0.806   5.638
 8020SOL    HW224960   0.893   0.908   5.745
 8021SOL     OW24961   1.219   2.625   0.950
 8021SOL    HW124962   1.245   2.612   1.046
 8021SOL    HW224963   1.258   2.551   0.895
 8022SOL     OW24964   4.645   1.140   1.596
 8022SOL    HW124965   4.687   1.124   1.507
 8022SOL    HW224966   4.546   1.130   1.588
 8023SOL     OW24967   4.799   6.194   1.375
 8023SOL    HW124968   4.820   6.098   1.357
 8023SOL    HW224969   4.828   6.250   1.298
 8024SOL     OW24970   2.617   1.374   6.588
 8024SOL    HW124971   2.525   1.337   6.600
 8024SOL    HW224972   2.658   1.333   6.506
 8025SOL     OW24973   1.178   5.776   1.823
 8025SOL    HW124974   1.119   5.852   1.848
 8025SOL    HW224975   1.133   5.689   1.844
 8026SOL     OW24976   0.260   6.275   6.355
 8026SOL    HW124977   0.320   6.296   6.433
 8026SOL    HW224978   0.245   6.176   6.350
 8027SOL     OW24979   3.642   0.725   6.633
 8027SOL    HW124980   3.559   0.744   6.687
 8027SOL    HW224981   3.616   0.680   6.547
 8028SOL     OW24982   3.169   5.664   5.133
 8028SOL    HW124983   3.107   5.601   5.086
 8028SOL    HW224984   3.135   5.758   5.124
 8029SOL     OW24985   0.648   0.070   0.747
 8029SOL    HW124986   0.738   0.079   0.791
 8029SOL    HW224987   0.623   0.157   0.705
 8030SOL     OW24988   0.762   4.273   0.777
 8030SOL    HW124989   0.681   4.227   0.815
 8030SOL    HW224990   0.738   4.315   0.690
 8031SOL     OW24991   0.243   0.196   3.048
 8031SOL    HW124992   0.223   0.119   3.108
 8031SOL    HW224993   0.157   0.232   3.010
 8032SOL     OW24994   6.939   3.151   1.016
 8032SOL    HW124995   6.968   3.120   1.106
 8032SOL    HW224996   6.839   3.154   1.013
 8033SOL     OW24997   4.462   4.127   1.042
 8033SOL    HW124998   4.422   4.063   1.108
 8033SOL    HW224999   4.502   4.204   1.090
 8034SOL     OW25000   6.575   6.918   6.131
 8034SOL    HW125001   6.494   6.947   6.181
 8034SOL    HW225002   6.639   6.995   6.123
 8035SOL     OW25003   6.276   0.956   3.213
 8035SOL    HW125004   6.358   0.899   3.219
 8035SOL    HW225005   6.197   0.899   3.190
 8036SOL     OW25006   4.999   2.673   4.279
 8036SOL    HW125007   4.934   2.631   4.342
 8036SOL    HW225008   5.041   2.753   4.322
 8037SOL     OW25009   2.040   1.454   5.588
 8037SOL    HW125010   2.136   1.446   5.562
 8037SOL    HW225011   1.994   1.366   5.572
 8038SOL     OW25012   6.817   5.377   1.890
 8038SOL    HW125013   6.855   5.386   1.982
 8038SOL    HW225014   6.723   5.342   1.896
 8039SOL     OW25015   1.517   2.286   5.274
 8039SOL    HW125016   1.522   2.212   5.341
 8039SOL    HW225017   1.424   2.295   5.240
 8040SOL     OW25018   1.541   5.264   6.803
 8040SOL    HW125019   1.594   5.193   6.757
 8040SOL    HW225020   1.473   5.300   6.739
 8041SOL     OW25021   3.224   1.459   2.739
 8041SOL    HW125022   3.226   1.437   2.642
 8041SOL    HW225023   3.261   1.551   2.753
 8042SOL     OW25024   4.238   3.893   6.097
 8042SOL    HW125025   4.192   3.877   6.185
 8042SOL    HW225026   4.210   3.981   6.060
 8043SOL     OW25027   5.532   5.706   6.580
 8043SOL    HW125028   5.450   5.666   6.621
 8043SOL    HW225029   5.572   5.772   6.644
 8044SOL     OW25030   2.624   3.602   1.761
 8044SOL    HW125031   2.573   3.557   1.834
 8044SOL    HW225032   2.706   3.548   1.739
 8045SOL     OW25033   6.727   2.702   3.850
 8045SOL    HW125034   6.638   2.705   3.806
 8045SOL    HW225035   6.739   2.784   3.907
 8046SOL     OW25036   6.766   4.760   2.272
 8046SOL    HW125037   6.777   4.782   2.369
 8046SOL    HW225038   6.856   4.753   2.229
 8047SOL     OW25039   3.057   6.011   6.544
 8047SOL    HW125040   3.126   6.081   6.560
 8047SOL    HW225041   3.067   5.975   6.451
 8048SOL     OW25042   3.583   2.588   6.182
 8048SOL    HW125043   3.635   2.503   6.169
 8048SOL    HW225044   3.645   2.666   6.177
 8049SOL     OW25045   2.031   2.073   0.792
 8049SOL    HW125046   2.039   2.015   0.873
 8049SOL    HW225047   1.959   2.140   0.806
 8050SOL     OW25048   0.737   4.986   5.576
 8050SOL    HW125049   0.783   5.011   5.661
 8050SOL    HW225050   0.769   5.044   5.502
 8051SOL     OW25051   4.286   0.177   3.465
 8051SOL    HW125052   4.249   0.087   3.439
 8051SOL    HW225053   4.282   0.186   3.565
 8052SOL     OW25054   3.022   1.662   2.384
 8052SOL    HW125055   3.114   1.695   2.406
 8052SOL    HW225056   2.975   1.730   2.327
 8053SOL     OW25057   2.288   2.471   6.439
 8053SOL    HW125058   2.287   2.428   6.348
 8053SOL    HW225059   2.246   2.410   6.506
 8054SOL     OW25060   4.797   3.346   5.251
 8054SOL    HW125061   4.884   3.385   5.282
 8054SOL    HW225062   4.749   3.414   5.195
 8055SOL     OW25063   5.739   0.565   0.214
 8055SOL    HW125064   5.776   0.556   0.306
 8055SOL    HW225065   5.743   0.477   0.167
 8056SOL     OW25066   2.345   0.699   3.896
 8056SOL    HW125067   2.426   0.676   3.841
 8056SOL    HW225068   2.280   0.623   3.895
 8057SOL     OW25069   2.917   2.224   1.752
 8057SOL    HW125070   2.920   2.307   1.808
 8057SOL    HW225071   2.887   2.247   1.660
 8058SOL     OW25072   3.432   6.542   1.749
 8058SOL    HW125073   3.518   6.491   1.760
 8058SOL    HW225074   3.370   6.519   1.823
 8059SOL     OW25075   3.176   2.571   5.814
 8059SOL    HW125076   3.235   2.609   5.885
 8059SOL    HW225077   3.201   2.610   5.725
 8060SOL     OW25078   6.433   0.871   6.458
 8060SOL    HW125079   6.529   0.874   6.486
 8060SOL    HW225080   6.422   0.917   6.370
 8061SOL     OW25081   0.364   0.033   2.718
 8061SOL    HW125082   0.267   0.040   2.741
 8061SOL    HW225083   0.417   0.018   2.801
 8062SOL     OW25084   4.156   5.712   5.243
 8062SOL    HW125085   4.173   5.699   5.145
 8062SOL    HW225086   4.179   5.805   5.269
 8063SOL     OW25087   3.326   4.917   2.748
 8063SOL    HW125088   3.268   4.861   2.688
 8063SOL    HW225089   3.309   5.014   2.730
 8064SOL     OW25090   6.449   2.070   0.556
 8064SOL    HW125091   6.405   2.152   0.518
 8064SOL    HW225092   6.537   2.095   0.595
 8065SOL     OW25093   4.335   5.862   6.386
 8065SOL    HW125094   4.237   5.877   6.397
 8065SOL    HW225095   4.372   5.928   6.321
 8066SOL     OW25096   0.727   6.761   5.847
 8066SOL    HW125097   0.662   6.721   5.911
 8066SOL    HW225098   0.786   6.827   5.894
 8067SOL     OW25099   5.100   2.187   3.536
 8067SOL    HW125100   5.049   2.112   3.578
 8067SOL    HW225101   5.177   2.211   3.596
 8068SOL     OW25102   5.696   3.949   1.501
 8068SOL    HW125103   5.744   4.024   1.456
 8068SOL    HW225104   5.761   3.895   1.556
 8069SOL     OW25105   1.895   4.497   3.109
 8069SOL    HW125106   1.844   4.449   3.180
 8069SOL    HW225107   1.990   4.465   3.108
 8070SOL     OW25108   4.853   4.733   0.500
 8070SOL    HW125109   4.799   4.654   0.527
 8070SOL    HW225110   4.942   4.702   0.466
 8071SOL     OW25111   2.377   0.142   5.898
 8071SOL    HW125112   2.296   0.137   5.957
 8071SOL    HW225113   2.375   0.066   5.833
 8072SOL     OW25114   2.174   1.285   5.339
 8072SOL    HW125115   2.235   1.308   5.263
 8072SOL    HW225116   2.212   1.207   5.390
 8073SOL     OW25117   5.121   0.584   6.451
 8073SOL    HW125118   5.129   0.652   6.378
 8073SOL    HW225119   5.130   0.492   6.413
 8074SOL     OW25120   1.735   0.995   6.635
 8074SOL    HW125121   1.812   0.941   6.668
 8074SOL    HW225122   1.668   1.006   6.708
 8075SOL     OW25123   6.841   6.935   1.170
 8075SOL    HW125124   6.818   6.852   1.119
 8075SOL    HW225125   6.806   6.928   1.264
 8076SOL     OW25126   0.153   6.469   0.449
 8076SOL    HW125127   0.192   6.560   0.434
 8076SOL    HW225128   0.226   6.405   0.473
 8077SOL     OW25129   4.808   4.452   0.487
 8077SOL    HW125130   4.760   4.472   0.402
 8077SOL    HW225131   4.809   4.353   0.503
 8078SOL     OW25132   0.262   1.408   1.485
 8078SOL    HW125133   0.226   1.501   1.497
 8078SOL    HW225134   0.319   1.406   1.402
 8079SOL     OW25135   2.030   1.072   5.913
 8079SOL    HW125136   2.049   0.979   5.882
 8079SOL    HW225137   1.937   1.077   5.949
 8080SOL     OW25138   0.871   3.091   2.961
 8080SOL    HW125139   0.808   3.024   2.999
 8080SOL    HW225140   0.873   3.173   3.019
 8081SOL     OW25141   5.711   6.746   4.928
 8081SOL    HW125142   5.706   6.846   4.925
 8081SOL    HW225143   5.636   6.708   4.874
 8082SOL     OW25144   3.931   1.430   3.762
 8082SOL    HW125145   3.950   1.357   3.696
 8082SOL    HW225146   4.017   1.464   3.799
 8083SOL     OW25147   6.259   1.941   4.376
 8083SOL    HW125148   6.286   1.849   4.403
 8083SOL    HW225149   6.185   1.973   4.436
 8084SOL     OW25150   3.667   1.366   5.943
 8084SOL    HW125151   3.729   1.444   5.952
 8084SOL    HW225152   3.687   1.318   5.858
 8085SOL     OW25153   1.924   6.039   4.830
 8085SOL    HW125154   1.974   5.968   4.780
 8085SOL    HW225155   1.984   6.117   4.847
 8086SOL     OW25156   6.690   0.563   2.206
 8086SOL    HW125157   6.754   0.610   2.146
 8086SOL    HW225158   6.722   0.470   2.224
 8087SOL     OW25159   0.984   0.659   0.136
 8087SOL    HW125160   0.980   0.645   0.037
 8087SOL    HW225161   0.983   0.571   0.183
 8088SOL     OW25162   6.580   0.121   5.272
 8088SOL    HW125163   6.640   0.185   5.320
 8088SOL    HW225164   6.628   0.034   5.258
 8089SOL     OW25165   6.430   2.099   6.155
 8089SOL    HW125166   6.400   2.076   6.247
 8089SOL    HW225167   6.521   2.142   6.159
 8090SOL     OW25168   4.318   2.148   5.196
 8090SOL    HW125169   4.388   2.121   5.263
 8090SOL    HW225170   4.271   2.066   5.162
 8091SOL     OW25171   1.563   5.103   4.280
 8091SOL    HW125172   1.618   5.110   4.363
 8091SOL    HW225173   1.613   5.142   4.203
 8092SOL     OW25174   4.836   1.731   6.373
 8092SOL    HW125175   4.793   1.649   6.410
 8092SOL    HW225176   4.916   1.755   6.429
 8093SOL     OW25177   3.609   5.907   2.555
 8093SOL    HW125178   3.623   5.932   2.459
 8093SOL    HW225179   3.605   5.808   2.564
 8094SOL     OW25180   2.074   4.210   4.342
 8094SOL    HW125181   2.047   4.220   4.438
 8094SOL    HW225182   2.038   4.123   4.307
 8095SOL     OW25183   1.486   4.874   5.517
 8095SOL    HW125184   1.516   4.892   5.610
 8095SOL    HW225185   1.556   4.820   5.469
 8096SOL     OW25186   1.266   5.996   0.599
 8096SOL    HW125187   1.280   6.092   0.621
 8096SOL    HW225188   1.181   5.964   0.639
 8097SOL     OW25189   4.632   6.327   5.900
 8097SOL    HW125190   4.589   6.413   5.873
 8097SOL    HW225191   4.654   6.330   5.997
 8098SOL     OW25192   1.940   5.959   5.117
 8098SOL    HW125193   1.871   5.979   5.186
 8098SOL    HW225194   1.905   5.982   5.026
 8099SOL     OW25195   2.125   4.471   2.798
 8099SOL    HW125196   2.038   4.422   2.797
 8099SOL    HW225197   2.149   4.498   2.705
 8100SOL     OW25198   0.076   1.078   6.835
 8100SOL    HW125199   0.071   1.077   6.735
 8100SOL    HW225200   0.169   1.100   6.863
 8101SOL     OW25201   3.127   5.454   0.561
 8101SOL    HW125202   3.132   5.479   0.465
 8101SOL    HW225203   3.190   5.510   0.614
 8102SOL     OW25204   1.246   3.635   4.965
 8102SOL    HW125205   1.275   3.545   4.932
 8102SOL    HW225206   1.241   3.698   4.888
 8103SOL     OW25207   3.204   0.959   1.795
 8103SOL    HW125208   3.198   0.996   1.702
 8103SOL    HW225209   3.148   0.876   1.800
 8104SOL     OW25210   2.268   5.960   0.598
 8104SOL    HW125211   2.254   6.040   0.540
 8104SOL    HW225212   2.221   5.974   0.686
 8105SOL     OW25213   6.729   6.860   3.844
 8105SOL    HW125214   6.727   6.959   3.860
 8105SOL    HW225215   6.824   6.829   3.842
 8106SOL     OW25216   2.109   0.166   6.007
 8106SOL    HW125217   2.078   0.073   5.984
 8106SOL    HW225218   2.055   0.233   5.956
 8107SOL     OW25219   1.392   6.541   6.429
 8107SOL    HW125220   1.402   6.608   6.502
 8107SOL    HW225221   1.298   6.543   6.394
 8108SOL     OW25222   1.404   1.365   6.610
 8108SOL    HW125223   1.328   1.341   6.670
 8108SOL    HW225224   1.403   1.464   6.593
 8109SOL     OW25225   6.358   3.292   0.891
 8109SOL    HW125226   6.310   3.213   0.855
 8109SOL    HW225227   6.407   3.267   0.975
 8110SOL     OW25228   3.585   4.871   1.121
 8110SOL    HW125229   3.541   4.854   1.033
 8110SOL    HW225230   3.526   4.930   1.177
 8111SOL     OW25231   6.036   1.306   2.540
 8111SOL    HW125232   6.086   1.302   2.453
 8111SOL    HW225233   6.006   1.214   2.565
 8112SOL     OW25234   1.599   3.926   6.027
 8112SOL    HW125235   1.514   3.940   5.976
 8112SOL    HW225236   1.676   3.923   5.962
 8113SOL     OW25237   5.306   3.525   5.697
 8113SOL    HW125238   5.385   3.534   5.758
 8113SOL    HW225239   5.228   3.575   5.735
 8114SOL     OW25240   1.611   4.333   2.153
 8114SOL    HW125241   1.639   4.260   2.216
 8114SOL    HW225242   1.536   4.301   2.096
 8115SOL     OW25243   2.662   1.712   6.251
 8115SOL    HW125244   2.718   1.717   6.168
 8115SOL    HW225245   2.714   1.750   6.328
 8116SOL     OW25246   3.934   3.257   1.087
 8116SOL    HW125247   4.003   3.308   1.138
 8116SOL    HW225248   3.860   3.229   1.149
 8117SOL     OW25249   2.222   6.822   3.453
 8117SOL    HW125250   2.299   6.761   3.473
 8117SOL    HW225251   2.144   6.767   3.422
 8118SOL     OW25252   6.120   3.269   0.336
 8118SOL    HW125253   6.219   3.272   0.325
 8118SOL    HW225254   6.090   3.351   0.385
 8119SOL     OW25255   6.003   6.201   0.470
 8119SOL    HW125256   6.092   6.208   0.424
 8119SOL    HW225257   5.940   6.268   0.430
 8120SOL     OW25258   2.440   0.186   1.436
 8120SOL    HW125259   2.360   0.172   1.379
 8120SOL    HW225260   2.413   0.188   1.532
 8121SOL     OW25261   0.585   3.588   2.561
 8121SOL    HW125262   0.498   3.591   2.609
 8121SOL    HW225263   0.658   3.618   2.623
 8122SOL     OW25264   0.758   4.536   1.155
 8122SOL    HW125265   0.676   4.505   1.107
 8122SOL    HW225266   0.838   4.521   1.097
 8123SOL     OW25267   0.193   1.460   6.846
 8123SOL    HW125268   0.230   1.474   6.754
 8123SOL    HW225269   0.098   1.492   6.849
 8124SOL     OW25270   5.225   4.834   4.690
 8124SOL    HW125271   5.140   4.781   4.693
 8124SOL    HW225272   5.233   4.889   4.773
 8125SOL     OW25273   1.611   6.172   3.236
 8125SOL    HW125274   1.702   6.208   3.217
 8125SOL    HW225275   1.578   6.209   3.323
 8126SOL     OW25276   3.631   5.042   4.294
 8126SOL    HW125277   3.572   5.084   4.225
 8126SOL    HW225278   3.685   4.969   4.252
 8127SOL     OW25279   3.440   2.573   0.459
 8127SOL    HW125280   3.419   2.479   0.429
 8127SOL    HW225281   3.472   2.572   0.554
 8128SOL     OW25282   3.775   3.201   1.737
 8128SOL    HW125283   3.839   3.135   1.697
 8128SOL    HW225284   3.780   3.287   1.688
 8129SOL     OW25285   1.677   2.751   2.131
 8129SOL    HW125286   1.629   2.666   2.109
 8129SOL    HW225287   1.729   2.781   2.051
 8130SOL     OW25288   0.746   5.510   6.578
 8130SOL    HW125289   0.793   5.508   6.666
 8130SOL    HW225290   0.651   5.538   6.591
 8131SOL     OW25291   1.683   3.760   6.747
 8131SOL    HW125292   1.701   3.674   6.698
 8131SOL    HW225293   1.657   3.831   6.682
 8132SOL     OW25294   0.585   0.430   5.324
 8132SOL    HW125295   0.678   0.393   5.316
 8132SOL    HW225296   0.528   0.364   5.373
 8133SOL     OW25297   3.844   4.957   0.640
 8133SOL    HW125298   3.783   5.030   0.671
 8133SOL    HW225299   3.931   4.996   0.610
 8134SOL     OW25300   5.692   1.379   5.792
 8134SOL    HW125301   5.640   1.432   5.724
 8134SOL    HW225302   5.629   1.330   5.851
 8135SOL     OW25303   2.778   0.205   1.728
 8135SOL    HW125304   2.845   0.131   1.729
 8135SOL    HW225305   2.723   0.201   1.812
 8136SOL     OW25306   4.763   4.404   1.919
 8136SOL    HW125307   4.824   4.423   1.996
 8136SOL    HW225308   4.680   4.360   1.952
 8137SOL     OW25309   4.028   1.603   5.014
 8137SOL    HW125310   3.964   1.642   4.948
 8137SOL    HW225311   4.107   1.566   4.965
 8138SOL     OW25312   5.329   1.279   2.065
 8138SOL    HW125313   5.325   1.304   2.161
 8138SOL    HW225314   5.389   1.344   2.016
 8139SOL     OW25315   1.036   2.069   3.469
 8139SOL    HW125316   1.113   2.038   3.414
 8139SOL    HW225317   0.962   2.100   3.410
 8140SOL     OW25318   4.184   0.891   3.208
 8140SOL    HW125319   4.126   0.824   3.254
 8140SOL    HW225320   4.133   0.935   3.135
 8141SOL     OW25321   4.790   4.718   4.946
 8141SOL    HW125322   4.769   4.731   5.043
 8141SOL    HW225323   4.706   4.698   4.896
 8142SOL     OW25324   6.869   6.298   0.644
 8142SOL    HW125325   6.955   6.256   0.615
 8142SOL    HW225326   6.831   6.247   0.721
 8143SOL     OW25327   6.460   3.445   4.903
 8143SOL    HW125328   6.407   3.477   4.981
 8143SOL    HW225329   6.500   3.356   4.924
 8144SOL     OW25330   5.715   6.921   6.069
 8144SOL    HW125331   5.634   6.908   6.124
 8144SOL    HW225332   5.792   6.870   6.108
 8145SOL     OW25333   5.553   5.951   2.763
 8145SOL    HW125334   5.479   6.017   2.777
 8145SOL    HW225335   5.640   5.994   2.787
 8146SOL     OW25336   2.948   1.225   3.834
 8146SOL    HW125337   2.999   1.183   3.759
 8146SOL    HW225338   2.866   1.270   3.798
 8147SOL     OW25339   5.158   0.768   3.260
 8147SOL    HW125340   5.146   0.715   3.344
 8147SOL    HW225341   5.149   0.865   3.280
 8148SOL     OW25342   5.324   3.895   3.566
 8148SOL    HW125343   5.416   3.857   3.577
 8148SOL    HW225344   5.320   3.951   3.484
 8149SOL     OW25345   4.574   4.343   3.366
 8149SOL    HW125346   4.577   4.407   3.443
 8149SOL    HW225347   4.512   4.379   3.296
 8150SOL     OW25348   0.957   5.518   1.345
 8150SOL    HW125349   1.047   5.512   1.303
 8150SOL    HW225350   0.894   5.562   1.282
 8151SOL     OW25351   1.071   1.887   4.897
 8151SOL    HW125352   1.088   1.789   4.904
 8151SOL    HW225353   1.099   1.918   4.806
 8152SOL     OW25354   1.295   1.302   3.403
 8152SOL    HW125355   1.331   1.382   3.356
 8152SOL    HW225356   1.342   1.220   3.370
 8153SOL     OW25357   2.026   6.919   0.629
 8153SOL    HW125358   2.064   6.972   0.554
 8153SOL    HW225359   2.001   6.828   0.596
 8154SOL     OW25360   2.051   0.137   3.551
 8154SOL    HW125361   2.047   0.058   3.613
 8154SOL    HW225362   2.115   0.117   3.477
 8155SOL     OW25363   2.907   3.393   3.383
 8155SOL    HW125364   2.813   3.425   3.394
 8155SOL    HW225365   2.922   3.314   3.442
 8156SOL     OW25366   6.795   0.098   6.189
 8156SOL    HW125367   6.825   0.004   6.170
 8156SOL    HW225368   6.871   0.161   6.176
 8157SOL     OW25369   6.139   3.236   0.020
 8157SOL    HW125370   6.102   3.145   0.005
 8157SOL    HW225371   6.122   3.264   0.115
 8158SOL     OW25372   1.696   5.494   2.193
 8158SOL    HW125373   1.724   5.398   2.194
 8158SOL    HW225374   1.776   5.552   2.209
 8159SOL     OW25375   1.266   6.200   2.115
 8159SOL    HW125376   1.211   6.130   2.070
 8159SOL    HW225377   1.363   6.177   2.105
 8160SOL     OW25378   4.413   2.538   1.851
 8160SOL    HW125379   4.411   2.459   1.912
 8160SOL    HW225380   4.490   2.597   1.876
 8161SOL     OW25381   4.654   1.612   0.539
 8161SOL    HW125382   4.620   1.521   0.561
 8161SOL    HW225383   4.580   1.667   0.500
 8162SOL     OW25384   5.997   0.656   1.408
 8162SOL    HW125385   5.898   0.650   1.403
 8162SOL    HW225386   6.038   0.598   1.337
 8163SOL     OW25387   2.275   4.017   5.342
 8163SOL    HW125388   2.347   4.003   5.273
 8163SOL    HW225389   2.209   3.943   5.336
 8164SOL     OW25390   4.754   2.087   1.674
 8164SOL    HW125391   4.702   2.027   1.734
 8164SOL    HW225392   4.846   2.049   1.660
 8165SOL     OW25393   2.287   4.632   1.608
 8165SOL    HW125394   2.293   4.534   1.625
 8165SOL    HW225395   2.263   4.648   1.512
 8166SOL     OW25396   2.903   6.991   1.810
 8166SOL    HW125397   2.828   6.961   1.751
 8166SOL    HW225398   2.865   0.009   1.896
 8167SOL     OW25399   5.225   2.997   4.315
 8167SOL    HW125400   5.261   3.041   4.398
 8167SOL    HW225401   5.255   3.048   4.235
 8168SOL     OW25402   3.412   1.356   2.943
 8168SOL    HW125403   3.449   1.437   2.989
 8168SOL    HW225404   3.345   1.385   2.874
 8169SOL     OW25405   4.964   4.151   6.225
 8169SOL    HW125406   4.892   4.084   6.208
 8169SOL    HW225407   5.004   4.178   6.137
 8170SOL     OW25408   0.678   5.477   3.770
 8170SOL    HW125409   0.648   5.433   3.685
 8170SOL    HW225410   0.651   5.421   3.848
 8171SOL     OW25411   1.288   1.324   5.601
 8171SOL    HW125412   1.220   1.257   5.573
 8171SOL    HW225413   1.245   1.393   5.659
 8172SOL     OW25414   0.141   6.334   0.859
 8172SOL    HW125415   0.132   6.311   0.762
 8172SOL    HW225416   0.216   6.399   0.871
 8173SOL     OW25417   4.837   2.578   6.734
 8173SOL    HW125418   4.743   2.611   6.721
 8173SOL    HW225419   4.875   2.552   6.645
 8174SOL     OW25420   5.408   0.464   2.015
 8174SOL    HW125421   5.446   0.433   2.102
 8174SOL    HW225422   5.472   0.526   1.971
 8175SOL     OW25423   1.019   3.530   5.628
 8175SOL    HW125424   1.006   3.528   5.529
 8175SOL    HW225425   0.930   3.531   5.673
 8176SOL     OW25426   3.460   5.807   2.996
 8176SOL    HW125427   3.428   5.765   2.911
 8176SOL    HW225428   3.383   5.851   3.043
 8177SOL     OW25429   1.629   0.135   6.152
 8177SOL    HW125430   1.644   0.215   6.211
 8177SOL    HW225431   1.697   0.135   6.079
 8178SOL     OW25432   2.063   6.331   6.374
 8178SOL    HW125433   2.081   6.308   6.470
 8178SOL    HW225434   1.969   6.308   6.351
 8179SOL     OW25435   3.193   0.639   0.512
 8179SOL    HW125436   3.096   0.662   0.520
 8179SOL    HW225437   3.241   0.665   0.597
 8180SOL     OW25438   4.721   5.445   5.041
 8180SOL    HW125439   4.680   5.371   4.989
 8180SOL    HW225440   4.820   5.444   5.029
 8181SOL     OW25441   2.801   2.211   2.441
 8181SOL    HW125442   2.762   2.181   2.354
 8181SOL    HW225443   2.742   2.280   2.483
 8182SOL     OW25444   3.493   2.157   5.925
 8182SOL    HW125445   3.548   2.215   5.986
 8182SOL    HW225446   3.398   2.156   5.958
 8183SOL     OW25447   2.004   3.292   4.369
 8183SOL    HW125448   1.944   3.217   4.397
 8183SOL    HW225449   2.032   3.278   4.274
 8184SOL     OW25450   6.206   5.758   5.529
 8184SOL    HW125451   6.207   5.713   5.619
 8184SOL    HW225452   6.112   5.780   5.504
 8185SOL     OW25453   1.377   1.670   3.032
 8185SOL    HW125454   1.290   1.633   3.063
 8185SOL    HW225455   1.419   1.607   2.966
 8186SOL     OW25456   3.508   4.591   6.044
 8186SOL    HW125457   3.494   4.687   6.020
 8186SOL    HW225458   3.462   4.571   6.130
 8187SOL     OW25459   1.709   1.226   5.839
 8187SOL    HW125460   1.676   1.296   5.902
 8187SOL    HW225461   1.639   1.204   5.772
 8188SOL     OW25462   6.281   3.398   2.843
 8188SOL    HW125463   6.351   3.469   2.847
 8188SOL    HW225464   6.295   3.333   2.918
 8189SOL     OW25465   6.184   4.860   2.722
 8189SOL    HW125466   6.090   4.864   2.688
 8189SOL    HW225467   6.196   4.926   2.796
 8190SOL     OW25468   5.288   3.311   2.592
 8190SOL    HW125469   5.334   3.293   2.505
 8190SOL    HW225470   5.337   3.382   2.642
 8191SOL     OW25471   0.250   5.259   2.021
 8191SOL    HW125472   0.189   5.188   2.054
 8191SOL    HW225473   0.213   5.349   2.043
 8192SOL     OW25474   1.566   3.792   1.130
 8192SOL    HW125475   1.598   3.786   1.036
 8192SOL    HW225476   1.553   3.699   1.166
 8193SOL     OW25477   3.579   0.115   5.732
 8193SOL    HW125478   3.524   0.095   5.813
 8193SOL    HW225479   3.611   0.210   5.735
 8194SOL     OW25480   1.766   0.574   1.230
 8194SOL    HW125481   1.749   0.664   1.271
 8194SOL    HW225482   1.786   0.585   1.133
 8195SOL     OW25483   6.277   0.507   0.785
 8195SOL    HW125484   6.184   0.483   0.813
 8195SOL    HW225485   6.340   0.495   0.862
 8196SOL     OW25486   2.031   0.541   6.673
 8196SOL    HW125487   1.946   0.547   6.620
 8196SOL    HW225488   2.013   0.566   6.768
 8197SOL     OW25489   1.032   7.010   0.666
 8197SOL    HW125490   1.014   0.074   0.721
 8197SOL    HW225491   1.119   6.970   0.694
 8198SOL     OW25492   4.036   6.644   3.124
 8198SOL    HW125493   4.122   6.692   3.107
 8198SOL    HW225494   4.027   6.627   3.222
 8199SOL     OW25495   6.178   4.146   0.613
 8199SOL    HW125496   6.160   4.092   0.530
 8199SOL    HW225497   6.143   4.238   0.601
 8200SOL     OW25498   4.624   3.372   1.441
 8200SOL    HW125499   4.702   3.434   1.435
 8200SOL    HW225500   4.606   3.351   1.537
 8201SOL     OW25501   6.377   1.067   4.490
 8201SOL    HW125502   6.313   1.047   4.564
 8201SOL    HW225503   6.352   1.153   4.446
 8202SOL     OW25504   1.363   3.876   3.711
 8202SOL    HW125505   1.427   3.952   3.695
 8202SOL    HW225506   1.293   3.877   3.639
 8203SOL     OW25507   6.138   4.076   1.183
 8203SOL    HW125508   6.180   4.060   1.272
 8203SOL    HW225509   6.162   4.166   1.149
 8204SOL     OW25510   3.512   0.629   0.154
 8204SOL    HW125511   3.524   0.686   0.073
 8204SOL    HW225512   3.558   0.672   0.232
 8205SOL     OW25513   5.749   5.505   3.164
 8205SOL    HW125514   5.759   5.437   3.236
 8205SOL    HW225515   5.652   5.525   3.149
 8206SOL     OW25516   4.042   2.118   4.200
 8206SOL    HW125517   4.124   2.093   4.148
 8206SOL    HW225518   4.007   2.038   4.248
 8207SOL     OW25519   2.677   6.107   6.980
 8207SOL    HW125520   2.760   6.117   0.019
 8207SOL    HW225521   2.600   6.152   0.009
 8208SOL     OW25522   1.653   5.144   6.230
 8208SOL    HW125523   1.603   5.084   6.293
 8208SOL    HW225524   1.631   5.239   6.252
 8209SOL     OW25525   1.083   6.474   5.590
 8209SOL    HW125526   1.057   6.379   5.607
 8209SOL    HW225527   1.008   6.534   5.618
 8210SOL     OW25528   3.055   1.682   0.302
 8210SOL    HW125529   3.095   1.591   0.311
 8210SOL    HW225530   3.119   1.750   0.338
 8211SOL     OW25531   2.915   3.760   4.734
 8211SOL    HW125532   2.859   3.808   4.802
 8211SOL    HW225533   2.982   3.823   4.695
 8212SOL     OW25534   3.673   6.300   1.207
 8212SOL    HW125535   3.720   6.245   1.137
 8212SOL    HW225536   3.597   6.351   1.164
 8213SOL     OW25537   4.411   4.499   1.784
 8213SOL    HW125538   4.413   4.402   1.808
 8213SOL    HW225539   4.468   4.551   1.848
 8214SOL     OW25540   4.250   5.252   3.855
 8214SOL    HW125541   4.333   5.220   3.810
 8214SOL    HW225542   4.224   5.342   3.818
 8215SOL     OW25543   2.840   6.130   6.198
 8215SOL    HW125544   2.868   6.134   6.102
 8215SOL    HW225545   2.915   6.097   6.254
 8216SOL     OW25546   5.526   4.906   1.509
 8216SOL    HW125547   5.430   4.901   1.534
 8216SOL    HW225548   5.548   4.829   1.448
 8217SOL     OW25549   2.382   6.629   3.631
 8217SOL    HW125550   2.412   6.568   3.557
 8217SOL    HW225551   2.339   6.575   3.703
 8218SOL     OW25552   1.964   5.787   4.730
 8218SOL    HW125553   1.990   5.707   4.677
 8218SOL    HW225554   2.045   5.840   4.753
 8219SOL     OW25555   4.138   3.174   1.803
 8219SOL    HW125556   4.081   3.120   1.742
 8219SOL    HW225557   4.235   3.152   1.786
 8220SOL     OW25558   3.397   3.865   4.765
 8220SOL    HW125559   3.371   3.936   4.830
 8220SOL    HW225560   3.316   3.833   4.716
 8221SOL     OW25561   6.115   4.057   3.170
 8221SOL    HW125562   6.034   4.077   3.115
 8221SOL    HW225563   6.095   3.980   3.231
 8222SOL     OW25564   6.876   3.125   0.373
 8222SOL    HW125565   6.860   3.075   0.457
 8222SOL    HW225566   6.973   3.117   0.347
 8223SOL     OW25567   2.277   6.380   6.224
 8223SOL    HW125568   2.290   6.461   6.282
 8223SOL    HW225569   2.207   6.321   6.264
 8224SOL     OW25570   4.814   0.956   6.711
 8224SOL    HW125571   4.829   0.994   6.802
 8224SOL    HW225572   4.850   0.863   6.707
 8225SOL     OW25573   5.849   2.052   6.484
 8225SOL    HW125574   5.883   1.967   6.446
 8225SOL    HW225575   5.840   2.044   6.583
 8226SOL     OW25576   3.741   0.973   0.067
 8226SOL    HW125577   3.767   0.888   0.113
 8226SOL    HW225578   3.642   0.977   0.059
 8227SOL     OW25579   4.359   2.400   2.571
 8227SOL    HW125580   4.381   2.335   2.644
 8227SOL    HW225581   4.398   2.489   2.592
 8228SOL     OW25582   2.695   0.041   4.431
 8228SOL    HW125583   2.706   0.092   4.347
 8228SOL    HW225584   2.756   6.979   4.431
 8229SOL     OW25585   4.727   4.301   0.933
 8229SOL    HW125586   4.707   4.265   1.024
 8229SOL    HW225587   4.644   4.301   0.878
 8230SOL     OW25588   6.076   0.014   5.760
 8230SOL    HW125589   5.986   0.034   5.797
 8230SOL    HW225590   6.068   7.007   5.663
 8231SOL     OW25591   2.984   1.070   2.296
 8231SOL    HW125592   3.050   1.097   2.226
 8231SOL    HW225593   2.892   1.072   2.258
 8232SOL     OW25594   3.495   5.959   3.476
 8232SOL    HW125595   3.524   5.991   3.566
 8232SOL    HW225596   3.443   6.031   3.430
 8233SOL     OW25597   2.148   0.821   6.480
 8233SOL    HW125598   2.079   0.832   6.553
 8233SOL    HW225599   2.112   0.760   6.410
 8234SOL     OW25600   1.531   2.283   1.013
 8234SOL    HW125601   1.551   2.219   1.086
 8234SOL    HW225602   1.480   2.237   0.940
 8235SOL     OW25603   0.904   0.880   1.371
 8235SOL    HW125604   0.812   0.893   1.407
 8235SOL    HW225605   0.909   0.791   1.323
 8236SOL     OW25606   1.551   0.157   1.844
 8236SOL    HW125607   1.493   0.184   1.767
 8236SOL    HW225608   1.494   0.130   1.921
 8237SOL     OW25609   3.688   4.600   6.268
 8237SOL    HW125610   3.763   4.666   6.263
 8237SOL    HW225611   3.625   4.614   6.192
 8238SOL     OW25612   0.965   5.205   1.268
 8238SOL    HW125613   1.008   5.121   1.301
 8238SOL    HW225614   0.925   5.254   1.345
 8239SOL     OW25615   2.293   1.399   5.973
 8239SOL    HW125616   2.268   1.462   5.900
 8239SOL    HW225617   2.256   1.309   5.953
 8240SOL     OW25618   3.486   2.944   4.409
 8240SOL    HW125619   3.471   2.977   4.502
 8240SOL    HW225620   3.504   2.845   4.411
 8241SOL     OW25621   1.634   3.508   5.650
 8241SOL    HW125622   1.568   3.568   5.605
 8241SOL    HW225623   1.723   3.552   5.652
 8242SOL     OW25624   0.739   3.154   2.653
 8242SOL    HW125625   0.724   3.068   2.603
 8242SOL    HW225626   0.812   3.205   2.608
 8243SOL     OW25627   0.972   5.659   4.105
 8243SOL    HW125628   0.968   5.745   4.157
 8243SOL    HW225629   0.908   5.663   4.029
 8244SOL     OW25630   6.900   1.445   3.563
 8244SOL    HW125631   6.944   1.360   3.593
 8244SOL    HW225632   6.849   1.485   3.639
 8245SOL     OW25633   5.181   2.752   2.399
 8245SOL    HW125634   5.232   2.730   2.316
 8245SOL    HW225635   5.196   2.681   2.468
 8246SOL     OW25636   1.567   4.879   6.814
 8246SOL    HW125637   1.478   4.901   6.851
 8246SOL    HW225638   1.614   4.814   6.874
 8247SOL     OW25639   2.533   5.538   2.913
 8247SOL    HW125640   2.576   5.628   2.899
 8247SOL    HW225641   2.588   5.486   2.979
 8248SOL     OW25642   6.506   5.826   4.321
 8248SOL    HW125643   6.544   5.823   4.228
 8248SOL    HW225644   6.407   5.817   4.317
 8249SOL     OW25645   3.274   1.452   6.732
 8249SOL    HW125646   3.282   1.415   6.640
 8249SOL    HW225647   3.365   1.477   6.766
 8250SOL     OW25648   0.960   1.839   6.542
 8250SOL    HW125649   1.033   1.841   6.612
 8250SOL    HW225650   1.000   1.858   6.452
 8251SOL     OW25651   0.584   2.358   5.127
 8251SOL    HW125652   0.581   2.439   5.069
 8251SOL    HW225653   0.590   2.387   5.223
 8252SOL     OW25654   0.690   2.016   6.630
 8252SOL    HW125655   0.723   2.082   6.563
 8252SOL    HW225656   0.748   1.935   6.629
 8253SOL     OW25657   4.821   5.260   6.523
 8253SOL    HW125658   4.784   5.340   6.569
 8253SOL    HW225659   4.840   5.188   6.590
 8254SOL     OW25660   6.484   5.518   0.285
 8254SOL    HW125661   6.468   5.575   0.204
 8254SOL    HW225662   6.539   5.439   0.260
 8255SOL     OW25663   2.319   0.355   5.258
 8255SOL    HW125664   2.345   0.278   5.316
 8255SOL    HW225665   2.347   0.336   5.164
 8256SOL     OW25666   1.022   5.706   4.575
 8256SOL    HW125667   1.102   5.652   4.602
 8256SOL    HW225668   0.992   5.762   4.652
 8257SOL     OW25669   5.078   4.046   3.253
 8257SOL    HW125670   5.017   3.966   3.244
 8257SOL    HW225671   5.046   4.119   3.192
 8258SOL     OW25672   0.627   2.904   3.568
 8258SOL    HW125673   0.671   2.994   3.561
 8258SOL    HW225674   0.696   2.832   3.557
 8259SOL     OW25675   5.777   2.352   4.306
 8259SOL    HW125676   5.681   2.360   4.281
 8259SOL    HW225677   5.791   2.272   4.363
 8260SOL     OW25678   5.244   3.046   0.960
 8260SOL    HW125679   5.301   2.998   1.026
 8260SOL    HW225680   5.299   3.068   0.879
 8261SOL     OW25681   5.693   1.295   2.651
 8261SOL    HW125682   5.655   1.299   2.559
 8261SOL    HW225683   5.622   1.265   2.715
 8262SOL     OW25684   5.203   3.878   2.049
 8262SOL    HW125685   5.163   3.787   2.036
 8262SOL    HW225686   5.156   3.943   1.989
 8263SOL     OW25687   6.720   1.836   5.879
 8263SOL    HW125688   6.632   1.859   5.919
 8263SOL    HW225689   6.793   1.882   5.930
 8264SOL     OW25690   3.091   0.391   2.499
 8264SOL    HW125691   3.150   0.312   2.484
 8264SOL    HW225692   3.145   0.475   2.492
 8265SOL     OW25693   4.944   5.862   0.459
 8265SOL    HW125694   4.946   5.949   0.409
 8265SOL    HW225695   4.852   5.846   0.495
 8266SOL     OW25696   3.674   0.757   4.002
 8266SOL    HW125697   3.642   0.701   3.925
 8266SOL    HW225698   3.595   0.794   4.050
 8267SOL     OW25699   2.144   3.187   2.647
 8267SOL    HW125700   2.190   3.100   2.627
 8267SOL    HW225701   2.107   3.225   2.562
 8268SOL     OW25702   3.473   4.579   6.826
 8268SOL    HW125703   3.480   4.485   6.793
 8268SOL    HW225704   3.430   4.579   6.917
 8269SOL     OW25705   6.476   2.859   5.037
 8269SOL    HW125706   6.394   2.893   5.082
 8269SOL    HW225707   6.469   2.760   5.024
 8270SOL     OW25708   4.647   5.470   6.662
 8270SOL    HW125709   4.608   5.389   6.705
 8270SOL    HW225710   4.588   5.500   6.587
 8271SOL     OW25711   3.488   6.841   6.349
 8271SOL    HW125712   3.438   6.796   6.275
 8271SOL    HW225713   3.471   6.793   6.435
 8272SOL     OW25714   1.069   0.795   2.116
 8272SOL    HW125715   1.146   0.744   2.079
 8272SOL    HW225716   0.989   0.735   2.121
 8273SOL     OW25717   4.234   0.340   6.988
 8273SOL    HW125718   4.171   0.371   6.916
 8273SOL    HW225719   4.198   0.257   0.013
 8274SOL     OW25720   5.129   6.164   5.707
 8274SOL    HW125721   5.061   6.236   5.721
 8274SOL    HW225722   5.199   6.197   5.643
 8275SOL     OW25723   5.102   1.090   4.568
 8275SOL    HW125724   5.028   1.144   4.608
 8275SOL    HW225725   5.142   1.031   4.638
 8276SOL     OW25726   6.316   2.004   6.771
 8276SOL    HW125727   6.372   2.060   6.832
 8276SOL    HW225728   6.233   2.054   6.748
 8277SOL     OW25729   1.568   6.912   0.849
 8277SOL    HW125730   1.586   6.814   0.837
 8277SOL    HW225731   1.473   6.932   0.824
 8278SOL     OW25732   2.426   1.075   0.875
 8278SOL    HW125733   2.508   1.087   0.820
 8278SOL    HW225734   2.444   1.105   0.969
 8279SOL     OW25735   4.278   5.966   5.288
 8279SOL    HW125736   4.232   5.996   5.204
 8279SOL    HW225737   4.260   6.032   5.361
 8280SOL     OW25738   5.451   3.942   6.904
 8280SOL    HW125739   5.371   3.977   6.952
 8280SOL    HW225740   5.533   3.960   6.957
 8281SOL     OW25741   2.785   5.835   6.557
 8281SOL    HW125742   2.803   5.770   6.632
 8281SOL    HW225743   2.860   5.901   6.551
 8282SOL     OW25744   2.818   3.191   1.887
 8282SOL    HW125745   2.728   3.169   1.851
 8282SOL    HW225746   2.836   3.289   1.877
 8283SOL     OW25747   0.572   0.303   3.780
 8283SOL    HW125748   0.497   0.272   3.839
 8283SOL    HW225749   0.617   0.382   3.821
 8284SOL     OW25750   4.365   1.651   1.523
 8284SOL    HW125751   4.395   1.556   1.535
 8284SOL    HW225752   4.291   1.671   1.588
 8285SOL     OW25753   1.639   3.950   0.119
 8285SOL    HW125754   1.555   3.954   0.065
 8285SOL    HW225755   1.718   3.949   0.057
 8286SOL     OW25756   6.336   2.518   6.145
 8286SOL    HW125757   6.380   2.533   6.056
 8286SOL    HW225758   6.327   2.605   6.192
 8287SOL     OW25759   2.144   1.110   3.516
 8287SOL    HW125760   2.200   1.190   3.536
 8287SOL    HW225761   2.094   1.125   3.430
 8288SOL     OW25762   1.536   0.170   3.212
 8288SOL    HW125763   1.509   0.075   3.194
 8288SOL    HW225764   1.624   0.189   3.169
 8289SOL     OW25765   5.505   0.427   0.007
 8289SOL    HW125766   5.584   0.424   6.963
 8289SOL    HW225767   5.535   0.415   0.102
 8290SOL     OW25768   4.659   2.730   1.805
 8290SOL    HW125769   4.743   2.727   1.751
 8290SOL    HW225770   4.656   2.814   1.858
 8291SOL     OW25771   5.162   5.944   6.327
 8291SOL    HW125772   5.150   5.854   6.368
 8291SOL    HW225773   5.076   5.974   6.287
 8292SOL     OW25774   0.907   2.814   5.405
 8292SOL    HW125775   0.884   2.789   5.499
 8292SOL    HW225776   0.980   2.755   5.371
 8293SOL     OW25777   2.271   5.240   4.154
 8293SOL    HW125778   2.212   5.162   4.135
 8293SOL    HW225779   2.346   5.241   4.088
 8294SOL     OW25780   4.936   3.960   5.875
 8294SOL    HW125781   4.882   3.940   5.957
 8294SOL    HW225782   4.983   4.047   5.887
 8295SOL     OW25783   4.792   4.521   2.376
 8295SOL    HW125784   4.714   4.470   2.342
 8295SOL    HW225785   4.762   4.587   2.444
 8296SOL     OW25786   3.714   6.742   2.488
 8296SOL    HW125787   3.627   6.731   2.440
 8296SOL    HW225788   3.739   6.839   2.489
 8297SOL     OW25789   5.430   4.695   2.479
 8297SOL    HW125790   5.392   4.604   2.494
 8297SOL    HW225791   5.486   4.722   2.557
 8298SOL     OW25792   0.001   6.942   0.753
 8298SOL    HW125793   0.012   0.002   0.816
 8298SOL    HW225794   6.961   6.970   0.676
 8299SOL     OW25795   1.082   3.045   0.041
 8299SOL    HW125796   1.078   2.969   6.993
 8299SOL    HW225797   1.159   3.104   0.018
 8300SOL     OW25798   6.385   5.257   3.987
 8300SOL    HW125799   6.422   5.164   3.978
 8300SOL    HW225800   6.439   5.307   4.055
 8301SOL     OW25801   5.585   6.194   0.422
 8301SOL    HW125802   5.663   6.256   0.414
 8301SOL    HW225803   5.582   6.135   0.341
 8302SOL     OW25804   3.702   6.939   4.919
 8302SOL    HW125805   3.792   6.925   4.960
 8302SOL    HW225806   3.711   6.944   4.819
 8303SOL     OW25807   7.001   5.273   2.764
 8303SOL    HW125808   0.004   5.371   2.759
 8303SOL    HW225809   6.902   5.260   2.776
 8304SOL     OW25810   6.341   3.609   3.580
 8304SOL    HW125811   6.406   3.685   3.578
 8304SOL    HW225812   6.255   3.640   3.619
 8305SOL     OW25813   5.091   0.030   5.707
 8305SOL    HW125814   5.155   0.105   5.723
 8305SOL    HW225815   5.045   0.007   5.793
 8306SOL     OW25816   6.376   1.198   3.671
 8306SOL    HW125817   6.442   1.144   3.723
 8306SOL    HW225818   6.408   1.293   3.665
 8307SOL     OW25819   1.389   3.616   3.247
 8307SOL    HW125820   1.431   3.545   3.190
 8307SOL    HW225821   1.370   3.579   3.338
 8308SOL     OW25822   1.343   5.783   1.164
 8308SOL    HW125823   1.325   5.727   1.245
 8308SOL    HW225824   1.281   5.757   1.091
 8309SOL     OW25825   6.056   5.079   4.415
 8309SOL    HW125826   6.064   4.989   4.457
 8309SOL    HW225827   5.981   5.130   4.457
 8310SOL     OW25828   1.952   0.316   2.216
 8310SOL    HW125829   1.994   0.240   2.265
 8310SOL    HW225830   1.881   0.281   2.155
 8311SOL     OW25831   4.458   5.660   3.295
 8311SOL    HW125832   4.537   5.598   3.297
 8311SOL    HW225833   4.470   5.731   3.364
 8312SOL     OW25834   5.751   1.863   0.522
 8312SOL    HW125835   5.755   1.764   0.510
 8312SOL    HW225836   5.659   1.896   0.504
 8313SOL     OW25837   5.725   2.327   5.814
 8313SOL    HW125838   5.653   2.336   5.745
 8313SOL    HW225839   5.684   2.303   5.902
 8314SOL     OW25840   4.328   6.146   4.259
 8314SOL    HW125841   4.232   6.134   4.234
 8314SOL    HW225842   4.366   6.059   4.289
 8315SOL     OW25843   3.433   3.266   5.001
 8315SOL    HW125844   3.501   3.268   4.928
 8315SOL    HW225845   3.342   3.284   4.962
 8316SOL     OW25846   2.668   1.187   5.584
 8316SOL    HW125847   2.607   1.170   5.506
 8316SOL    HW225848   2.758   1.149   5.564
 8317SOL     OW25849   1.198   2.085   3.992
 8317SOL    HW125850   1.218   2.133   3.907
 8317SOL    HW225851   1.147   2.146   4.053
 8318SOL     OW25852   4.085   6.563   5.792
 8318SOL    HW125853   4.172   6.514   5.788
 8318SOL    HW225854   4.012   6.499   5.818
 8319SOL     OW25855   1.492   5.523   5.985
 8319SOL    HW125856   1.512   5.565   6.073
 8319SOL    HW225857   1.420   5.576   5.939
 8320SOL     OW25858   3.962   3.851   5.538
 8320SOL    HW125859   3.906   3.933   5.537
 8320SOL    HW225860   4.014   3.844   5.452
 8321SOL     OW25861   0.848   0.466   1.054
 8321SOL    HW125862   0.770   0.471   0.992
 8321SOL    HW225863   0.924   0.421   1.008
 8322SOL     OW25864   1.151   0.311   0.958
 8322SOL    HW125865   1.209   0.298   1.038
 8322SOL    HW225866   1.208   0.319   0.876
 8323SOL     OW25867   6.007   4.277   0.021
 8323SOL    HW125868   5.947   4.357   0.021
 8323SOL    HW225869   6.102   4.306   0.009
 8324SOL     OW25870   5.323   6.546   0.083
 8324SOL    HW125871   5.312   6.476   0.153
 8324SOL    HW225872   5.316   6.637   0.125
 8325SOL     OW25873   1.447   6.670   4.893
 8325SOL    HW125874   1.373   6.690   4.956
 8325SOL    HW225875   1.525   6.632   4.943
 8326SOL     OW25876   2.510   2.937   6.600
 8326SOL    HW125877   2.483   3.016   6.545
 8326SOL    HW225878   2.514   2.856   6.543
 8327SOL     OW25879   0.648   6.366   4.820
 8327SOL    HW125880   0.697   6.300   4.763
 8327SOL    HW225881   0.709   6.441   4.844
 8328SOL     OW25882   1.275   6.604   0.566
 8328SOL    HW125883   1.347   6.606   0.636
 8328SOL    HW225884   1.189   6.634   0.607
 8329SOL     OW25885   1.620   2.961   5.171
 8329SOL    HW125886   1.583   2.885   5.225
 8329SOL    HW225887   1.557   3.038   5.174
 8330SOL     OW25888   3.369   6.975   6.607
 8330SOL    HW125889   3.372   0.023   6.530
 8330SOL    HW225890   3.339   6.886   6.574
 8331SOL     OW25891   2.350   2.175   6.938
 8331SOL    HW125892   2.407   2.174   6.856
 8331SOL    HW225893   2.406   2.199   0.001
 8332SOL     OW25894   6.460   4.079   1.347
 8332SOL    HW125895   6.552   4.054   1.377
 8332SOL    HW225896   6.456   4.177   1.331
 8333SOL     OW25897   1.990   4.313   0.113
 8333SOL    HW125898   1.985   4.259   0.197
 8333SOL    HW225899   1.909   4.295   0.058
 8334SOL     OW25900   3.296   1.942   5.238
 8334SOL    HW125901   3.336   2.033   5.245
 8334SOL    HW225902   3.362   1.879   5.199
 8335SOL     OW25903   5.460   4.919   5.596
 8335SOL    HW125904   5.445   4.825   5.565
 8335SOL    HW225905   5.553   4.947   5.573
 8336SOL     OW25906   1.055   3.632   3.402
 8336SOL    HW125907   0.986   3.667   3.339
 8336SOL    HW225908   1.013   3.611   3.490
 8337SOL     OW25909   6.491   0.848   3.967
 8337SOL    HW125910   6.530   0.764   3.928
 8337SOL    HW225911   6.455   0.829   4.058
 8338SOL     OW25912   2.728   5.039   1.025
 8338SOL    HW125913   2.788   5.118   1.021
 8338SOL    HW225914   2.714   5.003   0.933
 8339SOL     OW25915   5.966   0.270   1.715
 8339SOL    HW125916   5.943   0.173   1.721
 8339SOL    HW225917   5.966   0.309   1.807
 8340SOL     OW25918   6.327   2.337   6.337
 8340SOL    HW125919   6.247   2.278   6.323
 8340SOL    HW225920   6.339   2.396   6.258
 8341SOL     OW25921   3.844   1.371   0.637
 8341SOL    HW125922   3.820   1.408   0.547
 8341SOL    HW225923   3.929   1.319   0.629
 8342SOL     OW25924   4.119   0.205   0.511
 8342SOL    HW125925   4.181   0.279   0.484
 8342SOL    HW225926   4.125   0.130   0.445
 8343SOL     OW25927   5.897   4.738   3.487
 8343SOL    HW125928   5.814   4.721   3.434
 8343SOL    HW225929   5.886   4.821   3.542
 8344SOL     OW25930   1.205   4.863   6.264
 8344SOL    HW125931   1.257   4.803   6.203
 8344SOL    HW225932   1.112   4.873   6.230
 8345SOL     OW25933   5.865   0.354   3.785
 8345SOL    HW125934   5.877   0.417   3.862
 8345SOL    HW225935   5.949   0.303   3.769
 8346SOL     OW25936   5.817   3.231   4.380
 8346SOL    HW125937   5.737   3.290   4.377
 8346SOL    HW225938   5.872   3.246   4.298
 8347SOL     OW25939   2.573   1.892   6.479
 8347SOL    HW125940   2.568   1.868   6.382
 8347SOL    HW225941   2.502   1.843   6.529
 8348SOL     OW25942   3.138   6.064   1.911
 8348SOL    HW125943   3.108   6.118   1.989
 8348SOL    HW225944   3.163   6.125   1.835
 8349SOL     OW25945   5.396   6.162   2.212
 8349SOL    HW125946   5.315   6.153   2.269
 8349SOL    HW225947   5.376   6.225   2.137
 8350SOL     OW25948   1.665   1.178   0.258
 8350SOL    HW125949   1.759   1.147   0.273
 8350SOL    HW225950   1.615   1.176   0.344
 8351SOL     OW25951   0.070   2.339   3.103
 8351SOL    HW125952   6.990   2.364   3.107
 8351SOL    HW225953   0.097   2.300   3.191
 8352SOL     OW25954   2.974   5.786   0.395
 8352SOL    HW125955   3.041   5.829   0.455
 8352SOL    HW225956   2.948   5.849   0.323
 8353SOL     OW25957   0.729   5.696   1.756
 8353SOL    HW125958   0.795   5.658   1.691
 8353SOL    HW225959   0.690   5.622   1.811
 8354SOL     OW25960   3.731   1.010   3.114
 8354SOL    HW125961   3.677   1.092   3.093
 8354SOL    HW225962   3.771   0.974   3.029
 8355SOL     OW25963   3.316   5.795   6.230
 8355SOL    HW125964   3.340   5.704   6.197
 8355SOL    HW225965   3.318   5.860   6.155
 8356SOL     OW25966   2.762   4.382   0.924
 8356SOL    HW125967   2.772   4.430   1.011
 8356SOL    HW225968   2.705   4.437   0.862
 8357SOL     OW25969   4.965   6.651   5.318
 8357SOL    HW125970   5.044   6.702   5.283
 8357SOL    HW225971   4.994   6.590   5.391
 8358SOL     OW25972   1.129   0.846   5.541
 8358SOL    HW125973   1.139   0.782   5.465
 8358SOL    HW225974   1.210   0.842   5.599
 8359SOL     OW25975   4.285   1.837   5.731
 8359SOL    HW125976   4.360   1.845   5.796
 8359SOL    HW225977   4.243   1.926   5.716
 8360SOL     OW25978   4.274   0.120   0.727
 8360SOL    HW125979   4.217   0.139   0.647
 8360SOL    HW225980   4.275   0.200   0.787
 8361SOL     OW25981   4.468   1.574   6.974
 8361SOL    HW125982   4.484   1.622   6.888
 8361SOL    HW225983   4.425   1.486   6.955
 8362SOL     OW25984   0.099   4.301   1.611
 8362SOL    HW125985   0.087   4.319   1.708
 8362SOL    HW225986   0.027   4.239   1.579
 8363SOL     OW25987   1.981   2.540   1.335
 8363SOL    HW125988   1.949   2.634   1.343
 8363SOL    HW225989   2.050   2.522   1.406
 8364SOL     OW25990   0.021   2.148   4.511
 8364SOL    HW125991   0.041   2.182   4.602
 8364SOL    HW225992   6.945   2.109   4.509
 8365SOL     OW25993   1.496   2.547   2.100
 8365SOL    HW125994   1.450   2.534   2.188
 8365SOL    HW225995   1.494   2.462   2.048
 8366SOL     OW25996   5.444   4.541   1.714
 8366SOL    HW125997   5.392   4.540   1.629
 8366SOL    HW225998   5.390   4.498   1.787
 8367SOL     OW25999   2.047   4.505   4.124
 8367SOL    HW126000   2.080   4.436   4.060
 8367SOL    HW226001   1.963   4.471   4.168
 8368SOL     OW26002   5.906   6.291   5.713
 8368SOL    HW126003   5.941   6.334   5.630
 8368SOL    HW226004   5.922   6.193   5.709
 8369SOL     OW26005   2.103   6.700   0.410
 8369SOL    HW126006   2.167   6.624   0.404
 8369SOL    HW226007   2.117   6.761   0.332
 8370SOL     OW26008   2.850   3.610   0.579
 8370SOL    HW126009   2.751   3.598   0.565
 8370SOL    HW226010   2.886   3.673   0.510
 8371SOL     OW26011   2.354   4.017   5.834
 8371SOL    HW126012   2.431   3.963   5.868
 8371SOL    HW226013   2.389   4.097   5.784
 8372SOL     OW26014   2.019   6.523   0.782
 8372SOL    HW126015   1.967   6.467   0.846
 8372SOL    HW226016   2.114   6.528   0.812
 8373SOL     OW26017   6.379   1.974   3.999
 8373SOL    HW126018   6.322   1.893   4.001
 8373SOL    HW226019   6.377   2.015   3.908
 8374SOL     OW26020   6.842   0.866   3.893
 8374SOL    HW126021   6.817   0.963   3.894
 8374SOL    HW226022   6.896   0.846   3.810
 8375SOL     OW26023   2.359   1.412   5.098
 8375SOL    HW126024   2.335   1.476   5.171
 8375SOL    HW226025   2.419   1.456   5.033
 8376SOL     OW26026   0.651   1.996   4.150
 8376SOL    HW126027   0.572   2.014   4.209
 8376SOL    HW226028   0.699   1.915   4.182
 8377SOL     OW26029   4.256   5.476   6.971
 8377SOL    HW126030   4.313   5.398   6.995
 8377SOL    HW226031   4.184   5.487   0.022
 8378SOL     OW26032   4.928   5.835   4.881
 8378SOL    HW126033   4.876   5.755   4.854
 8378SOL    HW226034   4.902   5.861   4.975
 8379SOL     OW26035   5.839   1.879   1.800
 8379SOL    HW126036   5.754   1.899   1.751
 8379SOL    HW226037   5.853   1.948   1.872
 8380SOL     OW26038   0.317   6.178   1.284
 8380SOL    HW126039   0.250   6.250   1.266
 8380SOL    HW226040   0.273   6.089   1.272
 8381SOL     OW26041   0.418   1.699   2.985
 8381SOL    HW126042   0.462   1.788   2.995
 8381SOL    HW226043   0.382   1.690   2.892
 8382SOL     OW26044   1.437   0.651   1.338
 8382SOL    HW126045   1.363   0.587   1.361
 8382SOL    HW226046   1.504   0.652   1.412
 8383SOL     OW26047   2.889   0.065   5.979
 8383SOL    HW126048   2.805   0.082   6.029
 8383SOL    HW226049   2.871   0.074   5.881
 8384SOL     OW26050   0.594   3.599   2.931
 8384SOL    HW126051   0.505   3.556   2.950
 8384SOL    HW226052   0.653   3.534   2.883
 8385SOL     OW26053   4.217   2.555   1.402
 8385SOL    HW126054   4.307   2.526   1.370
 8385SOL    HW226055   4.211   2.543   1.501
 8386SOL     OW26056   2.608   5.832   1.741
 8386SOL    HW126057   2.683   5.867   1.684
 8386SOL    HW226058   2.625   5.736   1.763
 8387SOL     OW26059   0.902   1.544   3.699
 8387SOL    HW126060   0.992   1.541   3.742
 8387SOL    HW226061   0.837   1.589   3.760
 8388SOL     OW26062   3.966   5.590   1.045
 8388SOL    HW126063   3.911   5.516   1.083
 8388SOL    HW226064   4.063   5.568   1.054
 8389SOL     OW26065   0.738   2.799   4.199
 8389SOL    HW126066   0.816   2.786   4.260
 8389SOL    HW226067   0.659   2.830   4.251
 8390SOL     OW26068   2.851   7.008   5.687
 8390SOL    HW126069   2.859   0.057   5.612
 8390SOL    HW226070   2.914   6.932   5.671
 8391SOL     OW26071   5.757   6.088   0.803
 8391SOL    HW126072   5.848   6.129   0.796
 8391SOL    HW226073   5.739   6.064   0.899
 8392SOL     OW26074   5.155   6.410   6.376
 8392SOL    HW126075   5.142   6.510   6.373
 8392SOL    HW226076   5.210   6.382   6.297
 8393SOL     OW26077   6.904   5.111   2.535
 8393SOL    HW126078   6.988   5.062   2.509
 8393SOL    HW226079   6.925   5.177   2.606
 8394SOL     OW26080   0.693   1.780   2.795
 8394SOL    HW126081   0.624   1.787   2.722
 8394SOL    HW226082   0.653   1.810   2.881
 8395SOL     OW26083   0.971   6.184   5.544
 8395SOL    HW126084   0.967   6.139   5.454
 8395SOL    HW226085   0.921   6.130   5.611
 8396SOL     OW26086   4.192   2.759   1.242
 8396SOL    HW126087   4.215   2.674   1.288
 8396SOL    HW226088   4.169   2.741   1.146
 8397SOL     OW26089   2.254   4.832   3.696
 8397SOL    HW126090   2.193   4.874   3.764
 8397SOL    HW226091   2.344   4.818   3.738
 8398SOL     OW26092   5.737   0.972   0.064
 8398SOL    HW126093   5.753   0.947   0.159
 8398SOL    HW226094   5.710   1.068   0.058
 8399SOL     OW26095   5.635   6.056   0.143
 8399SOL    HW126096   5.722   6.012   0.124
 8399SOL    HW226097   5.560   5.992   0.126
 8400SOL     OW26098   6.383   0.150   4.576
 8400SOL    HW126099   6.454   0.140   4.646
 8400SOL    HW226100   6.404   0.090   4.499
 8401SOL     OW26101   2.815   4.306   6.031
 8401SOL    HW126102   2.828   4.380   5.964
 8401SOL    HW226103   2.848   4.336   6.120
 8402SOL     OW26104   4.663   1.371   6.254
 8402SOL    HW126105   4.722   1.294   6.277
 8402SOL    HW226106   4.697   1.416   6.171
 8403SOL     OW26107   1.216   2.027   4.685
 8403SOL    HW126108   1.296   1.995   4.635
 8403SOL    HW226109   1.236   2.117   4.725
 8404SOL     OW26110   4.512   4.985   5.172
 8404SOL    HW126111   4.576   4.987   5.249
 8404SOL    HW226112   4.549   4.926   5.100
 8405SOL     OW26113   1.253   2.510   4.990
 8405SOL    HW126114   1.276   2.456   4.909
 8405SOL    HW226115   1.328   2.573   5.010
 8406SOL     OW26116   4.995   3.920   1.075
 8406SOL    HW126117   5.035   3.828   1.071
 8406SOL    HW226118   5.067   3.988   1.064
 8407SOL     OW26119   4.904   3.313   2.417
 8407SOL    HW126120   4.867   3.279   2.330
 8407SOL    HW226121   4.964   3.243   2.457
 8408SOL     OW26122   4.929   3.209   4.063
 8408SOL    HW126123   4.912   3.251   3.974
 8408SOL    HW226124   4.906   3.273   4.135
 8409SOL     OW26125   0.377   1.811   4.111
 8409SOL    HW126126   0.309   1.882   4.093
 8409SOL    HW226127   0.458   1.826   4.054
 8410SOL     OW26128   2.614   6.524   2.654
 8410SOL    HW126129   2.583   6.440   2.699
 8410SOL    HW226130   2.706   6.511   2.619
 8411SOL     OW26131   1.949   2.921   3.189
 8411SOL    HW126132   1.928   2.989   3.259
 8411SOL    HW226133   2.022   2.861   3.222
 8412SOL     OW26134   6.010   3.253   2.154
 8412SOL    HW126135   5.997   3.159   2.121
 8412SOL    HW226136   5.995   3.256   2.253
 8413SOL     OW26137   2.704   4.502   1.464
 8413SOL    HW126138   2.708   4.501   1.564
 8413SOL    HW226139   2.615   4.468   1.434
 8414SOL     OW26140   5.412   6.682   2.581
 8414SOL    HW126141   5.473   6.760   2.592
 8414SOL    HW226142   5.464   6.597   2.586
 8415SOL     OW26143   6.694   3.854   1.669
 8415SOL    HW126144   6.600   3.866   1.701
 8415SOL    HW226145   6.722   3.759   1.685
 8416SOL     OW26146   5.041   4.168   2.228
 8416SOL    HW126147   5.053   4.131   2.320
 8416SOL    HW226148   4.949   4.146   2.195
 8417SOL     OW26149   2.347   5.605   6.277
 8417SOL    HW126150   2.358   5.606   6.178
 8417SOL    HW226151   2.436   5.612   6.321
 8418SOL     OW26152   5.971   5.457   2.536
 8418SOL    HW126153   5.890   5.513   2.516
 8418SOL    HW226154   6.024   5.444   2.452
 8419SOL     OW26155   4.312   0.162   3.764
 8419SOL    HW126156   4.336   0.251   3.804
 8419SOL    HW226157   4.283   0.100   3.837
 8420SOL     OW26158   3.513   2.011   5.686
 8420SOL    HW126159   3.440   2.064   5.728
 8420SOL    HW226160   3.564   2.069   5.623
 8421SOL     OW26161   1.424   6.414   1.433
 8421SOL    HW126162   1.484   6.493   1.421
 8421SOL    HW226163   1.357   6.412   1.359
 8422SOL     OW26164   3.965   6.498   1.527
 8422SOL    HW126165   3.872   6.490   1.490
 8422SOL    HW226166   3.978   6.429   1.599
 8423SOL     OW26167   1.867   3.775   1.250
 8423SOL    HW126168   1.865   3.858   1.307
 8423SOL    HW226169   1.777   3.762   1.208
 8424SOL     OW26170   3.225   2.138   2.389
 8424SOL    HW126171   3.185   2.188   2.466
 8424SOL    HW226172   3.175   2.161   2.305
 8425SOL     OW26173   6.200   4.820   0.050
 8425SOL    HW126174   6.231   4.850   0.140
 8425SOL    HW226175   6.241   4.878   6.997
 8426SOL     OW26176   3.964   3.731   2.322
 8426SOL    HW126177   3.996   3.741   2.416
 8426SOL    HW226178   3.878   3.679   2.321
 8427SOL     OW26179   2.339   2.930   6.202
 8427SOL    HW126180   2.370   2.856   6.261
 8427SOL    HW226181   2.378   3.017   6.235
 8428SOL     OW26182   6.122   4.737   1.765
 8428SOL    HW126183   6.111   4.694   1.676
 8428SOL    HW226184   6.052   4.703   1.828
 8429SOL     OW26185   2.337   0.366   2.746
 8429SOL    HW126186   2.367   0.434   2.679
 8429SOL    HW226187   2.348   0.403   2.838
 8430SOL     OW26188   5.329   4.062   3.370
 8430SOL    HW126189   5.404   4.046   3.306
 8430SOL    HW226190   5.242   4.060   3.319
 8431SOL     OW26191   2.858   3.814   1.704
 8431SOL    HW126192   2.780   3.873   1.726
 8431SOL    HW226193   2.933   3.832   1.768
 8432SOL     OW26194   4.504   6.549   0.543
 8432SOL    HW126195   4.410   6.575   0.523
 8432SOL    HW226196   4.531   6.586   0.632
 8433SOL     OW26197   1.439   1.670   4.676
 8433SOL    HW126198   1.419   1.752   4.624
 8433SOL    HW226199   1.384   1.594   4.642
 8434SOL     OW26200   5.577   6.086   6.415
 8434SOL    HW126201   5.588   6.063   6.319
 8434SOL    HW226202   5.657   6.138   6.446
 8435SOL     OW26203   5.011   2.779   1.362
 8435SOL    HW126204   4.978   2.843   1.293
 8435SOL    HW226205   5.106   2.799   1.384
 8436SOL     OW26206   3.341   4.249   1.508
 8436SOL    HW126207   3.420   4.189   1.513
 8436SOL    HW226208   3.268   4.214   1.567
 8437SOL     OW26209   0.031   2.219   1.312
 8437SOL    HW126210   0.034   2.211   1.213
 8437SOL    HW226211   6.957   2.191   1.345
 8438SOL     OW26212   2.248   6.442   1.092
 8438SOL    HW126213   2.184   6.510   1.056
 8438SOL    HW226214   2.297   6.399   1.016
 8439SOL     OW26215   6.135   6.852   2.208
 8439SOL    HW126216   6.051   6.799   2.213
 8439SOL    HW226217   6.120   6.941   2.251
 8440SOL     OW26218   0.298   2.183   3.510
 8440SOL    HW126219   0.339   2.273   3.497
 8440SOL    HW226220   0.235   2.164   3.434
 8441SOL     OW26221   4.447   5.174   1.434
 8441SOL    HW126222   4.373   5.176   1.368
 8441SOL    HW226223   4.415   5.133   1.520
 8442SOL     OW26224   1.692   3.642   0.353
 8442SOL    HW126225   1.669   3.737   0.374
 8442SOL    HW226226   1.695   3.629   0.254
 8443SOL     OW26227   0.779   1.869   2.330
 8443SOL    HW126228   0.693   1.817   2.336
 8443SOL    HW226229   0.854   1.813   2.365
 8444SOL     OW26230   4.272   0.556   2.579
 8444SOL    HW126231   4.219   0.626   2.627
 8444SOL    HW226232   4.209   0.491   2.536
 8445SOL     OW26233   3.985   5.552   2.100
 8445SOL    HW126234   4.020   5.646   2.092
 8445SOL    HW226235   4.061   5.490   2.119
 8446SOL     OW26236   6.641   4.816   3.813
 8446SOL    HW126237   6.706   4.890   3.823
 8446SOL    HW226238   6.589   4.828   3.728
 8447SOL     OW26239   4.668   3.194   1.253
 8447SOL    HW126240   4.642   3.236   1.340
 8447SOL    HW226241   4.595   3.209   1.186
 8448SOL     OW26242   1.279   2.298   6.213
 8448SOL    HW126243   1.375   2.324   6.206
 8448SOL    HW226244   1.226   2.348   6.144
 8449SOL     OW26245   1.244   1.501   5.099
 8449SOL    HW126246   1.280   1.486   5.191
 8449SOL    HW226247   1.316   1.539   5.041
 8450SOL     OW26248   2.249   5.502   2.072
 8450SOL    HW126249   2.176   5.480   2.007
 8450SOL    HW226250   2.331   5.451   2.047
 8451SOL     OW26251   4.398   3.286   0.635
 8451SOL    HW126252   4.377   3.202   0.586
 8451SOL    HW226253   4.314   3.337   0.652
 8452SOL     OW26254   6.991   5.758   0.758
 8452SOL    HW126255   6.899   5.740   0.723
 8452SOL    HW226256   0.007   5.677   0.807
 8453SOL     OW26257   0.317   4.938   5.177
 8453SOL    HW126258   0.354   4.990   5.254
 8453SOL    HW226259   0.240   4.883   5.209
 8454SOL     OW26260   1.793   6.538   5.111
 8454SOL    HW126261   1.701   6.516   5.080
 8454SOL    HW226262   1.794   6.628   5.154
 8455SOL     OW26263   6.242   2.753   0.853
 8455SOL    HW126264   6.161   2.812   0.848
 8455SOL    HW226265   6.302   2.785   0.927
 8456SOL     OW26266   5.832   5.761   3.296
 8456SOL    HW126267   5.838   5.721   3.204
 8456SOL    HW226268   5.795   5.853   3.290
 8457SOL     OW26269   6.413   6.045   6.488
 8457SOL    HW126270   6.449   6.138   6.494
 8457SOL    HW226271   6.320   6.042   6.526
 8458SOL     OW26272   1.377   1.957   1.259
 8458SOL    HW126273   1.409   1.863   1.276
 8458SOL    HW226274   1.433   2.021   1.312
 8459SOL     OW26275   2.934   5.664   2.222
 8459SOL    HW126276   3.018   5.612   2.206
 8459SOL    HW226277   2.879   5.667   2.138
 8460SOL     OW26278   4.040   0.832   0.477
 8460SOL    HW126279   4.078   0.924   0.486
 8460SOL    HW226280   3.951   0.828   0.521
 8461SOL     OW26281   5.156   4.285   2.607
 8461SOL    HW126282   5.071   4.336   2.595
 8461SOL    HW226283   5.155   4.204   2.549
 8462SOL     OW26284   2.498   4.111   0.548
 8462SOL    HW126285   2.477   4.038   0.482
 8462SOL    HW226286   2.422   4.176   0.551
 8463SOL     OW26287   6.266   0.715   6.964
 8463SOL    HW126288   6.263   0.737   6.866
 8463SOL    HW226289   6.320   0.785   7.012
 8464SOL     OW26290   6.877   3.985   6.143
 8464SOL    HW126291   6.794   4.041   6.142
 8464SOL    HW226292   6.905   3.969   6.238
 8465SOL     OW26293   4.980   3.105   0.960
 8465SOL    HW126294   4.951   3.191   1.002
 8465SOL    HW226295   5.078   3.092   0.974
 8466SOL     OW26296   6.620   1.363   5.859
 8466SOL    HW126297   6.680   1.289   5.827
 8466SOL    HW226298   6.525   1.331   5.860
 8467SOL     OW26299   3.782   1.164   0.322
 8467SOL    HW126300   3.836   1.146   0.240
 8467SOL    HW226301   3.793   1.260   0.349
 8468SOL     OW26302   5.651   3.193   6.934
 8468SOL    HW126303   5.653   3.271   6.996
 8468SOL    HW226304   5.745   3.162   6.917
 8469SOL     OW26305   4.350   3.561   5.813
 8469SOL    HW126306   4.292   3.633   5.775
 8469SOL    HW226307   4.396   3.594   5.895
 8470SOL     OW26308   1.353   5.269   1.491
 8470SOL    HW126309   1.355   5.171   1.513
 8470SOL    HW226310   1.353   5.321   1.576
 8471SOL     OW26311   3.555   1.682   4.123
 8471SOL    HW126312   3.630   1.734   4.082
 8471SOL    HW226313   3.541   1.713   4.217
 8472SOL     OW26314   6.450   1.680   6.126
 8472SOL    HW126315   6.392   1.601   6.106
 8472SOL    HW226316   6.410   1.761   6.084
 8473SOL     OW26317   5.002   4.212   0.189
 8473SOL    HW126318   4.923   4.168   0.232
 8473SOL    HW226319   5.005   4.190   0.092
 8474SOL     OW26320   3.966   3.855   3.812
 8474SOL    HW126321   3.925   3.891   3.728
 8474SOL    HW226322   3.907   3.874   3.890
 8475SOL     OW26323   6.672   2.599   2.752
 8475SOL    HW126324   6.682   2.561   2.844
 8475SOL    HW226325   6.617   2.683   2.757
 8476SOL     OW26326   6.171   1.121   1.379
 8476SOL    HW126327   6.189   1.111   1.477
 8476SOL    HW226328   6.096   1.061   1.352
 8477SOL     OW26329   5.637   6.729   1.864
 8477SOL    HW126330   5.680   6.817   1.884
 8477SOL    HW226331   5.595   6.693   1.947
 8478SOL     OW26332   0.095   0.314   5.604
 8478SOL    HW126333   0.001   0.282   5.603
 8478SOL    HW226334   0.124   0.331   5.699
 8479SOL     OW26335   1.033   2.756   0.567
 8479SOL    HW126336   1.121   2.803   0.570
 8479SOL    HW226337   1.041   2.667   0.611
 8480SOL     OW26338   4.095   3.729   0.192
 8480SOL    HW126339   4.019   3.670   0.221
 8480SOL    HW226340   4.164   3.673   0.145
 8481SOL     OW26341   4.574   2.275   3.213
 8481SOL    HW126342   4.507   2.258   3.140
 8481SOL    HW226343   4.591   2.373   3.220
 8482SOL     OW26344   4.822   0.714   0.639
 8482SOL    HW126345   4.802   0.629   0.688
 8482SOL    HW226346   4.895   0.763   0.685
 8483SOL     OW26347   3.753   5.012   2.933
 8483SOL    HW126348   3.716   4.968   2.851
 8483SOL    HW226349   3.761   5.111   2.916
 8484SOL     OW26350   4.784   5.865   5.121
 8484SOL    HW126351   4.692   5.866   5.159
 8484SOL    HW226352   4.847   5.827   5.189
 8485SOL     OW26353   3.627   1.904   0.171
 8485SOL    HW126354   3.610   1.806   0.164
 8485SOL    HW226355   3.541   1.952   0.188
 8486SOL     OW26356   6.527   2.460   3.453
 8486SOL    HW126357   6.592   2.427   3.521
 8486SOL    HW226358   6.460   2.388   3.433
 8487SOL     OW26359   6.773   1.772   6.480
 8487SOL    HW126360   6.848   1.820   6.527
 8487SOL    HW226361   6.688   1.787   6.530
 8488SOL     OW26362   4.552   5.445   1.947
 8488SOL    HW126363   4.602   5.519   1.902
 8488SOL    HW226364   4.552   5.459   2.046
 8489SOL     OW26365   6.096   2.110   1.663
 8489SOL    HW126366   6.058   2.048   1.594
 8489SOL    HW226367   6.022   2.157   1.710
 8490SOL     OW26368   3.264   0.385   6.535
 8490SOL    HW126369   3.195   0.324   6.497
 8490SOL    HW226370   3.263   0.471   6.485
 8491SOL     OW26371   3.132   5.821   1.798
 8491SOL    HW126372   3.146   5.913   1.833
 8491SOL    HW226373   3.072   5.771   1.862
 8492SOL     OW26374   6.275   6.388   4.509
 8492SOL    HW126375   6.278   6.488   4.506
 8492SOL    HW226376   6.180   6.357   4.495
 8493SOL     OW26377   5.116   1.317   6.522
 8493SOL    HW126378   5.066   1.383   6.578
 8493SOL    HW226379   5.064   1.232   6.517
 8494SOL     OW26380   6.707   4.380   2.566
 8494SOL    HW126381   6.761   4.438   2.506
 8494SOL    HW226382   6.764   4.303   2.598
 8495SOL     OW26383   6.325   5.153   5.934
 8495SOL    HW126384   6.334   5.252   5.946
 8495SOL    HW226385   6.401   5.120   5.878
 8496SOL     OW26386   5.134   2.927   2.052
 8496SOL    HW126387   5.116   2.960   2.145
 8496SOL    HW226388   5.210   2.979   2.013
 8497SOL     OW26389   6.694   0.733   3.425
 8497SOL    HW126390   6.630   0.747   3.350
 8497SOL    HW226391   6.675   0.799   3.498
 8498SOL     OW26392   5.015   0.234   3.953
 8498SOL    HW126393   5.052   0.151   3.911
 8498SOL    HW226394   4.929   0.258   3.908
 8499SOL     OW26395   5.694   6.759   5.207
 8499SOL    HW126396   5.635   6.694   5.255
 8499SOL    HW226397   5.689   6.742   5.109
 8500SOL     OW26398   1.193   0.915   6.235
 8500SOL    HW126399   1.224   1.010   6.230
 8500SOL    HW226400   1.220   0.867   6.151
 8501SOL     OW26401   1.933   1.218   6.586
 8501SOL    HW126402   1.843   1.178   6.569
 8501SOL    HW226403   1.950   1.223   6.684
 8502SOL     OW26404   0.407   3.946   6.417
 8502SOL    HW126405   0.402   4.044   6.394
 8502SOL    HW226406   0.328   3.899   6.377
 8503SOL     OW26407   4.861   1.433   4.917
 8503SOL    HW126408   4.921   1.359   4.947
 8503SOL    HW226409   4.787   1.444   4.983
 8504SOL     OW26410   1.330   0.166   2.037
 8504SOL    HW126411   1.363   0.121   2.121
 8504SOL    HW226412   1.238   0.201   2.053
 8505SOL     OW26413   5.390   3.179   2.362
 8505SOL    HW126414   5.484   3.201   2.338
 8505SOL    HW226415   5.327   3.229   2.302
 8506SOL     OW26416   1.951   0.983   6.224
 8506SOL    HW126417   1.899   1.022   6.148
 8506SOL    HW226418   1.998   0.901   6.193
 8507SOL     OW26419   3.126   6.120   5.277
 8507SOL    HW126420   3.176   6.132   5.363
 8507SOL    HW226421   3.066   6.198   5.262
 8508SOL     OW26422   2.992   1.257   0.139
 8508SOL    HW126423   3.052   1.313   0.082
 8508SOL    HW226424   3.023   1.260   0.234
 8509SOL     OW26425   5.741   2.339   3.135
 8509SOL    HW126426   5.714   2.433   3.112
 8509SOL    HW226427   5.766   2.290   3.052
 8510SOL     OW26428   0.115   2.268   4.772
 8510SOL    HW126429   0.202   2.250   4.725
 8510SOL    HW226430   0.083   2.184   4.816
 8511SOL     OW26431   5.431   2.062   2.842
 8511SOL    HW126432   5.433   2.038   2.745
 8511SOL    HW226433   5.521   2.046   2.883
 8512SOL     OW26434   2.199   6.696   5.904
 8512SOL    HW126435   2.211   6.706   5.805
 8512SOL    HW226436   2.154   6.609   5.923
 8513SOL     OW26437   4.812   6.115   6.980
 8513SOL    HW126438   4.771   6.179   6.915
 8513SOL    HW226439   4.905   6.144   7.001
 8514SOL     OW26440   3.065   6.096   3.819
 8514SOL    HW126441   3.054   6.195   3.828
 8514SOL    HW226442   2.975   6.052   3.825
 8515SOL     OW26443   5.660   2.093   0.838
 8515SOL    HW126444   5.650   2.166   0.769
 8515SOL    HW226445   5.728   2.027   0.806
 8516SOL     OW26446   6.943   1.835   2.453
 8516SOL    HW126447   6.914   1.803   2.363
 8516SOL    HW226448   6.965   1.933   2.448
 8517SOL     OW26449   1.412   3.673   0.340
 8517SOL    HW126450   1.352   3.607   0.295
 8517SOL    HW226451   1.504   3.635   0.347
 8518SOL     OW26452   3.069   6.242   0.507
 8518SOL    HW126453   3.104   6.228   0.415
 8518SOL    HW226454   3.020   6.330   0.511
 8519SOL     OW26455   2.142   5.763   3.058
 8519SOL    HW126456   2.189   5.676   3.044
 8519SOL    HW226457   2.132   5.781   3.156
 8520SOL     OW26458   3.528   0.332   6.615
 8520SOL    HW126459   3.428   0.332   6.620
 8520SOL    HW226460   3.557   0.382   6.534
 8521SOL     OW26461   1.430   0.357   0.790
 8521SOL    HW126462   1.465   0.451   0.795
 8521SOL    HW226463   1.485   0.299   0.850
 8522SOL     OW26464   2.211   6.056   4.486
 8522SOL    HW126465   2.214   6.021   4.580
 8522SOL    HW226466   2.259   6.143   4.481
 8523SOL     OW26467   1.502   6.610   0.074
 8523SOL    HW126468   1.439   6.652   0.010
 8523SOL    HW226469   1.505   6.662   0.159
 8524SOL     OW26470   1.702   1.824   6.520
 8524SOL    HW126471   1.661   1.786   6.437
 8524SOL    HW226472   1.629   1.844   6.586
 8525SOL     OW26473   4.904   3.199   3.008
 8525SOL    HW126474   4.991   3.151   3.006
 8525SOL    HW226475   4.840   3.150   3.068
 8526SOL     OW26476   1.685   3.226   2.775
 8526SOL    HW126477   1.780   3.200   2.755
 8526SOL    HW226478   1.663   3.309   2.725
 8527SOL     OW26479   3.928   0.648   3.819
 8527SOL    HW126480   3.918   0.726   3.880
 8527SOL    HW226481   3.852   0.584   3.834
 8528SOL     OW26482   4.938   2.491   0.095
 8528SOL    HW126483   4.955   2.589   0.079
 8528SOL    HW226484   4.905   2.478   0.189
 8529SOL     OW26485   0.146   5.421   6.426
 8529SOL    HW126486   0.103   5.346   6.478
 8529SOL    HW226487   0.161   5.392   6.332
 8530SOL     OW26488   1.326   4.061   5.930
 8530SOL    HW126489   1.345   4.032   5.837
 8530SOL    HW226490   1.259   4.000   5.971
 8531SOL     OW26491   3.907   4.884   2.337
 8531SOL    HW126492   3.820   4.927   2.311
 8531SOL    HW226493   3.911   4.792   2.299
 8532SOL     OW26494   1.429   4.030   6.761
 8532SOL    HW126495   1.517   4.016   6.715
 8532SOL    HW226496   1.404   4.126   6.755
 8533SOL     OW26497   3.926   0.119   5.803
 8533SOL    HW126498   3.863   0.045   5.780
 8533SOL    HW226499   3.920   0.140   5.901
 8534SOL     OW26500   1.245   2.563   2.492
 8534SOL    HW126501   1.281   2.641   2.542
 8534SOL    HW226502   1.174   2.593   2.429
 8535SOL     OW26503   6.797   3.226   5.250
 8535SOL    HW126504   6.738   3.148   5.271
 8535SOL    HW226505   6.890   3.206   5.281
 8536SOL     OW26506   0.033   1.364   4.302
 8536SOL    HW126507   0.115   1.420   4.296
 8536SOL    HW226508   0.059   1.270   4.324
 8537SOL     OW26509   5.386   6.497   2.997
 8537SOL    HW126510   5.391   6.573   2.934
 8537SOL    HW226511   5.466   6.439   2.987
 8538SOL     OW26512   5.850   0.755   5.353
 8538SOL    HW126513   5.916   0.751   5.278
 8538SOL    HW226514   5.804   0.844   5.353
 8539SOL     OW26515   6.959   2.958   3.355
 8539SOL    HW126516   0.001   2.955   3.437
 8539SOL    HW226517   6.910   3.045   3.353
 8540SOL     OW26518   3.980   6.983   6.571
 8540SOL    HW126519   4.074   6.976   6.538
 8540SOL    HW226520   3.929   0.029   6.512
 8541SOL     OW26521   3.283   6.172   5.068
 8541SOL    HW126522   3.327   6.253   5.109
 8541SOL    HW226523   3.232   6.123   5.138
 8542SOL     OW26524   1.103   5.528   5.998
 8542SOL    HW126525   1.021   5.544   5.942
 8542SOL    HW226526   1.179   5.580   5.960
 8543SOL     OW26527   2.618   2.670   5.732
 8543SOL    HW126528   2.718   2.660   5.733
 8543SOL    HW226529   2.592   2.750   5.787
 8544SOL     OW26530   5.194   4.956   5.074
 8544SOL    HW126531   5.231   4.881   5.128
 8544SOL    HW226532   5.119   5.000   5.123
 8545SOL     OW26533   1.959   6.821   6.667
 8545SOL    HW126534   1.880   6.760   6.673
 8545SOL    HW226535   1.929   6.913   6.641
 8546SOL     OW26536   4.450   1.076   3.087
 8546SOL    HW126537   4.516   1.151   3.095
 8546SOL    HW226538   4.421   1.047   3.178
 8547SOL     OW26539   5.570   6.133   5.738
 8547SOL    HW126540   5.581   6.201   5.665
 8547SOL    HW226541   5.624   6.160   5.817
 8548SOL     OW26542   0.894   3.624   4.598
 8548SOL    HW126543   0.855   3.623   4.506
 8548SOL    HW226544   0.865   3.707   4.645
 8549SOL     OW26545   1.164   0.328   4.157
 8549SOL    HW126546   1.194   0.243   4.113
 8549SOL    HW226547   1.121   0.388   4.090
 8550SOL     OW26548   6.818   5.354   5.868
 8550SOL    HW126549   6.841   5.268   5.823
 8550SOL    HW226550   6.852   5.354   5.962
 8551SOL     OW26551   2.901   0.119   5.432
 8551SOL    HW126552   2.904   0.209   5.476
 8551SOL    HW226553   2.838   0.123   5.354
 8552SOL     OW26554   2.770   1.381   1.825
 8552SOL    HW126555   2.731   1.335   1.745
 8552SOL    HW226556   2.843   1.443   1.796
 8553SOL     OW26557   4.995   3.918   0.384
 8553SOL    HW126558   5.054   3.843   0.354
 8553SOL    HW226559   4.930   3.885   0.452
 8554SOL     OW26560   1.923   0.637   0.270
 8554SOL    HW126561   1.859   0.704   0.233
 8554SOL    HW226562   1.890   0.544   0.250
 8555SOL     OW26563   4.352   1.896   3.852
 8555SOL    HW126564   4.255   1.876   3.865
 8555SOL    HW226565   4.397   1.816   3.811
 8556SOL     OW26566   0.693   5.503   5.912
 8556SOL    HW126567   0.727   5.410   5.900
 8556SOL    HW226568   0.760   5.568   5.876
 8557SOL     OW26569   6.832   0.579   6.509
 8557SOL    HW126570   6.889   0.567   6.427
 8557SOL    HW226571   6.786   0.492   6.530
 8558SOL     OW26572   2.767   5.777   4.226
 8558SOL    HW126573   2.848   5.781   4.284
 8558SOL    HW226574   2.723   5.866   4.225
 8559SOL     OW26575   1.831   4.393   2.848
 8559SOL    HW126576   1.764   4.319   2.842
 8559SOL    HW226577   1.855   4.409   2.944
 8560SOL     OW26578   2.943   4.323   0.731
 8560SOL    HW126579   2.885   4.291   0.656
 8560SOL    HW226580   2.888   4.336   0.813
 8561SOL     OW26581   3.609   0.476   3.053
 8561SOL    HW126582   3.534   0.529   3.013
 8561SOL    HW226583   3.608   0.384   3.015
 8562SOL     OW26584   5.440   2.318   0.215
 8562SOL    HW126585   5.413   2.354   0.126
 8562SOL    HW226586   5.498   2.385   0.261
 8563SOL     OW26587   3.013   5.088   2.307
 8563SOL    HW126588   2.983   4.993   2.301
 8563SOL    HW226589   3.111   5.093   2.287
 8564SOL     OW26590   4.245   6.613   0.465
 8564SOL    HW126591   4.235   6.710   0.485
 8564SOL    HW226592   4.156   6.568   0.470
 8565SOL     OW26593   1.597   4.552   1.596
 8565SOL    HW126594   1.601   4.617   1.672
 8565SOL    HW226595   1.543   4.473   1.624
 8566SOL     OW26596   3.347   1.104   2.446
 8566SOL    HW126597   3.371   1.021   2.396
 8566SOL    HW226598   3.336   1.180   2.381
 8567SOL     OW26599   1.373   2.394   2.332
 8567SOL    HW126600   1.466   2.379   2.363
 8567SOL    HW226601   1.325   2.454   2.397
 8568SOL     OW26602   6.410   0.506   6.221
 8568SOL    HW126603   6.493   0.560   6.206
 8568SOL    HW226604   6.331   0.557   6.188
 8569SOL     OW26605   4.757   2.200   0.176
 8569SOL    HW126606   4.712   2.248   0.101
 8569SOL    HW226607   4.759   2.259   0.257
 8570SOL     OW26608   2.457   2.098   1.857
 8570SOL    HW126609   2.496   2.080   1.767
 8570SOL    HW226610   2.512   2.167   1.904
 8571SOL     OW26611   1.637   0.870   2.851
 8571SOL    HW126612   1.671   0.781   2.882
 8571SOL    HW226613   1.575   0.858   2.774
 8572SOL     OW26614   2.569   3.855   5.928
 8572SOL    HW126615   2.602   3.935   5.978
 8572SOL    HW226616   2.624   3.775   5.953
 8573SOL     OW26617   2.863   6.110   6.773
 8573SOL    HW126618   2.794   6.040   6.791
 8573SOL    HW226619   2.936   6.072   6.716
 8574SOL     OW26620   5.109   0.638   5.313
 8574SOL    HW126621   5.172   0.565   5.286
 8574SOL    HW226622   5.058   0.670   5.233
 8575SOL     OW26623   3.586   6.068   3.715
 8575SOL    HW126624   3.656   6.121   3.764
 8575SOL    HW226625   3.506   6.058   3.773
 8576SOL     OW26626   1.638   4.631   4.374
 8576SOL    HW126627   1.664   4.555   4.433
 8576SOL    HW226628   1.663   4.717   4.417
 8577SOL     OW26629   2.142   1.472   0.831
 8577SOL    HW126630   2.069   1.516   0.884
 8577SOL    HW226631   2.122   1.481   0.734
 8578SOL     OW26632   0.881   0.196   0.243
 8578SOL    HW126633   0.819   0.180   0.167
 8578SOL    HW226634   0.849   0.274   0.297
 8579SOL     OW26635   2.553   6.950   2.682
 8579SOL    HW126636   2.515   6.937   2.590
 8579SOL    HW226637   2.628   0.000   2.677
 8580SOL     OW26638   1.785   0.166   2.070
 8580SOL    HW126639   1.862   0.115   2.032
 8580SOL    HW226640   1.724   0.195   1.996
 8581SOL     OW26641   3.314   4.792   1.048
 8581SOL    HW126642   3.314   4.760   1.143
 8581SOL    HW226643   3.256   4.873   1.041
 8582SOL     OW26644   3.804   5.249   5.518
 8582SOL    HW126645   3.839   5.238   5.425
 8582SOL    HW226646   3.814   5.344   5.547
 8583SOL     OW26647   3.735   6.727   2.795
 8583SOL    HW126648   3.714   6.706   2.700
 8583SOL    HW226649   3.652   6.718   2.850
 8584SOL     OW26650   6.539   1.291   4.659
 8584SOL    HW126651   6.519   1.209   4.606
 8584SOL    HW226652   6.518   1.275   4.756
 8585SOL     OW26653   5.767   2.817   2.684
 8585SOL    HW126654   5.748   2.851   2.776
 8585SOL    HW226655   5.701   2.856   2.620
 8586SOL     OW26656   6.871   6.293   6.636
 8586SOL    HW126657   6.899   6.255   6.724
 8586SOL    HW226658   6.811   6.228   6.589
 8587SOL     OW26659   0.075   2.170   0.087
 8587SOL    HW126660   0.027   2.085   0.109
 8587SOL    HW226661   0.121   2.204   0.169
 8588SOL     OW26662   2.773   0.597   5.519
 8588SOL    HW126663   2.842   0.526   5.536
 8588SOL    HW226664   2.715   0.570   5.443
 8589SOL     OW26665   5.701   2.848   0.023
 8589SOL    HW126666   5.765   2.840   6.963
 8589SOL    HW226667   5.751   2.838   0.109
 8590SOL     OW26668   0.418   0.742   4.164
 8590SOL    HW126669   0.439   0.808   4.091
 8590SOL    HW226670   0.334   0.692   4.141
 8591SOL     OW26671   6.615   4.522   6.406
 8591SOL    HW126672   6.553   4.600   6.395
 8591SOL    HW226673   6.614   4.492   6.501
 8592SOL     OW26674   0.337   1.735   4.398
 8592SOL    HW126675   0.385   1.712   4.314
 8592SOL    HW226676   0.274   1.812   4.381
 8593SOL     OW26677   5.777   1.361   6.845
 8593SOL    HW126678   5.733   1.323   6.926
 8593SOL    HW226679   5.715   1.356   6.767
 8594SOL     OW26680   6.180   3.540   6.618
 8594SOL    HW126681   6.220   3.448   6.625
 8594SOL    HW226682   6.182   3.584   6.707
 8595SOL     OW26683   6.084   6.515   3.258
 8595SOL    HW126684   6.154   6.504   3.329
 8595SOL    HW226685   5.993   6.514   3.300
 8596SOL     OW26686   0.507   1.286   4.066
 8596SOL    HW126687   0.436   1.340   4.112
 8596SOL    HW226688   0.530   1.207   4.123
 8597SOL     OW26689   6.190   2.848   5.935
 8597SOL    HW126690   6.136   2.786   5.993
 8597SOL    HW226691   6.226   2.798   5.857
 8598SOL     OW26692   6.277   0.311   4.987
 8598SOL    HW126693   6.311   0.327   4.894
 8598SOL    HW226694   6.182   0.343   4.993
 8599SOL     OW26695   6.646   3.673   4.267
 8599SOL    HW126696   6.720   3.740   4.254
 8599SOL    HW226697   6.685   3.582   4.281
 8600SOL     OW26698   4.867   2.698   0.738
 8600SOL    HW126699   4.895   2.793   0.727
 8600SOL    HW226700   4.771   2.695   0.765
 8601SOL     OW26701   6.602   6.114   3.489
 8601SOL    HW126702   6.625   6.058   3.568
 8601SOL    HW226703   6.516   6.081   3.450
 8602SOL     OW26704   2.008   6.657   6.217
 8602SOL    HW126705   2.000   6.632   6.120
 8602SOL    HW226706   1.973   6.582   6.273
 8603SOL     OW26707   1.108   0.423   6.975
 8603SOL    HW126708   1.059   0.506   6.948
 8603SOL    HW226709   1.051   0.343   6.956
 8604SOL     OW26710   1.268   4.620   6.101
 8604SOL    HW126711   1.248   4.653   6.009
 8604SOL    HW226712   1.228   4.529   6.113
 8605SOL     OW26713   0.388   4.449   4.388
 8605SOL    HW126714   0.416   4.449   4.484
 8605SOL    HW226715   0.348   4.361   4.365
 8606SOL     OW26716   1.635   2.274   0.576
 8606SOL    HW126717   1.538   2.286   0.555
 8606SOL    HW226718   1.667   2.187   0.539
 8607SOL     OW26719   1.832   3.946   1.664
 8607SOL    HW126720   1.886   3.864   1.680
 8607SOL    HW226721   1.805   3.985   1.751
 8608SOL     OW26722   1.637   6.215   2.874
 8608SOL    HW126723   1.565   6.199   2.942
 8608SOL    HW226724   1.682   6.302   2.893
 8609SOL     OW26725   3.936   1.484   4.585
 8609SOL    HW126726   3.975   1.518   4.499
 8609SOL    HW226727   3.865   1.548   4.616
 8610SOL     OW26728   6.953   5.771   3.064
 8610SOL    HW126729   6.973   5.800   2.971
 8610SOL    HW226730   0.014   5.792   3.124
 8611SOL     OW26731   2.673   1.207   4.996
 8611SOL    HW126732   2.758   1.252   4.967
 8611SOL    HW226733   2.668   1.115   4.956
 8612SOL     OW26734   3.144   3.138   4.085
 8612SOL    HW126735   3.204   3.069   4.126
 8612SOL    HW226736   3.078   3.093   4.025
 8613SOL     OW26737   4.009   3.198   2.715
 8613SOL    HW126738   3.965   3.173   2.629
 8613SOL    HW226739   4.089   3.255   2.696
 8614SOL     OW26740   1.061   2.364   3.328
 8614SOL    HW126741   1.128   2.395   3.395
 8614SOL    HW226742   1.107   2.314   3.255
 8615SOL     OW26743   3.496   1.793   4.859
 8615SOL    HW126744   3.589   1.756   4.850
 8615SOL    HW226745   3.498   1.893   4.849
 8616SOL     OW26746   5.614   4.558   3.853
 8616SOL    HW126747   5.612   4.543   3.754
 8616SOL    HW226748   5.692   4.618   3.875
 8617SOL     OW26749   2.154   0.484   3.567
 8617SOL    HW126750   2.113   0.452   3.482
 8617SOL    HW226751   2.133   0.582   3.579
 8618SOL     OW26752   5.462   4.040   1.376
 8618SOL    HW126753   5.504   4.090   1.299
 8618SOL    HW226754   5.534   4.005   1.436
 8619SOL     OW26755   5.074   5.510   0.381
 8619SOL    HW126756   5.024   5.475   0.461
 8619SOL    HW226757   5.167   5.534   0.409
 8620SOL     OW26758   2.153   0.145   4.077
 8620SOL    HW126759   2.058   0.160   4.105
 8620SOL    HW226760   2.192   0.068   4.128
 8621SOL     OW26761   5.439   3.735   1.488
 8621SOL    HW126762   5.397   3.741   1.398
 8621SOL    HW226763   5.401   3.805   1.549
 8622SOL     OW26764   0.029   5.240   2.339
 8622SOL    HW126765   0.104   5.296   2.374
 8622SOL    HW226766   7.010   5.183   2.413
 8623SOL     OW26767   1.174   3.186   3.591
 8623SOL    HW126768   1.190   3.281   3.616
 8623SOL    HW226769   1.087   3.155   3.629
 8624SOL     OW26770   3.514   3.639   4.852
 8624SOL    HW126771   3.470   3.720   4.814
 8624SOL    HW226772   3.479   3.623   4.945
 8625SOL     OW26773   3.491   2.822   5.087
 8625SOL    HW126774   3.533   2.765   5.017
 8625SOL    HW226775   3.457   2.763   5.161
 8626SOL     OW26776   3.936   2.588   1.247
 8626SOL    HW126777   4.022   2.635   1.267
 8626SOL    HW226778   3.883   2.577   1.331
 8627SOL     OW26779   1.853   1.248   2.495
 8627SOL    HW126780   1.934   1.305   2.482
 8627SOL    HW226781   1.776   1.289   2.446
 8628SOL     OW26782   0.829   6.478   0.563
 8628SOL    HW126783   0.738   6.473   0.605
 8628SOL    HW226784   0.821   6.459   0.465
 8629SOL     OW26785   0.394   6.560   4.927
 8629SOL    HW126786   0.303   6.600   4.916
 8629SOL    HW226787   0.418   6.510   4.844
 8630SOL     OW26788   4.765   2.766   2.069
 8630SOL    HW126789   4.790   2.753   2.165
 8630SOL    HW226790   4.751   2.864   2.052
 8631SOL     OW26791   2.490   5.916   6.557
 8631SOL    HW126792   2.574   5.885   6.513
 8631SOL    HW226793   2.512   5.986   6.625
 8632SOL     OW26794   5.513   5.357   4.545
 8632SOL    HW126795   5.447   5.343   4.470
 8632SOL    HW226796   5.527   5.455   4.559
 8633SOL     OW26797   5.888   4.034   5.430
 8633SOL    HW126798   5.805   3.991   5.467
 8633SOL    HW226799   5.900   4.124   5.470
 8634SOL     OW26800   4.981   3.588   0.092
 8634SOL    HW126801   5.007   3.492   0.083
 8634SOL    HW226802   5.030   3.628   0.170
 8635SOL     OW26803   6.072   2.589   6.780
 8635SOL    HW126804   6.048   2.521   6.710
 8635SOL    HW226805   6.022   2.673   6.763
 8636SOL     OW26806   4.700   6.698   1.753
 8636SOL    HW126807   4.614   6.689   1.702
 8636SOL    HW226808   4.748   6.780   1.723
 8637SOL     OW26809   2.083   1.750   5.992
 8637SOL    HW126810   2.055   1.695   6.070
 8637SOL    HW226811   2.007   1.810   5.965
 8638SOL     OW26812   4.701   2.809   3.336
 8638SOL    HW126813   4.615   2.758   3.342
 8638SOL    HW226814   4.744   2.792   3.248
 8639SOL     OW26815   3.853   3.599   6.924
 8639SOL    HW126816   3.841   3.691   6.961
 8639SOL    HW226817   3.908   3.603   6.841
 8640SOL     OW26818   3.450   2.949   0.730
 8640SOL    HW126819   3.444   2.893   0.813
 8640SOL    HW226820   3.359   2.980   0.704
 8641SOL     OW26821   4.190   4.932   2.443
 8641SOL    HW126822   4.122   4.979   2.387
 8641SOL    HW226823   4.215   4.846   2.400
 8642SOL     OW26824   1.072   5.669   2.942
 8642SOL    HW126825   0.998   5.736   2.944
 8642SOL    HW226826   1.159   5.716   2.929
 8643SOL     OW26827   4.004   6.802   1.090
 8643SOL    HW126828   4.085   6.843   1.132
 8643SOL    HW226829   3.981   6.852   1.006
 8644SOL     OW26830   6.053   2.242   6.255
 8644SOL    HW126831   6.088   2.185   6.330
 8644SOL    HW226832   5.955   2.254   6.266
 8645SOL     OW26833   5.756   5.259   2.949
 8645SOL    HW126834   5.708   5.339   2.914
 8645SOL    HW226835   5.849   5.286   2.975
 8646SOL     OW26836   6.322   2.240   4.720
 8646SOL    HW126837   6.405   2.246   4.664
 8646SOL    HW226838   6.281   2.330   4.729
 8647SOL     OW26839   1.970   5.784   2.054
 8647SOL    HW126840   1.979   5.743   1.963
 8647SOL    HW226841   2.039   5.855   2.065
 8648SOL     OW26842   5.130   4.641   0.442
 8648SOL    HW126843   5.099   4.575   0.373
 8648SOL    HW226844   5.215   4.610   0.482
 8649SOL     OW26845   5.751   1.143   1.380
 8649SOL    HW126846   5.823   1.168   1.315
 8649SOL    HW226847   5.783   1.158   1.473
 8650SOL     OW26848   2.162   6.496   5.320
 8650SOL    HW126849   2.184   6.592   5.340
 8650SOL    HW226850   2.196   6.439   5.395
 8651SOL     OW26851   4.035   2.696   1.708
 8651SOL    HW126852   3.972   2.633   1.662
 8651SOL    HW226853   4.125   2.653   1.717
 8652SOL     OW26854   0.984   3.027   3.337
 8652SOL    HW126855   1.080   3.024   3.310
 8652SOL    HW226856   0.976   3.075   3.425
 8653SOL     OW26857   6.585   1.911   6.884
 8653SOL    HW126858   6.578   1.897   6.785
 8653SOL    HW226859   6.519   1.851   6.930
 8654SOL     OW26860   0.370   4.536   2.528
 8654SOL    HW126861   0.439   4.605   2.550
 8654SOL    HW226862   0.287   4.582   2.496
 8655SOL     OW26863   0.385   0.288   4.616
 8655SOL    HW126864   0.367   0.333   4.703
 8655SOL    HW226865   0.315   0.218   4.600
 8656SOL     OW26866   4.899   6.771   1.214
 8656SOL    HW126867   4.834   6.697   1.199
 8656SOL    HW226868   4.850   6.854   1.238
 8657SOL     OW26869   3.668   1.771   3.480
 8657SOL    HW126870   3.673   1.871   3.478
 8657SOL    HW226871   3.633   1.742   3.568
 8658SOL     OW26872   5.551   4.488   1.055
 8658SOL    HW126873   5.473   4.504   1.115
 8658SOL    HW226874   5.617   4.563   1.064
 8659SOL     OW26875   3.043   0.867   2.593
 8659SOL    HW126876   3.099   0.949   2.600
 8659SOL    HW226877   3.014   0.854   2.498
 8660SOL     OW26878   0.672   4.792   1.825
 8660SOL    HW126879   0.733   4.723   1.864
 8660SOL    HW226880   0.679   4.790   1.725
 8661SOL     OW26881   0.183   3.782   2.568
 8661SOL    HW126882   0.206   3.851   2.499
 8661SOL    HW226883   0.096   3.739   2.544
 8662SOL     OW26884   2.052   3.286   3.675
 8662SOL    HW126885   1.955   3.299   3.658
 8662SOL    HW226886   2.100   3.268   3.589
 8663SOL     OW26887   3.791   5.610   2.627
 8663SOL    HW126888   3.841   5.537   2.582
 8663SOL    HW226889   3.824   5.620   2.721
 8664SOL     OW26890   4.337   5.926   3.337
 8664SOL    HW126891   4.368   5.899   3.246
 8664SOL    HW226892   4.415   5.926   3.400
 8665SOL     OW26893   5.459   3.736   6.426
 8665SOL    HW126894   5.508   3.778   6.350
 8665SOL    HW226895   5.467   3.795   6.507
 8666SOL     OW26896   4.425   6.745   2.692
 8666SOL    HW126897   4.472   6.776   2.775
 8666SOL    HW226898   4.491   6.704   2.629
 8667SOL     OW26899   4.848   2.059   2.826
 8667SOL    HW126900   4.834   1.969   2.869
 8667SOL    HW226901   4.934   2.098   2.858
 8668SOL     OW26902   4.864   2.421   5.140
 8668SOL    HW126903   4.790   2.387   5.081
 8668SOL    HW226904   4.840   2.512   5.174
 8669SOL     OW26905   6.593   6.323   6.131
 8669SOL    HW126906   6.512   6.272   6.103
 8669SOL    HW226907   6.572   6.421   6.132
 8670SOL     OW26908   6.609   4.577   6.003
 8670SOL    HW126909   6.606   4.515   6.081
 8670SOL    HW226910   6.618   4.524   5.919
 8671SOL     OW26911   0.707   3.398   2.816
 8671SOL    HW126912   0.796   3.379   2.858
 8671SOL    HW226913   0.679   3.320   2.761
 8672SOL     OW26914   6.964   1.081   2.264
 8672SOL    HW126915   0.034   1.128   2.247
 8672SOL    HW226916   6.923   1.055   2.177
 8673SOL     OW26917   1.213   2.187   1.411
 8673SOL    HW126918   1.191   2.100   1.455
 8673SOL    HW226919   1.272   2.241   1.471
 8674SOL     OW26920   0.035   3.946   3.425
 8674SOL    HW126921   0.122   3.936   3.473
 8674SOL    HW226922   0.005   4.041   3.431
 8675SOL     OW26923   3.994   2.167   4.959
 8675SOL    HW126924   4.050   2.103   4.905
 8675SOL    HW226925   4.054   2.236   5.000
 8676SOL     OW26926   5.095   1.690   0.764
 8676SOL    HW126927   5.042   1.605   0.772
 8676SOL    HW226928   5.040   1.759   0.718
 8677SOL     OW26929   2.306   6.758   5.659
 8677SOL    HW126930   2.319   6.857   5.670
 8677SOL    HW226931   2.254   6.740   5.576
 8678SOL     OW26932   1.766   2.097   0.421
 8678SOL    HW126933   1.757   2.161   0.344
 8678SOL    HW226934   1.861   2.066   0.428
 8679SOL     OW26935   1.414   2.047   6.192
 8679SOL    HW126936   1.348   2.113   6.227
 8679SOL    HW226937   1.456   2.083   6.109
 8680SOL     OW26938   6.819   0.730   0.032
 8680SOL    HW126939   6.837   0.679   0.117
 8680SOL    HW226940   6.738   0.694   7.005
 8681SOL     OW26941   5.352   5.921   1.240
 8681SOL    HW126942   5.423   5.853   1.223
 8681SOL    HW226943   5.374   5.972   1.324
 8682SOL     OW26944   2.292   0.791   2.204
 8682SOL    HW126945   2.197   0.811   2.225
 8682SOL    HW226946   2.317   0.702   2.242
 8683SOL     OW26947   2.379   4.886   4.833
 8683SOL    HW126948   2.354   4.981   4.851
 8683SOL    HW226949   2.479   4.876   4.833
 8684SOL     OW26950   2.463   4.563   4.475
 8684SOL    HW126951   2.404   4.508   4.416
 8684SOL    HW226952   2.556   4.527   4.471
 8685SOL     OW26953   4.868   2.479   4.817
 8685SOL    HW126954   4.892   2.476   4.914
 8685SOL    HW226955   4.769   2.491   4.808
 8686SOL     OW26956   1.002   5.146   3.373
 8686SOL    HW126957   1.004   5.046   3.364
 8686SOL    HW226958   1.035   5.187   3.288
 8687SOL     OW26959   5.589   4.182   5.164
 8687SOL    HW126960   5.622   4.210   5.074
 8687SOL    HW226961   5.656   4.208   5.233
 8688SOL     OW26962   1.580   3.649   5.022
 8688SOL    HW126963   1.520   3.599   5.085
 8688SOL    HW226964   1.593   3.596   4.939
 8689SOL     OW26965   4.218   3.115   0.060
 8689SOL    HW126966   4.130   3.089   0.019
 8689SOL    HW226967   4.225   3.214   0.065
 8690SOL     OW26968   1.400   2.184   2.499
 8690SOL    HW126969   1.418   2.269   2.449
 8690SOL    HW226970   1.368   2.114   2.436
 8691SOL     OW26971   3.648   2.603   5.360
 8691SOL    HW126972   3.560   2.624   5.319
 8691SOL    HW226973   3.713   2.676   5.341
 8692SOL     OW26974   4.443   2.013   4.763
 8692SOL    HW126975   4.441   2.047   4.857
 8692SOL    HW226976   4.429   2.089   4.700
 8693SOL     OW26977   6.965   6.896   6.115
 8693SOL    HW126978   6.895   6.898   6.044
 8693SOL    HW226979   0.023   6.836   6.086
 8694SOL     OW26980   5.176   2.795   5.426
 8694SOL    HW126981   5.171   2.884   5.381
 8694SOL    HW226982   5.168   2.722   5.358
 8695SOL     OW26983   3.585   4.562   0.560
 8695SOL    HW126984   3.521   4.556   0.483
 8695SOL    HW226985   3.648   4.638   0.545
 8696SOL     OW26986   2.916   5.413   5.710
 8696SOL    HW126987   2.888   5.347   5.641
 8696SOL    HW226988   2.964   5.366   5.784
 8697SOL     OW26989   1.671   3.906   5.429
 8697SOL    HW126990   1.688   3.862   5.341
 8697SOL    HW226991   1.753   3.897   5.487
 8698SOL     OW26992   4.425   5.169   6.173
 8698SOL    HW126993   4.370   5.085   6.175
 8698SOL    HW226994   4.448   5.195   6.267
 8699SOL     OW26995   1.845   2.440   6.853
 8699SOL    HW126996   1.755   2.482   6.848
 8699SOL    HW226997   1.907   2.499   6.903
 8700SOL     OW26998   1.081   0.992   4.188
 8700SOL    HW126999   1.052   0.992   4.092
 8700SOL    HW227000   1.133   0.909   4.208
 8701SOL     OW27001   1.481   2.711   6.720
 8701SOL    HW127002   1.509   2.632   6.775
 8701SOL    HW227003   1.414   2.682   6.652
 8702SOL     OW27004   5.528   4.790   1.126
 8702SOL    HW127005   5.550   4.811   1.031
 8702SOL    HW227006   5.429   4.782   1.137
 8703SOL     OW27007   2.812   5.808   0.836
 8703SOL    HW127008   2.724   5.821   0.790
 8703SOL    HW227009   2.878   5.771   0.771
 8704SOL     OW27010   0.228   0.879   4.828
 8704SOL    HW127011   0.289   0.890   4.907
 8704SOL    HW227012   0.279   0.840   4.751
 8705SOL     OW27013   3.962   2.256   6.934
 8705SOL    HW127014   3.945   2.162   6.904
 8705SOL    HW227015   4.060   2.275   6.933
 8706SOL     OW27016   4.833   2.818   6.230
 8706SOL    HW127017   4.847   2.823   6.329
 8706SOL    HW227018   4.758   2.879   6.204
 8707SOL     OW27019   2.639   1.434   4.225
 8707SOL    HW127020   2.641   1.399   4.319
 8707SOL    HW227021   2.582   1.516   4.221
 8708SOL     OW27022   5.814   2.639   0.979
 8708SOL    HW127023   5.828   2.600   1.070
 8708SOL    HW227024   5.745   2.587   0.931
 8709SOL     OW27025   5.949   6.612   4.883
 8709SOL    HW127026   6.024   6.620   4.949
 8709SOL    HW227027   5.872   6.668   4.915
 8710SOL     OW27028   1.954   1.790   3.476
 8710SOL    HW127029   2.007   1.813   3.558
 8710SOL    HW227030   2.016   1.765   3.402
 8711SOL     OW27031   1.281   1.562   1.614
 8711SOL    HW127032   1.207   1.495   1.610
 8711SOL    HW227033   1.339   1.552   1.534
 8712SOL     OW27034   1.346   4.204   5.349
 8712SOL    HW127035   1.281   4.175   5.279
 8712SOL    HW227036   1.339   4.145   5.429
 8713SOL     OW27037   0.180   3.599   1.134
 8713SOL    HW127038   0.105   3.549   1.090
 8713SOL    HW227039   0.254   3.536   1.155
 8714SOL     OW27040   6.952   4.998   6.773
 8714SOL    HW127041   6.968   4.900   6.759
 8714SOL    HW227042   6.859   5.012   6.807
 8715SOL     OW27043   1.988   3.737   1.799
 8715SOL    HW127044   2.014   3.641   1.791
 8715SOL    HW227045   2.069   3.795   1.793
 8716SOL     OW27046   6.605   0.290   2.435
 8716SOL    HW127047   6.518   0.318   2.394
 8716SOL    HW227048   6.671   0.273   2.363
 8717SOL     OW27049   2.964   2.761   6.656
 8717SOL    HW127050   2.895   2.828   6.629
 8717SOL    HW227051   3.051   2.808   6.673
 8718SOL     OW27052   2.851   5.035   6.361
 8718SOL    HW127053   2.766   5.007   6.315
 8718SOL    HW227054   2.925   5.039   6.294
 8719SOL     OW27055   3.337   0.781   4.385
 8719SOL    HW127056   3.262   0.724   4.351
 8719SOL    HW227057   3.308   0.877   4.388
 8720SOL     OW27058   0.095   5.236   5.022
 8720SOL    HW127059   0.056   5.302   5.087
 8720SOL    HW227060   0.060   5.145   5.042
 8721SOL     OW27061   0.866   6.924   0.041
 8721SOL    HW127062   0.795   6.856   0.021
 8721SOL    HW227063   0.905   6.906   0.131
 8722SOL     OW27064   3.234   1.026   0.834
 8722SOL    HW127065   3.178   1.049   0.755
 8722SOL    HW227066   3.255   1.110   0.885
 8723SOL     OW27067   3.425   6.928   2.462
 8723SOL    HW127068   3.382   6.839   2.477
 8723SOL    HW227069   3.385   6.973   2.383
 8724SOL     OW27070   3.657   1.317   4.546
 8724SOL    HW127071   3.750   1.334   4.512
 8724SOL    HW227072   3.609   1.257   4.482
 8725SOL     OW27073   6.829   6.931   3.523
 8725SOL    HW127074   6.760   6.959   3.590
 8725SOL    HW227075   6.903   6.999   3.521
 8726SOL     OW27076   6.635   1.256   1.056
 8726SOL    HW127077   6.694   1.213   1.125
 8726SOL    HW227078   6.680   1.339   1.022
 8727SOL     OW27079   5.055   6.382   6.619
 8727SOL    HW127080   5.083   6.292   6.652
 8727SOL    HW227081   5.091   6.396   6.527
 8728SOL     OW27082   6.549   0.115   4.771
 8728SOL    HW127083   6.543   0.123   4.871
 8728SOL    HW227084   6.644   0.126   4.743
 8729SOL     OW27085   5.626   5.723   6.324
 8729SOL    HW127086   5.565   5.739   6.401
 8729SOL    HW227087   5.669   5.809   6.296
 8730SOL     OW27088   4.872   5.406   1.140
 8730SOL    HW127089   4.921   5.405   1.053
 8730SOL    HW227090   4.936   5.428   1.214
 8731SOL     OW27091   6.537   1.438   3.670
 8731SOL    HW127092   6.473   1.478   3.736
 8731SOL    HW227093   6.617   1.404   3.718
 8732SOL     OW27094   5.773   6.655   6.642
 8732SOL    HW127095   5.718   6.721   6.694
 8732SOL    HW227096   5.869   6.662   6.669
 8733SOL     OW27097   6.544   4.418   2.250
 8733SOL    HW127098   6.588   4.368   2.176
 8733SOL    HW227099   6.563   4.372   2.337
 8734SOL     OW27100   1.055   4.070   1.021
 8734SOL    HW127101   1.075   4.147   0.961
 8734SOL    HW227102   1.055   4.101   1.116
 8735SOL     OW27103   0.595   2.788   4.783
 8735SOL    HW127104   0.534   2.866   4.770
 8735SOL    HW227105   0.653   2.804   4.863
 8736SOL     OW27106   1.138   5.915   3.333
 8736SOL    HW127107   1.226   5.956   3.312
 8736SOL    HW227108   1.142   5.817   3.314
 8737SOL     OW27109   1.261   5.903   0.345
 8737SOL    HW127110   1.166   5.880   0.329
 8737SOL    HW227111   1.269   5.950   0.433
 8738SOL     OW27112   1.126   2.728   2.805
 8738SOL    HW127113   1.079   2.807   2.766
 8738SOL    HW227114   1.111   2.724   2.903
 8739SOL     OW27115   5.721   5.080   4.932
 8739SOL    HW127116   5.716   5.009   5.002
 8739SOL    HW227117   5.785   5.053   4.860
 8740SOL     OW27118   2.955   1.279   4.284
 8740SOL    HW127119   2.967   1.272   4.185
 8740SOL    HW227120   2.870   1.327   4.305
 8741SOL     OW27121   0.831   1.655   3.015
 8741SOL    HW127122   0.753   1.657   2.953
 8741SOL    HW227123   0.908   1.702   2.973
 8742SOL     OW27124   2.887   1.993   1.907
 8742SOL    HW127125   2.907   2.066   1.841
 8742SOL    HW227126   2.789   1.987   1.922
 8743SOL     OW27127   1.056   2.922   1.270
 8743SOL    HW127128   1.155   2.925   1.258
 8743SOL    HW227129   1.026   2.827   1.275
 8744SOL     OW27130   3.289   3.937   5.734
 8744SOL    HW127131   3.291   3.977   5.826
 8744SOL    HW227132   3.263   3.841   5.740
 8745SOL     OW27133   5.781   1.886   5.876
 8745SOL    HW127134   5.754   1.815   5.941
 8745SOL    HW227135   5.825   1.961   5.925
 8746SOL     OW27136   4.105   4.632   5.445
 8746SOL    HW127137   4.107   4.567   5.521
 8746SOL    HW227138   4.021   4.686   5.449
 8747SOL     OW27139   0.943   0.482   2.825
 8747SOL    HW127140   0.906   0.574   2.840
 8747SOL    HW227141   0.904   0.419   2.891
 8748SOL     OW27142   5.461   1.798   4.703
 8748SOL    HW127143   5.510   1.813   4.789
 8748SOL    HW227144   5.364   1.785   4.722
 8749SOL     OW27145   2.682   1.300   3.783
 8749SOL    HW127146   2.653   1.264   3.872
 8749SOL    HW227147   2.632   1.385   3.763
 8750SOL     OW27148   3.554   4.120   0.987
 8750SOL    HW127149   3.594   4.168   0.909
 8750SOL    HW227150   3.455   4.112   0.974
 8751SOL     OW27151   3.156   6.623   0.357
 8751SOL    HW127152   3.187   6.696   0.297
 8751SOL    HW227153   3.233   6.565   0.383
 8752SOL     OW27154   6.665   2.573   5.541
 8752SOL    HW127155   6.756   2.611   5.557
 8752SOL    HW227156   6.618   2.628   5.472
 8753SOL     OW27157   2.972   2.608   0.730
 8753SOL    HW127158   2.985   2.516   0.693
 8753SOL    HW227159   2.892   2.650   0.688
 8754SOL     OW27160   1.307   5.474   6.711
 8754SOL    HW127161   1.341   5.515   6.796
 8754SOL    HW227162   1.372   5.491   6.637
 8755SOL     OW27163   0.577   2.713   2.261
 8755SOL    HW127164   0.590   2.802   2.217
 8755SOL    HW227165   0.481   2.705   2.290
 8756SOL     OW27166   1.516   1.724   1.970
 8756SOL    HW127167   1.497   1.742   2.066
 8756SOL    HW227168   1.498   1.807   1.917
 8757SOL     OW27169   5.460   5.893   5.696
 8757SOL    HW127170   5.513   5.977   5.685
 8757SOL    HW227171   5.369   5.915   5.729
 8758SOL     OW27172   3.428   5.832   5.320
 8758SOL    HW127173   3.352   5.767   5.318
 8758SOL    HW227174   3.411   5.901   5.391
 8759SOL     OW27175   6.023   1.159   0.784
 8759SOL    HW127176   5.981   1.109   0.859
 8759SOL    HW227177   6.069   1.240   0.819
 8760SOL     OW27178   2.687   2.360   4.282
 8760SOL    HW127179   2.742   2.389   4.361
 8760SOL    HW227180   2.695   2.261   4.271
 8761SOL     OW27181   5.197   1.858   2.778
 8761SOL    HW127182   5.102   1.835   2.759
 8761SOL    HW227183   5.251   1.774   2.787
 8762SOL     OW27184   3.237   5.501   3.163
 8762SOL    HW127185   3.154   5.491   3.217
 8762SOL    HW227186   3.260   5.414   3.119
 8763SOL     OW27187   0.333   1.027   6.523
 8763SOL    HW127188   0.395   1.105   6.531
 8763SOL    HW227189   0.382   0.944   6.549
 8764SOL     OW27190   3.319   4.819   5.628
 8764SOL    HW127191   3.256   4.801   5.703
 8764SOL    HW227192   3.302   4.911   5.591
 8765SOL     OW27193   3.939   0.168   3.753
 8765SOL    HW127194   3.947   0.227   3.833
 8765SOL    HW227195   4.009   0.097   3.756
 8766SOL     OW27196   5.254   6.630   5.774
 8766SOL    HW127197   5.322   6.566   5.811
 8766SOL    HW227198   5.193   6.659   5.848
 8767SOL     OW27199   1.769   1.340   3.484
 8767SOL    HW127200   1.765   1.277   3.406
 8767SOL    HW227201   1.681   1.340   3.531
 8768SOL     OW27202   6.990   1.967   6.805
 8768SOL    HW127203   6.969   2.059   6.839
 8768SOL    HW227204   6.958   1.899   6.871
 8769SOL     OW27205   6.149   0.223   6.902
 8769SOL    HW127206   6.124   0.311   6.862
 8769SOL    HW227207   6.183   0.237   6.995
 8770SOL     OW27208   5.139   2.474   0.445
 8770SOL    HW127209   5.054   2.453   0.495
 8770SOL    HW227210   5.214   2.421   0.485
 8771SOL     OW27211   0.405   2.461   6.846
 8771SOL    HW127212   0.334   2.391   6.833
 8771SOL    HW227213   0.495   2.420   6.831
 8772SOL     OW27214   0.086   0.099   4.776
 8772SOL    HW127215   0.044   0.181   4.814
 8772SOL    HW227216   0.139   0.052   4.847
 8773SOL     OW27217   0.075   0.287   4.243
 8773SOL    HW127218   0.069   0.343   4.326
 8773SOL    HW227219   0.163   0.239   4.242
 8774SOL     OW27220   1.076   1.825   0.264
 8774SOL    HW127221   1.173   1.808   0.250
 8774SOL    HW227222   1.037   1.868   0.183
 8775SOL     OW27223   5.519   2.591   3.841
 8775SOL    HW127224   5.521   2.666   3.775
 8775SOL    HW227225   5.556   2.508   3.798
 8776SOL     OW27226   4.398   2.697   0.255
 8776SOL    HW127227   4.462   2.710   0.331
 8776SOL    HW227228   4.341   2.779   0.246
 8777SOL     OW27229   6.773   2.095   3.071
 8777SOL    HW127230   6.710   2.077   2.996
 8777SOL    HW227231   6.780   2.014   3.129
 8778SOL     OW27232   3.361   4.274   0.251
 8778SOL    HW127233   3.451   4.293   0.290
 8778SOL    HW227234   3.371   4.248   0.155
 8779SOL     OW27235   4.383   4.830   2.875
 8779SOL    HW127236   4.308   4.801   2.815
 8779SOL    HW227237   4.357   4.913   2.923
 8780SOL     OW27238   0.403   4.607   3.798
 8780SOL    HW127239   0.435   4.599   3.893
 8780SOL    HW227240   0.468   4.563   3.737
 8781SOL     OW27241   2.547   1.170   1.118
 8781SOL    HW127242   2.642   1.182   1.090
 8781SOL    HW227243   2.527   1.232   1.193
 8782SOL     OW27244   5.795   2.293   0.659
 8782SOL    HW127245   5.737   2.278   0.579
 8782SOL    HW227246   5.746   2.351   0.725
 8783SOL     OW27247   5.293   3.925   4.802
 8783SOL    HW127248   5.318   4.003   4.744
 8783SOL    HW227249   5.293   3.841   4.748
 8784SOL     OW27250   5.097   0.397   0.851
 8784SOL    HW127251   5.065   0.397   0.756
 8784SOL    HW227252   5.027   0.437   0.910
 8785SOL     OW27253   6.856   5.597   4.923
 8785SOL    HW127254   6.847   5.522   4.987
 8785SOL    HW227255   6.865   5.683   4.973
 8786SOL     OW27256   5.110   1.503   2.341
 8786SOL    HW127257   5.115   1.602   2.356
 8786SOL    HW227258   5.093   1.457   2.428
 8787SOL     OW27259   3.553   5.491   1.030
 8787SOL    HW127260   3.511   5.413   1.078
 8787SOL    HW227261   3.546   5.477   0.932
 8788SOL     OW27262   0.559   6.572   4.013
 8788SOL    HW127263   0.584   6.495   3.954
 8788SOL    HW227264   0.537   6.538   4.104
 8789SOL     OW27265   0.834   1.966   5.979
 8789SOL    HW127266   0.811   2.027   5.903
 8789SOL    HW227267   0.916   1.999   6.025
 8790SOL     OW27268   3.919   3.007   5.460
 8790SOL    HW127269   3.954   3.058   5.538
 8790SOL    HW227270   3.856   3.065   5.408
 8791SOL     OW27271   3.528   6.216   4.360
 8791SOL    HW127272   3.559   6.122   4.353
 8791SOL    HW227273   3.472   6.227   4.442
 8792SOL     OW27274   5.174   4.660   1.897
 8792SOL    HW127275   5.177   4.574   1.948
 8792SOL    HW227276   5.143   4.642   1.804
 8793SOL     OW27277   6.891   6.666   4.974
 8793SOL    HW127278   6.797   6.657   5.007
 8793SOL    HW227279   6.938   6.579   4.983
 8794SOL     OW27280   6.404   1.083   2.514
 8794SOL    HW127281   6.465   1.005   2.527
 8794SOL    HW227282   6.453   1.156   2.467
 8795SOL     OW27283   1.371   6.818   6.935
 8795SOL    HW127284   1.277   6.843   6.912
 8795SOL    HW227285   1.402   6.872   7.013
 8796SOL     OW27286   6.064   3.764   5.045
 8796SOL    HW127287   6.030   3.846   5.090
 8796SOL    HW227288   5.991   3.723   4.991
 8797SOL     OW27289   4.571   6.621   4.133
 8797SOL    HW127290   4.598   6.594   4.041
 8797SOL    HW227291   4.473   6.639   4.135
 8798SOL     OW27292   3.016   6.500   5.646
 8798SOL    HW127293   2.950   6.448   5.591
 8798SOL    HW227294   2.998   6.484   5.743
 8799SOL     OW27295   1.424   5.720   1.780
 8799SOL    HW127296   1.332   5.748   1.806
 8799SOL    HW227297   1.470   5.794   1.731
 8800SOL     OW27298   6.047   6.243   5.054
 8800SOL    HW127299   6.022   6.248   4.957
 8800SOL    HW227300   6.039   6.334   5.095
 8801SOL     OW27301   5.634   3.637   5.544
 8801SOL    HW127302   5.540   3.663   5.566
 8801SOL    HW227303   5.656   3.551   5.590
 8802SOL     OW27304   1.403   5.614   6.249
 8802SOL    HW127305   1.305   5.635   6.251
 8802SOL    HW227306   1.452   5.692   6.212
 8803SOL     OW27307   6.357   6.212   6.105
 8803SOL    HW127308   6.319   6.289   6.155
 8803SOL    HW227309   6.343   6.128   6.157
 8804SOL     OW27310   1.574   6.190   2.145
 8804SOL    HW127311   1.533   6.149   2.227
 8804SOL    HW227312   1.673   6.185   2.152
 8805SOL     OW27313   5.662   4.720   3.369
 8805SOL    HW127314   5.615   4.682   3.289
 8805SOL    HW227315   5.617   4.804   3.398
 8806SOL     OW27316   1.681   6.978   1.288
 8806SOL    HW127317   1.608   6.929   1.239
 8806SOL    HW227318   1.769   6.953   1.248
 8807SOL     OW27319   5.677   3.152   0.978
 8807SOL    HW127320   5.740   3.196   0.913
 8807SOL    HW227321   5.628   3.222   1.030
 8808SOL     OW27322   1.684   2.156   6.411
 8808SOL    HW127323   1.766   2.155   6.468
 8808SOL    HW227324   1.617   2.218   6.450
 8809SOL     OW27325   6.853   3.549   3.286
 8809SOL    HW127326   6.900   3.550   3.374
 8809SOL    HW227327   6.907   3.601   3.219
 8810SOL     OW27328   0.989   1.160   4.858
 8810SOL    HW127329   0.911   1.212   4.895
 8810SOL    HW227330   0.956   1.071   4.826
 8811SOL     OW27331   4.359   4.607   2.627
 8811SOL    HW127332   4.407   4.526   2.595
 8811SOL    HW227333   4.414   4.688   2.609
 8812SOL     OW27334   5.197   0.877   6.347
 8812SOL    HW127335   5.223   0.902   6.253
 8812SOL    HW227336   5.274   0.894   6.409
 8813SOL     OW27337   2.094   3.452   3.341
 8813SOL    HW127338   2.011   3.436   3.395
 8813SOL    HW227339   2.075   3.436   3.245
 8814SOL     OW27340   4.953   6.990   5.307
 8814SOL    HW127341   4.933   6.928   5.231
 8814SOL    HW227342   4.869   0.018   5.337
 8815SOL     OW27343   5.502   1.152   1.268
 8815SOL    HW127344   5.481   1.237   1.221
 8815SOL    HW227345   5.580   1.166   1.330
 8816SOL     OW27346   0.934   5.868   4.790
 8816SOL    HW127347   0.987   5.893   4.871
 8816SOL    HW227348   0.847   5.917   4.791
 8817SOL     OW27349   1.400   3.080   3.491
 8817SOL    HW127350   1.312   3.118   3.519
 8817SOL    HW227351   1.451   3.147   3.437
 8818SOL     OW27352   0.969   0.047   5.898
 8818SOL    HW127353   1.049   0.103   5.915
 8818SOL    HW227354   0.893   0.078   5.955
 8819SOL     OW27355   4.617   4.806   6.357
 8819SOL    HW127356   4.667   4.886   6.325
 8819SOL    HW227357   4.533   4.835   6.403
 8820SOL     OW27358   4.006   6.670   5.531
 8820SOL    HW127359   4.036   6.652   5.625
 8820SOL    HW227360   3.993   6.584   5.483
 8821SOL     OW27361   0.406   4.768   6.332
 8821SOL    HW127362   0.357   4.681   6.326
 8821SOL    HW227363   0.430   4.785   6.428
 8822SOL     OW27364   6.397   0.435   4.499
 8822SOL    HW127365   6.388   0.525   4.541
 8822SOL    HW227366   6.380   0.364   4.567
 8823SOL     OW27367   3.518   1.576   3.052
 8823SOL    HW127368   3.527   1.581   3.151
 8823SOL    HW227369   3.516   1.668   3.013
 8824SOL     OW27370   1.214   0.035   2.814
 8824SOL    HW127371   1.210   0.030   2.914
 8824SOL    HW227372   1.234   0.129   2.786
 8825SOL     OW27373   0.338   0.157   0.434
 8825SOL    HW127374   0.325   0.082   0.498
 8825SOL    HW227375   0.363   0.121   0.344
 8826SOL     OW27376   0.902   4.367   0.988
 8826SOL    HW127377   0.941   4.419   0.912
 8826SOL    HW227378   0.831   4.306   0.954
 8827SOL     OW27379   4.653   0.015   2.940
 8827SOL    HW127380   4.684   0.084   3.006
 8827SOL    HW227381   4.638   0.058   2.852
 8828SOL     OW27382   5.281   2.459   6.702
 8828SOL    HW127383   5.326   2.506   6.625
 8828SOL    HW227384   5.206   2.516   6.735
 8829SOL     OW27385   6.820   0.897   2.420
 8829SOL    HW127386   6.908   0.924   2.379
 8829SOL    HW227387   6.835   0.868   2.515
 8830SOL     OW27388   3.386   0.292   3.288
 8830SOL    HW127389   3.344   0.317   3.201
 8830SOL    HW227390   3.470   0.344   3.301
 8831SOL     OW27391   0.259   2.981   2.006
 8831SOL    HW127392   0.177   2.965   1.950
 8831SOL    HW227393   0.325   3.035   1.954
 8832SOL     OW27394   5.578   6.886   5.620
 8832SOL    HW127395   5.494   6.885   5.565
 8832SOL    HW227396   5.657   6.899   5.560
 8833SOL     OW27397   5.113   2.108   1.451
 8833SOL    HW127398   5.213   2.100   1.456
 8833SOL    HW227399   5.085   2.199   1.483
 8834SOL     OW27400   5.781   3.680   5.789
 8834SOL    HW127401   5.788   3.622   5.708
 8834SOL    HW227402   5.685   3.706   5.804
 8835SOL     OW27403   6.880   0.682   5.588
 8835SOL    HW127404   6.782   0.699   5.577
 8835SOL    HW227405   6.894   0.630   5.672
 8836SOL     OW27406   4.657   1.134   1.305
 8836SOL    HW127407   4.673   1.220   1.258
 8836SOL    HW227408   4.742   1.080   1.307
 8837SOL     OW27409   3.896   6.739   0.656
 8837SOL    HW127410   3.912   6.807   0.584
 8837SOL    HW227411   3.801   6.744   0.686
 8838SOL     OW27412   1.727   3.652   3.842
 8838SOL    HW127413   1.643   3.689   3.881
 8838SOL    HW227414   1.787   3.622   3.916
 8839SOL     OW27415   4.996   6.251   2.134
 8839SOL    HW127416   5.021   6.257   2.037
 8839SOL    HW227417   4.945   6.333   2.160
 8840SOL     OW27418   6.526   0.916   0.877
 8840SOL    HW127419   6.481   0.849   0.818
 8840SOL    HW227420   6.625   0.910   0.866
 8841SOL     OW27421   3.755   0.947   0.509
 8841SOL    HW127422   3.735   1.032   0.460
 8841SOL    HW227423   3.720   0.870   0.457
 8842SOL     OW27424   3.483   3.836   4.396
 8842SOL    HW127425   3.419   3.763   4.371
 8842SOL    HW227426   3.571   3.795   4.420
 8843SOL     OW27427   2.631   5.954   6.205
 8843SOL    HW127428   2.572   6.035   6.197
 8843SOL    HW227429   2.726   5.983   6.215
 8844SOL     OW27430   3.334   2.610   6.299
 8844SOL    HW127431   3.427   2.612   6.261
 8844SOL    HW227432   3.339   2.605   6.398
 8845SOL     OW27433   0.190   3.654   2.235
 8845SOL    HW127434   0.228   3.594   2.305
 8845SOL    HW227435   0.096   3.629   2.216
 8846SOL     OW27436   5.571   4.242   4.579
 8846SOL    HW127437   5.614   4.152   4.576
 8846SOL    HW227438   5.597   4.294   4.498
 8847SOL     OW27439   1.365   2.201   3.387
 8847SOL    HW127440   1.407   2.271   3.329
 8847SOL    HW227441   1.437   2.148   3.431
 8848SOL     OW27442   5.807   0.912   0.329
 8848SOL    HW127443   5.904   0.939   0.330
 8848SOL    HW227444   5.798   0.816   0.356
 8849SOL     OW27445   3.141   4.939   4.309
 8849SOL    HW127446   3.228   4.926   4.358
 8849SOL    HW227447   3.066   4.946   4.375
 8850SOL     OW27448   3.242   1.322   1.525
 8850SOL    HW127449   3.283   1.289   1.440
 8850SOL    HW227450   3.301   1.393   1.565
 8851SOL     OW27451   6.396   4.891   2.370
 8851SOL    HW127452   6.330   4.938   2.312
 8851SOL    HW227453   6.486   4.894   2.328
 8852SOL     OW27454   4.459   2.409   4.762
 8852SOL    HW127455   4.523   2.332   4.759
 8852SOL    HW227456   4.415   2.419   4.673
 8853SOL     OW27457   4.336   1.625   5.560
 8853SOL    HW127458   4.318   1.680   5.641
 8853SOL    HW227459   4.317   1.679   5.477
 8854SOL     OW27460   1.168   1.496   0.076
 8854SOL    HW127461   1.218   1.410   0.070
 8854SOL    HW227462   1.196   1.556   0.001
 8855SOL     OW27463   6.354   4.884   0.277
 8855SOL    HW127464   6.427   4.944   0.245
 8855SOL    HW227465   6.390   4.791   0.289
 8856SOL     OW27466   5.428   1.219   5.180
 8856SOL    HW127467   5.497   1.183   5.243
 8856SOL    HW227468   5.457   1.310   5.148
 8857SOL     OW27469   6.988   2.497   4.781
 8857SOL    HW127470   6.900   2.486   4.826
 8857SOL    HW227471   0.019   2.409   4.779
 8858SOL     OW27472   6.737   4.097   5.873
 8858SOL    HW127473   6.790   4.173   5.911
 8858SOL    HW227474   6.789   4.012   5.883
 8859SOL     OW27475   2.932   5.381   5.367
 8859SOL    HW127476   2.864   5.343   5.430
 8859SOL    HW227477   2.904   5.362   5.273
 8860SOL     OW27478   1.458   2.335   1.888
 8860SOL    HW127479   1.364   2.330   1.857
 8860SOL    HW227480   1.472   2.270   1.963
 8861SOL     OW27481   2.453   2.939   0.920
 8861SOL    HW127482   2.439   2.956   1.018
 8861SOL    HW227483   2.469   2.842   0.905
 8862SOL     OW27484   6.126   2.041   4.742
 8862SOL    HW127485   6.106   2.032   4.839
 8862SOL    HW227486   6.184   2.121   4.726
 8863SOL     OW27487   1.119   5.765   5.082
 8863SOL    HW127488   1.145   5.688   5.140
 8863SOL    HW227489   1.202   5.814   5.053
 8864SOL     OW27490   1.595   3.248   5.599
 8864SOL    HW127491   1.594   3.347   5.614
 8864SOL    HW227492   1.626   3.230   5.505
 8865SOL     OW27493   2.492   2.136   5.613
 8865SOL    HW127494   2.490   2.209   5.545
 8865SOL    HW227495   2.404   2.087   5.612
 8866SOL     OW27496   4.300   6.569   5.409
 8866SOL    HW127497   4.281   6.617   5.495
 8866SOL    HW227498   4.326   6.475   5.428
 8867SOL     OW27499   6.467   2.153   3.639
 8867SOL    HW127500   6.439   2.104   3.556
 8867SOL    HW227501   6.428   2.108   3.719
 8868SOL     OW27502   4.974   3.499   1.227
 8868SOL    HW127503   5.043   3.531   1.161
 8868SOL    HW227504   4.904   3.447   1.179
 8869SOL     OW27505   4.829   3.101   3.329
 8869SOL    HW127506   4.895   3.027   3.332
 8869SOL    HW227507   4.736   3.064   3.339
 8870SOL     OW27508   4.051   1.257   1.213
 8870SOL    HW127509   4.029   1.200   1.293
 8870SOL    HW227510   4.120   1.212   1.158
 8871SOL     OW27511   1.299   2.556   4.490
 8871SOL    HW127512   1.221   2.598   4.536
 8871SOL    HW227513   1.351   2.626   4.440
 8872SOL     OW27514   2.255   3.009   3.104
 8872SOL    HW127515   2.207   3.084   3.058
 8872SOL    HW227516   2.188   2.939   3.130
 8873SOL     OW27517   0.036   6.281   4.786
 8873SOL    HW127518   0.038   6.190   4.745
 8873SOL    HW227519   0.049   6.350   4.715
 8874SOL     OW27520   1.351   1.819   0.290
 8874SOL    HW127521   1.404   1.863   0.362
 8874SOL    HW227522   1.404   1.745   0.250
 8875SOL     OW27523   1.664   1.441   4.046
 8875SOL    HW127524   1.662   1.342   4.035
 8875SOL    HW227525   1.705   1.465   4.134
 8876SOL     OW27526   2.338   0.545   4.284
 8876SOL    HW127527   2.241   0.522   4.296
 8876SOL    HW227528   2.379   0.487   4.214
 8877SOL     OW27529   3.002   5.885   4.392
 8877SOL    HW127530   3.074   5.922   4.451
 8877SOL    HW227531   3.017   5.915   4.298
 8878SOL     OW27532   6.013   4.573   5.888
 8878SOL    HW127533   5.995   4.550   5.983
 8878SOL    HW227534   5.957   4.515   5.828
 8879SOL     OW27535   4.219   5.660   4.973
 8879SOL    HW127536   4.158   5.674   4.895
 8879SOL    HW227537   4.311   5.690   4.949
 8880SOL     OW27538   0.220   5.862   5.755
 8880SOL    HW127539   0.214   5.808   5.671
 8880SOL    HW227540   0.269   5.948   5.736
 8881SOL     OW27541   6.912   0.699   2.055
 8881SOL    HW127542   6.993   0.654   2.093
 8881SOL    HW227543   6.877   0.645   1.978
 8882SOL     OW27544   6.035   1.650   6.240
 8882SOL    HW127545   5.986   1.574   6.198
 8882SOL    HW227546   5.978   1.692   6.310
 8883SOL     OW27547   6.883   1.171   5.518
 8883SOL    HW127548   6.823   1.124   5.583
 8883SOL    HW227549   6.872   1.270   5.528
 8884SOL     OW27550   6.609   0.634   5.670
 8884SOL    HW127551   6.615   0.589   5.759
 8884SOL    HW227552   6.582   0.568   5.600
 8885SOL     OW27553   5.265   3.540   1.604
 8885SOL    HW127554   5.296   3.629   1.572
 8885SOL    HW227555   5.206   3.499   1.534
 8886SOL     OW27556   2.843   6.422   6.548
 8886SOL    HW127557   2.819   6.419   6.451
 8886SOL    HW227558   2.942   6.432   6.557
 8887SOL     OW27559   1.935   0.347   1.339
 8887SOL    HW127560   1.861   0.280   1.354
 8887SOL    HW227561   1.900   0.424   1.287
 8888SOL     OW27562   3.667   1.152   3.684
 8888SOL    HW127563   3.585   1.109   3.645
 8888SOL    HW227564   3.660   1.251   3.673
 8889SOL     OW27565   3.432   6.508   4.926
 8889SOL    HW127566   3.460   6.435   4.863
 8889SOL    HW227567   3.354   6.478   4.980
 8890SOL     OW27568   1.162   4.546   4.029
 8890SOL    HW127569   1.176   4.602   4.111
 8890SOL    HW227570   1.190   4.598   3.948
 8891SOL     OW27571   2.627   1.942   6.836
 8891SOL    HW127572   2.582   1.853   6.826
 8891SOL    HW227573   2.573   2.012   6.790
 8892SOL     OW27574   1.113   6.837   2.360
 8892SOL    HW127575   1.205   6.807   2.386
 8892SOL    HW227576   1.121   6.911   2.293
 8893SOL     OW27577   0.843   1.265   1.760
 8893SOL    HW127578   0.927   1.309   1.728
 8893SOL    HW227579   0.853   1.166   1.754
 8894SOL     OW27580   3.847   3.316   6.649
 8894SOL    HW127581   3.927   3.301   6.708
 8894SOL    HW227582   3.764   3.296   6.701
 8895SOL     OW27583   0.642   0.529   2.288
 8895SOL    HW127584   0.663   0.433   2.307
 8895SOL    HW227585   0.545   0.537   2.264
 8896SOL     OW27586   1.912   4.304   4.846
 8896SOL    HW127587   1.981   4.322   4.916
 8896SOL    HW227588   1.936   4.220   4.797
 8897SOL     OW27589   1.255   1.955   1.592
 8897SOL    HW127590   1.235   1.867   1.635
 8897SOL    HW227591   1.353   1.975   1.600
 8898SOL     OW27592   6.632   2.686   4.708
 8898SOL    HW127593   6.629   2.642   4.618
 8898SOL    HW227594   6.658   2.620   4.778
 8899SOL     OW27595   2.597   4.384   0.354
 8899SOL    HW127596   2.566   4.320   0.425
 8899SOL    HW227597   2.694   4.404   0.367
 8900SOL     OW27598   6.172   1.699   3.351
 8900SOL    HW127599   6.115   1.623   3.322
 8900SOL    HW227600   6.206   1.749   3.272
 8901SOL     OW27601   2.187   6.877   2.239
 8901SOL    HW127602   2.204   6.874   2.338
 8901SOL    HW227603   2.106   6.823   2.217
 8902SOL     OW27604   2.583   5.241   5.766
 8902SOL    HW127605   2.507   5.183   5.796
 8902SOL    HW227606   2.548   5.331   5.742
 8903SOL     OW27607   0.724   1.661   3.879
 8903SOL    HW127608   0.749   1.611   3.962
 8903SOL    HW227609   0.624   1.671   3.875
 8904SOL     OW27610   1.281   5.084   3.494
 8904SOL    HW127611   1.240   5.164   3.452
 8904SOL    HW227612   1.363   5.111   3.545
 8905SOL     OW27613   2.575   4.224   5.304
 8905SOL    HW127614   2.591   4.128   5.280
 8905SOL    HW227615   2.564   4.232   5.403
 8906SOL     OW27616   1.161   4.706   4.599
 8906SOL    HW127617   1.064   4.687   4.616
 8906SOL    HW227618   1.195   4.642   4.530
 8907SOL     OW27619   3.868   2.989   5.842
 8907SOL    HW127620   3.888   2.921   5.772
 8907SOL    HW227621   3.769   3.003   5.847
 8908SOL     OW27622   0.029   3.368   1.519
 8908SOL    HW127623   0.102   3.429   1.486
 8908SOL    HW227624   0.051   3.338   1.611
 8909SOL     OW27625   2.733   6.277   5.744
 8909SOL    HW127626   2.650   6.314   5.703
 8909SOL    HW227627   2.710   6.201   5.804
 8910SOL     OW27628   3.680   3.654   6.648
 8910SOL    HW127629   3.646   3.654   6.742
 8910SOL    HW227630   3.780   3.654   6.650
 8911SOL     OW27631   3.995   2.223   3.924
 8911SOL    HW127632   3.973   2.186   4.014
 8911SOL    HW227633   4.072   2.287   3.932
 8912SOL     OW27634   5.203   2.208   6.763
 8912SOL    HW127635   5.117   2.211   6.813
 8912SOL    HW227636   5.236   2.301   6.748
 8913SOL     OW27637   4.793   3.618   0.915
 8913SOL    HW127638   4.829   3.702   0.875
 8913SOL    HW227639   4.725   3.640   0.985
 8914SOL     OW27640   4.807   2.211   3.881
 8914SOL    HW127641   4.832   2.308   3.880
 8914SOL    HW227642   4.750   2.190   3.802
 8915SOL     OW27643   1.342   5.014   1.626
 8915SOL    HW127644   1.351   4.940   1.559
 8915SOL    HW227645   1.427   5.021   1.679
 8916SOL     OW27646   6.838   3.990   1.912
 8916SOL    HW127647   6.790   3.940   1.840
 8916SOL    HW227648   6.924   3.944   1.933
 8917SOL     OW27649   6.024   5.621   5.687
 8917SOL    HW127650   5.977   5.701   5.726
 8917SOL    HW227651   5.957   5.551   5.665
 8918SOL     OW27652   4.890   4.769   6.487
 8918SOL    HW127653   4.979   4.750   6.529
 8918SOL    HW227654   4.896   4.753   6.389
 8919SOL     OW27655   2.285   3.740   1.327
 8919SOL    HW127656   2.263   3.831   1.362
 8919SOL    HW227657   2.382   3.735   1.305
 8920SOL     OW27658   6.243   5.437   5.831
 8920SOL    HW127659   6.174   5.500   5.796
 8920SOL    HW227660   6.319   5.490   5.869
 8921SOL     OW27661   1.446   6.029   3.756
 8921SOL    HW127662   1.400   5.985   3.679
 8921SOL    HW227663   1.541   5.998   3.759
 8922SOL     OW27664   6.481   4.190   0.520
 8922SOL    HW127665   6.499   4.262   0.453
 8922SOL    HW227666   6.457   4.106   0.472
 8923SOL     OW27667   1.802   4.470   5.344
 8923SOL    HW127668   1.891   4.426   5.330
 8923SOL    HW227669   1.729   4.402   5.337
 8924SOL     OW27670   2.909   6.225   5.072
 8924SOL    HW127671   2.938   6.160   5.001
 8924SOL    HW227672   2.941   6.316   5.048
 8925SOL     OW27673   5.606   6.572   1.561
 8925SOL    HW127674   5.688   6.617   1.525
 8925SOL    HW227675   5.630   6.480   1.593
 8926SOL     OW27676   5.870   1.578   0.427
 8926SOL    HW127677   5.864   1.579   0.327
 8926SOL    HW227678   5.864   1.484   0.460
 8927SOL     OW27679   2.817   1.858   4.559
 8927SOL    HW127680   2.805   1.773   4.610
 8927SOL    HW227681   2.868   1.839   4.475
 8928SOL     OW27682   0.846   6.687   5.352
 8928SOL    HW127683   0.904   6.768   5.361
 8928SOL    HW227684   0.856   6.649   5.260
 8929SOL     OW27685   5.340   4.092   4.574
 8929SOL    HW127686   5.430   4.129   4.548
 8929SOL    HW227687   5.274   4.167   4.580
 8930SOL     OW27688   1.118   4.906   4.856
 8930SOL    HW127689   1.160   4.815   4.859
 8930SOL    HW227690   1.064   4.915   4.773
 8931SOL     OW27691   5.644   1.202   1.855
 8931SOL    HW127692   5.603   1.289   1.884
 8931SOL    HW227693   5.689   1.159   1.934
 8932SOL     OW27694   6.797   0.891   6.797
 8932SOL    HW127695   6.774   0.832   6.873
 8932SOL    HW227696   6.799   0.986   6.828
 8933SOL     OW27697   1.830   0.490   5.553
 8933SOL    HW127698   1.790   0.499   5.462
 8933SOL    HW227699   1.756   0.481   5.621
 8934SOL     OW27700   4.863   6.615   3.197
 8934SOL    HW127701   4.930   6.671   3.247
 8934SOL    HW227702   4.843   6.533   3.251
 8935SOL     OW27703   5.756   2.865   3.231
 8935SOL    HW127704   5.840   2.919   3.232
 8935SOL    HW227705   5.716   2.862   3.323
 8936SOL     OW27706   1.777   4.174   3.127
 8936SOL    HW127707   1.689   4.126   3.133
 8936SOL    HW227708   1.773   4.257   3.181
 8937SOL     OW27709   4.299   6.840   5.475
 8937SOL    HW127710   4.251   6.813   5.392
 8937SOL    HW227711   4.242   6.906   5.526
 8938SOL     OW27712   5.654   6.894   2.231
 8938SOL    HW127713   5.734   6.871   2.176
 8938SOL    HW227714   5.577   6.836   2.204
 8939SOL     OW27715   0.181   2.692   4.087
 8939SOL    HW127716   0.082   2.677   4.083
 8939SOL    HW227717   0.229   2.605   4.074
 8940SOL     OW27718   6.506   3.222   1.112
 8940SOL    HW127719   6.584   3.162   1.131
 8940SOL    HW227720   6.444   3.220   1.190
 8941SOL     OW27721   4.661   2.479   2.155
 8941SOL    HW127722   4.680   2.576   2.140
 8941SOL    HW227723   4.733   2.439   2.211
 8942SOL     OW27724   5.111   4.242   4.671
 8942SOL    HW127725   5.096   4.243   4.770
 8942SOL    HW227726   5.031   4.278   4.625
 8943SOL     OW27727   4.538   3.276   1.014
 8943SOL    HW127728   4.586   3.269   0.927
 8943SOL    HW227729   4.440   3.293   0.996
 8944SOL     OW27730   4.926   5.487   5.424
 8944SOL    HW127731   4.977   5.429   5.361
 8944SOL    HW227732   4.948   5.583   5.405
 8945SOL     OW27733   5.681   4.309   3.252
 8945SOL    HW127734   5.738   4.362   3.314
 8945SOL    HW227735   5.697   4.212   3.265
 8946SOL     OW27736   4.910   1.395   5.331
 8946SOL    HW127737   5.005   1.394   5.301
 8946SOL    HW227738   4.907   1.410   5.430
 8947SOL     OW27739   1.893   4.938   6.505
 8947SOL    HW127740   1.804   4.898   6.525
 8947SOL    HW227741   1.896   4.966   6.409
 8948SOL     OW27742   5.077   1.335   2.848
 8948SOL    HW127743   5.102   1.317   2.943
 8948SOL    HW227744   4.978   1.353   2.843
 8949SOL     OW27745   3.870   6.160   1.066
 8949SOL    HW127746   3.908   6.137   1.156
 8949SOL    HW227747   3.908   6.100   0.997
 8950SOL     OW27748   3.734   3.436   1.612
 8950SOL    HW127749   3.754   3.518   1.666
 8950SOL    HW227750   3.637   3.432   1.591
 8951SOL     OW27751   1.380   0.089   4.625
 8951SOL    HW127752   1.437   0.007   4.632
 8951SOL    HW227753   1.303   0.082   4.688
 8952SOL     OW27754   1.138   4.560   3.683
 8952SOL    HW127755   1.207   4.631   3.667
 8952SOL    HW227756   1.048   4.602   3.688
 8953SOL     OW27757   1.419   5.296   1.162
 8953SOL    HW127758   1.356   5.328   1.233
 8953SOL    HW227759   1.471   5.218   1.196
 8954SOL     OW27760   2.592   4.414   5.837
 8954SOL    HW127761   2.690   4.398   5.820
 8954SOL    HW227762   2.581   4.477   5.913
 8955SOL     OW27763   5.143   2.586   5.239
 8955SOL    HW127764   5.075   2.607   5.169
 8955SOL    HW227765   5.128   2.494   5.275
 8956SOL     OW27766   0.546   6.482   0.638
 8956SOL    HW127767   0.538   6.558   0.573
 8956SOL    HW227768   0.511   6.510   0.727
 8957SOL     OW27769   0.411   6.365   2.560
 8957SOL    HW127770   0.405   6.364   2.460
 8957SOL    HW227771   0.338   6.422   2.597
 8958SOL     OW27772   1.399   3.492   5.135
 8958SOL    HW127773   1.332   3.557   5.098
 8958SOL    HW227774   1.364   3.455   5.221
 8959SOL     OW27775   5.671   2.410   3.688
 8959SOL    HW127776   5.728   2.475   3.638
 8959SOL    HW227777   5.672   2.322   3.640
 8960SOL     OW27778   4.910   4.795   2.896
 8960SOL    HW127779   4.952   4.884   2.909
 8960SOL    HW227780   4.823   4.792   2.945
 8961SOL     OW27781   2.618   1.756   5.134
 8961SOL    HW127782   2.689   1.822   5.156
 8961SOL    HW227783   2.644   1.705   5.052
 8962SOL     OW27784   6.811   5.949   2.116
 8962SOL    HW127785   6.759   6.034   2.108
 8962SOL    HW227786   6.774   5.881   2.053
 8963SOL     OW27787   4.228   6.301   6.063
 8963SOL    HW127788   4.158   6.367   6.092
 8963SOL    HW227789   4.224   6.289   5.964
 8964SOL     OW27790   2.127   3.007   4.353
 8964SOL    HW127791   2.188   2.935   4.322
 8964SOL    HW227792   2.179   3.091   4.369
 8965SOL     OW27793   3.736   5.840   0.040
 8965SOL    HW127794   3.790   5.847   6.973
 8965SOL    HW227795   3.754   5.919   0.099
 8966SOL     OW27796   5.132   6.277   4.680
 8966SOL    HW127797   5.157   6.180   4.678
 8966SOL    HW227798   5.134   6.314   4.588
 8967SOL     OW27799   3.326   7.011   3.553
 8967SOL    HW127800   3.341   6.950   3.631
 8967SOL    HW227801   3.402   7.004   3.490
 8968SOL     OW27802   3.233   4.905   2.443
 8968SOL    HW127803   3.193   4.875   2.356
 8968SOL    HW227804   3.328   4.930   2.429
 8969SOL     OW27805   0.252   0.298   2.720
 8969SOL    HW127806   0.305   0.215   2.705
 8969SOL    HW227807   0.298   0.355   2.789
 8970SOL     OW27808   1.744   0.896   3.803
 8970SOL    HW127809   1.778   0.933   3.716
 8970SOL    HW227810   1.814   0.907   3.873
 8971SOL     OW27811   2.857   4.594   0.565
 8971SOL    HW127812   2.907   4.570   0.648
 8971SOL    HW227813   2.867   4.520   0.498
 8972SOL     OW27814   5.532   3.944   6.623
 8972SOL    HW127815   5.630   3.924   6.616
 8972SOL    HW227816   5.505   3.950   6.719
 8973SOL     OW27817   2.053   2.519   3.159
 8973SOL    HW127818   2.096   2.600   3.197
 8973SOL    HW227819   2.080   2.438   3.212
 8974SOL     OW27820   2.285   4.718   4.621
 8974SOL    HW127821   2.327   4.770   4.695
 8974SOL    HW227822   2.355   4.662   4.576
 8975SOL     OW27823   0.117   4.790   5.658
 8975SOL    HW127824   0.139   4.880   5.620
 8975SOL    HW227825   0.028   4.795   5.705
 8976SOL     OW27826   5.602   0.407   2.271
 8976SOL    HW127827   5.541   0.466   2.325
 8976SOL    HW227828   5.661   0.463   2.213
 8977SOL     OW27829   6.261   4.064   6.503
 8977SOL    HW127830   6.269   4.134   6.574
 8977SOL    HW227831   6.177   4.012   6.516
 8978SOL     OW27832   6.185   5.741   0.059
 8978SOL    HW127833   6.173   5.702   0.151
 8978SOL    HW227834   6.118   5.699   7.014
 8979SOL     OW27835   1.343   4.912   4.580
 8979SOL    HW127836   1.270   4.845   4.595
 8979SOL    HW227837   1.398   4.885   4.501
 8980SOL     OW27838   3.225   0.730   0.259
 8980SOL    HW127839   3.319   0.745   0.228
 8980SOL    HW227840   3.226   0.692   0.351
 8981SOL     OW27841   4.341   3.719   6.419
 8981SOL    HW127842   4.392   3.643   6.377
 8981SOL    HW227843   4.247   3.717   6.386
 8982SOL     OW27844   0.525   2.103   1.799
 8982SOL    HW127845   0.474   2.020   1.776
 8982SOL    HW227846   0.557   2.097   1.894
 8983SOL     OW27847   1.557   6.523   1.850
 8983SOL    HW127848   1.466   6.498   1.884
 8983SOL    HW227849   1.594   6.447   1.796
 8984SOL     OW27850   6.997   1.050   4.319
 8984SOL    HW127851   0.026   1.034   4.406
 8984SOL    HW227852   0.016   0.987   4.250
 8985SOL     OW27853   4.729   1.653   2.264
 8985SOL    HW127854   4.747   1.751   2.255
 8985SOL    HW227855   4.633   1.639   2.287
 8986SOL     OW27856   6.612   4.823   0.528
 8986SOL    HW127857   6.618   4.921   0.509
 8986SOL    HW227858   6.571   4.809   0.618
 8987SOL     OW27859   2.267   6.425   1.549
 8987SOL    HW127860   2.360   6.417   1.512
 8987SOL    HW227861   2.201   6.427   1.474
 8988SOL     OW27862   2.868   0.428   1.330
 8988SOL    HW127863   2.801   0.424   1.405
 8988SOL    HW227864   2.825   0.470   1.250
 8989SOL     OW27865   5.120   1.525   2.637
 8989SOL    HW127866   5.041   1.580   2.607
 8989SOL    HW227867   5.093   1.467   2.713
 8990SOL     OW27868   3.159   0.718   2.769
 8990SOL    HW127869   3.192   0.759   2.854
 8990SOL    HW227870   3.123   0.790   2.709
 8991SOL     OW27871   1.370   2.083   0.917
 8991SOL    HW127872   1.382   1.988   0.947
 8991SOL    HW227873   1.347   2.140   0.996
 8992SOL     OW27874   6.589   4.408   6.662
 8992SOL    HW127875   6.658   4.466   6.704
 8992SOL    HW227876   6.628   4.318   6.641
 8993SOL     OW27877   5.127   3.766   4.946
 8993SOL    HW127878   5.195   3.833   4.919
 8993SOL    HW227879   5.151   3.727   5.035
 8994SOL     OW27880   1.201   5.622   2.659
 8994SOL    HW127881   1.254   5.662   2.583
 8994SOL    HW227882   1.179   5.693   2.725
 8995SOL     OW27883   2.041   3.666   5.085
 8995SOL    HW127884   2.139   3.650   5.072
 8995SOL    HW227885   1.989   3.595   5.037
 8996SOL     OW27886   1.371   3.799   1.666
 8996SOL    HW127887   1.328   3.777   1.579
 8996SOL    HW227888   1.333   3.742   1.739
 8997SOL     OW27889   4.605   1.504   5.572
 8997SOL    HW127890   4.670   1.568   5.531
 8997SOL    HW227891   4.512   1.540   5.562
 8998SOL     OW27892   1.600   1.355   6.209
 8998SOL    HW127893   1.505   1.386   6.218
 8998SOL    HW227894   1.608   1.264   6.249
 8999SOL     OW27895   5.187   1.798   4.771
 8999SOL    HW127896   5.204   1.872   4.836
 8999SOL    HW227897   5.190   1.710   4.819
 9000SOL     OW27898   2.527   4.647   0.257
 9000SOL    HW127899   2.571   4.560   0.277
 9000SOL    HW227900   2.589   4.722   0.282
 9001SOL     OW27901   2.119   4.598   3.611
 9001SOL    HW127902   2.134   4.535   3.687
 9001SOL    HW227903   2.194   4.665   3.608
 9002SOL     OW27904   5.331   3.871   5.282
 9002SOL    HW127905   5.384   3.869   5.197
 9002SOL    HW227906   5.329   3.964   5.318
 9003SOL     OW27907   6.719   2.897   6.618
 9003SOL    HW127908   6.661   2.882   6.697
 9003SOL    HW227909   6.732   2.811   6.569
 9004SOL     OW27910   4.379   5.424   0.949
 9004SOL    HW127911   4.473   5.439   0.979
 9004SOL    HW227912   4.318   5.428   1.027
 9005SOL     OW27913   4.725   2.294   2.784
 9005SOL    HW127914   4.627   2.293   2.806
 9005SOL    HW227915   4.765   2.206   2.808
 9006SOL     OW27916   2.760   6.903   0.645
 9006SOL    HW127917   2.848   6.865   0.615
 9006SOL    HW227918   2.686   6.847   0.609
 9007SOL     OW27919   2.442   6.691   4.310
 9007SOL    HW127920   2.356   6.648   4.340
 9007SOL    HW227921   2.431   6.725   4.217
 9008SOL     OW27922   0.048   4.451   2.500
 9008SOL    HW127923   0.023   4.457   2.403
 9008SOL    HW227924   0.079   4.358   2.520
 9009SOL     OW27925   3.862   6.452   0.901
 9009SOL    HW127926   3.960   6.453   0.882
 9009SOL    HW227927   3.847   6.465   0.999
 9010SOL     OW27928   0.257   5.656   4.713
 9010SOL    HW127929   0.340   5.616   4.751
 9010SOL    HW227930   0.177   5.611   4.753
 9011SOL     OW27931   4.290   2.118   1.979
 9011SOL    HW127932   4.345   2.201   1.994
 9011SOL    HW227933   4.194   2.139   1.996
 9012SOL     OW27934   5.410   5.213   1.916
 9012SOL    HW127935   5.381   5.297   1.870
 9012SOL    HW227936   5.445   5.235   2.007
 9013SOL     OW27937   4.415   6.052   2.358
 9013SOL    HW127938   4.406   6.151   2.348
 9013SOL    HW227939   4.491   6.031   2.419
 9014SOL     OW27940   2.159   1.043   0.749
 9014SOL    HW127941   2.137   0.946   0.759
 9014SOL    HW227942   2.234   1.067   0.811
 9015SOL     OW27943   6.476   1.200   4.897
 9015SOL    HW127944   6.496   1.259   4.975
 9015SOL    HW227945   6.505   1.106   4.918
 9016SOL     OW27946   7.013   5.786   6.732
 9016SOL    HW127947   6.951   5.775   6.654
 9016SOL    HW227948   0.078   5.837   6.703
 9017SOL     OW27949   6.951   4.156   3.553
 9017SOL    HW127950   6.997   4.165   3.641
 9017SOL    HW227951   6.885   4.231   3.543
 9018SOL     OW27952   3.720   1.557   6.274
 9018SOL    HW127953   3.744   1.654   6.284
 9018SOL    HW227954   3.660   1.545   6.195
 9019SOL     OW27955   1.424   5.428   0.428
 9019SOL    HW127956   1.502   5.367   0.446
 9019SOL    HW227957   1.453   5.523   0.439
 9020SOL     OW27958   0.769   4.834   2.962
 9020SOL    HW127959   0.803   4.801   2.873
 9020SOL    HW227960   0.698   4.772   2.994
 9021SOL     OW27961   6.348   5.946   5.396
 9021SOL    HW127962   6.307   5.877   5.456
 9021SOL    HW227963   6.440   5.916   5.369
 9022SOL     OW27964   3.652   1.037   6.422
 9022SOL    HW127965   3.599   1.021   6.506
 9022SOL    HW227966   3.634   1.129   6.388
 9023SOL     OW27967   3.002   3.280   3.141
 9023SOL    HW127968   2.988   3.353   3.208
 9023SOL    HW227969   2.936   3.290   3.067
 9024SOL     OW27970   1.383   0.182   6.990
 9024SOL    HW127971   1.413   0.196   6.896
 9024SOL    HW227972   1.302   0.238   7.008
 9025SOL     OW27973   0.484   3.792   0.404
 9025SOL    HW127974   0.557   3.755   0.347
 9025SOL    HW227975   0.407   3.729   0.406
 9026SOL     OW27976   3.201   3.084   5.449
 9026SOL    HW127977   3.136   3.159   5.441
 9026SOL    HW227978   3.194   3.044   5.540
 9027SOL     OW27979   2.370   2.659   2.814
 9027SOL    HW127980   2.419   2.646   2.900
 9027SOL    HW227981   2.278   2.622   2.822
 9028SOL     OW27982   2.808   5.030   4.885
 9028SOL    HW127983   2.775   5.015   4.978
 9028SOL    HW227984   2.861   4.950   4.855
 9029SOL     OW27985   5.032   5.559   2.757
 9029SOL    HW127986   5.062   5.513   2.673
 9029SOL    HW227987   4.943   5.601   2.741
 9030SOL     OW27988   3.234   1.960   2.007
 9030SOL    HW127989   3.198   1.996   2.093
 9030SOL    HW227990   3.215   2.025   1.933
 9031SOL     OW27991   1.617   1.497   1.138
 9031SOL    HW127992   1.599   1.486   1.041
 9031SOL    HW227993   1.712   1.524   1.152
 9032SOL     OW27994   0.893   2.358   2.903
 9032SOL    HW127995   0.868   2.267   2.868
 9032SOL    HW227996   0.990   2.375   2.886
 9033SOL     OW27997   1.416   3.862   2.509
 9033SOL    HW127998   1.325   3.902   2.498
 9033SOL    HW227999   1.412   3.764   2.487
 9034SOL     OW28000   1.349   0.199   5.947
 9034SOL    HW128001   1.268   0.258   5.948
 9034SOL    HW228002   1.422   0.241   6.002
 9035SOL     OW28003   0.121   0.159   4.512
 9035SOL    HW128004   0.103   0.257   4.504
 9035SOL    HW228005   0.093   0.127   4.602
 9036SOL     OW28006   1.546   1.366   5.161
 9036SOL    HW128007   1.616   1.308   5.202
 9036SOL    HW228008   1.482   1.397   5.232
 9037SOL     OW28009   2.930   3.850   5.798
 9037SOL    HW128010   2.952   3.853   5.896
 9037SOL    HW228011   3.000   3.798   5.750
 9038SOL     OW28012   5.057   6.456   5.490
 9038SOL    HW128013   4.985   6.423   5.551
 9038SOL    HW228014   5.145   6.419   5.519
 9039SOL     OW28015   2.181   4.704   6.532
 9039SOL    HW128016   2.087   4.721   6.562
 9039SOL    HW228017   2.245   4.750   6.594
 9040SOL     OW28018   2.411   1.637   1.894
 9040SOL    HW128019   2.374   1.544   1.896
 9040SOL    HW228020   2.354   1.696   1.950
 9041SOL     OW28021   2.154   2.819   6.823
 9041SOL    HW128022   2.223   2.776   6.765
 9041SOL    HW228023   2.199   2.880   6.889
 9042SOL     OW28024   1.966   6.012   2.789
 9042SOL    HW128025   1.936   5.996   2.883
 9042SOL    HW228026   2.037   5.945   2.765
 9043SOL     OW28027   6.764   2.462   0.824
 9043SOL    HW128028   6.794   2.544   0.873
 9043SOL    HW228029   6.683   2.424   0.869
 9044SOL     OW28030   6.526   4.727   0.799
 9044SOL    HW128031   6.501   4.787   0.876
 9044SOL    HW228032   6.474   4.643   0.804
 9045SOL     OW28033   3.046   5.278   4.044
 9045SOL    HW128034   3.130   5.328   4.064
 9045SOL    HW228035   2.985   5.334   3.988
 9046SOL     OW28036   3.824   4.285   5.704
 9046SOL    HW128037   3.737   4.335   5.704
 9046SOL    HW228038   3.815   4.202   5.649
 9047SOL     OW28039   1.384   4.642   5.256
 9047SOL    HW128040   1.296   4.637   5.303
 9047SOL    HW228041   1.402   4.555   5.210
 9048SOL     OW28042   1.823   1.908   5.133
 9048SOL    HW128043   1.873   1.839   5.186
 9048SOL    HW228044   1.842   1.999   5.171
 9049SOL     OW28045   5.137   6.107   6.571
 9049SOL    HW128046   5.223   6.066   6.600
 9049SOL    HW228047   5.124   6.093   6.473
 9050SOL     OW28048   0.030   5.999   5.059
 9050SOL    HW128049   0.094   5.962   4.992
 9050SOL    HW228050   0.080   6.030   5.140
 9051SOL     OW28051   5.512   6.549   6.259
 9051SOL    HW128052   5.475   6.462   6.225
 9051SOL    HW228053   5.502   6.619   6.188
 9052SOL     OW28054   2.131   4.851   4.900
 9052SOL    HW128055   2.222   4.844   4.861
 9052SOL    HW228056   2.127   4.930   4.961
 9053SOL     OW28057   3.239   1.699   3.727
 9053SOL    HW128058   3.184   1.773   3.690
 9053SOL    HW228059   3.270   1.723   3.819
 9054SOL     OW28060   3.405   0.243   0.954
 9054SOL    HW128061   3.377   0.203   0.867
 9054SOL    HW228062   3.324   0.269   1.006
 9055SOL     OW28063   0.827   1.444   4.737
 9055SOL    HW128064   0.805   1.415   4.830
 9055SOL    HW228065   0.842   1.363   4.679
 9056SOL     OW28066   5.060   2.222   2.487
 9056SOL    HW128067   5.108   2.270   2.413
 9056SOL    HW228068   5.114   2.144   2.518
 9057SOL     OW28069   4.468   6.310   0.078
 9057SOL    HW128070   4.437   6.259   7.015
 9057SOL    HW228071   4.498   6.401   0.050
 9058SOL     OW28072   2.442   2.377   4.448
 9058SOL    HW128073   2.506   2.377   4.525
 9058SOL    HW228074   2.491   2.355   4.364
 9059SOL     OW28075   6.543   0.719   2.543
 9059SOL    HW128076   6.614   0.775   2.502
 9059SOL    HW228077   6.460   0.724   2.487
 9060SOL     OW28078   0.925   5.626   1.582
 9060SOL    HW128079   0.997   5.615   1.651
 9060SOL    HW228080   0.960   5.598   1.493
 9061SOL     OW28081   5.399   4.406   2.791
 9061SOL    HW128082   5.444   4.329   2.747
 9061SOL    HW228083   5.308   4.419   2.751
 9062SOL     OW28084   0.629   5.925   2.981
 9062SOL    HW128085   0.604   5.891   2.891
 9062SOL    HW228086   0.546   5.933   3.037
 9063SOL     OW28087   4.439   2.092   1.628
 9063SOL    HW128088   4.465   2.187   1.614
 9063SOL    HW228089   4.518   2.033   1.613
 9064SOL     OW28090   0.404   5.608   3.027
 9064SOL    HW128091   0.402   5.573   2.933
 9064SOL    HW228092   0.387   5.706   3.026
 9065SOL     OW28093   3.114   4.185   5.961
 9065SOL    HW128094   3.153   4.223   5.877
 9065SOL    HW228095   3.025   4.228   5.979
 9066SOL     OW28096   4.842   5.157   4.272
 9066SOL    HW128097   4.845   5.088   4.199
 9066SOL    HW228098   4.787   5.122   4.348
 9067SOL     OW28099   1.325   6.070   4.639
 9067SOL    HW128100   1.263   6.038   4.568
 9067SOL    HW228101   1.406   6.113   4.597
 9068SOL     OW28102   4.588   6.908   5.853
 9068SOL    HW128103   4.621   6.887   5.761
 9068SOL    HW228104   4.574   6.823   5.904
 9069SOL     OW28105   5.094   2.792   1.027
 9069SOL    HW128106   4.998   2.765   1.040
 9069SOL    HW228107   5.109   2.881   1.070
 9070SOL     OW28108   2.389   1.176   5.678
 9070SOL    HW128109   2.466   1.113   5.677
 9070SOL    HW228110   2.324   1.149   5.606
 9071SOL     OW28111   5.783   2.257   6.327
 9071SOL    HW128112   5.687   2.285   6.330
 9071SOL    HW228113   5.792   2.167   6.370
 9072SOL     OW28114   5.182   0.319   2.642
 9072SOL    HW128115   5.190   0.329   2.741
 9072SOL    HW228116   5.116   0.247   2.621
 9073SOL     OW28117   4.661   2.328   5.020
 9073SOL    HW128118   4.662   2.281   4.932
 9073SOL    HW228119   4.575   2.377   5.031
 9074SOL     OW28120   1.685   1.102   2.185
 9074SOL    HW128121   1.678   1.049   2.270
 9074SOL    HW228122   1.738   1.051   2.118
 9075SOL     OW28123   5.969   5.844   0.650
 9075SOL    HW128124   5.965   5.944   0.654
 9075SOL    HW228125   5.878   5.807   0.633
 9076SOL     OW28126   6.773   6.876   2.078
 9076SOL    HW128127   6.674   6.867   2.075
 9076SOL    HW228128   6.806   6.911   1.991
 9077SOL     OW28129   6.445   1.732   0.049
 9077SOL    HW128130   6.394   1.647   0.065
 9077SOL    HW228131   6.435   1.793   0.128
 9078SOL     OW28132   4.792   6.688   0.144
 9078SOL    HW128133   4.881   6.670   0.101
 9078SOL    HW228134   4.803   6.759   0.213
 9079SOL     OW28135   1.673   1.349   6.598
 9079SOL    HW128136   1.720   1.388   6.677
 9079SOL    HW228137   1.574   1.356   6.612
 9080SOL     OW28138   6.299   3.852   2.265
 9080SOL    HW128139   6.391   3.890   2.262
 9080SOL    HW228140   6.233   3.921   2.234
 9081SOL     OW28141   5.148   0.934   0.466
 9081SOL    HW128142   5.244   0.911   0.450
 9081SOL    HW228143   5.110   0.979   0.386
 9082SOL     OW28144   3.511   5.935   5.978
 9082SOL    HW128145   3.529   5.990   5.896
 9082SOL    HW228146   3.483   5.843   5.951
 9083SOL     OW28147   3.918   5.975   0.200
 9083SOL    HW128148   4.016   5.974   0.181
 9083SOL    HW228149   3.893   6.061   0.245
 9084SOL     OW28150   0.094   3.038   5.405
 9084SOL    HW128151   0.073   3.132   5.433
 9084SOL    HW228152   0.149   2.993   5.475
 9085SOL     OW28153   2.595   4.802   6.951
 9085SOL    HW128154   2.500   4.791   6.981
 9085SOL    HW228155   2.626   4.895   6.973
 9086SOL     OW28156   0.057   4.144   1.156
 9086SOL    HW128157   0.117   4.224   1.157
 9086SOL    HW228158   0.076   4.089   1.075
 9087SOL     OW28159   5.759   0.813   1.122
 9087SOL    HW128160   5.712   0.900   1.104
 9087SOL    HW228161   5.713   0.739   1.073
 9088SOL     OW28162   6.294   6.221   0.773
 9088SOL    HW128163   6.311   6.280   0.851
 9088SOL    HW228164   6.379   6.176   0.745
 9089SOL     OW28165   5.707   5.299   3.396
 9089SOL    HW128166   5.630   5.295   3.460
 9089SOL    HW228167   5.784   5.345   3.440
 9090SOL     OW28168   5.205   5.903   5.808
 9090SOL    HW128169   5.208   5.898   5.908
 9090SOL    HW228170   5.153   5.983   5.780
 9091SOL     OW28171   2.109   1.820   1.767
 9091SOL    HW128172   2.138   1.903   1.813
 9091SOL    HW228173   2.180   1.790   1.704
 9092SOL     OW28174   2.346   0.808   5.542
 9092SOL    HW128175   2.443   0.828   5.552
 9092SOL    HW228176   2.330   0.711   5.558
 9093SOL     OW28177   1.976   3.755   0.599
 9093SOL    HW128178   1.925   3.673   0.622
 9093SOL    HW228179   1.959   3.778   0.503
 9094SOL     OW28180   6.752   4.336   1.586
 9094SOL    HW128181   6.787   4.326   1.492
 9094SOL    HW228182   6.819   4.297   1.650
 9095SOL     OW28183   3.197   2.674   6.941
 9095SOL    HW128184   3.168   2.770   6.939
 9095SOL    HW228185   3.287   2.665   6.899
 9096SOL     OW28186   5.662   3.190   3.162
 9096SOL    HW128187   5.682   3.131   3.241
 9096SOL    HW228188   5.564   3.188   3.143
 9097SOL     OW28189   0.935   4.873   6.187
 9097SOL    HW128190   0.866   4.875   6.115
 9097SOL    HW228191   0.891   4.854   6.275
 9098SOL     OW28192   4.054   3.478   3.279
 9098SOL    HW128193   4.095   3.387   3.266
 9098SOL    HW228194   4.106   3.546   3.227
 9099SOL     OW28195   1.789   2.895   0.705
 9099SOL    HW128196   1.798   2.911   0.607
 9099SOL    HW228197   1.751   2.804   0.721
 9100SOL     OW28198   0.639   3.424   1.100
 9100SOL    HW128199   0.722   3.451   1.149
 9100SOL    HW228200   0.644   3.326   1.078
 9101SOL     OW28201   2.151   2.282   0.374
 9101SOL    HW128202   2.205   2.204   0.406
 9101SOL    HW228203   2.140   2.348   0.448
 9102SOL     OW28204   4.025   5.566   2.792
 9102SOL    HW128205   4.045   5.619   2.710
 9102SOL    HW228206   4.021   5.628   2.871
 9103SOL     OW28207   0.186   3.813   6.262
 9103SOL    HW128208   0.160   3.751   6.335
 9103SOL    HW228209   0.109   3.826   6.200
 9104SOL     OW28210   4.081   6.551   1.863
 9104SOL    HW128211   3.993   6.518   1.828
 9104SOL    HW228212   4.071   6.647   1.892
 9105SOL     OW28213   2.347   1.416   5.595
 9105SOL    HW128214   2.380   1.337   5.647
 9105SOL    HW228215   2.327   1.491   5.658
 9106SOL     OW28216   6.846   5.226   1.098
 9106SOL    HW128217   6.768   5.281   1.126
 9106SOL    HW228218   6.903   5.205   1.178
 9107SOL     OW28219   4.440   0.958   1.331
 9107SOL    HW128220   4.402   0.943   1.422
 9107SOL    HW228221   4.529   1.004   1.339
 9108SOL     OW28222   4.521   5.546   5.960
 9108SOL    HW128223   4.471   5.481   6.017
 9108SOL    HW228224   4.619   5.542   5.984
 9109SOL     OW28225   2.957   2.106   3.938
 9109SOL    HW128226   2.872   2.052   3.931
 9109SOL    HW228227   2.955   2.180   3.871
 9110SOL     OW28228   1.801   3.601   3.518
 9110SOL    HW128229   1.808   3.532   3.446
 9110SOL    HW228230   1.833   3.562   3.605
 9111SOL     OW28231   4.139   4.464   1.701
 9111SOL    HW128232   4.133   4.438   1.604
 9111SOL    HW228233   4.234   4.459   1.731
 9112SOL     OW28234   6.710   5.113   2.342
 9112SOL    HW128235   6.722   5.046   2.269
 9112SOL    HW228236   6.789   5.111   2.403
 9113SOL     OW28237   3.952   6.643   0.116
 9113SOL    HW128238   4.011   6.581   0.063
 9113SOL    HW228239   3.900   6.701   0.054
 9114SOL     OW28240   2.606   4.533   1.759
 9114SOL    HW128241   2.692   4.540   1.810
 9114SOL    HW228242   2.533   4.504   1.821
 9115SOL     OW28243   1.496   4.533   4.607
 9115SOL    HW128244   1.464   4.599   4.676
 9115SOL    HW228245   1.596   4.533   4.605
 9116SOL     OW28246   1.178   1.346   5.991
 9116SOL    HW128247   1.169   1.379   5.897
 9116SOL    HW228248   1.098   1.374   6.044
 9117SOL     OW28249   6.872   2.727   0.167
 9117SOL    HW128250   6.839   2.804   0.112
 9117SOL    HW228251   6.863   2.642   0.115
 9118SOL     OW28252   6.247   6.134   1.822
 9118SOL    HW128253   6.260   6.151   1.725
 9118SOL    HW228254   6.316   6.184   1.874
 9119SOL     OW28255   6.820   0.565   1.405
 9119SOL    HW128256   6.888   0.569   1.478
 9119SOL    HW228257   6.764   0.483   1.415
 9120SOL     OW28258   5.524   1.330   6.033
 9120SOL    HW128259   5.468   1.413   6.033
 9120SOL    HW228260   5.551   1.309   6.127
 9121SOL     OW28261   1.345   1.398   6.183
 9121SOL    HW128262   1.305   1.382   6.093
 9121SOL    HW228263   1.273   1.418   6.249
 9122SOL     OW28264   1.306   2.948   1.887
 9122SOL    HW128265   1.331   2.983   1.796
 9122SOL    HW228266   1.239   3.009   1.929
 9123SOL     OW28267   2.386   5.085   6.860
 9123SOL    HW128268   2.452   5.064   6.933
 9123SOL    HW228269   2.411   5.172   6.816
 9124SOL     OW28270   6.662   5.466   5.240
 9124SOL    HW128271   6.631   5.407   5.315
 9124SOL    HW228272   6.593   5.468   5.168
 9125SOL     OW28273   5.052   4.690   3.615
 9125SOL    HW128274   5.085   4.690   3.521
 9125SOL    HW228275   5.121   4.648   3.675
 9126SOL     OW28276   5.996   0.931   1.332
 9126SOL    HW128277   5.945   0.926   1.246
 9126SOL    HW228278   6.005   0.839   1.371
 9127SOL     OW28279   4.776   0.693   6.935
 9127SOL    HW128280   4.696   0.729   6.984
 9127SOL    HW228281   4.858   0.708   6.990
 9128SOL     OW28282   4.406   2.208   4.961
 9128SOL    HW128283   4.343   2.273   4.919
 9128SOL    HW228284   4.377   2.189   5.054
 9129SOL     OW28285   2.202   1.831   6.300
 9129SOL    HW128286   2.256   1.776   6.236
 9129SOL    HW228287   2.108   1.797   6.302
 9130SOL     OW28288   5.802   4.652   1.059
 9130SOL    HW128289   5.801   4.712   1.139
 9130SOL    HW228290   5.896   4.624   1.040
 9131SOL     OW28291   1.048   4.047   4.575
 9131SOL    HW128292   1.136   4.033   4.620
 9131SOL    HW228293   1.060   4.104   4.493
 9132SOL     OW28294   0.133   2.921   4.556
 9132SOL    HW128295   0.109   2.857   4.629
 9132SOL    HW228296   0.065   2.916   4.483
 9133SOL     OW28297   2.307   4.020   1.331
 9133SOL    HW128298   2.233   4.063   1.383
 9133SOL    HW228299   2.296   4.040   1.234
 9134SOL     OW28300   2.613   5.749   5.993
 9134SOL    HW128301   2.636   5.837   6.036
 9134SOL    HW228302   2.676   5.732   5.917
 9135SOL     OW28303   6.717   6.187   4.593
 9135SOL    HW128304   6.661   6.224   4.519
 9135SOL    HW228305   6.735   6.258   4.661
 9136SOL     OW28306   4.367   4.795   5.623
 9136SOL    HW128307   4.343   4.872   5.564
 9136SOL    HW228308   4.365   4.710   5.569
 9137SOL     OW28309   4.370   1.159   1.613
 9137SOL    HW128310   4.337   1.253   1.628
 9137SOL    HW228311   4.351   1.104   1.694
 9138SOL     OW28312   4.371   5.229   6.656
 9138SOL    HW128313   4.380   5.321   6.694
 9138SOL    HW228314   4.291   5.184   6.696
 9139SOL     OW28315   3.174   1.628   5.324
 9139SOL    HW128316   3.226   1.563   5.269
 9139SOL    HW228317   3.236   1.686   5.376
 9140SOL     OW28318   0.029   2.447   2.794
 9140SOL    HW128319   0.008   2.369   2.854
 9140SOL    HW228320   0.108   2.496   2.831
 9141SOL     OW28321   5.735   0.002   5.799
 9141SOL    HW128322   5.668   6.972   5.742
 9141SOL    HW228323   5.735   6.980   5.891
 9142SOL     OW28324   0.167   3.048   5.920
 9142SOL    HW128325   0.073   3.025   5.943
 9142SOL    HW228326   0.228   3.019   5.994
 9143SOL     OW28327   4.910   3.849   0.805
 9143SOL    HW128328   4.854   3.916   0.853
 9143SOL    HW228329   5.005   3.858   0.833
 9144SOL     OW28330   2.178   5.332   5.309
 9144SOL    HW128331   2.253   5.395   5.328
 9144SOL    HW228332   2.174   5.263   5.381
 9145SOL     OW28333   6.986   4.681   6.489
 9145SOL    HW128334   6.945   4.658   6.401
 9145SOL    HW228335   0.019   4.768   6.481
 9146SOL     OW28336   5.905   2.231   1.820
 9146SOL    HW128337   5.852   2.227   1.904
 9146SOL    HW228338   5.847   2.263   1.745
 9147SOL     OW28339   4.291   5.434   5.117
 9147SOL    HW128340   4.339   5.469   5.198
 9147SOL    HW228341   4.255   5.511   5.064
 9148SOL     OW28342   4.460   5.071   3.452
 9148SOL    HW128343   4.400   5.086   3.373
 9148SOL    HW228344   4.478   5.159   3.496
 9149SOL     OW28345   5.271   3.295   4.441
 9149SOL    HW128346   5.366   3.308   4.469
 9149SOL    HW228347   5.212   3.290   4.522
 9150SOL     OW28348   5.008   0.261   3.146
 9150SOL    HW128349   4.989   0.179   3.201
 9150SOL    HW228350   4.990   0.342   3.201
 9151SOL     OW28351   1.735   4.094   1.904
 9151SOL    HW128352   1.736   4.192   1.886
 9151SOL    HW228353   1.641   4.063   1.915
 9152SOL     OW28354   1.851   6.098   3.694
 9152SOL    HW128355   1.909   6.087   3.613
 9152SOL    HW228356   1.814   6.191   3.696
 9153SOL     OW28357   2.053   2.990   6.450
 9153SOL    HW128358   2.066   2.892   6.441
 9153SOL    HW228359   1.956   3.012   6.439
 9154SOL     OW28360   2.421   5.711   6.945
 9154SOL    HW128361   2.345   5.771   6.922
 9154SOL    HW228362   2.387   5.621   6.971
 9155SOL     OW28363   1.415   3.891   6.998
 9155SOL    HW128364   1.398   3.917   6.903
 9155SOL    HW228365   1.431   3.793   7.003
 9156SOL     OW28366   4.736   2.168   1.101
 9156SOL    HW128367   4.818   2.116   1.078
 9156SOL    HW228368   4.725   2.170   1.201
 9157SOL     OW28369   5.159   3.763   5.780
 9157SOL    HW128370   5.124   3.789   5.690
 9157SOL    HW228371   5.084   3.765   5.847
 9158SOL     OW28372   0.811   3.433   4.232
 9158SOL    HW128373   0.749   3.418   4.155
 9158SOL    HW228374   0.903   3.452   4.197
 9159SOL     OW28375   6.279   5.517   2.367
 9159SOL    HW128376   6.186   5.481   2.358
 9159SOL    HW228377   6.342   5.461   2.313
 9160SOL     OW28378   0.778   0.186   7.013
 9160SOL    HW128379   0.796   0.089   0.010
 9160SOL    HW228380   0.840   0.223   6.944
 9161SOL     OW28381   4.866   4.041   4.686
 9161SOL    HW128382   4.965   4.056   4.688
 9161SOL    HW228383   4.820   4.116   4.732
 9162SOL     OW28384   4.803   2.727   2.337
 9162SOL    HW128385   4.876   2.671   2.375
 9162SOL    HW228386   4.754   2.772   2.412
 9163SOL     OW28387   2.930   2.087   3.576
 9163SOL    HW128388   2.835   2.057   3.564
 9163SOL    HW228389   2.931   2.174   3.625
 9164SOL     OW28390   3.202   0.533   6.766
 9164SOL    HW128391   3.212   0.475   6.685
 9164SOL    HW228392   3.160   0.479   6.840
 9165SOL     OW28393   5.730   0.441   6.838
 9165SOL    HW128394   5.798   0.408   6.904
 9165SOL    HW228395   5.776   0.483   6.760
 9166SOL     OW28396   3.024   5.168   1.195
 9166SOL    HW128397   3.047   5.226   1.117
 9166SOL    HW228398   3.047   5.073   1.174
 9167SOL     OW28399   1.986   4.477   5.614
 9167SOL    HW128400   2.067   4.498   5.560
 9167SOL    HW228401   1.920   4.552   5.607
 9168SOL     OW28402   2.598   0.380   6.069
 9168SOL    HW128403   2.600   0.281   6.088
 9168SOL    HW228404   2.532   0.398   5.997
 9169SOL     OW28405   0.494   1.157   3.836
 9169SOL    HW128406   0.517   1.215   3.914
 9169SOL    HW228407   0.396   1.140   3.835
 9170SOL     OW28408   6.892   5.547   0.173
 9170SOL    HW128409   6.850   5.629   0.212
 9170SOL    HW228410   6.944   5.572   0.091
 9171SOL     OW28411   2.571   5.385   0.189
 9171SOL    HW128412   2.491   5.436   0.158
 9171SOL    HW228413   2.635   5.447   0.234
 9172SOL     OW28414   2.968   1.564   3.707
 9172SOL    HW128415   2.957   1.600   3.800
 9172SOL    HW228416   3.054   1.598   3.669
 9173SOL     OW28417   6.999   5.194   4.259
 9173SOL    HW128418   0.053   5.238   4.204
 9173SOL    HW228419   0.013   5.185   4.354
 9174SOL     OW28420   0.177   4.791   0.563
 9174SOL    HW128421   0.209   4.791   0.658
 9174SOL    HW228422   0.254   4.807   0.501
 9175SOL     OW28423   1.826   5.897   5.978
 9175SOL    HW128424   1.866   5.808   6.003
 9175SOL    HW228425   1.858   5.967   6.043
 9176SOL     OW28426   2.206   0.493   5.806
 9176SOL    HW128427   2.193   0.507   5.708
 9176SOL    HW228428   2.125   0.449   5.844
 9177SOL     OW28429   1.124   4.251   3.412
 9177SOL    HW128430   1.156   4.263   3.506
 9177SOL    HW228431   1.201   4.263   3.349
 9178SOL     OW28432   1.995   5.196   0.903
 9178SOL    HW128433   2.003   5.289   0.868
 9178SOL    HW228434   1.907   5.157   0.873
 9179SOL     OW28435   3.090   4.926   4.042
 9179SOL    HW128436   3.096   4.923   4.142
 9179SOL    HW228437   3.167   4.978   4.005
 9180SOL     OW28438   5.719   2.243   3.905
 9180SOL    HW128439   5.731   2.321   3.844
 9180SOL    HW228440   5.801   2.233   3.962
 9181SOL     OW28441   4.288   2.235   2.326
 9181SOL    HW128442   4.322   2.314   2.377
 9181SOL    HW228443   4.331   2.152   2.362
 9182SOL     OW28444   1.013   6.453   1.797
 9182SOL    HW128445   1.085   6.423   1.734
 9182SOL    HW228446   0.974   6.539   1.764
 9183SOL     OW28447   4.969   6.211   1.149
 9183SOL    HW128448   5.033   6.188   1.223
 9183SOL    HW228449   4.953   6.309   1.148
 9184SOL     OW28450   4.909   6.868   0.897
 9184SOL    HW128451   4.831   6.828   0.848
 9184SOL    HW228452   4.893   6.863   0.995
 9185SOL     OW28453   3.640   0.781   4.869
 9185SOL    HW128454   3.634   0.710   4.940
 9185SOL    HW228455   3.567   0.848   4.882
 9186SOL     OW28456   6.058   1.225   5.432
 9186SOL    HW128457   6.142   1.180   5.400
 9186SOL    HW228458   6.081   1.307   5.483
 9187SOL     OW28459   2.461   6.591   2.173
 9187SOL    HW128460   2.389   6.553   2.115
 9187SOL    HW228461   2.532   6.522   2.188
 9188SOL     OW28462   2.673   6.603   1.215
 9188SOL    HW128463   2.757   6.611   1.269
 9188SOL    HW228464   2.594   6.603   1.277
 9189SOL     OW28465   5.069   5.597   3.153
 9189SOL    HW128466   4.979   5.637   3.172
 9189SOL    HW228467   5.133   5.623   3.226
 9190SOL     OW28468   1.659   5.078   0.680
 9190SOL    HW128469   1.617   4.994   0.646
 9190SOL    HW228470   1.601   5.156   0.655
 9191SOL     OW28471   6.898   0.522   5.837
 9191SOL    HW128472   6.979   0.481   5.880
 9191SOL    HW228473   6.858   0.589   5.900
 9192SOL     OW28474   6.980   4.171   4.352
 9192SOL    HW128475   6.978   4.151   4.254
 9192SOL    HW228476   6.916   4.245   4.372
 9193SOL     OW28477   3.199   3.266   0.090
 9193SOL    HW128478   3.291   3.290   0.058
 9193SOL    HW228479   3.203   3.182   0.144
 9194SOL     OW28480   3.204   0.839   3.671
 9194SOL    HW128481   3.182   0.762   3.610
 9194SOL    HW228482   3.181   0.925   3.625
 9195SOL     OW28483   1.813   2.031   4.074
 9195SOL    HW128484   1.780   2.043   4.168
 9195SOL    HW228485   1.762   1.959   4.029
 9196SOL     OW28486   4.577   1.832   5.215
 9196SOL    HW128487   4.620   1.920   5.192
 9196SOL    HW228488   4.627   1.758   5.171
 9197SOL     OW28489   2.295   3.646   1.652
 9197SOL    HW128490   2.308   3.577   1.724
 9197SOL    HW228491   2.345   3.729   1.675
 9198SOL     OW28492   6.558   5.255   5.398
 9198SOL    HW128493   6.566   5.168   5.350
 9198SOL    HW228494   6.526   5.239   5.492
 9199SOL     OW28495   0.010   4.318   5.171
 9199SOL    HW128496   6.985   4.239   5.127
 9199SOL    HW228497   7.013   4.399   5.114
 9200SOL     OW28498   3.259   0.365   0.399
 9200SOL    HW128499   3.349   0.378   0.357
 9200SOL    HW228500   3.233   0.448   0.448
 9201SOL     OW28501   1.487   4.179   0.284
 9201SOL    HW128502   1.576   4.133   0.283
 9201SOL    HW228503   1.438   4.154   0.368
 9202SOL     OW28504   1.371   0.386   2.993
 9202SOL    HW128505   1.280   0.418   3.019
 9202SOL    HW228506   1.425   0.369   3.076
 9203SOL     OW28507   6.774   5.592   0.913
 9203SOL    HW128508   6.702   5.526   0.890
 9203SOL    HW228509   6.741   5.684   0.895
 9204SOL     OW28510   5.262   0.959   6.103
 9204SOL    HW128511   5.196   1.003   6.043
 9204SOL    HW228512   5.355   0.981   6.072
 9205SOL     OW28513   6.700   3.870   3.048
 9205SOL    HW128514   6.639   3.888   3.125
 9205SOL    HW228515   6.686   3.777   3.015
 9206SOL     OW28516   3.750   6.149   0.594
 9206SOL    HW128517   3.815   6.123   0.666
 9206SOL    HW228518   3.660   6.165   0.635
 9207SOL     OW28519   5.006   5.340   0.601
 9207SOL    HW128520   4.907   5.324   0.604
 9207SOL    HW228521   5.054   5.255   0.623
 9208SOL     OW28522   0.673   3.912   3.763
 9208SOL    HW128523   0.709   3.820   3.753
 9208SOL    HW228524   0.698   3.949   3.852
 9209SOL     OW28525   2.563   1.273   6.302
 9209SOL    HW128526   2.470   1.312   6.305
 9209SOL    HW228527   2.603   1.288   6.212
 9210SOL     OW28528   6.624   1.145   3.352
 9210SOL    HW128529   6.591   1.076   3.415
 9210SOL    HW228530   6.571   1.141   3.267
 9211SOL     OW28531   0.166   1.556   3.621
 9211SOL    HW128532   0.139   1.556   3.525
 9211SOL    HW228533   0.266   1.555   3.627
 9212SOL     OW28534   3.623   5.010   4.903
 9212SOL    HW128535   3.542   4.977   4.854
 9212SOL    HW228536   3.684   5.056   4.839
 9213SOL     OW28537   5.974   3.784   6.053
 9213SOL    HW128538   5.895   3.811   5.997
 9213SOL    HW228539   5.942   3.747   6.140
 9214SOL     OW28540   0.781   5.638   0.676
 9214SOL    HW128541   0.805   5.705   0.747
 9214SOL    HW228542   0.837   5.556   0.687
 9215SOL     OW28543   1.280   0.865   0.401
 9215SOL    HW128544   1.264   0.774   0.362
 9215SOL    HW228545   1.257   0.864   0.498
 9216SOL     OW28546   2.303   0.061   2.706
 9216SOL    HW128547   2.395   0.021   2.711
 9216SOL    HW228548   2.237   7.006   2.683
 9217SOL     OW28549   1.160   1.822   6.347
 9217SOL    HW128550   1.183   1.812   6.250
 9217SOL    HW228551   1.232   1.874   6.393
 9218SOL     OW28552   3.013   0.250   0.465
 9218SOL    HW128553   2.941   0.260   0.396
 9218SOL    HW228554   3.102   0.262   0.421
 9219SOL     OW28555   0.634   2.357   0.777
 9219SOL    HW128556   0.539   2.385   0.758
 9219SOL    HW228557   0.695   2.435   0.761
 9220SOL     OW28558   3.323   6.472   1.420
 9220SOL    HW128559   3.373   6.544   1.372
 9220SOL    HW228560   3.250   6.512   1.476
 9221SOL     OW28561   2.884   5.701   3.994
 9221SOL    HW128562   2.826   5.727   4.071
 9221SOL    HW228563   2.886   5.601   3.986
 9222SOL     OW28564   2.862   1.459   6.137
 9222SOL    HW128565   2.765   1.460   6.114
 9222SOL    HW228566   2.903   1.547   6.112
 9223SOL     OW28567   2.633   2.933   5.431
 9223SOL    HW128568   2.592   2.965   5.516
 9223SOL    HW228569   2.578   2.962   5.354
 9224SOL     OW28570   1.722   5.169   4.495
 9224SOL    HW128571   1.679   5.250   4.535
 9224SOL    HW228572   1.817   5.163   4.524
 9225SOL     OW28573   2.882   5.799   6.856
 9225SOL    HW128574   2.842   5.829   6.942
 9225SOL    HW228575   2.893   5.700   6.857
 9226SOL     OW28576   5.148   6.770   1.325
 9226SOL    HW128577   5.052   6.785   1.299
 9226SOL    HW228578   5.154   6.686   1.380
 9227SOL     OW28579   1.874   5.744   2.981
 9227SOL    HW128580   1.850   5.841   2.983
 9227SOL    HW228581   1.963   5.731   3.025
 9228SOL     OW28582   1.338   0.838   6.914
 9228SOL    HW128583   1.419   0.826   6.857
 9228SOL    HW228584   1.327   0.757   6.973
 9229SOL     OW28585   0.626   5.416   4.647
 9229SOL    HW128586   0.657   5.324   4.670
 9229SOL    HW228587   0.616   5.424   4.548
 9230SOL     OW28588   5.744   0.755   3.874
 9230SOL    HW128589   5.691   0.671   3.887
 9230SOL    HW228590   5.744   0.779   3.777
 9231SOL     OW28591   1.464   2.702   4.207
 9231SOL    HW128592   1.467   2.699   4.307
 9231SOL    HW228593   1.528   2.635   4.169
 9232SOL     OW28594   3.347   4.837   0.693
 9232SOL    HW128595   3.272   4.900   0.670
 9232SOL    HW228596   3.347   4.761   0.628
 9233SOL     OW28597   5.675   4.887   0.851
 9233SOL    HW128598   5.715   4.969   0.894
 9233SOL    HW228599   5.723   4.806   0.884
 9234SOL     OW28600   2.338   5.868   3.347
 9234SOL    HW128601   2.399   5.891   3.423
 9234SOL    HW228602   2.375   5.790   3.297
 9235SOL     OW28603   0.385   2.129   3.134
 9235SOL    HW128604   0.334   2.166   3.056
 9235SOL    HW228605   0.429   2.204   3.183
 9236SOL     OW28606   3.084   3.560   5.031
 9236SOL    HW128607   3.050   3.468   5.045
 9236SOL    HW228608   3.101   3.575   4.934
 9237SOL     OW28609   1.968   4.157   3.985
 9237SOL    HW128610   1.951   4.098   4.064
 9237SOL    HW228611   2.026   4.109   3.920
 9238SOL     OW28612   4.287   2.973   6.360
 9238SOL    HW128613   4.331   2.936   6.278
 9238SOL    HW228614   4.354   3.025   6.413
 9239SOL     OW28615   0.986   3.856   0.863
 9239SOL    HW128616   1.022   3.883   0.773
 9239SOL    HW228617   1.003   3.930   0.928
 9240SOL     OW28618   4.313   1.357   2.012
 9240SOL    HW128619   4.352   1.401   1.932
 9240SOL    HW228620   4.376   1.287   2.046
 9241SOL     OW28621   0.513   5.577   6.722
 9241SOL    HW128622   0.479   5.656   6.772
 9241SOL    HW228623   0.580   5.528   6.779
 9242SOL     OW28624   5.908   5.855   1.905
 9242SOL    HW128625   5.861   5.796   1.840
 9242SOL    HW228626   6.007   5.847   1.893
 9243SOL     OW28627   6.420   5.728   5.068
 9243SOL    HW128628   6.380   5.637   5.071
 9243SOL    HW228629   6.350   5.796   5.091
 9244SOL     OW28630   3.794   5.073   6.485
 9244SOL    HW128631   3.894   5.083   6.486
 9244SOL    HW228632   3.762   5.064   6.391
 9245SOL     OW28633   0.597   5.969   1.646
 9245SOL    HW128634   0.626   6.063   1.632
 9245SOL    HW228635   0.545   5.938   1.567
 9246SOL     OW28636   6.350   5.294   3.607
 9246SOL    HW128637   6.336   5.381   3.654
 9246SOL    HW228638   6.399   5.309   3.522
 9247SOL     OW28639   0.974   6.655   2.637
 9247SOL    HW128640   1.022   6.687   2.718
 9247SOL    HW228641   1.040   6.627   2.567
 9248SOL     OW28642   2.794   2.425   6.223
 9248SOL    HW128643   2.727   2.470   6.282
 9248SOL    HW228644   2.757   2.418   6.130
 9249SOL     OW28645   5.209   0.408   3.863
 9249SOL    HW128646   5.140   0.341   3.891
 9249SOL    HW228647   5.273   0.365   3.799
 9250SOL     OW28648   5.347   3.496   3.907
 9250SOL    HW128649   5.309   3.423   3.851
 9250SOL    HW228650   5.379   3.570   3.848
 9251SOL     OW28651   3.609   1.980   2.525
 9251SOL    HW128652   3.671   2.038   2.472
 9251SOL    HW228653   3.531   1.953   2.467
 9252SOL     OW28654   0.333   0.359   4.929
 9252SOL    HW128655   0.322   0.260   4.935
 9252SOL    HW228656   0.249   0.400   4.892
 9253SOL     OW28657   1.808   0.197   5.715
 9253SOL    HW128658   1.729   0.210   5.775
 9253SOL    HW228659   1.778   0.167   5.625
 9254SOL     OW28660   5.932   3.854   1.674
 9254SOL    HW128661   5.976   3.788   1.614
 9254SOL    HW228662   5.907   3.809   1.760
 9255SOL     OW28663   5.538   4.158   1.155
 9255SOL    HW128664   5.550   4.257   1.158
 9255SOL    HW228665   5.610   4.117   1.099
 9256SOL     OW28666   4.381   4.781   1.704
 9256SOL    HW128667   4.369   4.694   1.751
 9256SOL    HW228668   4.474   4.814   1.718
 9257SOL     OW28669   1.019   4.048   1.323
 9257SOL    HW128670   1.021   4.148   1.321
 9257SOL    HW228671   0.926   4.016   1.303
 9258SOL     OW28672   3.969   3.165   3.369
 9258SOL    HW128673   3.976   3.067   3.388
 9258SOL    HW228674   3.892   3.204   3.420
 9259SOL     OW28675   1.364   2.587   1.274
 9259SOL    HW128676   1.278   2.545   1.303
 9259SOL    HW228677   1.441   2.539   1.316
 9260SOL     OW28678   4.838   3.504   6.319
 9260SOL    HW128679   4.934   3.533   6.320
 9260SOL    HW228680   4.815   3.467   6.229
 9261SOL     OW28681   4.666   0.287   6.324
 9261SOL    HW128682   4.628   0.281   6.417
 9261SOL    HW228683   4.751   0.340   6.326
 9262SOL     OW28684   4.996   1.358   5.628
 9262SOL    HW128685   5.061   1.316   5.691
 9262SOL    HW228686   4.961   1.289   5.565
 9263SOL     OW28687   4.965   3.728   1.619
 9263SOL    HW128688   5.053   3.719   1.664
 9263SOL    HW228689   4.961   3.815   1.569
 9264SOL     OW28690   6.193   3.853   0.131
 9264SOL    HW128691   6.115   3.914   0.118
 9264SOL    HW228692   6.278   3.902   0.115
 9265SOL     OW28693   2.812   1.087   0.546
 9265SOL    HW128694   2.772   1.026   0.479
 9265SOL    HW228695   2.844   1.170   0.501
 9266SOL     OW28696   2.411   6.706   2.694
 9266SOL    HW128697   2.479   6.636   2.676
 9266SOL    HW228698   2.452   6.781   2.746
 9267SOL     OW28699   0.844   4.896   4.675
 9267SOL    HW128700   0.854   4.932   4.582
 9267SOL    HW228701   0.747   4.902   4.702
 9268SOL     OW28702   0.471   6.731   2.819
 9268SOL    HW128703   0.526   6.787   2.757
 9268SOL    HW228704   0.485   6.635   2.798
 9269SOL     OW28705   3.529   1.656   6.463
 9269SOL    HW128706   3.487   1.594   6.398
 9269SOL    HW228707   3.480   1.652   6.550
 9270SOL     OW28708   6.818   6.728   6.545
 9270SOL    HW128709   6.873   6.812   6.556
 9270SOL    HW228710   6.872   6.650   6.576
 9271SOL     OW28711   1.803   5.795   0.720
 9271SOL    HW128712   1.791   5.877   0.776
 9271SOL    HW228713   1.872   5.812   0.650
 9272SOL     OW28714   2.529   4.598   6.050
 9272SOL    HW128715   2.453   4.627   5.991
 9272SOL    HW228716   2.604   4.663   6.042
 9273SOL     OW28717   4.317   5.402   4.364
 9273SOL    HW128718   4.398   5.357   4.327
 9273SOL    HW228719   4.237   5.374   4.311
 9274SOL     OW28720   6.092   2.182   6.535
 9274SOL    HW128721   6.003   2.137   6.541
 9274SOL    HW228722   6.111   2.232   6.619
 9275SOL     OW28723   1.855   0.637   5.962
 9275SOL    HW128724   1.760   0.654   5.936
 9275SOL    HW228725   1.901   0.724   5.979
 9276SOL     OW28726   3.498   5.934   4.683
 9276SOL    HW128727   3.572   5.868   4.696
 9276SOL    HW228728   3.454   5.952   4.771
 9277SOL     OW28729   3.991   3.038   6.947
 9277SOL    HW128730   3.953   3.049   6.855
 9277SOL    HW228731   4.006   2.940   6.965
 9278SOL     OW28732   1.286   2.025   3.184
 9278SOL    HW128733   1.296   2.091   3.258
 9278SOL    HW228734   1.189   2.000   3.175
 9279SOL     OW28735   2.870   0.572   2.153
 9279SOL    HW128736   2.936   0.498   2.161
 9279SOL    HW228737   2.851   0.589   2.056
 9280SOL     OW28738   2.093   6.686   3.941
 9280SOL    HW128739   2.058   6.666   4.033
 9280SOL    HW228740   2.151   6.768   3.945
 9281SOL     OW28741   1.919   2.281   0.227
 9281SOL    HW128742   2.015   2.285   0.255
 9281SOL    HW228743   1.912   2.240   0.136
 9282SOL     OW28744   4.327   1.817   5.348
 9282SOL    HW128745   4.401   1.806   5.282
 9282SOL    HW228746   4.240   1.790   5.306
 9283SOL     OW28747   5.882   2.658   2.284
 9283SOL    HW128748   5.911   2.739   2.335
 9283SOL    HW228749   5.858   2.685   2.191
 9284SOL     OW28750   3.017   3.627   1.286
 9284SOL    HW128751   2.995   3.605   1.381
 9284SOL    HW228752   3.111   3.598   1.265
 9285SOL     OW28753   6.953   2.380   6.696
 9285SOL    HW128754   0.006   2.417   6.634
 9285SOL    HW228755   6.865   2.376   6.648
 9286SOL     OW28756   5.435   6.901   5.166
 9286SOL    HW128757   5.422   6.911   5.265
 9286SOL    HW228758   5.380   6.969   5.118
 9287SOL     OW28759   2.738   6.463   0.967
 9287SOL    HW128760   2.736   6.511   1.055
 9287SOL    HW228761   2.763   6.367   0.981
 9288SOL     OW28762   4.944   2.436   5.917
 9288SOL    HW128763   4.981   2.380   5.992
 9288SOL    HW228764   4.901   2.518   5.955
 9289SOL     OW28765   5.157   2.665   2.119
 9289SOL    HW128766   5.071   2.619   2.100
 9289SOL    HW228767   5.145   2.764   2.109
 9290SOL     OW28768   4.838   1.859   4.429
 9290SOL    HW128769   4.902   1.874   4.504
 9290SOL    HW228770   4.757   1.810   4.462
 9291SOL     OW28771   1.214   0.857   4.617
 9291SOL    HW128772   1.193   0.843   4.713
 9291SOL    HW228773   1.291   0.920   4.608
 9292SOL     OW28774   0.303   3.503   6.220
 9292SOL    HW128775   0.361   3.421   6.220
 9292SOL    HW228776   0.313   3.551   6.307
 9293SOL     OW28777   5.481   4.483   0.263
 9293SOL    HW128778   5.485   4.526   0.353
 9293SOL    HW228779   5.411   4.529   0.207
 9294SOL     OW28780   5.426   6.588   6.785
 9294SOL    HW128781   5.496   6.587   6.856
 9294SOL    HW228782   5.339   6.620   6.824
 9295SOL     OW28783   4.743   1.572   2.858
 9295SOL    HW128784   4.784   1.664   2.857
 9295SOL    HW228785   4.656   1.574   2.810
 9296SOL     OW28786   5.960   6.303   5.965
 9296SOL    HW128787   5.896   6.375   5.991
 9296SOL    HW228788   5.949   6.280   5.869
 9297SOL     OW28789   0.301   0.689   1.039
 9297SOL    HW128790   0.362   0.611   1.029
 9297SOL    HW228791   0.209   0.664   1.010
 9298SOL     OW28792   1.658   5.951   5.272
 9298SOL    HW128793   1.668   5.857   5.239
 9298SOL    HW228794   1.566   5.963   5.309
 9299SOL     OW28795   1.502   3.701   4.328
 9299SOL    HW128796   1.559   3.619   4.332
 9299SOL    HW228797   1.557   3.781   4.353
 9300SOL     OW28798   5.552   4.507   4.620
 9300SOL    HW128799   5.459   4.533   4.595
 9300SOL    HW228800   5.563   4.408   4.609
 9301SOL     OW28801   5.119   4.660   2.330
 9301SOL    HW128802   5.216   4.671   2.354
 9301SOL    HW228803   5.105   4.568   2.292
 9302SOL     OW28804   2.633   1.942   2.822
 9302SOL    HW128805   2.611   2.025   2.770
 9302SOL    HW228806   2.711   1.896   2.779
 9303SOL     OW28807   3.868   5.937   6.789
 9303SOL    HW128808   3.803   5.944   6.713
 9303SOL    HW228809   3.947   5.882   6.760
 9304SOL     OW28810   3.183   3.239   1.095
 9304SOL    HW128811   3.200   3.277   1.004
 9304SOL    HW228812   3.255   3.173   1.117
 9305SOL     OW28813   5.908   2.960   1.812
 9305SOL    HW128814   5.997   2.956   1.765
 9305SOL    HW228815   5.857   2.876   1.792
 9306SOL     OW28816   0.084   4.460   4.292
 9306SOL    HW128817   0.072   4.493   4.198
 9306SOL    HW228818   0.146   4.381   4.292
 9307SOL     OW28819   1.502   1.979   0.441
 9307SOL    HW128820   1.481   1.963   0.537
 9307SOL    HW228821   1.600   1.997   0.431
 9308SOL     OW28822   0.446   3.477   0.854
 9308SOL    HW128823   0.434   3.542   0.929
 9308SOL    HW228824   0.535   3.494   0.810
 9309SOL     OW28825   4.560   3.806   5.864
 9309SOL    HW128826   4.579   3.890   5.915
 9309SOL    HW228827   4.504   3.745   5.920
 9310SOL     OW28828   4.400   5.875   6.663
 9310SOL    HW128829   4.499   5.886   6.672
 9310SOL    HW228830   4.377   5.861   6.567
 9311SOL     OW28831   5.692   3.768   0.917
 9311SOL    HW128832   5.788   3.747   0.900
 9311SOL    HW228833   5.667   3.739   1.010
 9312SOL     OW28834   0.835   4.161   6.249
 9312SOL    HW128835   0.778   4.216   6.310
 9312SOL    HW228836   0.905   4.114   6.303
 9313SOL     OW28837   0.003   6.832   2.920
 9313SOL    HW128838   6.928   6.867   2.901
 9313SOL    HW228839   0.007   6.798   3.014
 9314SOL     OW28840   4.914   5.125   6.751
 9314SOL    HW128841   4.992   5.171   6.795
 9314SOL    HW228842   4.916   5.028   6.774
 9315SOL     OW28843   0.055   6.990   5.683
 9315SOL    HW128844   0.032   6.935   5.763
 9315SOL    HW228845   6.989   7.009   5.630
 9316SOL     OW28846   4.047   5.787   3.704
 9316SOL    HW128847   3.948   5.779   3.716
 9316SOL    HW228848   4.089   5.811   3.792
 9317SOL     OW28849   6.777   5.288   3.791
 9317SOL    HW128850   6.707   5.238   3.740
 9317SOL    HW228851   6.808   5.366   3.736
 9318SOL     OW28852   0.466   0.784   6.500
 9318SOL    HW128853   0.526   0.704   6.493
 9318SOL    HW228854   0.374   0.755   6.527
 9319SOL     OW28855   0.580   3.158   6.361
 9319SOL    HW128856   0.660   3.138   6.418
 9319SOL    HW228857   0.561   3.256   6.364
 9320SOL     OW28858   4.135   2.416   5.954
 9320SOL    HW128859   4.183   2.396   5.869
 9320SOL    HW228860   4.199   2.412   6.030
 9321SOL     OW28861   6.461   5.920   2.833
 9321SOL    HW128862   6.520   5.940   2.754
 9321SOL    HW228863   6.368   5.901   2.802
 9322SOL     OW28864   0.960   6.450   5.942
 9322SOL    HW128865   0.930   6.462   6.037
 9322SOL    HW228866   0.955   6.353   5.918
 9323SOL     OW28867   1.171   1.166   6.727
 9323SOL    HW128868   1.071   1.157   6.725
 9323SOL    HW228869   1.205   1.136   6.816
 9324SOL     OW28870   1.432   5.694   0.513
 9324SOL    HW128871   1.372   5.640   0.572
 9324SOL    HW228872   1.376   5.747   0.449
 9325SOL     OW28873   5.895   2.190   1.350
 9325SOL    HW128874   5.821   2.200   1.283
 9325SOL    HW228875   5.972   2.248   1.323
 9326SOL     OW28876   1.945   0.003   1.147
 9326SOL    HW128877   1.998   6.993   1.066
 9326SOL    HW228878   2.007   0.036   1.218
 9327SOL     OW28879   4.132   0.703   2.783
 9327SOL    HW128880   4.193   0.702   2.863
 9327SOL    HW228881   4.111   0.797   2.759
 9328SOL     OW28882   3.542   1.246   1.032
 9328SOL    HW128883   3.449   1.268   1.000
 9328SOL    HW228884   3.570   1.313   1.101
 9329SOL     OW28885   0.916   3.349   2.328
 9329SOL    HW128886   0.979   3.274   2.346
 9329SOL    HW228887   0.962   3.437   2.341
 9330SOL     OW28888   6.016   1.054   0.434
 9330SOL    HW128889   6.063   1.025   0.517
 9330SOL    HW228890   6.081   1.064   0.359
 9331SOL     OW28891   0.471   0.779   0.162
 9331SOL    HW128892   0.527   0.763   0.244
 9331SOL    HW228893   0.380   0.738   0.176
 9332SOL     OW28894   3.080   3.157   4.342
 9332SOL    HW128895   3.003   3.221   4.340
 9332SOL    HW228896   3.115   3.143   4.250
 9333SOL     OW28897   6.279   4.625   1.370
 9333SOL    HW128898   6.367   4.620   1.418
 9333SOL    HW228899   6.211   4.666   1.430
 9334SOL     OW28900   2.799   0.234   4.599
 9334SOL    HW128901   2.778   0.155   4.542
 9334SOL    HW228902   2.744   0.312   4.568
 9335SOL     OW28903   1.602   0.582   6.971
 9335SOL    HW128904   1.601   0.489   6.934
 9335SOL    HW228905   1.511   0.603   7.009
 9336SOL     OW28906   2.968   6.465   5.920
 9336SOL    HW128907   2.970   6.371   5.887
 9336SOL    HW228908   2.883   6.481   5.971
 9337SOL     OW28909   5.149   0.374   2.059
 9337SOL    HW128910   5.137   0.383   2.158
 9337SOL    HW228911   5.232   0.421   2.030
 9338SOL     OW28912   3.605   0.251   2.646
 9338SOL    HW128913   3.656   0.276   2.563
 9338SOL    HW228914   3.512   0.288   2.641
 9339SOL     OW28915   4.371   6.473   1.563
 9339SOL    HW128916   4.422   6.542   1.615
 9339SOL    HW228917   4.304   6.519   1.504
 9340SOL     OW28918   5.946   3.662   0.162
 9340SOL    HW128919   6.030   3.710   0.185
 9340SOL    HW228920   5.947   3.571   0.204
 9341SOL     OW28921   0.305   5.635   6.466
 9341SOL    HW128922   0.244   5.559   6.444
 9341SOL    HW228923   0.388   5.600   6.510
 9342SOL     OW28924   1.645   6.477   6.313
 9342SOL    HW128925   1.699   6.544   6.366
 9342SOL    HW228926   1.548   6.492   6.330
 9343SOL     OW28927   6.117   5.032   5.222
 9343SOL    HW128928   6.184   5.087   5.273
 9343SOL    HW228929   6.091   5.081   5.139
 9344SOL     OW28930   5.098   6.561   1.503
 9344SOL    HW128931   5.020   6.504   1.532
 9344SOL    HW228932   5.124   6.622   1.578
 9345SOL     OW28933   0.207   3.529   0.757
 9345SOL    HW128934   0.286   3.499   0.810
 9345SOL    HW228935   0.124   3.515   0.812
 9346SOL     OW28936   5.680   6.975   0.602
 9346SOL    HW128937   5.667   0.058   0.599
 9346SOL    HW228938   5.763   6.951   0.551
 9347SOL     OW28939   1.824   6.591   1.639
 9347SOL    HW128940   1.871   6.657   1.580
 9347SOL    HW228941   1.730   6.624   1.655
 9348SOL     OW28942   3.340   4.854   6.980
 9348SOL    HW128943   3.275   4.834   6.907
 9348SOL    HW228944   3.402   4.926   6.951
 9349SOL     OW28945   1.646   6.925   2.883
 9349SOL    HW128946   1.738   6.888   2.897
 9349SOL    HW228947   1.601   6.876   2.808
 9350SOL     OW28948   0.934   2.237   6.294
 9350SOL    HW128949   0.853   2.269   6.245
 9350SOL    HW228950   0.990   2.181   6.233
 9351SOL     OW28951   3.751   2.131   6.542
 9351SOL    HW128952   3.709   2.214   6.578
 9351SOL    HW228953   3.681   2.073   6.501
 9352SOL     OW28954   2.159   4.851   5.978
 9352SOL    HW128955   2.215   4.768   5.970
 9352SOL    HW228956   2.177   4.896   6.065
 9353SOL     OW28957   6.217   0.224   0.966
 9353SOL    HW128958   6.150   0.291   0.935
 9353SOL    HW228959   6.209   0.212   1.065
 9354SOL     OW28960   6.661   2.362   6.577
 9354SOL    HW128961   6.690   2.315   6.660
 9354SOL    HW228962   6.564   2.388   6.586
 9355SOL     OW28963   0.410   1.356   5.000
 9355SOL    HW128964   0.440   1.373   4.906
 9355SOL    HW228965   0.446   1.429   5.059
 9356SOL     OW28966   4.675   6.700   2.217
 9356SOL    HW128967   4.602   6.670   2.155
 9356SOL    HW228968   4.721   6.780   2.179
 9357SOL     OW28969   0.896   1.593   6.977
 9357SOL    HW128970   0.994   1.574   6.988
 9357SOL    HW228971   0.873   1.680   0.004
 9358SOL     OW28972   1.172   3.618   2.117
 9358SOL    HW128973   1.194   3.521   2.133
 9358SOL    HW228974   1.074   3.627   2.101
 9359SOL     OW28975   1.559   6.963   5.722
 9359SOL    HW128976   1.587   0.014   5.653
 9359SOL    HW228977   1.638   6.938   5.778
 9360SOL     OW28978   0.895   0.505   6.651
 9360SOL    HW128979   0.902   0.555   6.738
 9360SOL    HW228980   0.987   0.483   6.618
 9361SOL     OW28981   2.094   6.035   4.146
 9361SOL    HW128982   2.063   5.954   4.094
 9361SOL    HW228983   2.116   6.008   4.240
 9362SOL     OW28984   1.738   7.008   2.281
 9362SOL    HW128985   1.823   6.956   2.296
 9362SOL    HW228986   1.755   0.065   2.216
 9363SOL     OW28987   2.929   5.324   2.367
 9363SOL    HW128988   2.868   5.307   2.444
 9363SOL    HW228989   2.972   5.238   2.339
 9364SOL     OW28990   1.324   1.818   0.985
 9364SOL    HW128991   1.224   1.810   0.986
 9364SOL    HW228992   1.356   1.850   1.074
 9365SOL     OW28993   3.218   2.015   4.280
 9365SOL    HW128994   3.225   1.964   4.366
 9365SOL    HW228995   3.139   2.076   4.284
 9366SOL     OW28996   3.601   5.387   0.475
 9366SOL    HW128997   3.606   5.481   0.508
 9366SOL    HW228998   3.505   5.357   0.475
 9367SOL     OW28999   6.644   0.764   1.490
 9367SOL    HW129000   6.705   0.691   1.460
 9367SOL    HW229001   6.555   0.725   1.514
 9368SOL     OW29002   3.423   0.595   2.858
 9368SOL    HW129003   3.349   0.585   2.791
 9368SOL    HW229004   3.452   0.691   2.862
 9369SOL     OW29005   2.111   5.514   6.935
 9369SOL    HW129006   2.028   5.556   6.971
 9369SOL    HW229007   2.103   5.502   6.836
 9370SOL     OW29008   4.533   1.544   4.335
 9370SOL    HW129009   4.470   1.553   4.258
 9370SOL    HW229010   4.504   1.467   4.392
 9371SOL     OW29011   4.480   5.835   1.365
 9371SOL    HW129012   4.537   5.818   1.285
 9371SOL    HW229013   4.386   5.807   1.346
 9372SOL     OW29014   4.634   6.399   1.649
 9372SOL    HW129015   4.565   6.401   1.576
 9372SOL    HW229016   4.590   6.379   1.736
 9373SOL     OW29017   6.792   1.626   0.732
 9373SOL    HW129018   6.718   1.614   0.798
 9373SOL    HW229019   6.834   1.537   0.712
 9374SOL     OW29020   0.428   5.464   5.964
 9374SOL    HW129021   0.523   5.485   5.941
 9374SOL    HW229022   0.384   5.419   5.887
 9375SOL     OW29023   0.197   0.602   0.142
 9375SOL    HW129024   0.153   0.650   0.066
 9375SOL    HW229025   0.249   0.525   0.107
 9376SOL     OW29026   2.258   3.966   1.954
 9376SOL    HW129027   2.276   3.918   2.040
 9376SOL    HW229028   2.170   4.013   1.959
 9377SOL     OW29029   1.943   0.624   3.717
 9377SOL    HW129030   1.944   0.532   3.757
 9377SOL    HW229031   1.937   0.692   3.791
 9378SOL     OW29032   3.080   0.696   4.246
 9378SOL    HW129033   3.088   0.795   4.237
 9378SOL    HW229034   2.983   0.670   4.237
 9379SOL     OW29035   3.986   6.117   4.480
 9379SOL    HW129036   4.075   6.121   4.525
 9379SOL    HW229037   3.956   6.022   4.474
 9380SOL     OW29038   5.065   5.731   0.238
 9380SOL    HW129039   5.108   5.656   0.288
 9380SOL    HW229040   4.997   5.775   0.296
 9381SOL     OW29041   5.758   1.584   5.011
 9381SOL    HW129042   5.815   1.503   4.997
 9381SOL    HW229043   5.795   1.638   5.087
 9382SOL     OW29044   2.923   6.001   4.932
 9382SOL    HW129045   2.841   5.990   4.875
 9382SOL    HW229046   2.999   5.950   4.891
 9383SOL     OW29047   5.785   4.550   2.916
 9383SOL    HW129048   5.706   4.497   2.944
 9383SOL    HW229049   5.855   4.548   2.988
 9384SOL     OW29050   2.843   0.993   1.979
 9384SOL    HW129051   2.934   1.034   1.970
 9384SOL    HW229052   2.795   1.035   2.056
 9385SOL     OW29053   4.610   1.835   3.445
 9385SOL    HW129054   4.519   1.805   3.416
 9385SOL    HW229055   4.632   1.922   3.402
 9386SOL     OW29056   4.654   6.538   6.767
 9386SOL    HW129057   4.736   6.569   6.719
 9386SOL    HW229058   4.657   6.438   6.776
 9387SOL     OW29059   2.819   2.227   0.481
 9387SOL    HW129060   2.726   2.259   0.502
 9387SOL    HW229061   2.885   2.294   0.514
 9388SOL     OW29062   2.199   5.922   4.767
 9388SOL    HW129063   2.241   5.834   4.746
 9388SOL    HW229064   2.269   5.985   4.801
 9389SOL     OW29065   2.568   4.768   1.612
 9389SOL    HW129066   2.609   4.706   1.678
 9389SOL    HW229067   2.495   4.721   1.563
 9390SOL     OW29068   4.963   5.242   4.494
 9390SOL    HW129069   4.923   5.222   4.404
 9390SOL    HW229070   4.923   5.181   4.562
 9391SOL     OW29071   1.336   5.243   4.298
 9391SOL    HW129072   1.348   5.301   4.217
 9391SOL    HW229073   1.415   5.183   4.309
 9392SOL     OW29074   5.330   4.136   3.023
 9392SOL    HW129075   5.291   4.163   3.111
 9392SOL    HW229076   5.418   4.091   3.038
 9393SOL     OW29077   2.631   6.593   6.647
 9393SOL    HW129078   2.674   6.658   6.710
 9393SOL    HW229079   2.701   6.533   6.609
 9394SOL     OW29080   3.467   0.915   0.087
 9394SOL    HW129081   3.386   0.907   0.029
 9394SOL    HW229082   3.448   0.978   0.162
 9395SOL     OW29083   2.099   1.489   0.544
 9395SOL    HW129084   2.019   1.470   0.486
 9395SOL    HW229085   2.103   1.587   0.563
 9396SOL     OW29086   0.791   6.548   6.769
 9396SOL    HW129087   0.840   6.462   6.752
 9396SOL    HW229088   0.814   6.614   6.698
 9397SOL     OW29089   3.382   0.586   5.064
 9397SOL    HW129090   3.373   0.685   5.071
 9397SOL    HW229091   3.375   0.557   4.969
 9398SOL     OW29092   0.361   1.972   0.243
 9398SOL    HW129093   0.384   1.921   0.160
 9398SOL    HW229094   0.326   1.908   0.312
 9399SOL     OW29095   1.458   2.774   4.476
 9399SOL    HW129096   1.408   2.858   4.495
 9399SOL    HW229097   1.539   2.769   4.535
 9400SOL     OW29098   5.565   1.038   0.383
 9400SOL    HW129099   5.503   0.960   0.393
 9400SOL    HW229100   5.659   1.005   0.373
 9401SOL     OW29101   0.307   2.434   4.060
 9401SOL    HW129102   0.399   2.458   4.030
 9401SOL    HW229103   0.312   2.382   4.145
 9402SOL     OW29104   2.273   6.481   3.847
 9402SOL    HW129105   2.318   6.414   3.905
 9402SOL    HW229106   2.209   6.535   3.902
 9403SOL     OW29107   6.042   2.438   2.233
 9403SOL    HW129108   5.975   2.512   2.225
 9403SOL    HW229109   6.069   2.408   2.142
 9404SOL     OW29110   2.148   2.883   0.817
 9404SOL    HW129111   2.069   2.897   0.757
 9404SOL    HW229112   2.227   2.856   0.762
 9405SOL     OW29113   0.127   5.707   5.533
 9405SOL    HW129114   0.208   5.720   5.475
 9405SOL    HW229115   0.094   5.613   5.524
 9406SOL     OW29116   0.874   2.514   6.856
 9406SOL    HW129117   0.802   2.571   6.895
 9406SOL    HW229118   0.903   2.552   6.769
 9407SOL     OW29119   1.283   5.375   5.679
 9407SOL    HW129120   1.184   5.366   5.688
 9407SOL    HW229121   1.328   5.308   5.739
 9408SOL     OW29122   0.488   3.562   4.289
 9408SOL    HW129123   0.586   3.552   4.305
 9408SOL    HW229124   0.473   3.624   4.211
 9409SOL     OW29125   6.345   4.528   2.957
 9409SOL    HW129126   6.389   4.451   2.912
 9409SOL    HW229127   6.373   4.531   3.053
 9410SOL     OW29128   3.773   0.968   0.790
 9410SOL    HW129129   3.768   0.925   0.700
 9410SOL    HW229130   3.720   1.053   0.790
 9411SOL     OW29131   2.963   3.836   3.346
 9411SOL    HW129132   3.018   3.916   3.322
 9411SOL    HW229133   2.934   3.843   3.441
 9412SOL     OW29134   5.667   6.068   1.060
 9412SOL    HW129135   5.622   6.133   1.121
 9412SOL    HW229136   5.711   5.997   1.114
 9413SOL     OW29137   4.875   4.064   2.778
 9413SOL    HW129138   4.834   4.036   2.865
 9413SOL    HW229139   4.970   4.091   2.793
 9414SOL     OW29140   1.690   1.715   3.129
 9414SOL    HW129141   1.620   1.781   3.102
 9414SOL    HW229142   1.711   1.655   3.052
 9415SOL     OW29143   4.642   1.653   1.752
 9415SOL    HW129144   4.570   1.586   1.769
 9415SOL    HW229145   4.701   1.659   1.832
 9416SOL     OW29146   5.864   5.406   5.639
 9416SOL    HW129147   5.775   5.401   5.684
 9416SOL    HW229148   5.923   5.332   5.672
 9417SOL     OW29149   3.328   5.321   2.472
 9417SOL    HW129150   3.284   5.280   2.551
 9417SOL    HW229151   3.281   5.407   2.449
 9418SOL     OW29152   3.643   1.569   5.205
 9418SOL    HW129153   3.698   1.528   5.277
 9418SOL    HW229154   3.646   1.511   5.124
 9419SOL     OW29155   1.700   2.998   6.062
 9419SOL    HW129156   1.774   3.061   6.089
 9419SOL    HW229157   1.684   3.007   5.964
 9420SOL     OW29158   6.266   4.160   6.254
 9420SOL    HW129159   6.166   4.153   6.253
 9420SOL    HW229160   6.301   4.126   6.341
 9421SOL     OW29161   4.338   6.007   6.151
 9421SOL    HW129162   4.239   5.998   6.160
 9421SOL    HW229163   4.360   6.097   6.113
 9422SOL     OW29164   2.136   5.993   5.689
 9422SOL    HW129165   2.098   5.987   5.596
 9422SOL    HW229166   2.084   6.059   5.742
 9423SOL     OW29167   4.707   4.632   2.720
 9423SOL    HW129168   4.780   4.698   2.740
 9423SOL    HW229169   4.733   4.542   2.754
 9424SOL     OW29170   5.980   6.962   4.022
 9424SOL    HW129171   5.968   6.931   4.116
 9424SOL    HW229172   5.926   6.904   3.961
 9425SOL     OW29173   6.972   4.504   1.304
 9425SOL    HW129174   6.948   4.409   1.323
 9425SOL    HW229175   0.012   4.540   1.379
 9426SOL     OW29176   0.248   2.133   6.268
 9426SOL    HW129177   0.159   2.114   6.309
 9426SOL    HW229178   0.261   2.232   6.261
 9427SOL     OW29179   4.510   4.423   2.525
 9427SOL    HW129180   4.505   4.416   2.426
 9427SOL    HW229181   4.577   4.357   2.560
 9428SOL     OW29182   0.601   6.214   5.743
 9428SOL    HW129183   0.503   6.194   5.730
 9428SOL    HW229184   0.635   6.267   5.666
 9429SOL     OW29185   2.721   2.338   4.563
 9429SOL    HW129186   2.697   2.384   4.649
 9429SOL    HW229187   2.819   2.320   4.561
 9430SOL     OW29188   1.700   1.733   4.932
 9430SOL    HW129189   1.694   1.699   5.026
 9430SOL    HW229190   1.734   1.660   4.872
 9431SOL     OW29191   0.845   4.618   5.147
 9431SOL    HW129192   0.859   4.635   5.050
 9431SOL    HW229193   0.886   4.692   5.201
 9432SOL     OW29194   6.859   1.074   3.481
 9432SOL    HW129195   6.782   1.110   3.428
 9432SOL    HW229196   6.878   1.134   3.559
 9433SOL     OW29197   4.266   5.786   1.826
 9433SOL    HW129198   4.221   5.736   1.752
 9433SOL    HW229199   4.329   5.854   1.787
 9434SOL     OW29200   4.876   5.387   3.875
 9434SOL    HW129201   4.907   5.292   3.875
 9434SOL    HW229202   4.824   5.405   3.791
 9435SOL     OW29203   0.290   3.901   1.645
 9435SOL    HW129204   0.324   3.830   1.707
 9435SOL    HW229205   0.302   3.871   1.550
 9436SOL     OW29206   2.141   0.952   2.846
 9436SOL    HW129207   2.237   0.967   2.869
 9436SOL    HW229208   2.096   1.040   2.830
 9437SOL     OW29209   5.440   6.956   4.773
 9437SOL    HW129210   5.458   6.862   4.800
 9437SOL    HW229211   5.461   0.001   4.850
 9438SOL     OW29212   4.058   6.432   2.537
 9438SOL    HW129213   4.103   6.480   2.461
 9438SOL    HW229214   3.959   6.430   2.522
 9439SOL     OW29215   1.674   3.507   1.002
 9439SOL    HW129216   1.748   3.461   0.954
 9439SOL    HW229217   1.670   3.603   0.974
 9440SOL     OW29218   2.128   5.362   3.431
 9440SOL    HW129219   2.199   5.297   3.457
 9440SOL    HW229220   2.075   5.325   3.355
 9441SOL     OW29221   0.265   6.760   4.316
 9441SOL    HW129222   0.269   6.677   4.370
 9441SOL    HW229223   0.296   6.838   4.371
 9442SOL     OW29224   5.838   3.308   0.811
 9442SOL    HW129225   5.764   3.372   0.789
 9442SOL    HW229226   5.923   3.359   0.824
 9443SOL     OW29227   2.230   4.428   2.416
 9443SOL    HW129228   2.153   4.491   2.429
 9443SOL    HW229229   2.225   4.356   2.486
 9444SOL     OW29230   1.167   4.349   6.406
 9444SOL    HW129231   1.135   4.371   6.498
 9444SOL    HW229232   1.239   4.413   6.380
 9445SOL     OW29233   0.325   1.412   4.230
 9445SOL    HW129234   0.308   1.315   4.250
 9445SOL    HW229235   0.402   1.444   4.284
 9446SOL     OW29236   6.534   3.859   4.054
 9446SOL    HW129237   6.543   3.835   4.151
 9446SOL    HW229238   6.452   3.815   4.017
 9447SOL     OW29239   4.892   4.011   2.003
 9447SOL    HW129240   4.831   4.051   2.072
 9447SOL    HW229241   4.845   4.009   1.915
 9448SOL     OW29242   6.068   1.083   5.733
 9448SOL    HW129243   6.144   1.098   5.671
 9448SOL    HW229244   5.993   1.040   5.684
 9449SOL     OW29245   5.573   0.048   2.042
 9449SOL    HW129246   5.591   7.010   2.123
 9449SOL    HW229247   5.484   0.022   2.003
 9450SOL     OW29248   1.094   6.311   2.645
 9450SOL    HW129249   0.995   6.326   2.647
 9450SOL    HW229250   1.140   6.388   2.689
 9451SOL     OW29251   3.772   4.810   6.739
 9451SOL    HW129252   3.717   4.829   6.820
 9451SOL    HW229253   3.720   4.754   6.675
 9452SOL     OW29254   6.258   4.285   6.705
 9452SOL    HW129255   6.234   4.321   6.796
 9452SOL    HW229256   6.271   4.360   6.641
 9453SOL     OW29257   5.009   5.226   1.522
 9453SOL    HW129258   5.069   5.277   1.585
 9453SOL    HW229259   4.913   5.241   1.549
 9454SOL     OW29260   5.930   4.516   0.788
 9454SOL    HW129261   5.908   4.608   0.755
 9454SOL    HW229262   5.993   4.472   0.724
 9455SOL     OW29263   3.459   1.326   1.814
 9455SOL    HW129264   3.445   1.366   1.723
 9455SOL    HW229265   3.371   1.316   1.860
 9456SOL     OW29266   0.082   2.840   3.082
 9456SOL    HW129267   7.016   2.783   3.080
 9456SOL    HW229268   0.056   2.935   3.100
 9457SOL     OW29269   6.244   6.372   4.803
 9457SOL    HW129270   6.283   6.390   4.713
 9457SOL    HW229271   6.164   6.313   4.793
 9458SOL     OW29272   6.461   3.711   6.758
 9458SOL    HW129273   6.548   3.684   6.798
 9458SOL    HW229274   6.388   3.701   6.826
 9459SOL     OW29275   4.827   4.462   5.872
 9459SOL    HW129276   4.879   4.536   5.830
 9459SOL    HW229277   4.729   4.480   5.860
 9460SOL     OW29278   0.977   2.960   2.765
 9460SOL    HW129279   0.959   3.037   2.827
 9460SOL    HW229280   0.903   2.893   2.773
 9461SOL     OW29281   1.391   1.974   1.873
 9461SOL    HW129282   1.420   2.065   1.905
 9461SOL    HW229283   1.300   1.981   1.832
 9462SOL     OW29284   0.276   1.173   4.310
 9462SOL    HW129285   0.264   1.139   4.404
 9462SOL    HW229286   0.333   1.109   4.259
 9463SOL     OW29287   5.747   4.375   1.752
 9463SOL    HW129288   5.828   4.391   1.808
 9463SOL    HW229289   5.710   4.284   1.772
 9464SOL     OW29290   1.372   1.023   2.001
 9464SOL    HW129291   1.297   0.988   1.945
 9464SOL    HW229292   1.451   1.042   1.944
 9465SOL     OW29293   6.747   4.892   1.200
 9465SOL    HW129294   6.771   4.924   1.109
 9465SOL    HW229295   6.723   4.795   1.196
 9466SOL     OW29296   4.122   4.284   5.519
 9466SOL    HW129297   4.186   4.215   5.554
 9466SOL    HW229298   4.097   4.346   5.594
 9467SOL     OW29299   1.992   3.258   0.160
 9467SOL    HW129300   1.933   3.221   0.088
 9467SOL    HW229301   1.937   3.310   0.225
 9468SOL     OW29302   6.267   1.649   0.920
 9468SOL    HW129303   6.249   1.740   0.884
 9468SOL    HW229304   6.240   1.646   1.017
 9469SOL     OW29305   0.160   6.378   1.130
 9469SOL    HW129306   0.089   6.431   1.174
 9469SOL    HW229307   0.135   6.362   1.034
 9470SOL     OW29308   3.482   3.410   0.248
 9470SOL    HW129309   3.525   3.496   0.220
 9470SOL    HW229310   3.384   3.424   0.261
 9471SOL     OW29311   6.249   2.741   4.907
 9471SOL    HW129312   6.169   2.785   4.866
 9471SOL    HW229313   6.326   2.746   4.844
 9472SOL     OW29314   1.615   3.542   5.910
 9472SOL    HW129315   1.593   3.535   5.812
 9472SOL    HW229316   1.685   3.475   5.934
 9473SOL     OW29317   2.637   3.892   1.374
 9473SOL    HW129318   2.678   3.914   1.463
 9473SOL    HW229319   2.542   3.921   1.373
 9474SOL     OW29320   5.880   4.080   1.330
 9474SOL    HW129321   5.904   4.057   1.235
 9474SOL    HW229322   5.957   4.056   1.390
 9475SOL     OW29323   5.104   4.491   6.280
 9475SOL    HW129324   5.076   4.395   6.288
 9475SOL    HW229325   5.052   4.535   6.207
 9476SOL     OW29326   4.140   3.910   0.426
 9476SOL    HW129327   4.129   3.883   0.522
 9476SOL    HW229328   4.134   3.829   0.368
 9477SOL     OW29329   1.893   4.119   0.346
 9477SOL    HW129330   1.860   4.213   0.351
 9477SOL    HW229331   1.988   4.115   0.377
 9478SOL     OW29332   5.550   3.501   5.921
 9478SOL    HW129333   5.634   3.449   5.900
 9478SOL    HW229334   5.568   3.598   5.909
 9479SOL     OW29335   3.939   0.311   2.129
 9479SOL    HW129336   3.945   0.404   2.166
 9479SOL    HW229337   3.954   0.313   2.030
 9480SOL     OW29338   6.146   0.918   0.696
 9480SOL    HW129339   6.244   0.901   0.713
 9480SOL    HW229340   6.121   1.008   0.732
 9481SOL     OW29341   4.215   0.170   2.972
 9481SOL    HW129342   4.251   0.208   2.887
 9481SOL    HW229343   4.269   0.202   3.050
 9482SOL     OW29344   6.408   6.261   6.811
 9482SOL    HW129345   6.380   6.321   6.736
 9482SOL    HW229346   6.355   6.283   6.892
 9483SOL     OW29347   6.626   6.959   0.193
 9483SOL    HW129348   6.604   6.865   0.219
 9483SOL    HW229349   6.582   6.980   0.105
 9484SOL     OW29350   3.628   6.125   4.087
 9484SOL    HW129351   3.598   6.191   4.156
 9484SOL    HW229352   3.674   6.173   4.012
 9485SOL     OW29353   0.327   1.465   6.566
 9485SOL    HW129354   0.237   1.447   6.526
 9485SOL    HW229355   0.385   1.384   6.555
 9486SOL     OW29356   5.432   5.887   0.094
 9486SOL    HW129357   5.387   5.903   0.182
 9486SOL    HW229358   5.367   5.847   0.029
 9487SOL     OW29359   3.404   3.683   3.058
 9487SOL    HW129360   3.379   3.705   3.153
 9487SOL    HW229361   3.337   3.620   3.020
 9488SOL     OW29362   1.660   0.853   1.334
 9488SOL    HW129363   1.715   0.934   1.353
 9488SOL    HW229364   1.600   0.872   1.255
 9489SOL     OW29365   5.499   2.993   0.193
 9489SOL    HW129366   5.525   3.085   0.220
 9489SOL    HW229367   5.568   2.955   0.132
 9490SOL     OW29368   5.373   3.453   4.833
 9490SOL    HW129369   5.356   3.421   4.926
 9490SOL    HW229370   5.471   3.449   4.814
 9491SOL     OW29371   5.164   6.641   2.746
 9491SOL    HW129372   5.191   6.545   2.742
 9491SOL    HW229373   5.243   6.698   2.722
 9492SOL     OW29374   5.059   2.922   3.386
 9492SOL    HW129375   5.049   2.838   3.441
 9492SOL    HW229376   5.116   2.903   3.307
 9493SOL     OW29377   4.012   5.880   1.346
 9493SOL    HW129378   3.945   5.807   1.360
 9493SOL    HW229379   4.047   5.909   1.434
 9494SOL     OW29380   5.833   2.039   2.039
 9494SOL    HW129381   5.739   2.071   2.043
 9494SOL    HW229382   5.862   2.012   2.131
 9495SOL     OW29383   0.136   2.447   1.448
 9495SOL    HW129384   0.097   2.378   1.387
 9495SOL    HW229385   0.233   2.430   1.461
 9496SOL     OW29386   5.982   1.951   1.474
 9496SOL    HW129387   5.923   1.871   1.459
 9496SOL    HW229388   5.958   2.023   1.410
 9497SOL     OW29389   4.645   4.439   4.387
 9497SOL    HW129390   4.685   4.347   4.381
 9497SOL    HW229391   4.610   4.453   4.479
 9498SOL     OW29392   0.306   5.674   4.158
 9498SOL    HW129393   0.215   5.714   4.152
 9498SOL    HW229394   0.372   5.734   4.114
 9499SOL     OW29395   5.979   5.995   5.146
 9499SOL    HW129396   5.992   6.089   5.116
 9499SOL    HW229397   5.986   5.933   5.068
 9500SOL     OW29398   3.466   1.902   1.158
 9500SOL    HW129399   3.419   1.986   1.185
 9500SOL    HW229400   3.565   1.919   1.154
 9501SOL     OW29401   1.565   3.469   4.803
 9501SOL    HW129402   1.629   3.410   4.754
 9501SOL    HW229403   1.478   3.470   4.756
 9502SOL     OW29404   5.140   4.978   4.295
 9502SOL    HW129405   5.173   5.012   4.383
 9502SOL    HW229406   5.204   4.911   4.258
 9503SOL     OW29407   6.337   1.280   0.401
 9503SOL    HW129408   6.265   1.306   0.465
 9503SOL    HW229409   6.407   1.351   0.398
 9504SOL     OW29410   6.161   5.450   1.982
 9504SOL    HW129411   6.134   5.423   2.075
 9504SOL    HW229412   6.091   5.419   1.917
 9505SOL     OW29413   4.201   4.537   5.927
 9505SOL    HW129414   4.172   4.504   6.017
 9505SOL    HW229415   4.221   4.635   5.932
 9506SOL     OW29416   2.823   0.704   1.533
 9506SOL    HW129417   2.909   0.703   1.483
 9506SOL    HW229418   2.821   0.629   1.599
 9507SOL     OW29419   5.089   0.064   2.236
 9507SOL    HW129420   5.172   0.025   2.277
 9507SOL    HW229421   5.070   0.153   2.277
 9508SOL     OW29422   4.310   1.976   2.621
 9508SOL    HW129423   4.260   1.908   2.676
 9508SOL    HW229424   4.365   1.930   2.552
 9509SOL     OW29425   5.317   0.650   2.833
 9509SOL    HW129426   5.352   0.627   2.924
 9509SOL    HW229427   5.219   0.630   2.829
 9510SOL     OW29428   1.177   2.841   3.698
 9510SOL    HW129429   1.086   2.840   3.739
 9510SOL    HW229430   1.195   2.753   3.655
 9511SOL     OW29431   0.749   1.538   0.958
 9511SOL    HW129432   0.746   1.589   0.872
 9511SOL    HW229433   0.751   1.602   1.035
 9512SOL     OW29434   6.603   2.183   1.114
 9512SOL    HW129435   6.645   2.094   1.096
 9512SOL    HW229436   6.585   2.230   1.028
 9513SOL     OW29437   4.500   4.213   5.752
 9513SOL    HW129438   4.500   4.217   5.852
 9513SOL    HW229439   4.472   4.301   5.715
 9514SOL     OW29440   3.665   2.871   6.886
 9514SOL    HW129441   3.704   2.848   6.975
 9514SOL    HW229442   3.699   2.808   6.817
 9515SOL     OW29443   0.841   5.697   3.170
 9515SOL    HW129444   0.754   5.648   3.160
 9515SOL    HW229445   0.855   5.756   3.090
 9516SOL     OW29446   0.005   4.736   0.036
 9516SOL    HW129447   6.960   4.665   0.070
 9516SOL    HW229448   0.001   4.739   6.953
 9517SOL     OW29449   0.583   5.943   1.301
 9517SOL    HW129450   0.521   5.919   1.226
 9517SOL    HW229451   0.625   5.860   1.337
 9518SOL     OW29452   1.432   0.763   1.094
 9518SOL    HW129453   1.387   0.698   1.032
 9518SOL    HW229454   1.449   0.718   1.182
 9519SOL     OW29455   1.291   3.451   5.388
 9519SOL    HW129456   1.354   3.485   5.458
 9519SOL    HW229457   1.202   3.497   5.398
 9520SOL     OW29458   4.412   0.093   1.666
 9520SOL    HW129459   4.348   0.158   1.705
 9520SOL    HW229460   4.446   0.032   1.737
 9521SOL     OW29461   5.153   5.252   3.705
 9521SOL    HW129462   5.210   5.309   3.765
 9521SOL    HW229463   5.097   5.191   3.761
 9522SOL     OW29464   3.620   6.501   0.761
 9522SOL    HW129465   3.574   6.412   0.762
 9522SOL    HW229466   3.709   6.493   0.805
 9523SOL     OW29467   2.496   5.965   5.671
 9523SOL    HW129468   2.529   5.934   5.582
 9523SOL    HW229469   2.413   6.020   5.659
 9524SOL     OW29470   4.404   2.520   0.574
 9524SOL    HW129471   4.408   2.455   0.649
 9524SOL    HW229472   4.390   2.471   0.488
 9525SOL     OW29473   3.499   6.898   5.526
 9525SOL    HW129474   3.458   6.956   5.597
 9525SOL    HW229475   3.577   6.849   5.565
 9526SOL     OW29476   4.814   6.038   2.068
 9526SOL    HW129477   4.737   6.060   2.009
 9526SOL    HW229478   4.870   6.119   2.083
 9527SOL     OW29479   6.298   2.144   1.237
 9527SOL    HW129480   6.389   2.124   1.202
 9527SOL    HW229481   6.285   2.101   1.326
 9528SOL     OW29482   6.484   0.534   1.941
 9528SOL    HW129483   6.473   0.577   2.030
 9528SOL    HW229484   6.410   0.564   1.880
 9529SOL     OW29485   1.101   3.490   4.426
 9529SOL    HW129486   1.108   3.564   4.360
 9529SOL    HW229487   1.026   3.508   4.489
 9530SOL     OW29488   1.610   2.500   4.120
 9530SOL    HW129489   1.621   2.503   4.021
 9530SOL    HW229490   1.588   2.407   4.148
 9531SOL     OW29491   2.794   6.094   3.289
 9531SOL    HW129492   2.830   6.019   3.345
 9531SOL    HW229493   2.694   6.088   3.285
 9532SOL     OW29494   2.855   0.801   1.167
 9532SOL    HW129495   2.831   0.704   1.161
 9532SOL    HW229496   2.798   0.845   1.236
 9533SOL     OW29497   1.277   0.202   4.978
 9533SOL    HW129498   1.226   0.273   5.027
 9533SOL    HW229499   1.221   0.165   4.904
 9534SOL     OW29500   4.469   1.953   4.391
 9534SOL    HW129501   4.499   1.946   4.296
 9534SOL    HW229502   4.512   1.880   4.444
 9535SOL     OW29503   2.596   2.177   4.835
 9535SOL    HW129504   2.640   2.088   4.841
 9535SOL    HW229505   2.573   2.198   4.740
 9536SOL     OW29506   3.125   6.808   6.676
 9536SOL    HW129507   3.124   6.887   6.736
 9536SOL    HW229508   3.167   6.730   6.723
 9537SOL     OW29509   2.694   6.980   0.365
 9537SOL    HW129510   2.736   6.899   0.326
 9537SOL    HW229511   2.733   6.997   0.456
 9538SOL     OW29512   5.577   3.365   4.316
 9538SOL    HW129513   5.587   3.392   4.221
 9538SOL    HW229514   5.575   3.446   4.374
 9539SOL     OW29515   0.427   4.554   0.833
 9539SOL    HW129516   0.361   4.629   0.831
 9539SOL    HW229517   0.423   4.504   0.746
 9540SOL     OW29518   5.379   3.273   5.585
 9540SOL    HW129519   5.313   3.216   5.633
 9540SOL    HW229520   5.357   3.370   5.598
 9541SOL     OW29521   0.071   1.481   3.371
 9541SOL    HW129522   7.007   1.464   3.427
 9541SOL    HW229523   0.052   1.555   3.306
 9542SOL     OW29524   4.927   3.923   4.442
 9542SOL    HW129525   4.869   3.935   4.522
 9542SOL    HW229526   5.017   3.890   4.471
 9543SOL     OW29527   5.479   2.115   1.612
 9543SOL    HW129528   5.442   2.108   1.519
 9543SOL    HW229529   5.535   2.034   1.631
 9544SOL     OW29530   3.309   1.702   2.085
 9544SOL    HW129531   3.226   1.744   2.051
 9544SOL    HW229532   3.366   1.771   2.130
 9545SOL     OW29533   0.646   0.194   4.615
 9545SOL    HW129534   0.553   0.229   4.622
 9545SOL    HW229535   0.696   0.247   4.546
 9546SOL     OW29536   2.100   4.044   1.508
 9546SOL    HW129537   2.091   4.104   1.588
 9546SOL    HW229538   2.024   4.061   1.446
 9547SOL     OW29539   6.420   5.373   3.332
 9547SOL    HW129540   6.321   5.376   3.348
 9547SOL    HW229541   6.449   5.457   3.287
 9548SOL     OW29542   4.723   6.475   2.676
 9548SOL    HW129543   4.809   6.435   2.643
 9548SOL    HW229544   4.732   6.499   2.773
 9549SOL     OW29545   2.728   5.502   0.373
 9549SOL    HW129546   2.788   5.432   0.413
 9549SOL    HW229547   2.693   5.561   0.446
 9550SOL     OW29548   1.558   1.392   6.909
 9550SOL    HW129549   1.526   1.483   6.885
 9550SOL    HW229550   1.656   1.384   6.887
 9551SOL     OW29551   1.631   6.258   5.988
 9551SOL    HW129552   1.678   6.345   5.999
 9551SOL    HW229553   1.681   6.202   5.921
 9552SOL     OW29554   0.293   5.458   3.383
 9552SOL    HW129555   0.372   5.416   3.337
 9552SOL    HW229556   0.315   5.553   3.407
 9553SOL     OW29557   5.194   4.567   5.563
 9553SOL    HW129558   5.120   4.509   5.527
 9553SOL    HW229559   5.195   4.562   5.662
 9554SOL     OW29560   2.074   1.427   1.382
 9554SOL    HW129561   2.083   1.466   1.474
 9554SOL    HW229562   2.162   1.435   1.334
 9555SOL     OW29563   6.756   2.440   6.342
 9555SOL    HW129564   6.719   2.418   6.432
 9555SOL    HW229565   6.844   2.394   6.329
 9556SOL     OW29566   6.773   1.548   1.016
 9556SOL    HW129567   6.699   1.590   1.068
 9556SOL    HW229568   6.855   1.544   1.073
 9557SOL     OW29569   5.502   2.390   1.593
 9557SOL    HW129570   5.585   2.411   1.645
 9557SOL    HW229571   5.447   2.324   1.645
 9558SOL     OW29572   5.674   4.701   1.664
 9558SOL    HW129573   5.575   4.691   1.674
 9558SOL    HW229574   5.715   4.613   1.642
 9559SOL     OW29575   6.102   2.522   2.514
 9559SOL    HW129576   6.134   2.430   2.538
 9559SOL    HW229577   6.025   2.515   2.451
 9560SOL     OW29578   3.780   1.774   5.018
 9560SOL    HW129579   3.740   1.687   5.047
 9560SOL    HW229580   3.802   1.830   5.098
 9561SOL     OW29581   3.564   6.595   6.823
 9561SOL    HW129582   3.484   6.550   6.863
 9561SOL    HW229583   3.643   6.534   6.830
 9562SOL     OW29584   5.858   4.957   3.646
 9562SOL    HW129585   5.790   5.030   3.645
 9562SOL    HW229586   5.939   4.987   3.698
 9563SOL     OW29587   0.424   6.398   6.953
 9563SOL    HW129588   0.374   6.480   6.927
 9563SOL    HW229589   0.360   6.331   6.991
 9564SOL     OW29590   1.903   0.322   6.199
 9564SOL    HW129591   1.980   0.385   6.210
 9564SOL    HW229592   1.905   0.282   6.108
 9565SOL     OW29593   4.078   5.688   4.053
 9565SOL    HW129594   4.170   5.678   4.090
 9565SOL    HW229595   4.039   5.598   4.034
 9566SOL     OW29596   3.159   4.770   5.841
 9566SOL    HW129597   3.191   4.675   5.840
 9566SOL    HW229598   3.100   4.785   5.920
 9567SOL     OW29599   6.372   5.466   5.122
 9567SOL    HW129600   6.292   5.490   5.067
 9567SOL    HW229601   6.349   5.391   5.184
 9568SOL     OW29602   5.597   4.099   6.359
 9568SOL    HW129603   5.507   4.120   6.397
 9568SOL    HW229604   5.595   4.008   6.317
 9569SOL     OW29605   5.369   6.354   1.996
 9569SOL    HW129606   5.323   6.416   2.059
 9569SOL    HW229607   5.401   6.406   1.917
 9570SOL     OW29608   0.912   0.625   6.889
 9570SOL    HW129609   0.933   0.719   6.863
 9570SOL    HW229610   0.814   0.617   6.910
 9571SOL     OW29611   2.515   2.940   6.918
 9571SOL    HW129612   2.491   2.897   6.831
 9571SOL    HW229613   2.524   3.039   6.905
 9572SOL     OW29614   0.391   4.111   0.546
 9572SOL    HW129615   0.484   4.144   0.566
 9572SOL    HW229616   0.383   4.015   0.574
 9573SOL     OW29617   5.974   1.534   2.146
 9573SOL    HW129618   5.915   1.571   2.074
 9573SOL    HW229619   6.049   1.482   2.105
 9574SOL     OW29620   2.511   1.923   3.735
 9574SOL    HW129621   2.459   1.890   3.813
 9574SOL    HW229622   2.461   1.996   3.689
 9575SOL     OW29623   4.686   1.062   2.516
 9575SOL    HW129624   4.644   0.996   2.455
 9575SOL    HW229625   4.758   1.018   2.569
 9576SOL     OW29626   4.096   2.600   5.631
 9576SOL    HW129627   4.034   2.594   5.553
 9576SOL    HW229628   4.152   2.682   5.624
 9577SOL     OW29629   0.573   6.167   3.368
 9577SOL    HW129630   0.672   6.181   3.381
 9577SOL    HW229631   0.542   6.222   3.291
 9578SOL     OW29632   6.309   4.192   2.181
 9578SOL    HW129633   6.395   4.152   2.147
 9578SOL    HW229634   6.320   4.220   2.276
 9579SOL     OW29635   1.759   6.440   2.947
 9579SOL    HW129636   1.750   6.502   2.869
 9579SOL    HW229637   1.837   6.379   2.933
 9580SOL     OW29638   4.710   3.459   5.652
 9580SOL    HW129639   4.716   3.525   5.727
 9580SOL    HW229640   4.668   3.502   5.572
 9581SOL     OW29641   1.395   5.247   5.897
 9581SOL    HW129642   1.318   5.275   5.954
 9581SOL    HW229643   1.472   5.310   5.910
 9582SOL     OW29644   4.241   4.688   3.699
 9582SOL    HW129645   4.293   4.628   3.760
 9582SOL    HW229646   4.266   4.783   3.716
 9583SOL     OW29647   2.123   4.765   1.768
 9583SOL    HW129648   2.058   4.714   1.825
 9583SOL    HW229649   2.167   4.702   1.704
 9584SOL     OW29650   5.630   5.081   6.849
 9584SOL    HW129651   5.646   5.054   6.754
 9584SOL    HW229652   5.571   5.162   6.851
 9585SOL     OW29653   0.735   0.279   3.334
 9585SOL    HW129654   0.687   0.330   3.405
 9585SOL    HW229655   0.760   0.189   3.369
 9586SOL     OW29656   5.289   2.961   2.583
 9586SOL    HW129657   5.295   2.895   2.508
 9586SOL    HW229658   5.226   3.034   2.558
 9587SOL     OW29659   4.948   6.353   2.582
 9587SOL    HW129660   4.966   6.286   2.654
 9587SOL    HW229661   5.020   6.422   2.582
 9588SOL     OW29662   0.102   0.376   3.493
 9588SOL    HW129663   0.065   0.419   3.411
 9588SOL    HW229664   0.201   0.362   3.482
 9589SOL     OW29665   2.886   1.716   4.940
 9589SOL    HW129666   2.948   1.750   5.010
 9589SOL    HW229667   2.841   1.793   4.895
 9590SOL     OW29668   0.586   4.891   4.256
 9590SOL    HW129669   0.580   4.837   4.172
 9590SOL    HW229670   0.497   4.930   4.277
 9591SOL     OW29671   1.385   4.371   2.701
 9591SOL    HW129672   1.290   4.387   2.672
 9591SOL    HW229673   1.447   4.394   2.626
 9592SOL     OW29674   4.803   6.162   1.768
 9592SOL    HW129675   4.738   6.179   1.695
 9592SOL    HW229676   4.870   6.236   1.772
 9593SOL     OW29677   2.062   2.720   3.555
 9593SOL    HW129678   1.963   2.710   3.560
 9593SOL    HW229679   2.091   2.795   3.615
 9594SOL     OW29680   6.037   0.013   1.521
 9594SOL    HW129681   5.970   6.957   1.538
 9594SOL    HW229682   5.992   0.090   1.477
 9595SOL     OW29683   1.210   4.710   4.255
 9595SOL    HW129684   1.213   4.634   4.320
 9595SOL    HW229685   1.278   4.779   4.283
 9596SOL     OW29686   5.143   5.475   2.530
 9596SOL    HW129687   5.070   5.445   2.468
 9596SOL    HW229688   5.229   5.433   2.501
 9597SOL     OW29689   1.623   4.505   0.888
 9597SOL    HW129690   1.628   4.584   0.949
 9597SOL    HW229691   1.655   4.424   0.936
 9598SOL     OW29692   1.003   5.887   5.799
 9598SOL    HW129693   1.094   5.890   5.757
 9598SOL    HW229694   0.996   5.961   5.866
 9599SOL     OW29695   4.133   1.641   4.418
 9599SOL    HW129696   4.173   1.706   4.482
 9599SOL    HW229697   4.191   1.560   4.413
 9600SOL     OW29698   1.646   5.483   0.144
 9600SOL    HW129699   1.571   5.477   0.078
 9600SOL    HW229700   1.733   5.483   0.096
 9601SOL     OW29701   0.817   6.814   6.537
 9601SOL    HW129702   0.752   6.750   6.496
 9601SOL    HW229703   0.768   6.881   6.592
 9602SOL     OW29704   0.543   5.313   0.006
 9602SOL    HW129705   0.566   5.343   0.098
 9602SOL    HW229706   0.455   5.351   6.997
 9603SOL     OW29707   1.171   4.817   3.084
 9603SOL    HW129708   1.159   4.740   3.021
 9603SOL    HW229709   1.094   4.822   3.147
 9604SOL     OW29710   6.800   0.138   0.216
 9604SOL    HW129711   6.721   0.078   0.227
 9604SOL    HW229712   6.880   0.096   0.260
 9605SOL     OW29713   2.481   5.342   6.852
 9605SOL    HW129714   2.580   5.352   6.846
 9605SOL    HW229715   2.450   5.371   6.943
 9606SOL     OW29716   6.422   0.433   5.485
 9606SOL    HW129717   6.498   0.379   5.450
 9606SOL    HW229718   6.344   0.374   5.502
 9607SOL     OW29719   6.766   1.634   2.652
 9607SOL    HW129720   6.844   1.666   2.598
 9607SOL    HW229721   6.714   1.712   2.686
 9608SOL     OW29722   6.423   6.937   2.527
 9608SOL    HW129723   6.466   6.847   2.523
 9608SOL    HW229724   6.324   6.927   2.537
 9609SOL     OW29725   1.730   2.189   3.855
 9609SOL    HW129726   1.766   2.146   3.938
 9609SOL    HW229727   1.805   2.212   3.794
 9610SOL     OW29728   3.803   1.002   5.858
 9610SOL    HW129729   3.726   0.979   5.917
 9610SOL    HW229730   3.888   0.993   5.909
 9611SOL     OW29731   6.009   5.647   0.924
 9611SOL    HW129732   6.033   5.737   0.889
 9611SOL    HW229733   5.914   5.626   0.898
 9612SOL     OW29734   5.247   3.543   2.755
 9612SOL    HW129735   5.160   3.517   2.796
 9612SOL    HW229736   5.250   3.642   2.742
 9613SOL     OW29737   6.135   6.700   5.095
 9613SOL    HW129738   6.222   6.718   5.049
 9613SOL    HW229739   6.098   6.786   5.131
 9614SOL     OW29740   3.025   2.866   1.745
 9614SOL    HW129741   3.123   2.865   1.767
 9614SOL    HW229742   2.982   2.786   1.785
 9615SOL     OW29743   0.496   5.853   4.035
 9615SOL    HW129744   0.592   5.826   4.031
 9615SOL    HW229745   0.462   5.871   3.943
 9616SOL     OW29746   1.808   2.856   1.484
 9616SOL    HW129747   1.838   2.833   1.391
 9616SOL    HW229748   1.882   2.835   1.549
 9617SOL     OW29749   0.121   3.137   2.542
 9617SOL    HW129750   0.106   3.234   2.558
 9617SOL    HW229751   0.190   3.125   2.471
 9618SOL     OW29752   4.554   4.176   0.748
 9618SOL    HW129753   4.458   4.189   0.724
 9618SOL    HW229754   4.562   4.099   0.811
 9619SOL     OW29755   1.157   6.758   1.516
 9619SOL    HW129756   1.102   6.835   1.484
 9619SOL    HW229757   1.097   6.687   1.553
 9620SOL     OW29758   3.618   2.081   6.824
 9620SOL    HW129759   3.672   2.043   6.899
 9620SOL    HW229760   3.672   2.085   6.741
 9621SOL     OW29761   0.390   1.200   1.815
 9621SOL    HW129762   0.418   1.107   1.840
 9621SOL    HW229763   0.471   1.259   1.812
 9622SOL     OW29764   0.279   5.677   6.177
 9622SOL    HW129765   0.308   5.583   6.161
 9622SOL    HW229766   0.247   5.687   6.271
 9623SOL     OW29767   3.670   6.355   5.723
 9623SOL    HW129768   3.578   6.379   5.753
 9623SOL    HW229769   3.681   6.381   5.627
 9624SOL     OW29770   4.398   5.389   4.840
 9624SOL    HW129771   4.364   5.460   4.902
 9624SOL    HW229772   4.425   5.309   4.894
 9625SOL     OW29773   5.203   3.879   6.429
 9625SOL    HW129774   5.179   3.925   6.514
 9625SOL    HW229775   5.289   3.829   6.441
 9626SOL     OW29776   2.567   2.506   6.789
 9626SOL    HW129777   2.661   2.527   6.763
 9626SOL    HW229778   2.566   2.458   6.877
 9627SOL     OW29779   0.666   5.131   0.399
 9627SOL    HW129780   0.673   5.033   0.413
 9627SOL    HW229781   0.572   5.161   0.419
 9628SOL     OW29782   6.730   1.841   6.222
 9628SOL    HW129783   6.709   1.821   6.318
 9628SOL    HW229784   6.658   1.804   6.164
 9629SOL     OW29785   0.335   6.216   3.839
 9629SOL    HW129786   0.296   6.279   3.772
 9629SOL    HW229787   0.261   6.170   3.888
 9630SOL     OW29788   5.981   1.310   5.846
 9630SOL    HW129789   6.016   1.220   5.818
 9630SOL    HW229790   5.886   1.320   5.815
 9631SOL     OW29791   4.366   6.372   0.820
 9631SOL    HW129792   4.379   6.388   0.722
 9631SOL    HW229793   4.415   6.289   0.848
 9632SOL     OW29794   2.567   4.862   2.698
 9632SOL    HW129795   2.601   4.921   2.771
 9632SOL    HW229796   2.467   4.854   2.705
 9633SOL     OW29797   3.029   3.169   3.507
 9633SOL    HW129798   3.055   3.132   3.418
 9633SOL    HW229799   3.093   3.241   3.533
 9634SOL     OW29800   5.195   4.737   3.372
 9634SOL    HW129801   5.161   4.655   3.327
 9634SOL    HW229802   5.193   4.814   3.308
 9635SOL     OW29803   0.739   5.127   3.658
 9635SOL    HW129804   0.821   5.174   3.689
 9635SOL    HW229805   0.689   5.091   3.737
 9636SOL     OW29806   5.204   4.081   4.253
 9636SOL    HW129807   5.292   4.082   4.204
 9636SOL    HW229808   5.209   4.014   4.327
 9637SOL     OW29809   1.283   3.509   0.162
 9637SOL    HW129810   1.338   3.436   0.121
 9637SOL    HW229811   1.284   3.589   0.103
 9638SOL     OW29812   6.069   5.403   6.286
 9638SOL    HW129813   6.057   5.493   6.329
 9638SOL    HW229814   6.137   5.351   6.336
 9639SOL     OW29815   4.566   1.893   0.871
 9639SOL    HW129816   4.599   1.846   0.953
 9639SOL    HW229817   4.537   1.985   0.894
 9640SOL     OW29818   4.238   0.691   3.785
 9640SOL    HW129819   4.149   0.701   3.828
 9640SOL    HW229820   4.229   0.698   3.686
 9641SOL     OW29821   6.817   3.018   3.866
 9641SOL    HW129822   6.775   3.074   3.795
 9641SOL    HW229823   6.753   3.007   3.942
 9642SOL     OW29824   0.896   1.218   4.568
 9642SOL    HW129825   0.884   1.218   4.468
 9642SOL    HW229826   0.918   1.126   4.599
 9643SOL     OW29827   5.313   5.280   3.953
 9643SOL    HW129828   5.280   5.310   4.042
 9643SOL    HW229829   5.365   5.354   3.910
 9644SOL     OW29830   0.640   5.326   4.005
 9644SOL    HW129831   0.575   5.250   4.018
 9644SOL    HW229832   0.731   5.297   4.032
 9645SOL     OW29833   0.942   5.228   6.213
 9645SOL    HW129834   0.963   5.318   6.252
 9645SOL    HW229835   0.948   5.159   6.285
 9646SOL     OW29836   3.893   5.725   0.312
 9646SOL    HW129837   3.873   5.822   0.297
 9646SOL    HW229838   3.955   5.692   0.242
 9647SOL     OW29839   5.938   6.348   2.895
 9647SOL    HW129840   5.879   6.427   2.886
 9647SOL    HW229841   6.033   6.374   2.875
 9648SOL     OW29842   3.738   1.744   1.050
 9648SOL    HW129843   3.751   1.775   0.956
 9648SOL    HW229844   3.741   1.823   1.111
 9649SOL     OW29845   0.470   5.382   0.502
 9649SOL    HW129846   0.442   5.447   0.573
 9649SOL    HW229847   0.570   5.384   0.493
 9650SOL     OW29848   0.577   4.959   3.802
 9650SOL    HW129849   0.602   4.904   3.722
 9650SOL    HW229850   0.576   4.902   3.884
 9651SOL     OW29851   3.913   1.976   6.851
 9651SOL    HW129852   3.906   1.876   6.857
 9651SOL    HW229853   3.933   2.001   6.756
 9652SOL     OW29854   0.504   3.996   0.105
 9652SOL    HW129855   0.571   4.010   0.178
 9652SOL    HW229856   0.439   4.072   0.103
 9653SOL     OW29857   5.036   4.203   5.933
 9653SOL    HW129858   5.128   4.222   5.898
 9653SOL    HW229859   4.971   4.265   5.891
 9654SOL     OW29860   3.554   3.403   3.316
 9654SOL    HW129861   3.590   3.427   3.226
 9654SOL    HW229862   3.498   3.478   3.351
 9655SOL     OW29863   4.174   1.655   0.824
 9655SOL    HW129864   4.206   1.742   0.860
 9655SOL    HW229865   4.131   1.602   0.897
 9656SOL     OW29866   5.738   4.249   6.542
 9656SOL    HW129867   5.699   4.185   6.476
 9656SOL    HW229868   5.803   4.201   6.601
 9657SOL     OW29869   5.475   4.373   4.311
 9657SOL    HW129870   5.470   4.461   4.264
 9657SOL    HW229871   5.401   4.314   4.279
 9658SOL     OW29872   4.833   1.679   1.939
 9658SOL    HW129873   4.857   1.686   2.036
 9658SOL    HW229874   4.881   1.750   1.888
 9659SOL     OW29875   2.699   3.104   6.373
 9659SOL    HW129876   2.730   3.198   6.381
 9659SOL    HW229877   2.606   3.102   6.338
 9660SOL     OW29878   1.669   6.301   1.718
 9660SOL    HW129879   1.624   6.213   1.730
 9660SOL    HW229880   1.761   6.297   1.758
 9661SOL     OW29881   3.932   4.058   1.342
 9661SOL    HW129882   3.967   4.127   1.279
 9661SOL    HW229883   3.979   4.067   1.430
 9662SOL     OW29884   5.770   6.522   6.343
 9662SOL    HW129885   5.673   6.500   6.349
 9662SOL    HW229886   5.804   6.551   6.432
 9663SOL     OW29887   1.005   5.357   2.413
 9663SOL    HW129888   1.027   5.280   2.353
 9663SOL    HW229889   1.032   5.334   2.507
 9664SOL     OW29890   3.674   4.946   2.183
 9664SOL    HW129891   3.665   4.898   2.096
 9664SOL    HW229892   3.747   5.014   2.177
 9665SOL     OW29893   6.909   5.241   6.171
 9665SOL    HW129894   6.950   5.332   6.181
 9665SOL    HW229895   6.870   5.213   6.258
 9666SOL     OW29896   5.512   4.275   0.119
 9666SOL    HW129897   5.507   4.354   0.181
 9666SOL    HW229898   5.496   4.305   0.026
 9667SOL     OW29899   5.761   6.302   0.070
 9667SOL    HW129900   5.749   6.203   0.064
 9667SOL    HW229901   5.682   6.348   0.029
 9668SOL     OW29902   1.395   1.033   5.913
 9668SOL    HW129903   1.396   1.079   6.002
 9668SOL    HW229904   1.343   0.948   5.919
 9669SOL     OW29905   3.122   0.435   0.158
 9669SOL    HW129906   3.035   0.439   0.207
 9669SOL    HW229907   3.197   0.457   0.221
 9670SOL     OW29908   0.394   0.427   0.371
 9670SOL    HW129909   0.457   0.396   0.301
 9670SOL    HW229910   0.353   0.348   0.417
 9671SOL     OW29911   0.690   5.256   6.464
 9671SOL    HW129912   0.688   5.350   6.498
 9671SOL    HW229913   0.778   5.214   6.484
 9672SOL     OW29914   1.102   3.980   4.020
 9672SOL    HW129915   1.138   4.073   4.016
 9672SOL    HW229916   1.106   3.947   4.114
 9673SOL     OW29917   1.914   3.560   6.952
 9673SOL    HW129918   1.862   3.537   6.869
 9673SOL    HW229919   1.975   3.637   6.933
 9674SOL     OW29920   1.853   6.430   4.116
 9674SOL    HW129921   1.788   6.468   4.050
 9674SOL    HW229922   1.897   6.349   4.078
 9675SOL     OW29923   6.055   3.563   5.849
 9675SOL    HW129924   6.119   3.623   5.897
 9675SOL    HW229925   5.971   3.612   5.829
 9676SOL     OW29926   0.717   3.004   6.554
 9676SOL    HW129927   0.679   2.918   6.587
 9676SOL    HW229928   0.772   3.046   6.626
 9677SOL     OW29929   6.428   5.360   2.177
 9677SOL    HW129930   6.361   5.287   2.189
 9677SOL    HW229931   6.519   5.326   2.202
 9678SOL     OW29932   3.420   3.938   5.104
 9678SOL    HW129933   3.502   3.882   5.087
 9678SOL    HW229934   3.379   3.909   5.191
 9679SOL     OW29935   1.739   1.108   4.339
 9679SOL    HW129936   1.741   1.125   4.438
 9679SOL    HW229937   1.813   1.046   4.314
 9680SOL     OW29938   4.516   6.956   1.860
 9680SOL    HW129939   4.584   0.000   1.901
 9680SOL    HW229940   4.458   6.918   1.932
 9681SOL     OW29941   0.987   2.500   2.073
 9681SOL    HW129942   1.064   2.557   2.044
 9681SOL    HW229943   0.956   2.444   1.996
 9682SOL     OW29944   5.299   6.374   6.126
 9682SOL    HW129945   5.298   6.297   6.062
 9682SOL    HW229946   5.255   6.453   6.083
 9683SOL     OW29947   3.123   6.233   2.904
 9683SOL    HW129948   3.203   6.173   2.906
 9683SOL    HW229949   3.121   6.288   2.988
 9684SOL     OW29950   0.005   3.499   5.251
 9684SOL    HW129951   0.003   3.486   5.152
 9684SOL    HW229952   6.938   3.545   5.280
 9685SOL     OW29953   3.442   4.514   1.430
 9685SOL    HW129954   3.390   4.432   1.452
 9685SOL    HW229955   3.526   4.517   1.484
 9686SOL     OW29956   6.331   1.112   5.617
 9686SOL    HW129957   6.326   1.207   5.585
 9686SOL    HW229958   6.299   1.051   5.545
 9687SOL     OW29959   4.696   1.177   3.153
 9687SOL    HW129960   4.748   1.158   3.070
 9687SOL    HW229961   4.724   1.266   3.189
 9688SOL     OW29962   1.069   5.506   1.793
 9688SOL    HW129963   1.167   5.494   1.775
 9688SOL    HW229964   1.018   5.429   1.754
 9689SOL     OW29965   2.201   6.136   1.254
 9689SOL    HW129966   2.229   6.074   1.327
 9689SOL    HW229967   2.282   6.176   1.211
 9690SOL     OW29968   6.858   4.462   4.665
 9690SOL    HW129969   6.869   4.363   4.676
 9690SOL    HW229970   6.847   4.483   4.568
 9691SOL     OW29971   2.862   3.466   1.838
 9691SOL    HW129972   2.860   3.514   1.925
 9691SOL    HW229973   2.940   3.498   1.784
 9692SOL     OW29974   5.340   4.518   0.597
 9692SOL    HW129975   5.381   4.566   0.674
 9692SOL    HW229976   5.255   4.474   0.625
 9693SOL     OW29977   4.434   3.016   5.343
 9693SOL    HW129978   4.522   3.003   5.298
 9693SOL    HW229979   4.366   2.956   5.301
 9694SOL     OW29980   2.956   0.286   2.105
 9694SOL    HW129981   2.971   0.316   2.011
 9694SOL    HW229982   2.984   0.190   2.115
 9695SOL     OW29983   1.003   2.530   3.950
 9695SOL    HW129984   0.934   2.582   4.000
 9695SOL    HW229985   1.027   2.448   4.003
 9696SOL     OW29986   5.377   2.427   3.980
 9696SOL    HW129987   5.307   2.384   3.923
 9696SOL    HW229988   5.411   2.510   3.934
 9697SOL     OW29989   0.167   6.697   1.076
 9697SOL    HW129990   0.088   6.686   1.016
 9697SOL    HW229991   0.250   6.700   1.020
 9698SOL     OW29992   6.945   3.278   2.090
 9698SOL    HW129993   0.011   3.223   2.080
 9698SOL    HW229994   6.913   3.271   2.185
 9699SOL     OW29995   2.087   5.858   1.389
 9699SOL    HW129996   2.004   5.880   1.441
 9699SOL    HW229997   2.097   5.759   1.384
 9700SOL     OW29998   5.330   0.175   5.683
 9700SOL    HW129999   5.378   0.257   5.651
 9700SOL    HW230000   5.384   0.094   5.660
 9701SOL     OW30001   4.697   3.856   6.992
 9701SOL    HW130002   4.797   3.844   6.992
 9701SOL    HW230003   4.676   3.953   6.979
 9702SOL     OW30004   3.888   3.967   2.172
 9702SOL    HW130005   3.920   4.042   2.230
 9702SOL    HW230006   3.921   3.880   2.209
 9703SOL     OW30007   6.060   4.508   4.072
 9703SOL    HW130008   5.969   4.469   4.089
 9703SOL    HW230009   6.057   4.562   3.988
 9704SOL     OW30010   1.420   4.445   3.035
 9704SOL    HW130011   1.440   4.387   2.956
 9704SOL    HW230012   1.428   4.541   3.008
 9705SOL     OW30013   0.776   2.757   5.645
 9705SOL    HW130014   0.680   2.784   5.655
 9705SOL    HW230015   0.832   2.807   5.711
 9706SOL     OW30016   0.562   1.238   2.857
 9706SOL    HW130017   0.509   1.283   2.784
 9706SOL    HW230018   0.648   1.204   2.820
 9707SOL     OW30019   0.813   4.831   2.419
 9707SOL    HW130020   0.912   4.846   2.415
 9707SOL    HW230021   0.765   4.919   2.412
 9708SOL     OW30022   2.583   0.428   2.146
 9708SOL    HW130023   2.507   0.464   2.199
 9708SOL    HW230024   2.669   0.441   2.196
 9709SOL     OW30025   5.583   2.400   1.326
 9709SOL    HW130026   5.551   2.379   1.419
 9709SOL    HW230027   5.513   2.453   1.278
 9710SOL     OW30028   5.908   5.454   4.415
 9710SOL    HW130029   5.881   5.371   4.464
 9710SOL    HW230030   5.942   5.430   4.325
 9711SOL     OW30031   3.374   1.417   0.108
 9711SOL    HW130032   3.433   1.337   0.114
 9711SOL    HW230033   3.294   1.396   0.052
 9712SOL     OW30034   5.697   1.008   6.686
 9712SOL    HW130035   5.662   0.941   6.752
 9712SOL    HW230036   5.761   0.963   6.624
 9713SOL     OW30037   2.373   0.261   2.461
 9713SOL    HW130038   2.348   0.231   2.553
 9713SOL    HW230039   2.310   0.333   2.430
 9714SOL     OW30040   2.336   4.196   4.445
 9714SOL    HW130041   2.241   4.228   4.434
 9714SOL    HW230042   2.380   4.248   4.518
 9715SOL     OW30043   6.316   3.508   6.338
 9715SOL    HW130044   6.317   3.413   6.370
 9715SOL    HW230045   6.358   3.512   6.247
 9716SOL     OW30046   2.509   5.231   0.459
 9716SOL    HW130047   2.430   5.248   0.519
 9716SOL    HW230048   2.486   5.258   0.366
 9717SOL     OW30049   3.577   1.917   5.366
 9717SOL    HW130050   3.537   1.865   5.291
 9717SOL    HW230051   3.589   1.858   5.446
 9718SOL     OW30052   4.386   2.293   5.820
 9718SOL    HW130053   4.456   2.279   5.889
 9718SOL    HW230054   4.367   2.207   5.773
 9719SOL     OW30055   5.192   6.631   6.030
 9719SOL    HW130056   5.279   6.680   6.040
 9719SOL    HW230057   5.147   6.627   6.119
 9720SOL     OW30058   2.091   3.134   2.915
 9720SOL    HW130059   2.007   3.086   2.890
 9720SOL    HW230060   2.138   3.164   2.831
 9721SOL     OW30061   1.130   1.035   1.043
 9721SOL    HW130062   1.208   1.082   1.000
 9721SOL    HW230063   1.101   1.087   1.123
 9722SOL     OW30064   3.973   2.256   5.355
 9722SOL    HW130065   3.910   2.280   5.428
 9722SOL    HW230066   3.925   2.202   5.286
 9723SOL     OW30067   6.711   0.306   5.447
 9723SOL    HW130068   6.792   0.324   5.392
 9723SOL    HW230069   6.738   0.290   5.542
 9724SOL     OW30070   1.404   4.688   0.446
 9724SOL    HW130071   1.475   4.690   0.516
 9724SOL    HW230072   1.388   4.594   0.417
 9725SOL     OW30073   4.373   4.745   4.631
 9725SOL    HW130074   4.403   4.701   4.547
 9725SOL    HW230075   4.281   4.783   4.618
 9726SOL     OW30076   0.339   0.614   3.652
 9726SOL    HW130077   0.350   0.578   3.560
 9726SOL    HW230078   0.429   0.623   3.695
 9727SOL     OW30079   6.576   2.115   1.794
 9727SOL    HW130080   6.619   2.178   1.858
 9727SOL    HW230081   6.481   2.100   1.821
 9728SOL     OW30082   4.870   2.088   4.285
 9728SOL    HW130083   4.867   2.013   4.351
 9728SOL    HW230084   4.964   2.124   4.279
 9729SOL     OW30085   6.906   4.887   3.118
 9729SOL    HW130086   6.897   4.929   3.027
 9729SOL    HW230087   6.969   4.942   3.174
 9730SOL     OW30088   1.064   4.376   2.854
 9730SOL    HW130089   1.112   4.460   2.881
 9730SOL    HW230090   1.087   4.353   2.760
 9731SOL     OW30091   5.549   3.077   1.907
 9731SOL    HW130092   5.577   3.172   1.888
 9731SOL    HW230093   5.551   3.024   1.822
 9732SOL     OW30094   1.364   3.587   2.548
 9732SOL    HW130095   1.360   3.500   2.598
 9732SOL    HW230096   1.434   3.581   2.477
 9733SOL     OW30097   5.943   4.683   2.000
 9733SOL    HW130098   6.007   4.694   2.076
 9733SOL    HW230099   5.851   4.710   2.029
 9734SOL     OW30100   5.803   5.070   6.302
 9734SOL    HW130101   5.865   5.077   6.224
 9734SOL    HW230102   5.709   5.057   6.269
 9735SOL     OW30103   0.389   2.436   1.061
 9735SOL    HW130104   0.468   2.496   1.076
 9735SOL    HW230105   0.305   2.486   1.080
 9736SOL     OW30106   4.879   2.032   4.860
 9736SOL    HW130107   4.873   2.033   4.960
 9736SOL    HW230108   4.813   2.097   4.822
 9737SOL     OW30109   6.129   3.174   3.637
 9737SOL    HW130110   6.092   3.204   3.725
 9737SOL    HW230111   6.146   3.075   3.640
 9738SOL     OW30112   2.205   6.514   2.044
 9738SOL    HW130113   2.178   6.418   2.047
 9738SOL    HW230114   2.169   6.556   1.960
 9739SOL     OW30115   5.909   6.836   0.169
 9739SOL    HW130116   5.818   6.842   0.127
 9739SOL    HW230117   5.976   6.810   0.099
 9740SOL     OW30118   6.344   1.291   2.699
 9740SOL    HW130119   6.334   1.245   2.787
 9740SOL    HW230120   6.348   1.223   2.626
 9741SOL     OW30121   2.365   2.097   4.467
 9741SOL    HW130122   2.454   2.056   4.489
 9741SOL    HW230123   2.378   2.194   4.446
 9742SOL     OW30124   3.564   2.181   6.225
 9742SOL    HW130125   3.580   2.089   6.189
 9742SOL    HW230126   3.499   2.177   6.300
 9743SOL     OW30127   5.440   3.824   3.941
 9743SOL    HW130128   5.356   3.807   3.890
 9743SOL    HW230129   5.425   3.800   4.037
 9744SOL     OW30130   1.739   1.811   2.711
 9744SOL    HW130131   1.818   1.871   2.699
 9744SOL    HW230132   1.660   1.852   2.666
 9745SOL     OW30133   0.351   0.807   6.247
 9745SOL    HW130134   0.397   0.821   6.335
 9745SOL    HW230135   0.359   0.890   6.192
 9746SOL     OW30136   3.904   5.886   5.920
 9746SOL    HW130137   3.854   5.804   5.894
 9746SOL    HW230138   3.922   5.942   5.839
 9747SOL     OW30139   2.806   1.135   2.832
 9747SOL    HW130140   2.781   1.230   2.812
 9747SOL    HW230141   2.905   1.128   2.840
 9748SOL     OW30142   1.152   1.105   3.154
 9748SOL    HW130143   1.109   1.195   3.156
 9748SOL    HW230144   1.219   1.098   3.228
 9749SOL     OW30145   6.900   0.301   1.794
 9749SOL    HW130146   6.968   0.259   1.733
 9749SOL    HW230147   6.940   0.315   1.884
 9750SOL     OW30148   5.721   3.060   4.787
 9750SOL    HW130149   5.674   2.973   4.792
 9750SOL    HW230150   5.692   3.119   4.863
 9751SOL     OW30151   3.660   6.812   1.494
 9751SOL    HW130152   3.750   6.782   1.462
 9751SOL    HW230153   3.597   6.815   1.416
 9752SOL     OW30154   2.991   2.720   0.372
 9752SOL    HW130155   2.955   2.788   0.308
 9752SOL    HW230156   3.063   2.667   0.327
 9753SOL     OW30157   6.395   6.166   5.103
 9753SOL    HW130158   6.386   6.067   5.110
 9753SOL    HW230159   6.304   6.207   5.090
 9754SOL     OW30160   2.947   1.267   2.001
 9754SOL    HW130161   2.987   1.327   2.071
 9754SOL    HW230162   2.875   1.317   1.952
 9755SOL     OW30163   2.984   3.833   0.453
 9755SOL    HW130164   3.051   3.764   0.426
 9755SOL    HW230165   3.013   3.876   0.539
 9756SOL     OW30166   6.038   7.009   5.489
 9756SOL    HW130167   6.085   6.928   5.455
 9756SOL    HW230168   5.946   7.014   5.449
 9757SOL     OW30169   5.217   3.873   4.458
 9757SOL    HW130170   5.273   3.943   4.502
 9757SOL    HW230171   5.224   3.788   4.510
 9758SOL     OW30172   2.251   0.987   2.565
 9758SOL    HW130173   2.335   0.934   2.553
 9758SOL    HW230174   2.174   0.925   2.578
 9759SOL     OW30175   0.147   1.657   1.512
 9759SOL    HW130176   0.107   1.730   1.458
 9759SOL    HW230177   0.139   1.679   1.609
 9760SOL     OW30178   4.702   0.104   0.309
 9760SOL    HW130179   4.668   0.190   0.272
 9760SOL    HW230180   4.727   0.116   0.405
 9761SOL     OW30181   1.390   2.849   1.150
 9761SOL    HW130182   1.452   2.831   1.073
 9761SOL    HW230183   1.363   2.762   1.191
 9762SOL     OW30184   2.528   1.465   5.402
 9762SOL    HW130185   2.487   1.457   5.493
 9762SOL    HW230186   2.567   1.557   5.391
 9763SOL     OW30187   6.564   2.171   1.512
 9763SOL    HW130188   6.491   2.106   1.488
 9763SOL    HW230189   6.564   2.184   1.612
 9764SOL     OW30190   0.020   2.066   2.897
 9764SOL    HW130191   6.979   2.087   2.975
 9764SOL    HW230192   6.983   2.075   2.813
 9765SOL     OW30193   6.633   0.299   1.953
 9765SOL    HW130194   6.704   0.297   1.883
 9765SOL    HW230195   6.572   0.377   1.937
 9766SOL     OW30196   1.707   2.144   3.346
 9766SOL    HW130197   1.658   2.101   3.422
 9766SOL    HW230198   1.649   2.144   3.264
 9767SOL     OW30199   2.531   1.190   5.328
 9767SOL    HW130200   2.481   1.151   5.251
 9767SOL    HW230201   2.504   1.285   5.340
 9768SOL     OW30202   5.829   3.046   0.679
 9768SOL    HW130203   5.906   3.055   0.615
 9768SOL    HW230204   5.808   3.135   0.719
 9769SOL     OW30205   3.355   1.793   5.534
 9769SOL    HW130206   3.384   1.886   5.557
 9769SOL    HW230207   3.351   1.738   5.618
 9770SOL     OW30208   2.006   2.934   5.470
 9770SOL    HW130209   2.064   2.860   5.435
 9770SOL    HW230210   1.911   2.914   5.449
 9771SOL     OW30211   3.461   6.979   1.810
 9771SOL    HW130212   3.371   7.006   1.842
 9771SOL    HW230213   3.455   6.892   1.761
 9772SOL     OW30214   0.799   0.487   1.529
 9772SOL    HW130215   0.818   0.497   1.627
 9772SOL    HW230216   0.882   0.510   1.477
 9773SOL     OW30217   5.464   5.264   2.178
 9773SOL    HW130218   5.426   5.326   2.247
 9773SOL    HW230219   5.441   5.170   2.200
 9774SOL     OW30220   1.357   4.426   5.077
 9774SOL    HW130221   1.291   4.382   5.016
 9774SOL    HW230222   1.435   4.365   5.092
 9775SOL     OW30223   2.229   1.453   3.227
 9775SOL    HW130224   2.275   1.423   3.143
 9775SOL    HW230225   2.267   1.404   3.305
 9776SOL     OW30226   2.537   4.901   0.488
 9776SOL    HW130227   2.534   4.995   0.454
 9776SOL    HW230228   2.632   4.868   0.488
 9777SOL     OW30229   4.215   0.869   5.394
 9777SOL    HW130230   4.140   0.861   5.459
 9777SOL    HW230231   4.291   0.919   5.436
 9778SOL     OW30232   0.869   4.377   3.378
 9778SOL    HW130233   0.966   4.368   3.357
 9778SOL    HW230234   0.834   4.291   3.413
 9779SOL     OW30235   2.600   1.304   3.158
 9779SOL    HW130236   2.608   1.215   3.113
 9779SOL    HW230237   2.641   1.298   3.249
 9780SOL     OW30238   0.815   2.718   2.041
 9780SOL    HW130239   0.856   2.809   2.036
 9780SOL    HW230240   0.875   2.656   2.091
 9781SOL     OW30241   1.491   1.907   2.578
 9781SOL    HW130242   1.459   1.817   2.547
 9781SOL    HW230243   1.413   1.959   2.615
 9782SOL     OW30244   0.291   1.939   0.931
 9782SOL    HW130245   0.266   1.957   0.836
 9782SOL    HW230246   0.324   2.023   0.973
 9783SOL     OW30247   4.196   1.273   3.039
 9783SOL    HW130248   4.120   1.214   3.013
 9783SOL    HW230249   4.257   1.285   2.960
 9784SOL     OW30250   2.165   1.121   6.261
 9784SOL    HW130251   2.218   1.076   6.189
 9784SOL    HW230252   2.072   1.085   6.261
 9785SOL     OW30253   0.425   3.754   4.076
 9785SOL    HW130254   0.391   3.829   4.019
 9785SOL    HW230255   0.506   3.713   4.033
 9786SOL     OW30256   2.112   4.170   6.927
 9786SOL    HW130257   2.120   4.224   7.011
 9786SOL    HW230258   2.028   4.196   6.879
 9787SOL     OW30259   2.983   3.903   2.861
 9787SOL    HW130260   2.897   3.861   2.831
 9787SOL    HW230261   3.059   3.867   2.807
 9788SOL     OW30262   4.088   6.817   1.911
 9788SOL    HW130263   4.184   6.802   1.933
 9788SOL    HW230264   4.081   6.888   1.840
 9789SOL     OW30265   3.844   1.702   6.929
 9789SOL    HW130266   3.808   1.678   6.839
 9789SOL    HW230267   3.768   1.712   6.993
 9790SOL     OW30268   5.702   5.545   4.267
 9790SOL    HW130269   5.754   5.538   4.182
 9790SOL    HW230270   5.763   5.528   4.345
 9791SOL     OW30271   0.651   0.337   1.841
 9791SOL    HW130272   0.558   0.347   1.805
 9791SOL    HW230273   0.694   0.258   1.797
 9792SOL     OW30274   4.024   5.101   0.491
 9792SOL    HW130275   4.109   5.050   0.492
 9792SOL    HW230276   4.043   5.199   0.495
 9793SOL     OW30277   6.006   1.017   3.450
 9793SOL    HW130278   6.042   0.931   3.484
 9793SOL    HW230279   5.978   1.007   3.355
 9794SOL     OW30280   4.541   4.805   4.273
 9794SOL    HW130281   4.580   4.735   4.213
 9794SOL    HW230282   4.554   4.895   4.231
 9795SOL     OW30283   1.503   3.406   3.128
 9795SOL    HW130284   1.596   3.421   3.097
 9795SOL    HW230285   1.463   3.328   3.080
 9796SOL     OW30286   3.175   4.039   4.159
 9796SOL    HW130287   3.144   4.062   4.251
 9796SOL    HW230288   3.272   4.013   4.162
 9797SOL     OW30289   2.646   5.117   0.152
 9797SOL    HW130290   2.559   5.068   0.137
 9797SOL    HW230291   2.628   5.215   0.161
 9798SOL     OW30292   7.004   4.094   6.706
 9798SOL    HW130293   0.049   4.093   6.785
 9798SOL    HW230294   0.033   4.135   6.628
 9799SOL     OW30295   2.993   0.214   6.604
 9799SOL    HW130296   2.945   0.301   6.593
 9799SOL    HW230297   3.031   0.185   6.516
 9800SOL     OW30298   6.926   2.892   4.381
 9800SOL    HW130299   6.829   2.914   4.386
 9800SOL    HW230300   6.966   2.937   4.300
 9801SOL     OW30301   5.816   6.353   0.347
 9801SOL    HW130302   5.800   6.332   0.251
 9801SOL    HW230303   5.860   6.442   0.355
 9802SOL     OW30304   4.196   4.181   0.358
 9802SOL    HW130305   4.176   4.083   0.369
 9802SOL    HW230306   4.286   4.191   0.316
 9803SOL     OW30307   1.015   3.076   6.513
 9803SOL    HW130308   1.095   3.017   6.523
 9803SOL    HW230309   1.008   3.107   6.419
 9804SOL     OW30310   0.728   5.418   2.390
 9804SOL    HW130311   0.826   5.401   2.399
 9804SOL    HW230312   0.677   5.345   2.435
 9805SOL     OW30313   0.756   5.683   3.943
 9805SOL    HW130314   0.716   5.662   4.032
 9805SOL    HW230315   0.720   5.619   3.875
 9806SOL     OW30316   3.909   1.860   0.195
 9806SOL    HW130317   3.822   1.882   0.150
 9806SOL    HW230318   3.969   1.940   0.192
 9807SOL     OW30319   3.819   3.478   2.655
 9807SOL    HW130320   3.896   3.416   2.673
 9807SOL    HW230321   3.833   3.564   2.705
 9808SOL     OW30322   4.215   5.619   2.521
 9808SOL    HW130323   4.259   5.625   2.431
 9808SOL    HW230324   4.186   5.524   2.538
 9809SOL     OW30325   6.551   3.551   0.510
 9809SOL    HW130326   6.568   3.526   0.414
 9809SOL    HW230327   6.544   3.468   0.565
 9810SOL     OW30328   3.071   1.880   6.984
 9810SOL    HW130329   3.157   1.928   6.997
 9810SOL    HW230330   2.997   1.930   0.013
 9811SOL     OW30331   5.689   3.591   4.434
 9811SOL    HW130332   5.778   3.588   4.391
 9811SOL    HW230333   5.655   3.686   4.433
 9812SOL     OW30334   3.522   6.102   5.759
 9812SOL    HW130335   3.480   6.065   5.676
 9812SOL    HW230336   3.591   6.170   5.733
 9813SOL     OW30337   5.253   0.761   1.971
 9813SOL    HW130338   5.188   0.685   1.979
 9813SOL    HW230339   5.327   0.734   1.910
 9814SOL     OW30340   5.676   1.245   0.054
 9814SOL    HW130341   5.717   1.248   0.145
 9814SOL    HW230342   5.579   1.267   0.061
 9815SOL     OW30343   4.560   2.609   4.546
 9815SOL    HW130344   4.573   2.688   4.607
 9815SOL    HW230345   4.604   2.529   4.586
 9816SOL     OW30346   2.283   0.705   1.245
 9816SOL    HW130347   2.281   0.697   1.345
 9816SOL    HW230348   2.313   0.796   1.219
 9817SOL     OW30349   6.544   6.709   2.798
 9817SOL    HW130350   6.554   6.662   2.710
 9817SOL    HW230351   6.552   6.643   2.872
 9818SOL     OW30352   5.778   2.945   5.098
 9818SOL    HW130353   5.875   2.940   5.072
 9818SOL    HW230354   5.771   2.947   5.198
 9819SOL     OW30355   3.922   0.571   2.620
 9819SOL    HW130356   3.825   0.578   2.643
 9819SOL    HW230357   3.977   0.577   2.704
 9820SOL     OW30358   4.439   3.081   5.612
 9820SOL    HW130359   4.467   3.059   5.518
 9820SOL    HW230360   4.443   2.998   5.668
 9821SOL     OW30361   6.431   5.277   0.460
 9821SOL    HW130362   6.440   5.377   0.455
 9821SOL    HW230363   6.428   5.249   0.556
 9822SOL     OW30364   0.558   0.028   2.058
 9822SOL    HW130365   0.637   0.086   2.043
 9822SOL    HW230366   0.574   6.985   2.136
 9823SOL     OW30367   3.940   0.721   1.545
 9823SOL    HW130368   3.877   0.795   1.522
 9823SOL    HW230369   3.892   0.633   1.537
 9824SOL     OW30370   0.955   3.774   5.826
 9824SOL    HW130371   0.878   3.839   5.824
 9824SOL    HW230372   0.975   3.743   5.734
 9825SOL     OW30373   3.958   5.271   4.712
 9825SOL    HW130374   4.046   5.288   4.757
 9825SOL    HW230375   3.888   5.330   4.753
 9826SOL     OW30376   5.034   0.435   5.762
 9826SOL    HW130377   4.957   0.460   5.822
 9826SOL    HW230378   5.120   0.451   5.810
 9827SOL     OW30379   1.490   4.096   4.388
 9827SOL    HW130380   1.548   4.016   4.373
 9827SOL    HW230381   1.541   4.179   4.364
 9828SOL     OW30382   3.380   3.004   6.847
 9828SOL    HW130383   3.309   2.968   6.908
 9828SOL    HW230384   3.469   2.972   6.878
 9829SOL     OW30385   2.980   4.449   0.151
 9829SOL    HW130386   2.928   4.533   0.134
 9829SOL    HW230387   3.043   4.433   0.075
 9830SOL     OW30388   5.778   0.589   0.721
 9830SOL    HW130389   5.722   0.530   0.778
 9830SOL    HW230390   5.778   0.682   0.759
 9831SOL     OW30391   6.171   6.946   1.144
 9831SOL    HW130392   6.117   6.865   1.171
 9831SOL    HW230393   6.246   6.917   1.084
 9832SOL     OW30394   4.360   4.686   0.997
 9832SOL    HW130395   4.394   4.628   1.072
 9832SOL    HW230396   4.373   4.782   1.021
 9833SOL     OW30397   3.432   3.630   5.121
 9833SOL    HW130398   3.376   3.673   5.192
 9833SOL    HW230399   3.453   3.535   5.148
 9834SOL     OW30400   0.810   3.200   4.337
 9834SOL    HW130401   0.789   3.292   4.305
 9834SOL    HW230402   0.884   3.161   4.282
 9835SOL     OW30403   5.280   1.972   4.022
 9835SOL    HW130404   5.192   1.969   3.973
 9835SOL    HW230405   5.290   2.061   4.066
 9836SOL     OW30406   5.036   5.040   2.984
 9836SOL    HW130407   5.017   5.131   2.946
 9836SOL    HW230408   4.963   5.015   3.047
 9837SOL     OW30409   2.282   6.095   3.963
 9837SOL    HW130410   2.252   6.077   4.057
 9837SOL    HW230411   2.296   6.193   3.950
 9838SOL     OW30412   0.625   5.911   6.267
 9838SOL    HW130413   0.690   5.980   6.233
 9838SOL    HW230414   0.625   5.832   6.206
 9839SOL     OW30415   6.936   1.692   2.230
 9839SOL    HW130416   6.921   1.593   2.222
 9839SOL    HW230417   6.946   1.731   2.138
 9840SOL     OW30418   6.728   0.678   1.134
 9840SOL    HW130419   6.758   0.617   1.208
 9840SOL    HW230420   6.773   0.767   1.143
 9841SOL     OW30421   1.855   3.603   4.080
 9841SOL    HW130422   1.807   3.523   4.115
 9841SOL    HW230423   1.949   3.603   4.115
 9842SOL     OW30424   3.355   2.971   2.404
 9842SOL    HW130425   3.258   2.983   2.381
 9842SOL    HW230426   3.395   2.902   2.344
 9843SOL     OW30427   6.327   2.568   2.182
 9843SOL    HW130428   6.240   2.521   2.174
 9843SOL    HW230429   6.366   2.553   2.273
 9844SOL     OW30430   4.923   6.858   2.605
 9844SOL    HW130431   4.996   6.813   2.553
 9844SOL    HW230432   4.945   6.856   2.702
 9845SOL     OW30433   1.091   2.271   3.668
 9845SOL    HW130434   1.181   2.314   3.668
 9845SOL    HW230435   1.089   2.199   3.598
 9846SOL     OW30436   2.955   3.568   2.958
 9846SOL    HW130437   2.932   3.590   3.053
 9846SOL    HW230438   2.904   3.486   2.930
 9847SOL     OW30439   1.816   4.090   5.916
 9847SOL    HW130440   1.822   4.141   6.002
 9847SOL    HW230441   1.787   4.151   5.842
 9848SOL     OW30442   4.744   3.318   6.960
 9848SOL    HW130443   4.768   3.392   6.897
 9848SOL    HW230444   4.763   3.347   0.037
 9849SOL     OW30445   0.338   0.019   6.361
 9849SOL    HW130446   0.415   0.067   6.320
 9849SOL    HW230447   0.335   0.039   6.459
 9850SOL     OW30448   3.720   6.180   2.268
 9850SOL    HW130449   3.764   6.145   2.350
 9850SOL    HW230450   3.624   6.151   2.267
 9851SOL     OW30451   5.785   1.858   5.300
 9851SOL    HW130452   5.800   1.858   5.399
 9851SOL    HW230453   5.828   1.939   5.260
 9852SOL     OW30454   5.108   1.685   3.710
 9852SOL    HW130455   5.200   1.703   3.744
 9852SOL    HW230456   5.097   1.728   3.620
 9853SOL     OW30457   6.535   4.008   2.156
 9853SOL    HW130458   6.629   3.999   2.189
 9853SOL    HW230459   6.535   4.008   2.056
 9854SOL     OW30460   4.999   5.638   3.919
 9854SOL    HW130461   5.011   5.641   4.018
 9854SOL    HW230462   4.971   5.546   3.891
 9855SOL     OW30463   1.284   3.636   1.455
 9855SOL    HW130464   1.191   3.602   1.442
 9855SOL    HW230465   1.347   3.585   1.396
 9856SOL     OW30466   3.840   2.821   1.113
 9856SOL    HW130467   3.873   2.737   1.156
 9856SOL    HW230468   3.761   2.856   1.165
 9857SOL     OW30469   5.505   3.590   3.381
 9857SOL    HW130470   5.542   3.557   3.294
 9857SOL    HW230471   5.427   3.649   3.363
 9858SOL     OW30472   5.108   0.919   1.763
 9858SOL    HW130473   5.169   0.873   1.827
 9858SOL    HW230474   5.162   0.970   1.696
 9859SOL     OW30475   6.296   0.407   2.474
 9859SOL    HW130476   6.210   0.395   2.525
 9859SOL    HW230477   6.288   0.362   2.385
 9860SOL     OW30478   0.540   1.125   2.141
 9860SOL    HW130479   0.562   1.221   2.157
 9860SOL    HW230480   0.608   1.086   2.078
 9861SOL     OW30481   4.060   6.598   4.235
 9861SOL    HW130482   4.043   6.510   4.191
 9861SOL    HW230483   4.041   6.590   4.333
 9862SOL     OW30484   0.961   2.697   0.944
 9862SOL    HW130485   1.057   2.674   0.956
 9862SOL    HW230486   0.919   2.713   1.033
 9863SOL     OW30487   3.263   6.866   2.060
 9863SOL    HW130488   3.355   6.828   2.058
 9863SOL    HW230489   3.213   6.837   1.978
 9864SOL     OW30490   5.183   6.277   2.371
 9864SOL    HW130491   5.157   6.373   2.378
 9864SOL    HW230492   5.101   6.220   2.361
 9865SOL     OW30493   0.628   1.091   4.492
 9865SOL    HW130494   0.709   1.140   4.523
 9865SOL    HW230495   0.622   1.003   4.539
 9866SOL     OW30496   4.783   4.078   4.023
 9866SOL    HW130497   4.751   4.148   4.088
 9866SOL    HW230498   4.818   3.999   4.073
 9867SOL     OW30499   4.425   1.083   6.906
 9867SOL    HW130500   4.351   1.054   6.845
 9867SOL    HW230501   4.389   1.149   6.973
 9868SOL     OW30502   0.421   5.004   0.208
 9868SOL    HW130503   0.408   5.007   0.307
 9868SOL    HW230504   0.339   5.040   0.163
 9869SOL     OW30505   1.795   4.395   3.312
 9869SOL    HW130506   1.875   4.344   3.343
 9869SOL    HW230507   1.738   4.419   3.391
 9870SOL     OW30508   4.955   4.812   2.489
 9870SOL    HW130509   5.024   4.824   2.560
 9870SOL    HW230510   4.985   4.743   2.424
 9871SOL     OW30511   2.469   0.768   5.098
 9871SOL    HW130512   2.469   0.868   5.094
 9871SOL    HW230513   2.562   0.734   5.091
 9872SOL     OW30514   2.397   4.913   3.393
 9872SOL    HW130515   2.400   4.816   3.371
 9872SOL    HW230516   2.490   4.949   3.399
 9873SOL     OW30517   1.053   2.620   0.219
 9873SOL    HW130518   1.055   2.574   0.130
 9873SOL    HW230519   1.124   2.581   0.278
 9874SOL     OW30520   0.898   2.841   3.753
 9874SOL    HW130521   0.852   2.784   3.685
 9874SOL    HW230522   0.873   2.811   3.844
 9875SOL     OW30523   0.564   0.615   3.036
 9875SOL    HW130524   0.497   0.625   3.109
 9875SOL    HW230525   0.656   0.632   3.072
 9876SOL     OW30526   6.706   6.628   2.234
 9876SOL    HW130527   6.774   6.569   2.277
 9876SOL    HW230528   6.752   6.695   2.176
 9877SOL     OW30529   3.131   6.915   2.596
 9877SOL    HW130530   3.202   6.980   2.626
 9877SOL    HW230531   3.059   6.965   2.547
 9878SOL     OW30532   0.592   6.320   5.310
 9878SOL    HW130533   0.604   6.230   5.268
 9878SOL    HW230534   0.565   6.386   5.241
 9879SOL     OW30535   4.140   5.643   5.617
 9879SOL    HW130536   4.167   5.636   5.713
 9879SOL    HW230537   4.221   5.667   5.562
 9880SOL     OW30538   1.549   2.085   5.448
 9880SOL    HW130539   1.555   1.999   5.397
 9880SOL    HW230540   1.618   2.086   5.520
 9881SOL     OW30541   0.628   1.919   6.178
 9881SOL    HW130542   0.698   1.937   6.108
 9881SOL    HW230543   0.615   2.002   6.233
 9882SOL     OW30544   1.443   2.186   3.811
 9882SOL    HW130545   1.448   2.101   3.759
 9882SOL    HW230546   1.535   2.212   3.842
 9883SOL     OW30547   1.411   0.826   2.199
 9883SOL    HW130548   1.462   0.825   2.284
 9883SOL    HW230549   1.428   0.911   2.150
 9884SOL     OW30550   4.219   0.411   4.380
 9884SOL    HW130551   4.125   0.408   4.415
 9884SOL    HW230552   4.246   0.319   4.352
 9885SOL     OW30553   6.356   4.815   4.447
 9885SOL    HW130554   6.284   4.797   4.381
 9885SOL    HW230555   6.421   4.881   4.408
 9886SOL     OW30556   1.069   4.135   2.406
 9886SOL    HW130557   1.043   4.224   2.369
 9886SOL    HW230558   0.989   4.093   2.450
 9887SOL     OW30559   3.592   1.390   6.914
 9887SOL    HW130560   3.675   1.370   6.965
 9887SOL    HW230561   3.599   1.353   6.821
 9888SOL     OW30562   0.170   4.469   0.481
 9888SOL    HW130563   0.178   4.399   0.410
 9888SOL    HW230564   0.124   4.549   0.443
 9889SOL     OW30565   6.281   4.866   0.623
 9889SOL    HW130566   6.317   4.899   0.536
 9889SOL    HW230567   6.304   4.931   0.696
 9890SOL     OW30568   1.575   2.465   1.431
 9890SOL    HW130569   1.656   2.415   1.403
 9890SOL    HW230570   1.601   2.540   1.492
 9891SOL     OW30571   5.491   2.707   0.679
 9891SOL    HW130572   5.531   2.791   0.714
 9891SOL    HW230573   5.469   2.718   0.582
 9892SOL     OW30574   6.691   5.357   0.205
 9892SOL    HW130575   6.765   5.424   0.210
 9892SOL    HW230576   6.674   5.332   0.110
 9893SOL     OW30577   2.688   1.389   0.686
 9893SOL    HW130578   2.699   1.374   0.588
 9893SOL    HW230579   2.701   1.303   0.735
 9894SOL     OW30580   1.211   1.756   0.680
 9894SOL    HW130581   1.208   1.657   0.695
 9894SOL    HW230582   1.151   1.802   0.745
 9895SOL     OW30583   5.307   3.198   5.851
 9895SOL    HW130584   5.394   3.187   5.901
 9895SOL    HW230585   5.267   3.287   5.874
 9896SOL     OW30586   6.654   0.360   0.312
 9896SOL    HW130587   6.717   0.288   0.286
 9896SOL    HW230588   6.644   0.424   0.235
 9897SOL     OW30589   5.483   5.536   3.151
 9897SOL    HW130590   5.459   5.624   3.112
 9897SOL    HW230591   5.419   5.466   3.119
 9898SOL     OW30592   3.371   5.983   5.556
 9898SOL    HW130593   3.339   6.074   5.533
 9898SOL    HW230594   3.306   5.939   5.618
 9899SOL     OW30595   0.035   5.483   0.486
 9899SOL    HW130596   6.993   5.518   0.413
 9899SOL    HW230597   0.022   5.384   0.495
 9900SOL     OW30598   2.272   4.054   3.624
 9900SOL    HW130599   2.321   4.080   3.541
 9900SOL    HW230600   2.178   4.085   3.619
 9901SOL     OW30601   2.341   2.076   5.309
 9901SOL    HW130602   2.326   2.001   5.373
 9901SOL    HW230603   2.273   2.071   5.236
 9902SOL     OW30604   2.117   4.894   6.881
 9902SOL    HW130605   2.212   4.922   6.892
 9902SOL    HW230606   2.114   4.805   6.836
 9903SOL     OW30607   4.850   0.885   2.762
 9903SOL    HW130608   4.860   0.872   2.861
 9903SOL    HW230609   4.926   0.941   2.728
 9904SOL     OW30610   6.958   3.117   6.728
 9904SOL    HW130611   6.933   3.034   6.778
 9904SOL    HW230612   6.877   3.174   6.716
 9905SOL     OW30613   4.200   1.486   0.446
 9905SOL    HW130614   4.218   1.527   0.356
 9905SOL    HW230615   4.160   1.395   0.435
 9906SOL     OW30616   3.934   3.113   2.964
 9906SOL    HW130617   3.853   3.057   2.981
 9906SOL    HW230618   3.938   3.137   2.867
 9907SOL     OW30619   0.224   0.477   1.973
 9907SOL    HW130620   0.284   0.489   2.053
 9907SOL    HW230621   0.154   0.409   1.994
 9908SOL     OW30622   4.917   2.868   2.832
 9908SOL    HW130623   4.946   2.776   2.804
 9908SOL    HW230624   4.994   2.914   2.876
 9909SOL     OW30625   1.966   6.532   4.884
 9909SOL    HW130626   2.008   6.443   4.866
 9909SOL    HW230627   1.916   6.529   4.970
 9910SOL     OW30628   0.740   4.576   2.705
 9910SOL    HW130629   0.714   4.537   2.794
 9910SOL    HW230630   0.730   4.507   2.634
 9911SOL     OW30631   3.685   6.918   2.182
 9911SOL    HW130632   3.675   6.988   2.112
 9911SOL    HW230633   3.652   6.831   2.147
 9912SOL     OW30634   4.916   1.556   0.569
 9912SOL    HW130635   4.825   1.563   0.529
 9912SOL    HW230636   4.918   1.479   0.633
 9913SOL     OW30637   6.069   3.069   0.519
 9913SOL    HW130638   6.076   3.154   0.466
 9913SOL    HW230639   6.126   2.999   0.476
 9914SOL     OW30640   0.581   2.532   4.916
 9914SOL    HW130641   0.487   2.500   4.926
 9914SOL    HW230642   0.584   2.607   4.849
 9915SOL     OW30643   5.160   1.346   3.111
 9915SOL    HW130644   5.075   1.395   3.130
 9915SOL    HW230645   5.237   1.400   3.145
 9916SOL     OW30646   2.201   2.848   2.223
 9916SOL    HW130647   2.137   2.777   2.196
 9916SOL    HW230648   2.279   2.848   2.161
 9917SOL     OW30649   6.609   4.406   5.785
 9917SOL    HW130650   6.621   4.321   5.837
 9917SOL    HW230651   6.584   4.383   5.690
 9918SOL     OW30652   3.934   1.904   2.906
 9918SOL    HW130653   3.915   1.949   2.993
 9918SOL    HW230654   3.952   1.807   2.922
 9919SOL     OW30655   6.264   6.147   1.535
 9919SOL    HW130656   6.218   6.099   1.461
 9919SOL    HW230657   6.287   6.240   1.506
 9920SOL     OW30658   4.334   1.674   2.848
 9920SOL    HW130659   4.259   1.623   2.806
 9920SOL    HW230660   4.366   1.623   2.929
 9921SOL     OW30661   3.784   5.640   5.875
 9921SOL    HW130662   3.736   5.612   5.791
 9921SOL    HW230663   3.782   5.565   5.941
 9922SOL     OW30664   0.401   5.699   0.606
 9922SOL    HW130665   0.485   5.719   0.554
 9922SOL    HW230666   0.423   5.697   0.703
 9923SOL     OW30667   4.886   5.453   6.985
 9923SOL    HW130668   4.866   5.427   0.062
 9923SOL    HW230669   4.982   5.432   6.965
 9924SOL     OW30670   0.644   3.162   4.973
 9924SOL    HW130671   0.666   3.209   5.058
 9924SOL    HW230672   0.666   3.065   4.982
 9925SOL     OW30673   5.132   2.571   4.746
 9925SOL    HW130674   5.161   2.666   4.737
 9925SOL    HW230675   5.035   2.568   4.771
 9926SOL     OW30676   1.870   4.468   6.889
 9926SOL    HW130677   1.927   4.465   6.806
 9926SOL    HW230678   1.850   4.375   6.918
 9927SOL     OW30679   5.943   6.990   2.821
 9927SOL    HW130680   5.900   0.056   2.859
 9927SOL    HW230681   5.932   6.915   2.886
 9928SOL     OW30682   5.052   4.659   1.366
 9928SOL    HW130683   5.049   4.756   1.389
 9928SOL    HW230684   5.078   4.647   1.271
 9929SOL     OW30685   2.705   5.078   4.620
 9929SOL    HW130686   2.776   5.098   4.552
 9929SOL    HW230687   2.747   5.039   4.702
 9930SOL     OW30688   0.046   0.422   4.492
 9930SOL    HW130689   0.087   0.507   4.525
 9930SOL    HW230690   6.965   0.424   4.509
 9931SOL     OW30691   1.213   4.234   4.895
 9931SOL    HW130692   1.133   4.188   4.855
 9931SOL    HW230693   1.287   4.238   4.828
 9932SOL     OW30694   1.058   6.339   6.370
 9932SOL    HW130695   1.090   6.303   6.458
 9932SOL    HW230696   1.065   6.268   6.300
 9933SOL     OW30697   1.226   5.418   2.119
 9933SOL    HW130698   1.300   5.440   2.183
 9933SOL    HW230699   1.171   5.499   2.102
 9934SOL     OW30700   6.324   2.137   5.632
 9934SOL    HW130701   6.280   2.091   5.709
 9934SOL    HW230702   6.305   2.086   5.548
 9935SOL     OW30703   2.916   0.996   6.404
 9935SOL    HW130704   2.818   0.976   6.415
 9935SOL    HW230705   2.929   1.054   6.324
 9936SOL     OW30706   0.685   4.544   4.515
 9936SOL    HW130707   0.738   4.583   4.440
 9936SOL    HW230708   0.605   4.497   4.478
 9937SOL     OW30709   6.974   2.193   5.989
 9937SOL    HW130710   6.909   2.178   6.064
 9937SOL    HW230711   0.034   2.249   6.021
 9938SOL     OW30712   6.649   5.918   2.627
 9938SOL    HW130713   6.747   5.930   2.612
 9938SOL    HW230714   6.627   5.821   2.624
 9939SOL     OW30715   3.098   3.148   1.784
 9939SOL    HW130716   3.096   3.048   1.788
 9939SOL    HW230717   3.006   3.184   1.803
 9940SOL     OW30718   6.778   0.894   0.796
 9940SOL    HW130719   6.777   0.958   0.719
 9940SOL    HW230720   6.855   0.915   0.856
 9941SOL     OW30721   3.011   4.325   5.613
 9941SOL    HW130722   2.981   4.381   5.536
 9941SOL    HW230723   2.945   4.251   5.628
 9942SOL     OW30724   2.626   5.797   2.831
 9942SOL    HW130725   2.556   5.832   2.769
 9942SOL    HW230726   2.717   5.813   2.792
 9943SOL     OW30727   0.346   6.129   6.007
 9943SOL    HW130728   0.384   6.036   6.005
 9943SOL    HW230729   0.418   6.194   6.029
 9944SOL     OW30730   1.228   3.910   6.583
 9944SOL    HW130731   1.299   3.962   6.632
 9944SOL    HW230732   1.269   3.865   6.504
 9945SOL     OW30733   6.620   5.481   0.589
 9945SOL    HW130734   6.586   5.438   0.673
 9945SOL    HW230735   6.666   5.412   0.533
 9946SOL     OW30736   4.978   0.725   5.085
 9946SOL    HW130737   4.897   0.754   5.137
 9946SOL    HW230738   4.949   0.671   5.006
 9947SOL     OW30739   6.506   4.721   4.787
 9947SOL    HW130740   6.500   4.697   4.884
 9947SOL    HW230741   6.572   4.795   4.775
 9948SOL     OW30742   4.685   4.433   4.925
 9948SOL    HW130743   4.599   4.449   4.876
 9948SOL    HW230744   4.672   4.454   5.022
 9949SOL     OW30745   5.294   5.338   3.083
 9949SOL    HW130746   5.202   5.332   3.043
 9949SOL    HW230747   5.346   5.257   3.058
 9950SOL     OW30748   4.200   6.180   5.491
 9950SOL    HW130749   4.134   6.254   5.479
 9950SOL    HW230750   4.163   6.111   5.552
 9951SOL     OW30751   5.689   2.621   3.103
 9951SOL    HW130752   5.611   2.604   3.043
 9951SOL    HW230753   5.692   2.717   3.130
 9952SOL     OW30754   6.843   4.242   0.579
 9952SOL    HW130755   6.769   4.175   0.587
 9952SOL    HW230756   6.877   4.264   0.670
 9953SOL     OW30757   6.424   1.459   3.383
 9953SOL    HW130758   6.445   1.454   3.480
 9953SOL    HW230759   6.410   1.367   3.347
 9954SOL     OW30760   5.771   6.911   5.428
 9954SOL    HW130761   5.746   6.999   5.386
 9954SOL    HW230762   5.752   6.837   5.363
 9955SOL     OW30763   6.847   3.840   4.288
 9955SOL    HW130764   6.902   3.868   4.367
 9955SOL    HW230765   6.867   3.901   4.211
 9956SOL     OW30766   1.853   6.173   1.972
 9956SOL    HW130767   1.846   6.091   1.915
 9956SOL    HW230768   1.883   6.250   1.915
 9957SOL     OW30769   6.566   4.507   3.611
 9957SOL    HW130770   6.529   4.511   3.704
 9957SOL    HW230771   6.568   4.599   3.572
 9958SOL     OW30772   2.776   4.021   1.148
 9958SOL    HW130773   2.750   4.117   1.153
 9958SOL    HW230774   2.725   3.969   1.216
 9959SOL     OW30775   4.102   3.386   7.005
 9959SOL    HW130776   4.016   3.435   0.007
 9959SOL    HW230777   4.097   3.342   6.916
 9960SOL     OW30778   6.655   1.532   2.368
 9960SOL    HW130779   6.714   1.550   2.447
 9960SOL    HW230780   6.711   1.512   2.288
 9961SOL     OW30781   1.770   5.550   4.368
 9961SOL    HW130782   1.831   5.604   4.426
 9961SOL    HW230783   1.728   5.478   4.423
 9962SOL     OW30784   4.668   6.384   5.138
 9962SOL    HW130785   4.750   6.408   5.086
 9962SOL    HW230786   4.674   6.425   5.229
 9963SOL     OW30787   3.247   1.325   1.004
 9963SOL    HW130788   3.200   1.317   0.916
 9963SOL    HW230789   3.215   1.407   1.052
 9964SOL     OW30790   4.194   6.101   5.052
 9964SOL    HW130791   4.282   6.138   5.082
 9964SOL    HW230792   4.197   6.082   4.954
 9965SOL     OW30793   4.063   0.129   0.116
 9965SOL    HW130794   4.044   0.089   0.027
 9965SOL    HW230795   3.983   0.178   0.149
 9966SOL     OW30796   0.652   6.449   2.235
 9966SOL    HW130797   0.720   6.381   2.264
 9966SOL    HW230798   0.696   6.519   2.179
 9967SOL     OW30799   1.553   5.641   1.528
 9967SOL    HW130800   1.603   5.725   1.507
 9967SOL    HW230801   1.517   5.645   1.622
 9968SOL     OW30802   3.981   3.777   2.589
 9968SOL    HW130803   4.050   3.710   2.619
 9968SOL    HW230804   3.975   3.850   2.657
 9969SOL     OW30805   1.459   3.640   1.976
 9969SOL    HW130806   1.426   3.732   2.000
 9969SOL    HW230807   1.554   3.645   1.946
 9970SOL     OW30808   5.947   4.096   1.782
 9970SOL    HW130809   5.854   4.131   1.768
 9970SOL    HW230810   5.957   4.009   1.735
 9971SOL     OW30811   2.200   4.791   0.571
 9971SOL    HW130812   2.182   4.733   0.492
 9971SOL    HW230813   2.181   4.740   0.655
 9972SOL     OW30814   0.037   4.486   2.231
 9972SOL    HW130815   7.012   4.577   2.231
 9972SOL    HW230816   0.136   4.495   2.225
 9973SOL     OW30817   6.261   1.025   4.088
 9973SOL    HW130818   6.205   1.090   4.140
 9973SOL    HW230819   6.236   1.027   3.992
 9974SOL     OW30820   1.944   1.223   4.043
 9974SOL    HW130821   2.021   1.160   4.031
 9974SOL    HW230822   1.859   1.171   4.053
 9975SOL     OW30823   0.591   2.821   0.162
 9975SOL    HW130824   0.688   2.810   0.187
 9975SOL    HW230825   0.561   2.914   0.182
 9976SOL     OW30826   1.669   0.088   4.908
 9976SOL    HW130827   1.596   0.054   4.848
 9976SOL    HW230828   1.629   0.120   4.994
 9977SOL     OW30829   6.301   4.215   4.584
 9977SOL    HW130830   6.246   4.288   4.545
 9977SOL    HW230831   6.397   4.243   4.585
 9978SOL     OW30832   6.752   1.643   4.184
 9978SOL    HW130833   6.700   1.718   4.142
 9978SOL    HW230834   6.838   1.678   4.220
 9979SOL     OW30835   6.628   3.649   4.976
 9979SOL    HW130836   6.650   3.554   5.002
 9979SOL    HW230837   6.529   3.658   4.966
 9980SOL     OW30838   3.832   0.385   6.181
 9980SOL    HW130839   3.781   0.413   6.100
 9980SOL    HW230840   3.897   0.457   6.206
 9981SOL     OW30841   3.208   2.052   4.005
 9981SOL    HW130842   3.219   2.033   4.102
 9981SOL    HW230843   3.112   2.069   3.985
 9982SOL     OW30844   0.157   6.418   4.079
 9982SOL    HW130845   0.114   6.462   4.158
 9982SOL    HW230846   0.253   6.399   4.100
 9983SOL     OW30847   6.943   1.695   1.957
 9983SOL    HW130848   6.887   1.717   1.877
 9983SOL    HW230849   0.019   1.673   1.928
 9984SOL     OW30850   3.091   2.007   6.717
 9984SOL    HW130851   3.055   1.915   6.710
 9984SOL    HW230852   3.091   2.036   6.813
 9985SOL     OW30853   1.287   0.661   2.040
 9985SOL    HW130854   1.335   0.731   2.092
 9985SOL    HW230855   1.335   0.646   1.953
 9986SOL     OW30856   5.420   3.862   5.028
 9986SOL    HW130857   5.520   3.854   5.034
 9986SOL    HW230858   5.394   3.881   4.933
 9987SOL     OW30859   6.814   3.825   5.798
 9987SOL    HW130860   6.747   3.845   5.726
 9987SOL    HW230861   6.902   3.803   5.757
 9988SOL     OW30862   6.927   7.009   5.305
 9988SOL    HW130863   6.991   0.055   5.260
 9988SOL    HW230864   6.860   6.977   5.238
 9989SOL     OW30865   0.789   3.003   5.246
 9989SOL    HW130866   0.836   3.051   5.172
 9989SOL    HW230867   0.855   2.950   5.299
 9990SOL     OW30868   1.023   5.060   2.864
 9990SOL    HW130869   0.994   4.968   2.891
 9990SOL    HW230870   0.967   5.128   2.913
 9991SOL     OW30871   3.763   2.065   3.550
 9991SOL    HW130872   3.742   2.090   3.455
 9991SOL    HW230873   3.689   2.095   3.610
 9992SOL     OW30874   6.737   5.557   6.080
 9992SOL    HW130875   6.806   5.555   6.153
 9992SOL    HW230876   6.779   5.590   5.995
 9993SOL     OW30877   0.757   1.831   1.914
 9993SOL    HW130878   0.728   1.790   2.000
 9993SOL    HW230879   0.713   1.920   1.902
 9994SOL     OW30880   5.865   4.460   3.387
 9994SOL    HW130881   5.946   4.401   3.386
 9994SOL    HW230882   5.885   4.544   3.436
 9995SOL     OW30883   5.209   0.936   4.792
 9995SOL    HW130884   5.192   0.849   4.746
 9995SOL    HW230885   5.258   0.919   4.878
 9996SOL     OW30886   2.727   3.966   0.226
 9996SOL    HW130887   2.669   4.004   0.153
 9996SOL    HW230888   2.820   4.000   0.215
 9997SOL     OW30889   2.702   0.156   5.223
 9997SOL    HW130890   2.624   0.117   5.272
 9997SOL    HW230891   2.729   0.094   5.149
 9998SOL     OW30892   5.891   5.771   5.438
 9998SOL    HW130893   5.840   5.703   5.490
 9998SOL    HW230894   5.946   5.724   5.368
 9999SOL     OW30895   6.609   1.935   4.801
 9999SOL    HW130896   6.529   1.963   4.855
 9999SOL    HW230897   6.594   1.960   4.705
10000SOL     OW30898   0.261   2.742   6.383
10000SOL    HW130899   0.288   2.824   6.432
10000SOL    HW230900   0.341   2.681   6.373
10001SOL     OW30901   4.306   6.958   2.549
10001SOL    HW130902   4.363   6.910   2.616
10001SOL    HW230903   4.358   0.017   2.509
10002SOL     OW30904   0.436   0.880   2.165
10002SOL    HW130905   0.485   0.810   2.114
10002SOL    HW230906   0.469   0.970   2.138
10003SOL     OW30907   4.317   2.349   3.577
10003SOL    HW130908   4.355   2.386   3.662
10003SOL    HW230909   4.308   2.250   3.585
10004SOL     OW30910   0.108   1.378   3.021
10004SOL    HW130911   0.161   1.396   3.104
10004SOL    HW230912   0.054   1.459   2.998
10005SOL     OW30913   5.151   6.218   4.246
10005SOL    HW130914   5.058   6.185   4.232
10005SOL    HW230915   5.212   6.140   4.266
10006SOL     OW30916   3.444   0.197   4.253
10006SOL    HW130917   3.386   0.190   4.172
10006SOL    HW230918   3.447   0.293   4.282
10007SOL     OW30919   6.598   3.185   3.755
10007SOL    HW130920   6.572   3.166   3.850
10007SOL    HW230921   6.539   3.257   3.719
10008SOL     OW30922   3.081   6.878   3.822
10008SOL    HW130923   3.044   6.968   3.799
10008SOL    HW230924   3.085   6.868   3.921
10009SOL     OW30925   1.139   4.575   1.860
10009SOL    HW130926   1.222   4.593   1.808
10009SOL    HW230927   1.140   4.627   1.945
10010SOL     OW30928   0.779   1.073   6.099
10010SOL    HW130929   0.776   1.034   6.007
10010SOL    HW230930   0.796   1.001   6.166
10011SOL     OW30931   0.168   6.703   4.927
10011SOL    HW130932   0.072   6.697   4.952
10011SOL    HW230933   0.219   6.748   5.000
10012SOL     OW30934   5.770   1.430   3.823
10012SOL    HW130935   5.720   1.358   3.776
10012SOL    HW230936   5.718   1.516   3.817
10013SOL     OW30937   0.505   0.815   2.846
10013SOL    HW130938   0.409   0.818   2.821
10013SOL    HW230939   0.521   0.739   2.909
10014SOL     OW30940   0.923   4.579   6.263
10014SOL    HW130941   0.989   4.620   6.200
10014SOL    HW230942   0.832   4.615   6.243
10015SOL     OW30943   1.844   4.428   0.406
10015SOL    HW130944   1.904   4.407   0.483
10015SOL    HW230945   1.885   4.501   0.351
10016SOL     OW30946   2.670   0.588   5.763
10016SOL    HW130947   2.674   0.494   5.797
10016SOL    HW230948   2.681   0.588   5.664
10017SOL     OW30949   1.296   2.390   4.768
10017SOL    HW130950   1.361   2.415   4.697
10017SOL    HW230951   1.332   2.313   4.821
10018SOL     OW30952   5.014   6.967   6.213
10018SOL    HW130953   5.007   6.993   6.116
10018SOL    HW230954   5.106   6.933   6.231
10019SOL     OW30955   0.943   1.352   2.594
10019SOL    HW130956   0.953   1.319   2.500
10019SOL    HW230957   0.918   1.449   2.593
10020SOL     OW30958   0.365   3.125   1.269
10020SOL    HW130959   0.440   3.120   1.203
10020SOL    HW230960   0.324   3.035   1.280
10021SOL     OW30961   0.007   3.578   0.411
10021SOL    HW130962   6.947   3.519   0.388
10021SOL    HW230963   0.034   3.630   0.330
10022SOL     OW30964   1.881   1.419   6.395
10022SOL    HW130965   1.895   1.327   6.360
10022SOL    HW230966   1.810   1.418   6.465
10023SOL     OW30967   0.306   3.555   0.490
10023SOL    HW130968   0.234   3.587   0.429
10023SOL    HW230969   0.269   3.543   0.583
10024SOL     OW30970   1.482   4.838   3.951
10024SOL    HW130971   1.551   4.830   4.023
10024SOL    HW230972   1.475   4.752   3.901
10025SOL     OW30973   1.387   1.415   0.792
10025SOL    HW130974   1.435   1.496   0.825
10025SOL    HW230975   1.435   1.376   0.713
10026SOL     OW30976   7.000   0.265   3.745
10026SOL    HW130977   0.019   0.225   3.829
10026SOL    HW230978   0.055   0.317   3.699
10027SOL     OW30979   4.692   2.347   5.462
10027SOL    HW130980   4.702   2.357   5.561
10027SOL    HW230981   4.721   2.432   5.417
10028SOL     OW30982   2.057   0.678   1.093
10028SOL    HW130983   2.045   0.776   1.107
10028SOL    HW230984   2.138   0.647   1.144
10029SOL     OW30985   5.529   1.824   3.482
10029SOL    HW130986   5.612   1.775   3.510
10029SOL    HW230987   5.555   1.910   3.438
10030SOL     OW30988   1.859   0.611   3.249
10030SOL    HW130989   1.935   0.546   3.251
10030SOL    HW230990   1.863   0.670   3.329
10031SOL     OW30991   6.716   4.213   5.079
10031SOL    HW130992   6.725   4.115   5.095
10031SOL    HW230993   6.637   4.231   5.021
10032SOL     OW30994   3.093   1.281   4.825
10032SOL    HW130995   3.074   1.329   4.739
10032SOL    HW230996   3.024   1.306   4.893
10033SOL     OW30997   5.592   2.739   4.963
10033SOL    HW130998   5.649   2.799   5.020
10033SOL    HW230999   5.595   2.646   5.000
10034SOL     OW31000   5.536   0.446   5.865
10034SOL    HW131001   5.581   0.535   5.867
10034SOL    HW231002   5.489   0.434   5.778
10035SOL     OW31003   0.220   6.290   2.078
10035SOL    HW131004   0.159   6.304   2.000
10035SOL    HW231005   0.272   6.205   2.065
10036SOL     OW31006   6.865   1.100   0.581
10036SOL    HW131007   6.803   1.029   0.549
10036SOL    HW231008   6.959   1.067   0.577
10037SOL     OW31009   0.667   6.925   1.045
10037SOL    HW131010   0.584   6.926   0.989
10037SOL    HW231011   0.710   7.015   1.041
10038SOL     OW31012   6.388   0.634   1.435
10038SOL    HW131013   6.405   0.613   1.339
10038SOL    HW231014   6.358   0.730   1.443
10039SOL     OW31015   3.206   0.634   3.497
10039SOL    HW131016   3.181   0.556   3.440
10039SOL    HW231017   3.302   0.627   3.523
10040SOL     OW31018   0.725   3.064   1.371
10040SOL    HW131019   0.798   3.126   1.402
10040SOL    HW231020   0.707   2.995   1.440
10041SOL     OW31021   2.212   6.026   0.171
10041SOL    HW131022   2.117   6.049   0.149
10041SOL    HW231023   2.225   5.928   0.161
10042SOL     OW31024   5.854   3.455   2.581
10042SOL    HW131025   5.795   3.384   2.619
10042SOL    HW231026   5.798   3.529   2.543
10043SOL     OW31027   0.364   2.016   4.693
10043SOL    HW131028   0.318   2.076   4.628
10043SOL    HW231029   0.330   1.922   4.681
10044SOL     OW31030   3.381   1.265   5.739
10044SOL    HW131031   3.288   1.229   5.746
10044SOL    HW231032   3.440   1.196   5.697
10045SOL     OW31033   3.092   1.296   0.801
10045SOL    HW131034   3.016   1.353   0.833
10045SOL    HW231035   3.085   1.282   0.703
10046SOL     OW31036   0.823   5.340   0.849
10046SOL    HW131037   0.827   5.271   0.777
10046SOL    HW231038   0.757   5.312   0.918
10047SOL     OW31039   1.063   3.531   0.973
10047SOL    HW131040   1.122   3.470   1.026
10047SOL    HW231041   1.119   3.603   0.932
10048SOL     OW31042   6.151   5.331   3.372
10048SOL    HW131043   6.089   5.331   3.450
10048SOL    HW231044   6.141   5.246   3.321
10049SOL     OW31045   6.679   0.885   5.464
10049SOL    HW131046   6.593   0.840   5.441
10049SOL    HW231047   6.716   0.930   5.383
10050SOL     OW31048   0.379   2.690   6.717
10050SOL    HW131049   0.316   2.758   6.756
10050SOL    HW231050   0.389   2.614   6.782
10051SOL     OW31051   2.405   2.454   3.915
10051SOL    HW131052   2.338   2.526   3.897
10051SOL    HW231053   2.442   2.465   4.007
10052SOL     OW31054   1.240   6.827   3.516
10052SOL    HW131055   1.310   6.759   3.538
10052SOL    HW231056   1.188   6.796   3.436
10053SOL     OW31057   5.623   5.336   3.908
10053SOL    HW131058   5.617   5.254   3.851
10053SOL    HW231059   5.578   5.319   3.996
10054SOL     OW31060   6.974   3.700   5.001
10054SOL    HW131061   6.968   3.633   4.927
10054SOL    HW231062   6.951   3.656   5.088
10055SOL     OW31063   1.683   2.541   6.420
10055SOL    HW131064   1.704   2.638   6.416
10055SOL    HW231065   1.647   2.511   6.331
10056SOL     OW31066   5.883   2.086   3.536
10056SOL    HW131067   5.892   2.034   3.451
10056SOL    HW231068   5.913   2.029   3.613
10057SOL     OW31069   5.788   5.176   5.347
10057SOL    HW131070   5.745   5.199   5.434
10057SOL    HW231071   5.781   5.078   5.331
10058SOL     OW31072   0.136   3.363   5.032
10058SOL    HW131073   0.069   3.303   4.987
10058SOL    HW231074   0.219   3.311   5.053
10059SOL     OW31075   5.848   0.093   0.152
10059SOL    HW131076   5.904   0.012   0.167
10059SOL    HW231077   5.785   0.077   0.077
10060SOL     OW31078   2.617   1.996   1.626
10060SOL    HW131079   2.713   2.013   1.606
10060SOL    HW231080   2.601   1.898   1.634
10061SOL     OW31081   3.705   0.011   2.403
10061SOL    HW131082   3.619   7.005   2.449
10061SOL    HW231083   3.708   6.983   2.314
10062SOL     OW31084   0.869   6.727   5.062
10062SOL    HW131085   0.882   6.636   5.023
10062SOL    HW231086   0.783   6.766   5.030
10063SOL     OW31087   2.350   2.418   5.131
10063SOL    HW131088   2.262   2.387   5.095
10063SOL    HW231089   2.344   2.515   5.155
10064SOL     OW31090   2.791   0.278   0.317
10064SOL    HW131091   2.703   0.234   0.296
10064SOL    HW231092   2.774   0.368   0.358
10065SOL     OW31093   0.588   2.361   1.719
10065SOL    HW131094   0.519   2.424   1.754
10065SOL    HW231095   0.566   2.268   1.746
10066SOL     OW31096   6.163   4.447   4.335
10066SOL    HW131097   6.260   4.436   4.313
10066SOL    HW231098   6.112   4.464   4.251
10067SOL     OW31099   6.848   2.545   5.087
10067SOL    HW131100   6.833   2.464   5.144
10067SOL    HW231101   6.897   2.614   5.140
10068SOL     OW31102   1.654   3.542   2.752
10068SOL    HW131103   1.729   3.606   2.734
10068SOL    HW231104   1.637   3.488   2.670
10069SOL     OW31105   2.795   4.672   0.114
10069SOL    HW131106   2.850   4.742   0.160
10069SOL    HW231107   2.721   4.715   0.063
10070SOL     OW31108   4.780   6.846   6.560
10070SOL    HW131109   4.780   6.925   6.499
10070SOL    HW231110   4.871   6.836   6.602
10071SOL     OW31111   6.284   0.614   4.839
10071SOL    HW131112   6.203   0.572   4.798
10071SOL    HW231113   6.279   0.713   4.829
10072SOL     OW31114   6.068   3.290   1.193
10072SOL    HW131115   5.972   3.310   1.214
10072SOL    HW231116   6.072   3.218   1.124
10073SOL     OW31117   5.767   4.621   5.186
10073SOL    HW131118   5.760   4.542   5.246
10073SOL    HW231119   5.696   4.616   5.116
10074SOL     OW31120   2.118   5.017   0.475
10074SOL    HW131121   2.175   5.086   0.520
10074SOL    HW231122   2.150   4.926   0.500
10075SOL     OW31123   1.251   3.416   1.832
10075SOL    HW131124   1.234   3.481   1.906
10075SOL    HW231125   1.350   3.397   1.827
10076SOL     OW31126   5.340   5.275   4.346
10076SOL    HW131127   5.288   5.330   4.282
10076SOL    HW231128   5.277   5.219   4.401
10077SOL     OW31129   5.148   3.956   6.681
10077SOL    HW131130   5.174   3.939   6.777
10077SOL    HW231131   5.064   4.010   6.678
10078SOL     OW31132   6.182   5.224   4.914
10078SOL    HW131133   6.270   5.180   4.932
10078SOL    HW231134   6.197   5.304   4.855
10079SOL     OW31135   4.941   3.618   4.085
10079SOL    HW131136   4.919   3.596   3.990
10079SOL    HW231137   4.897   3.551   4.145
10080SOL     OW31138   5.295   1.505   5.819
10080SOL    HW131139   5.281   1.409   5.797
10080SOL    HW231140   5.206   1.549   5.835
10081SOL     OW31141   1.052   4.526   0.816
10081SOL    HW131142   1.090   4.585   0.886
10081SOL    HW231143   1.122   4.460   0.786
10082SOL     OW31144   1.341   4.669   1.716
10082SOL    HW131145   1.304   4.762   1.717
10082SOL    HW231146   1.433   4.669   1.754
10083SOL     OW31147   2.990   5.854   2.413
10083SOL    HW131148   2.965   5.772   2.361
10083SOL    HW231149   2.930   5.930   2.386
10084SOL     OW31150   0.828   1.889   4.453
10084SOL    HW131151   0.834   1.864   4.356
10084SOL    HW231152   0.797   1.984   4.460
10085SOL     OW31153   5.260   0.024   0.943
10085SOL    HW131154   5.285   6.997   1.029
10085SOL    HW231155   5.162   0.046   0.943
10086SOL     OW31156   4.594   6.725   3.340
10086SOL    HW131157   4.507   6.769   3.315
10086SOL    HW231158   4.628   6.671   3.263
10087SOL     OW31159   1.202   5.564   5.260
10087SOL    HW131160   1.120   5.591   5.311
10087SOL    HW231161   1.220   5.467   5.275
10088SOL     OW31162   6.685   3.100   2.092
10088SOL    HW131163   6.719   3.094   2.187
10088SOL    HW231164   6.713   3.187   2.052
10089SOL     OW31165   3.740   0.494   1.538
10089SOL    HW131166   3.692   0.428   1.480
10089SOL    HW231167   3.738   0.462   1.633
10090SOL     OW31168   1.821   6.400   3.580
10090SOL    HW131169   1.741   6.342   3.566
10090SOL    HW231170   1.852   6.436   3.492
10091SOL     OW31171   5.767   4.709   4.649
10091SOL    HW131172   5.699   4.638   4.631
10091SOL    HW231173   5.772   4.726   4.747
10092SOL     OW31174   1.120   2.313   4.114
10092SOL    HW131175   1.211   2.341   4.084
10092SOL    HW231176   1.097   2.362   4.198
10093SOL     OW31177   4.441   4.167   6.034
10093SOL    HW131178   4.461   4.129   6.124
10093SOL    HW231179   4.344   4.151   6.012
10094SOL     OW31180   3.747   1.971   1.233
10094SOL    HW131181   3.722   1.921   1.315
10094SOL    HW231182   3.822   2.034   1.253
10095SOL     OW31183   4.418   3.314   5.384
10095SOL    HW131184   4.430   3.215   5.369
10095SOL    HW231185   4.354   3.328   5.459
10096SOL     OW31186   6.787   3.487   1.943
10096SOL    HW131187   6.717   3.520   2.006
10096SOL    HW231188   6.836   3.411   1.986
10097SOL     OW31189   0.431   1.642   0.808
10097SOL    HW131190   0.456   1.591   0.725
10097SOL    HW231191   0.380   1.724   0.782
10098SOL     OW31192   3.295   5.186   4.636
10098SOL    HW131193   3.232   5.227   4.702
10098SOL    HW231194   3.369   5.249   4.617
10099SOL     OW31195   0.244   5.217   2.713
10099SOL    HW131196   0.149   5.241   2.734
10099SOL    HW231197   0.267   5.130   2.758
10100SOL     OW31198   5.427   4.623   4.087
10100SOL    HW131199   5.502   4.607   4.023
10100SOL    HW231200   5.349   4.661   4.038
10101SOL     OW31201   6.371   3.273   0.278
10101SOL    HW131202   6.456   3.244   0.322
10101SOL    HW231203   6.391   3.338   0.205
10102SOL     OW31204   6.860   4.913   3.543
10102SOL    HW131205   6.779   4.958   3.582
10102SOL    HW231206   6.942   4.952   3.583
10103SOL     OW31207   0.616   6.293   6.762
10103SOL    HW131208   0.702   6.343   6.774
10103SOL    HW231209   0.541   6.344   6.806
10104SOL     OW31210   2.562   0.894   4.524
10104SOL    HW131211   2.537   0.958   4.596
10104SOL    HW231212   2.659   0.904   4.503
10105SOL     OW31213   2.584   1.256   4.041
10105SOL    HW131214   2.586   1.341   4.093
10105SOL    HW231215   2.583   1.178   4.103
10106SOL     OW31216   5.495   4.295   1.568
10106SOL    HW131217   5.395   4.295   1.575
10106SOL    HW231218   5.534   4.359   1.634
10107SOL     OW31219   5.384   5.510   0.143
10107SOL    HW131220   5.413   5.515   0.238
10107SOL    HW231221   5.442   5.446   0.093
10108SOL     OW31222   2.145   2.619   4.917
10108SOL    HW131223   2.139   2.560   4.837
10108SOL    HW231224   2.076   2.593   4.984
10109SOL     OW31225   1.290   2.239   1.134
10109SOL    HW131226   1.366   2.300   1.153
10109SOL    HW231227   1.251   2.206   1.220
10110SOL     OW31228   5.850   5.620   2.934
10110SOL    HW131229   5.780   5.590   2.870
10110SOL    HW231230   5.836   5.575   3.023
10111SOL     OW31231   6.817   2.629   2.018
10111SOL    HW131232   6.863   2.563   2.076
10111SOL    HW231233   6.756   2.686   2.074
10112SOL     OW31234   6.343   2.551   3.870
10112SOL    HW131235   6.259   2.604   3.867
10112SOL    HW231236   6.408   2.588   3.803
10113SOL     OW31237   5.967   0.328   6.466
10113SOL    HW131238   6.064   0.347   6.482
10113SOL    HW231239   5.937   0.378   6.384
10114SOL     OW31240   6.012   3.002   2.081
10114SOL    HW131241   5.995   2.969   1.988
10114SOL    HW231242   6.108   2.989   2.104
10115SOL     OW31243   3.532   2.556   5.676
10115SOL    HW131244   3.460   2.600   5.730
10115SOL    HW231245   3.563   2.474   5.723
10116SOL     OW31246   0.309   0.326   6.176
10116SOL    HW131247   0.344   0.415   6.147
10116SOL    HW231248   0.325   0.316   6.275
10117SOL     OW31249   6.583   4.191   2.946
10117SOL    HW131250   6.667   4.138   2.961
10117SOL    HW231251   6.507   4.146   2.994
10118SOL     OW31252   3.826   4.961   3.445
10118SOL    HW131253   3.731   4.965   3.476
10118SOL    HW231254   3.846   5.038   3.385
10119SOL     OW31255   6.160   6.136   6.619
10119SOL    HW131256   6.240   6.196   6.620
10119SOL    HW231257   6.084   6.181   6.573
10120SOL     OW31258   2.566   2.021   3.084
10120SOL    HW131259   2.600   1.980   3.000
10120SOL    HW231260   2.591   1.963   3.162
10121SOL     OW31261   6.965   5.197   1.387
10121SOL    HW131262   6.932   5.139   1.461
10121SOL    HW231263   0.045   5.218   1.401
10122SOL     OW31264   2.035   0.398   3.344
10122SOL    HW131265   1.994   0.314   3.377
10122SOL    HW231266   2.088   0.380   3.262
10123SOL     OW31267   0.245   5.875   6.590
10123SOL    HW131268   0.310   5.939   6.551
10123SOL    HW231269   0.255   5.786   6.546
10124SOL     OW31270   2.154   5.366   2.591
10124SOL    HW131271   2.081   5.415   2.544
10124SOL    HW231272   2.138   5.369   2.689
10125SOL     OW31273   0.835   0.576   4.704
10125SOL    HW131274   0.920   0.528   4.727
10125SOL    HW231275   0.830   0.587   4.604
10126SOL     OW31276   6.726   6.186   5.619
10126SOL    HW131277   6.719   6.176   5.718
10126SOL    HW231278   6.823   6.190   5.593
10127SOL     OW31279   2.400   6.741   6.121
10127SOL    HW131280   2.488   6.753   6.076
10127SOL    HW231281   2.327   6.747   6.053
10128SOL     OW31282   2.237   3.023   0.004
10128SOL    HW131283   2.173   3.015   0.080
10128SOL    HW231284   2.329   2.998   0.034
10129SOL     OW31285   6.031   1.866   5.132
10129SOL    HW131286   6.111   1.811   5.110
10129SOL    HW231287   6.000   1.915   5.051
10130SOL     OW31288   0.327   2.088   3.804
10130SOL    HW131289   0.385   2.007   3.809
10130SOL    HW231290   0.300   2.104   3.709
10131SOL     OW31291   1.796   6.347   5.309
10131SOL    HW131292   1.746   6.288   5.246
10131SOL    HW231293   1.824   6.430   5.261
10132SOL     OW31294   5.285   6.590   2.158
10132SOL    HW131295   5.268   6.671   2.103
10132SOL    HW231296   5.227   6.593   2.240
10133SOL     OW31297   5.508   6.288   0.844
10133SOL    HW131298   5.438   6.280   0.915
10133SOL    HW231299   5.598   6.273   0.885
10134SOL     OW31300   0.098   6.723   3.463
10134SOL    HW131301   0.008   6.691   3.492
10134SOL    HW231302   0.155   6.737   3.544
10135SOL     OW31303   6.105   6.750   3.137
10135SOL    HW131304   6.194   6.737   3.092
10135SOL    HW231305   6.071   6.662   3.170
10136SOL     OW31306   4.730   1.416   3.359
10136SOL    HW131307   4.661   1.487   3.349
10136SOL    HW231308   4.786   1.435   3.440
10137SOL     OW31309   6.436   5.460   4.565
10137SOL    HW131310   6.508   5.433   4.628
10137SOL    HW231311   6.433   5.560   4.558
10138SOL     OW31312   6.930   2.422   2.229
10138SOL    HW131313   6.990   2.448   2.304
10138SOL    HW231314   6.985   2.395   2.149
10139SOL     OW31315   3.205   3.025   6.442
10139SOL    HW131316   3.177   3.100   6.501
10139SOL    HW231317   3.216   3.059   6.348
10140SOL     OW31318   0.657   6.036   5.173
10140SOL    HW131319   0.610   6.081   5.097
10140SOL    HW231320   0.685   5.945   5.145
10141SOL     OW31321   1.979   2.626   3.993
10141SOL    HW131322   2.061   2.569   3.999
10141SOL    HW231323   1.904   2.571   3.957
10142SOL     OW31324   4.790   5.697   3.208
10142SOL    HW131325   4.756   5.643   3.131
10142SOL    HW231326   4.759   5.658   3.294
10143SOL     OW31327   5.697   2.811   5.976
10143SOL    HW131328   5.693   2.812   5.876
10143SOL    HW231329   5.723   2.720   6.007
10144SOL     OW31330   3.324   0.176   0.705
10144SOL    HW131331   3.256   0.114   0.743
10144SOL    HW231332   3.330   0.163   0.606
10145SOL     OW31333   6.596   6.760   6.404
10145SOL    HW131334   6.596   6.742   6.306
10145SOL    HW231335   6.689   6.755   6.439
10146SOL     OW31336   1.501   2.910   5.641
10146SOL    HW131337   1.463   2.891   5.551
10146SOL    HW231338   1.558   2.992   5.637
10147SOL     OW31339   3.880   6.145   6.139
10147SOL    HW131340   3.839   6.215   6.079
10147SOL    HW231341   3.834   6.058   6.124
10148SOL     OW31342   0.675   4.419   6.726
10148SOL    HW131343   0.686   4.406   6.825
10148SOL    HW231344   0.686   4.516   6.703
10149SOL     OW31345   3.772   3.649   1.773
10149SOL    HW131346   3.764   3.683   1.680
10149SOL    HW231347   3.864   3.669   1.808
10150SOL     OW31348   4.809   4.005   1.266
10150SOL    HW131349   4.712   3.979   1.274
10150SOL    HW231350   4.847   3.965   1.182
10151SOL     OW31351   0.063   0.714   6.203
10151SOL    HW131352   0.163   0.712   6.210
10151SOL    HW231353   0.026   0.761   6.283
10152SOL     OW31354   3.936   0.098   3.021
10152SOL    HW131355   3.908   0.006   3.049
10152SOL    HW231356   4.035   0.103   3.014
10153SOL     OW31357   4.762   4.051   1.704
10153SOL    HW131358   4.836   4.035   1.638
10153SOL    HW231359   4.740   4.149   1.704
10154SOL     OW31360   3.956   5.196   5.298
10154SOL    HW131361   3.926   5.101   5.298
10154SOL    HW231362   4.012   5.214   5.218
10155SOL     OW31363   4.195   1.516   3.802
10155SOL    HW131364   4.223   1.479   3.713
10155SOL    HW231365   4.248   1.599   3.822
10156SOL     OW31366   3.914   1.415   5.810
10156SOL    HW131367   3.870   1.494   5.852
10156SOL    HW231368   3.997   1.444   5.763
10157SOL     OW31369   0.547   4.286   1.295
10157SOL    HW131370   0.486   4.207   1.295
10157SOL    HW231371   0.535   4.338   1.210
10158SOL     OW31372   5.739   5.509   0.006
10158SOL    HW131373   5.703   5.590   0.054
10158SOL    HW231374   5.820   5.476   0.054
10159SOL     OW31375   3.369   2.967   1.991
10159SOL    HW131376   3.353   3.051   2.043
10159SOL    HW231377   3.426   2.904   2.045
10160SOL     OW31378   0.319   4.271   2.408
10160SOL    HW131379   0.350   4.363   2.430
10160SOL    HW231380   0.276   4.231   2.489
10161SOL     OW31381   5.504   3.126   6.011
10161SOL    HW131382   5.545   3.155   6.098
10161SOL    HW231383   5.454   3.041   6.024
10162SOL     OW31384   1.503   3.254   2.095
10162SOL    HW131385   1.494   3.267   1.997
10162SOL    HW231386   1.514   3.157   2.115
10163SOL     OW31387   2.993   5.273   4.789
10163SOL    HW131388   2.989   5.319   4.700
10163SOL    HW231389   2.920   5.205   4.795
10164SOL     OW31390   6.915   1.210   3.698
10164SOL    HW131391   6.845   1.254   3.754
10164SOL    HW231392   7.002   1.209   3.747
10165SOL     OW31393   1.186   3.633   3.855
10165SOL    HW131394   1.122   3.701   3.819
10165SOL    HW231395   1.266   3.679   3.892
10166SOL     OW31396   2.488   6.309   2.786
10166SOL    HW131397   2.535   6.233   2.830
10166SOL    HW231398   2.446   6.278   2.701
10167SOL     OW31399   2.507   2.205   6.217
10167SOL    HW131400   2.527   2.117   6.176
10167SOL    HW231401   2.561   2.216   6.301
10168SOL     OW31402   0.314   0.286   0.069
10168SOL    HW131403   0.218   0.308   0.086
10168SOL    HW231404   0.336   0.197   0.110
10169SOL     OW31405   4.841   5.013   3.484
10169SOL    HW131406   4.834   4.968   3.573
10169SOL    HW231407   4.756   5.062   3.464
10170SOL     OW31408   5.093   6.273   0.704
10170SOL    HW131409   5.161   6.306   0.638
10170SOL    HW231410   5.001   6.288   0.668
10171SOL     OW31411   2.408   4.541   4.945
10171SOL    HW131412   2.430   4.482   5.023
10171SOL    HW231413   2.314   4.573   4.952
10172SOL     OW31414   6.840   0.816   2.692
10172SOL    HW131415   6.787   0.760   2.756
10172SOL    HW231416   6.922   0.766   2.665
10173SOL     OW31417   3.866   3.423   5.008
10173SOL    HW131418   3.775   3.466   5.011
10173SOL    HW231419   3.855   3.323   5.010
10174SOL     OW31420   4.683   5.209   1.181
10174SOL    HW131421   4.638   5.229   1.269
10174SOL    HW231422   4.762   5.269   1.170
10175SOL     OW31423   6.325   6.650   4.549
10175SOL    HW131424   6.292   6.743   4.565
10175SOL    HW231425   6.365   6.644   4.457
10176SOL     OW31426   0.527   0.609   4.752
10176SOL    HW131427   0.436   0.613   4.794
10176SOL    HW231428   0.570   0.699   4.758
10177SOL     OW31429   2.463   0.766   4.160
10177SOL    HW131430   2.399   0.748   4.234
10177SOL    HW231431   2.417   0.750   4.072
10178SOL     OW31432   0.505   1.863   1.243
10178SOL    HW131433   0.467   1.939   1.296
10178SOL    HW231434   0.539   1.898   1.155
10179SOL     OW31435   0.219   5.708   0.380
10179SOL    HW131436   0.289   5.683   0.446
10179SOL    HW231437   0.135   5.656   0.399
10180SOL     OW31438   3.669   6.989   6.476
10180SOL    HW131439   3.591   6.970   6.417
10180SOL    HW231440   3.643   6.977   6.572
10181SOL     OW31441   6.724   3.499   3.702
10181SOL    HW131442   6.627   3.479   3.684
10181SOL    HW231443   6.733   3.541   3.792
10182SOL     OW31444   4.106   0.640   0.795
10182SOL    HW131445   4.035   0.694   0.840
10182SOL    HW231446   4.068   0.551   0.768
10183SOL     OW31447   4.658   6.607   5.736
10183SOL    HW131448   4.652   6.683   5.671
10183SOL    HW231449   4.606   6.629   5.819
10184SOL     OW31450   5.185   2.130   5.477
10184SOL    HW131451   5.149   2.217   5.443
10184SOL    HW231452   5.151   2.113   5.569
10185SOL     OW31453   3.441   5.291   1.659
10185SOL    HW131454   3.462   5.234   1.738
10185SOL    HW231455   3.408   5.380   1.690
10186SOL     OW31456   3.669   3.218   6.842
10186SOL    HW131457   3.709   3.191   6.930
10186SOL    HW231458   3.650   3.137   6.788
10187SOL     OW31459   1.976   4.271   5.282
10187SOL    HW131460   2.044   4.248   5.212
10187SOL    HW231461   1.891   4.221   5.264
10188SOL     OW31462   2.747   6.966   6.309
10188SOL    HW131463   2.684   6.917   6.370
10188SOL    HW231464   2.840   6.955   6.342
10189SOL     OW31465   1.851   1.535   4.776
10189SOL    HW131466   1.816   1.532   4.683
10189SOL    HW231467   1.940   1.580   4.778
10190SOL     OW31468   4.609   3.957   0.892
10190SOL    HW131469   4.557   4.000   0.966
10190SOL    HW231470   4.550   3.893   0.842
10191SOL     OW31471   4.976   0.404   0.090
10191SOL    HW131472   4.908   0.472   0.118
10191SOL    HW231473   4.980   0.331   0.158
10192SOL     OW31474   1.812   0.988   4.590
10192SOL    HW131475   1.910   1.004   4.577
10192SOL    HW231476   1.786   1.015   4.682
10193SOL     OW31477   3.834   3.623   3.726
10193SOL    HW131478   3.864   3.717   3.743
10193SOL    HW231479   3.903   3.576   3.671
10194SOL     OW31480   3.123   0.529   3.267
10194SOL    HW131481   3.184   0.503   3.192
10194SOL    HW231482   3.032   0.493   3.249
10195SOL     OW31483   5.393   0.198   2.233
10195SOL    HW131484   5.387   0.219   2.135
10195SOL    HW231485   5.469   0.248   2.273
10196SOL     OW31486   5.247   3.684   4.692
10196SOL    HW131487   5.265   3.624   4.770
10196SOL    HW231488   5.228   3.628   4.611
10197SOL     OW31489   5.306   1.627   2.847
10197SOL    HW131490   5.377   1.565   2.879
10197SOL    HW231491   5.252   1.582   2.776
10198SOL     OW31492   2.747   0.964   1.629
10198SOL    HW131493   2.731   0.937   1.724
10198SOL    HW231494   2.756   0.883   1.572
10199SOL     OW31495   0.988   2.375   0.854
10199SOL    HW131496   1.071   2.432   0.859
10199SOL    HW231497   0.917   2.425   0.804
10200SOL     OW31498   6.049   5.672   5.211
10200SOL    HW131499   6.042   5.597   5.145
10200SOL    HW231500   6.116   5.739   5.179
10201SOL     OW31501   1.866   5.005   3.238
10201SOL    HW131502   1.931   4.967   3.304
10201SOL    HW231503   1.773   4.991   3.270
10202SOL     OW31504   0.592   2.309   3.233
10202SOL    HW131505   0.672   2.355   3.195
10202SOL    HW231506   0.526   2.377   3.265
10203SOL     OW31507   0.964   3.212   1.697
10203SOL    HW131508   1.002   3.227   1.788
10203SOL    HW231509   0.996   3.283   1.635
10204SOL     OW31510   2.962   4.872   3.812
10204SOL    HW131511   3.024   4.884   3.889
10204SOL    HW231512   2.868   4.870   3.844
10205SOL     OW31513   4.528   0.657   1.279
10205SOL    HW131514   4.612   0.640   1.330
10205SOL    HW231515   4.497   0.751   1.296
10206SOL     OW31516   5.209   0.170   6.240
10206SOL    HW131517   5.159   0.208   6.163
10206SOL    HW231518   5.158   0.186   6.324
10207SOL     OW31519   3.833   1.428   3.105
10207SOL    HW131520   3.782   1.377   3.035
10207SOL    HW231521   3.917   1.378   3.128
10208SOL     OW31522   6.603   3.974   5.338
10208SOL    HW131523   6.605   3.898   5.403
10208SOL    HW231524   6.572   4.057   5.385
10209SOL     OW31525   5.134   6.775   6.652
10209SOL    HW131526   5.072   6.703   6.682
10209SOL    HW231527   5.202   6.737   6.589
10210SOL     OW31528   5.489   5.994   0.777
10210SOL    HW131529   5.441   6.045   0.849
10210SOL    HW231530   5.581   6.032   0.764
10211SOL     OW31531   3.446   5.668   5.013
10211SOL    HW131532   3.510   5.629   5.079
10211SOL    HW231533   3.354   5.669   5.053
10212SOL     OW31534   5.963   6.037   5.672
10212SOL    HW131535   5.895   6.016   5.602
10212SOL    HW231536   5.963   5.965   5.742
10213SOL     OW31537   4.766   0.488   4.412
10213SOL    HW131538   4.848   0.528   4.370
10213SOL    HW231539   4.686   0.543   4.389
10214SOL     OW31540   0.405   1.137   1.279
10214SOL    HW131541   0.451   1.213   1.233
10214SOL    HW231542   0.440   1.050   1.244
10215SOL     OW31543   3.792   2.653   6.724
10215SOL    HW131544   3.792   2.571   6.780
10215SOL    HW231545   3.886   2.684   6.710
10216SOL     OW31546   4.647   6.926   2.525
10216SOL    HW131547   4.640   6.937   2.426
10216SOL    HW231548   4.737   6.888   2.547
10217SOL     OW31549   3.255   2.198   5.743
10217SOL    HW131550   3.290   2.283   5.703
10217SOL    HW231551   3.220   2.139   5.670
10218SOL     OW31552   2.587   2.376   0.021
10218SOL    HW131553   2.554   2.350   0.112
10218SOL    HW231554   2.638   2.299   6.998
10219SOL     OW31555   0.672   4.540   6.996
10219SOL    HW131556   0.626   4.590   0.052
10219SOL    HW231557   0.756   4.588   6.970
10220SOL     OW31558   4.311   2.966   0.282
10220SOL    HW131559   4.256   3.000   0.358
10220SOL    HW231560   4.307   3.030   0.206
10221SOL     OW31561   3.456   1.275   4.309
10221SOL    HW131562   3.424   1.332   4.386
10221SOL    HW231563   3.401   1.295   4.228
10222SOL     OW31564   1.766   5.141   5.726
10222SOL    HW131565   1.753   5.143   5.627
10222SOL    HW231566   1.703   5.074   5.766
10223SOL     OW31567   6.906   4.439   0.898
10223SOL    HW131568   6.984   4.458   0.838
10223SOL    HW231569   6.887   4.341   0.898
10224SOL     OW31570   2.173   0.432   4.867
10224SOL    HW131571   2.115   0.412   4.946
10224SOL    HW231572   2.268   0.437   4.897
10225SOL     OW31573   4.782   5.898   4.167
10225SOL    HW131574   4.817   5.828   4.229
10225SOL    HW231575   4.827   5.985   4.187
10226SOL     OW31576   0.206   2.831   6.880
10226SOL    HW131577   0.229   2.771   6.957
10226SOL    HW231578   0.107   2.843   6.875
10227SOL     OW31579   6.014   5.784   6.169
10227SOL    HW131580   5.995   5.705   6.111
10227SOL    HW231581   5.946   5.855   6.151
10228SOL     OW31582   1.505   3.980   2.876
10228SOL    HW131583   1.504   3.913   2.951
10228SOL    HW231584   1.444   3.948   2.803
10229SOL     OW31585   1.782   1.694   2.034
10229SOL    HW131586   1.689   1.668   2.058
10229SOL    HW231587   1.780   1.773   1.972
10230SOL     OW31588   6.031   6.700   4.594
10230SOL    HW131589   6.062   6.671   4.685
10230SOL    HW231590   6.064   6.792   4.575
10231SOL     OW31591   4.943   6.981   4.521
10231SOL    HW131592   5.023   6.942   4.568
10231SOL    HW231593   4.946   0.064   4.526
10232SOL     OW31594   4.249   2.102   3.605
10232SOL    HW131595   4.306   2.075   3.683
10232SOL    HW231596   4.192   2.024   3.577
10233SOL     OW31597   5.106   1.086   5.416
10233SOL    HW131598   5.021   1.079   5.468
10233SOL    HW231599   5.086   1.116   5.322
10234SOL     OW31600   4.549   5.975   1.796
10234SOL    HW131601   4.507   5.926   1.871
10234SOL    HW231602   4.646   5.952   1.789
10235SOL     OW31603   4.955   1.422   6.721
10235SOL    HW131604   4.865   1.391   6.749
10235SOL    HW231605   4.977   1.508   6.768
10236SOL     OW31606   2.149   6.015   2.044
10236SOL    HW131607   2.233   6.034   2.094
10236SOL    HW231608   2.160   6.040   1.948
10237SOL     OW31609   5.804   2.958   3.662
10237SOL    HW131610   5.864   2.896   3.613
10237SOL    HW231611   5.712   2.919   3.668
10238SOL     OW31612   4.449   5.928   4.904
10238SOL    HW131613   4.484   5.843   4.943
10238SOL    HW231614   4.487   6.006   4.954
10239SOL     OW31615   6.421   3.649   4.397
10239SOL    HW131616   6.501   3.705   4.377
10239SOL    HW231617   6.451   3.564   4.442
10240SOL     OW31618   5.687   3.966   3.852
10240SOL    HW131619   5.728   4.019   3.926
10240SOL    HW231620   5.619   3.903   3.890
10241SOL     OW31621   1.530   1.520   3.360
10241SOL    HW131622   1.564   1.539   3.268
10241SOL    HW231623   1.603   1.480   3.415
10242SOL     OW31624   0.912   6.007   6.478
10242SOL    HW131625   0.957   5.959   6.402
10242SOL    HW231626   0.848   5.944   6.523
10243SOL     OW31627   0.837   6.404   2.630
10243SOL    HW131628   0.838   6.501   2.654
10243SOL    HW231629   0.788   6.391   2.544
10244SOL     OW31630   1.615   5.938   0.034
10244SOL    HW131631   1.643   5.912   6.958
10244SOL    HW231632   1.524   5.901   0.054
10245SOL     OW31633   2.037   2.615   6.957
10245SOL    HW131634   2.067   2.689   6.896
10245SOL    HW231635   2.105   2.602   0.013
10246SOL     OW31636   3.397   3.506   3.986
10246SOL    HW131637   3.466   3.575   4.005
10246SOL    HW231638   3.366   3.464   4.071
10247SOL     OW31639   0.792   6.022   5.683
10247SOL    HW131640   0.835   5.970   5.756
10247SOL    HW231641   0.751   6.105   5.720
10248SOL     OW31642   4.337   0.984   2.855
10248SOL    HW131643   4.355   1.032   2.769
10248SOL    HW231644   4.391   1.026   2.928
10249SOL     OW31645   5.123   0.937   6.772
10249SOL    HW131646   5.064   0.866   6.733
10249SOL    HW231647   5.075   1.024   6.770
10250SOL     OW31648   5.007   0.315   0.590
10250SOL    HW131649   4.915   0.280   0.604
10250SOL    HW231650   5.065   0.243   0.552
10251SOL     OW31651   3.886   4.516   6.855
10251SOL    HW131652   3.880   4.611   6.886
10251SOL    HW231653   3.907   4.514   6.757
10252SOL     OW31654   6.336   5.157   1.772
10252SOL    HW131655   6.334   5.248   1.812
10252SOL    HW231656   6.269   5.099   1.818
10253SOL     OW31657   4.146   5.050   6.707
10253SOL    HW131658   4.107   5.137   6.736
10253SOL    HW231659   4.171   4.996   6.788
10254SOL     OW31660   2.302   1.353   4.380
10254SOL    HW131661   2.269   1.350   4.474
10254SOL    HW231662   2.322   1.260   4.348
10255SOL     OW31663   2.831   5.415   2.731
10255SOL    HW131664   2.738   5.401   2.765
10255SOL    HW231665   2.836   5.500   2.679
10256SOL     OW31666   5.945   6.424   6.888
10256SOL    HW131667   5.900   6.354   6.943
10256SOL    HW231668   5.992   6.489   6.949
10257SOL     OW31669   2.264   6.686   6.340
10257SOL    HW131670   2.319   6.700   6.257
10257SOL    HW231671   2.168   6.678   6.315
10258SOL     OW31672   4.479   0.541   3.236
10258SOL    HW131673   4.463   0.590   3.322
10258SOL    HW231674   4.503   0.607   3.165
10259SOL     OW31675   1.030   3.476   4.012
10259SOL    HW131676   1.019   3.385   3.971
10259SOL    HW231677   1.094   3.529   3.956
10260SOL     OW31678   0.145   6.238   1.621
10260SOL    HW131679   0.149   6.319   1.561
10260SOL    HW231680   0.236   6.197   1.627
10261SOL     OW31681   2.003   0.042   1.452
10261SOL    HW131682   1.915   0.085   1.467
10261SOL    HW231683   2.056   0.043   1.537
10262SOL     OW31684   0.984   5.562   4.946
10262SOL    HW131685   1.024   5.653   4.956
10262SOL    HW231686   1.053   5.499   4.912
10263SOL     OW31687   6.759   2.317   5.804
10263SOL    HW131688   6.808   2.290   5.887
10263SOL    HW231689   6.809   2.390   5.758
10264SOL     OW31690   0.391   0.038   0.206
10264SOL    HW131691   0.491   0.038   0.196
10264SOL    HW231692   0.350   7.008   0.128
10265SOL     OW31693   4.020   2.213   2.045
10265SOL    HW131694   4.027   2.311   2.027
10265SOL    HW231695   3.949   2.174   1.987
10266SOL     OW31696   3.949   3.905   6.620
10266SOL    HW131697   4.025   3.966   6.599
10266SOL    HW231698   3.897   3.941   6.697
10267SOL     OW31699   0.126   1.623   6.313
10267SOL    HW131700   0.116   1.588   6.407
10267SOL    HW231701   0.144   1.721   6.316
10268SOL     OW31702   6.473   4.768   1.605
10268SOL    HW131703   6.475   4.852   1.551
10268SOL    HW231704   6.427   4.786   1.692
10269SOL     OW31705   3.144   2.494   6.118
10269SOL    HW131706   3.068   2.560   6.113
10269SOL    HW231707   3.225   2.540   6.155
10270SOL     OW31708   3.075   6.868   1.082
10270SOL    HW131709   3.094   6.964   1.063
10270SOL    HW231710   3.004   6.834   1.020
10271SOL     OW31711   3.173   5.001   0.549
10271SOL    HW131712   3.138   5.083   0.595
10271SOL    HW231713   3.217   5.028   0.463
10272SOL     OW31714   1.065   1.303   5.206
10272SOL    HW131715   0.966   1.308   5.220
10272SOL    HW231716   1.094   1.378   5.146
10273SOL     OW31717   4.068   6.438   3.812
10273SOL    HW131718   4.063   6.425   3.713
10273SOL    HW231719   4.097   6.532   3.832
10274SOL     OW31720   2.109   5.758   6.208
10274SOL    HW131721   2.192   5.720   6.249
10274SOL    HW231722   2.124   5.854   6.184
10275SOL     OW31723   0.776   6.728   2.140
10275SOL    HW131724   0.802   6.691   2.229
10275SOL    HW231725   0.682   6.760   2.143
10276SOL     OW31726   0.061   6.559   0.206
10276SOL    HW131727   6.980   6.541   0.205
10276SOL    HW231728   0.105   6.503   0.276
10277SOL     OW31729   0.825   5.944   2.343
10277SOL    HW131730   0.826   5.847   2.320
10277SOL    HW231731   0.885   5.960   2.422
10278SOL     OW31732   6.628   0.171   6.424
10278SOL    HW131733   6.647   0.161   6.326
10278SOL    HW231734   6.530   0.178   6.439
10279SOL     OW31735   3.765   6.058   3.382
10279SOL    HW131736   3.812   5.986   3.433
10279SOL    HW231737   3.666   6.042   3.386
10280SOL     OW31738   3.249   2.631   6.574
10280SOL    HW131739   3.167   2.625   6.517
10280SOL    HW231740   3.252   2.720   6.619
10281SOL     OW31741   4.064   7.015   4.208
10281SOL    HW131742   4.073   0.084   4.259
10281SOL    HW231743   4.116   0.005   4.122
10282SOL     OW31744   1.061   2.736   4.990
10282SOL    HW131745   1.133   2.671   5.015
10282SOL    HW231746   1.095   2.795   4.916
10283SOL     OW31747   1.413   3.638   5.541
10283SOL    HW131748   1.367   3.694   5.472
10283SOL    HW231749   1.358   3.636   5.625
10284SOL     OW31750   5.438   3.083   6.810
10284SOL    HW131751   5.459   2.986   6.796
10284SOL    HW231752   5.512   3.126   6.862
10285SOL     OW31753   5.718   0.266   0.556
10285SOL    HW131754   5.818   0.256   0.554
10285SOL    HW231755   5.685   0.290   0.465
10286SOL     OW31756   4.315   0.647   4.262
10286SOL    HW131757   4.246   0.719   4.265
10286SOL    HW231758   4.295   0.579   4.332
10287SOL     OW31759   1.460   4.827   1.464
10287SOL    HW131760   1.434   4.730   1.464
10287SOL    HW231761   1.554   4.835   1.498
10288SOL     OW31762   4.916   6.350   4.072
10288SOL    HW131763   4.883   6.372   3.980
10288SOL    HW231764   4.876   6.415   4.137
10289SOL     OW31765   2.647   1.527   1.511
10289SOL    HW131766   2.607   1.548   1.422
10289SOL    HW231767   2.671   1.430   1.515
10290SOL     OW31768   2.847   3.558   2.117
10290SOL    HW131769   2.754   3.592   2.097
10290SOL    HW231770   2.841   3.478   2.177
10291SOL     OW31771   4.534   0.408   5.612
10291SOL    HW131772   4.564   0.313   5.604
10291SOL    HW231773   4.599   0.467   5.565
10292SOL     OW31774   6.840   0.631   4.943
10292SOL    HW131775   6.898   0.661   5.018
10292SOL    HW231776   6.780   0.706   4.916
10293SOL     OW31777   2.874   5.715   3.337
10293SOL    HW131778   2.912   5.781   3.402
10293SOL    HW231779   2.833   5.764   3.260
10294SOL     OW31780   6.304   1.879   3.185
10294SOL    HW131781   6.335   1.960   3.135
10294SOL    HW231782   6.370   1.804   3.172
10295SOL     OW31783   1.774   4.489   4.582
10295SOL    HW131784   1.857   4.537   4.609
10295SOL    HW231785   1.794   4.392   4.568
10296SOL     OW31786   6.791   2.727   0.962
10296SOL    HW131787   6.734   2.788   0.905
10296SOL    HW231788   6.770   2.743   1.058
10297SOL     OW31789   2.666   5.709   4.620
10297SOL    HW131790   2.640   5.616   4.594
10297SOL    HW231791   2.718   5.706   4.706
10298SOL     OW31792   5.733   3.786   3.111
10298SOL    HW131793   5.735   3.687   3.124
10298SOL    HW231794   5.698   3.807   3.020
10299SOL     OW31795   4.981   3.736   2.043
10299SOL    HW131796   4.934   3.650   2.063
10299SOL    HW231797   4.914   3.805   2.016
10300SOL     OW31798   1.964   5.552   2.248
10300SOL    HW131799   2.036   5.485   2.269
10300SOL    HW231800   1.998   5.616   2.178
10301SOL     OW31801   5.152   1.321   1.280
10301SOL    HW131802   5.180   1.312   1.376
10301SOL    HW231803   5.083   1.393   1.272
10302SOL     OW31804   1.434   5.190   3.696
10302SOL    HW131805   1.471   5.194   3.788
10302SOL    HW231806   1.349   5.243   3.692
10303SOL     OW31807   3.749   3.188   1.323
10303SOL    HW131808   3.755   3.088   1.319
10303SOL    HW231809   3.653   3.215   1.329
10304SOL     OW31810   6.100   6.677   3.998
10304SOL    HW131811   6.135   6.759   4.045
10304SOL    HW231812   6.024   6.703   3.939
10305SOL     OW31813   2.064   5.265   1.163
10305SOL    HW131814   1.985   5.315   1.200
10305SOL    HW231815   2.034   5.207   1.087
10306SOL     OW31816   3.950   4.976   0.221
10306SOL    HW131817   4.024   4.938   0.276
10306SOL    HW231818   3.881   5.016   0.282
10307SOL     OW31819   2.975   0.906   5.355
10307SOL    HW131820   3.017   0.909   5.446
10307SOL    HW231821   2.877   0.924   5.363
10308SOL     OW31822   2.878   5.441   3.891
10308SOL    HW131823   2.905   5.474   3.801
10308SOL    HW231824   2.781   5.417   3.890
10309SOL     OW31825   0.318   6.212   3.466
10309SOL    HW131826   0.316   6.264   3.381
10309SOL    HW231827   0.405   6.164   3.474
10310SOL     OW31828   2.950   3.419   4.256
10310SOL    HW131829   2.944   3.446   4.352
10310SOL    HW231830   2.922   3.494   4.198
10311SOL     OW31831   0.554   6.623   1.162
10311SOL    HW131832   0.568   6.529   1.192
10311SOL    HW231833   0.486   6.667   1.221
10312SOL     OW31834   2.311   4.342   0.558
10312SOL    HW131835   2.296   4.340   0.657
10312SOL    HW231836   2.339   4.434   0.531
10313SOL     OW31837   6.326   6.304   4.008
10313SOL    HW131838   6.388   6.254   4.069
10313SOL    HW231839   6.346   6.281   3.913
10314SOL     OW31840   6.524   5.053   5.773
10314SOL    HW131841   6.435   5.021   5.742
10314SOL    HW231842   6.563   4.987   5.837
10315SOL     OW31843   5.136   6.083   5.248
10315SOL    HW131844   5.172   6.001   5.203
10315SOL    HW231845   5.061   6.057   5.309
10316SOL     OW31846   0.340   3.559   2.676
10316SOL    HW131847   0.273   3.620   2.633
10316SOL    HW231848   0.294   3.500   2.743
10317SOL     OW31849   4.449   4.549   0.370
10317SOL    HW131850   4.448   4.471   0.433
10317SOL    HW231851   4.445   4.515   0.276
10318SOL     OW31852   6.272   5.699   2.055
10318SOL    HW131853   6.243   5.767   1.988
10318SOL    HW231854   6.252   5.607   2.021
10319SOL     OW31855   5.077   5.996   4.716
10319SOL    HW131856   5.068   5.987   4.617
10319SOL    HW231857   5.004   5.945   4.761
10320SOL     OW31858   4.319   6.132   1.823
10320SOL    HW131859   4.315   6.229   1.847
10320SOL    HW231860   4.414   6.108   1.802
10321SOL     OW31861   3.516   0.216   3.910
10321SOL    HW131862   3.559   0.299   3.946
10321SOL    HW231863   3.583   0.164   3.857
10322SOL     OW31864   0.500   2.337   0.125
10322SOL    HW131865   0.449   2.334   0.039
10322SOL    HW231866   0.492   2.429   0.164
10323SOL     OW31867   6.856   1.967   5.138
10323SOL    HW131868   6.905   1.892   5.095
10323SOL    HW231869   6.920   2.044   5.152
10324SOL     OW31870   3.354   3.003   3.801
10324SOL    HW131871   3.306   3.090   3.793
10324SOL    HW231872   3.371   2.966   3.710
10325SOL     OW31873   0.320   3.561   3.051
10325SOL    HW131874   0.319   3.524   3.143
10325SOL    HW231875   0.269   3.648   3.049
10326SOL     OW31876   4.876   1.602   0.964
10326SOL    HW131877   4.921   1.516   0.939
10326SOL    HW231878   4.822   1.635   0.886
10327SOL     OW31879   6.800   0.885   3.199
10327SOL    HW131880   6.899   0.899   3.191
10327SOL    HW231881   6.775   0.882   3.296
10328SOL     OW31882   6.237   3.423   2.421
10328SOL    HW131883   6.146   3.395   2.391
10328SOL    HW231884   6.262   3.372   2.503
10329SOL     OW31885   3.643   6.686   3.162
10329SOL    HW131886   3.581   6.716   3.090
10329SOL    HW231887   3.620   6.592   3.188
10330SOL     OW31888   3.417   4.444   1.088
10330SOL    HW131889   3.454   4.454   1.181
10330SOL    HW231890   3.389   4.349   1.074
10331SOL     OW31891   4.976   0.577   4.263
10331SOL    HW131892   5.068   0.577   4.304
10331SOL    HW231893   4.949   0.482   4.244
10332SOL     OW31894   0.279   1.587   0.255
10332SOL    HW131895   0.196   1.532   0.266
10332SOL    HW231896   0.286   1.652   0.331
10333SOL     OW31897   5.201   4.308   5.367
10333SOL    HW131898   5.165   4.339   5.280
10333SOL    HW231899   5.136   4.329   5.440
10334SOL     OW31900   0.918   5.198   4.779
10334SOL    HW131901   0.989   5.249   4.827
10334SOL    HW231902   0.930   5.100   4.795
10335SOL     OW31903   2.647   5.571   1.788
10335SOL    HW131904   2.719   5.569   1.720
10335SOL    HW231905   2.638   5.480   1.830
10336SOL     OW31906   4.705   6.264   2.954
10336SOL    HW131907   4.682   6.201   2.880
10336SOL    HW231908   4.686   6.358   2.924
10337SOL     OW31909   1.036   4.910   5.149
10337SOL    HW131910   0.938   4.911   5.128
10337SOL    HW231911   1.087   4.884   5.067
10338SOL     OW31912   3.322   4.924   3.039
10338SOL    HW131913   3.412   4.964   3.057
10338SOL    HW231914   3.319   4.891   2.944
10339SOL     OW31915   3.063   5.564   0.096
10339SOL    HW131916   3.106   5.558   0.005
10339SOL    HW231917   2.980   5.619   0.089
10340SOL     OW31918   1.860   6.716   0.273
10340SOL    HW131919   1.773   6.669   0.283
10340SOL    HW231920   1.932   6.664   0.320
10341SOL     OW31921   0.867   2.263   2.333
10341SOL    HW131922   0.864   2.281   2.235
10341SOL    HW231923   0.860   2.349   2.383
10342SOL     OW31924   3.067   6.434   3.091
10342SOL    HW131925   3.037   6.452   3.184
10342SOL    HW231926   3.004   6.479   3.027
10343SOL     OW31927   2.304   2.781   3.808
10343SOL    HW131928   2.332   2.744   3.720
10343SOL    HW231929   2.229   2.846   3.795
10344SOL     OW31930   4.172   3.902   0.702
10344SOL    HW131931   4.264   3.886   0.736
10344SOL    HW231932   4.146   3.997   0.718
10345SOL     OW31933   2.004   1.692   5.195
10345SOL    HW131934   2.084   1.705   5.136
10345SOL    HW231935   1.938   1.634   5.148
10346SOL     OW31936   5.872   4.766   0.680
10346SOL    HW131937   5.794   4.809   0.724
10346SOL    HW231938   5.932   4.836   0.642
10347SOL     OW31939   5.000   0.609   1.959
10347SOL    HW131940   4.957   0.595   1.870
10347SOL    HW231941   5.045   0.524   1.989
10348SOL     OW31942   6.551   4.844   5.997
10348SOL    HW131943   6.580   4.749   6.012
10348SOL    HW231944   6.614   4.906   6.044
10349SOL     OW31945   6.699   1.983   0.977
10349SOL    HW131946   6.767   2.039   0.930
10349SOL    HW231947   6.648   1.928   0.911
10350SOL     OW31948   2.030   4.611   4.934
10350SOL    HW131949   2.084   4.692   4.913
10350SOL    HW231950   2.007   4.611   5.032
10351SOL     OW31951   4.124   4.816   4.255
10351SOL    HW131952   4.174   4.810   4.168
10351SOL    HW231953   4.026   4.826   4.236
10352SOL     OW31954   6.420   0.927   0.102
10352SOL    HW131955   6.335   0.979   0.099
10352SOL    HW231956   6.498   0.991   0.102
10353SOL     OW31957   6.116   2.228   3.931
10353SOL    HW131958   6.202   2.228   3.983
10353SOL    HW231959   6.042   2.258   3.990
10354SOL     OW31960   6.251   2.887   1.481
10354SOL    HW131961   6.213   2.796   1.463
10354SOL    HW231962   6.225   2.949   1.407
10355SOL     OW31963   0.844   1.274   0.980
10355SOL    HW131964   0.900   1.233   1.051
10355SOL    HW231965   0.860   1.373   0.977
10356SOL     OW31966   5.786   2.949   5.685
10356SOL    HW131967   5.688   2.934   5.694
10356SOL    HW231968   5.803   3.043   5.657
10357SOL     OW31969   1.551   0.439   6.062
10357SOL    HW131970   1.552   0.535   6.035
10357SOL    HW231971   1.599   0.428   6.149
10358SOL     OW31972   0.230   3.114   2.997
10358SOL    HW131973   0.229   3.105   3.097
10358SOL    HW231974   0.258   3.027   2.957
10359SOL     OW31975   6.434   1.734   2.339
10359SOL    HW131976   6.421   1.793   2.419
10359SOL    HW231977   6.477   1.648   2.368
10360SOL     OW31978   5.682   4.098   1.754
10360SOL    HW131979   5.589   4.108   1.789
10360SOL    HW231980   5.679   4.053   1.664
10361SOL     OW31981   5.966   2.223   2.374
10361SOL    HW131982   6.010   2.299   2.327
10361SOL    HW231983   5.983   2.138   2.323
10362SOL     OW31984   1.540   6.164   1.483
10362SOL    HW131985   1.596   6.149   1.401
10362SOL    HW231986   1.504   6.258   1.482
10363SOL     OW31987   5.383   4.154   6.505
10363SOL    HW131988   5.366   4.237   6.558
10363SOL    HW231989   5.419   4.083   6.565
10364SOL     OW31990   5.572   5.046   2.523
10364SOL    HW131991   5.580   5.057   2.622
10364SOL    HW231992   5.476   5.034   2.498
10365SOL     OW31993   6.006   5.056   0.764
10365SOL    HW131994   5.951   5.041   0.846
10365SOL    HW231995   5.949   5.096   0.692
10366SOL     OW31996   3.354   6.073   3.854
10366SOL    HW131997   3.256   6.067   3.835
10366SOL    HW231998   3.379   6.006   3.923
10367SOL     OW31999   5.116   6.222   1.607
10367SOL    HW132000   5.206   6.264   1.621
10367SOL    HW232001   5.045   6.289   1.626
10368SOL     OW32002   2.008   6.189   1.478
10368SOL    HW132003   2.047   6.266   1.427
10368SOL    HW232004   2.036   6.103   1.435
10369SOL     OW32005   2.620   0.111   6.135
10369SOL    HW132006   2.525   0.093   6.160
10369SOL    HW232007   2.681   0.072   6.204
10370SOL     OW32008   1.749   1.227   5.278
10370SOL    HW132009   1.762   1.223   5.377
10370SOL    HW232010   1.786   1.145   5.236
10371SOL     OW32011   4.521   5.396   2.824
10371SOL    HW132012   4.423   5.415   2.826
10371SOL    HW232013   4.543   5.343   2.742
10372SOL     OW32014   2.409   6.929   0.977
10372SOL    HW132015   2.427   6.931   0.878
10372SOL    HW232016   2.496   6.920   1.026
10373SOL     OW32017   6.479   1.664   6.400
10373SOL    HW132018   6.544   1.591   6.419
10373SOL    HW232019   6.467   1.674   6.301
10374SOL     OW32020   3.557   5.035   3.430
10374SOL    HW132021   3.527   5.003   3.520
10374SOL    HW232022   3.534   5.132   3.420
10375SOL     OW32023   2.852   5.084   0.346
10375SOL    HW132024   2.784   5.133   0.292
10375SOL    HW232025   2.884   5.143   0.420
10376SOL     OW32026   2.490   5.070   4.445
10376SOL    HW132027   2.585   5.055   4.471
10376SOL    HW232028   2.475   5.036   4.353
10377SOL     OW32029   1.848   0.974   2.590
10377SOL    HW132030   1.806   0.985   2.680
10377SOL    HW232031   1.865   1.064   2.550
10378SOL     OW32032   0.123   5.872   3.867
10378SOL    HW132033   0.215   5.900   3.838
10378SOL    HW232034   0.066   5.954   3.879
10379SOL     OW32035   1.918   0.235   4.157
10379SOL    HW132036   1.859   0.224   4.237
10379SOL    HW232037   1.909   0.328   4.122
10380SOL     OW32038   2.978   2.121   4.225
10380SOL    HW132039   2.883   2.090   4.217
10380SOL    HW232040   3.012   2.146   4.134
10381SOL     OW32041   3.712   6.430   2.169
10381SOL    HW132042   3.794   6.473   2.205
10381SOL    HW232043   3.700   6.340   2.212
10382SOL     OW32044   3.913   5.387   1.285
10382SOL    HW132045   3.881   5.337   1.205
10382SOL    HW232046   3.928   5.322   1.360
10383SOL     OW32047   1.022   4.882   6.935
10383SOL    HW132048   1.059   4.927   7.016
10383SOL    HW232049   1.004   4.950   6.864
10384SOL     OW32050   5.012   5.632   1.006
10384SOL    HW132051   4.994   5.699   1.079
10384SOL    HW232052   4.931   5.622   0.949
10385SOL     OW32053   4.242   4.446   0.577
10385SOL    HW132054   4.198   4.448   0.487
10385SOL    HW232055   4.239   4.537   0.618
10386SOL     OW32056   0.003   1.005   0.866
10386SOL    HW132057   0.073   0.984   0.797
10386SOL    HW232058   0.029   1.089   0.914
10387SOL     OW32059   5.327   3.332   1.760
10387SOL    HW132060   5.284   3.411   1.717
10387SOL    HW232061   5.412   3.361   1.804
10388SOL     OW32062   1.989   6.155   5.876
10388SOL    HW132063   1.957   6.119   5.964
10388SOL    HW232064   2.022   6.248   5.888
10389SOL     OW32065   0.474   4.014   6.829
10389SOL    HW132066   0.506   3.997   6.922
10389SOL    HW232067   0.410   4.091   6.829
10390SOL     OW32068   2.563   2.464   2.223
10390SOL    HW132069   2.578   2.376   2.178
10390SOL    HW232070   2.638   2.482   2.287
10391SOL     OW32071   5.569   6.735   3.780
10391SOL    HW132072   5.606   6.642   3.779
10391SOL    HW232073   5.582   6.775   3.870
10392SOL     OW32074   6.509   3.433   4.540
10392SOL    HW132075   6.593   3.380   4.546
10392SOL    HW232076   6.430   3.373   4.555
10393SOL     OW32077   1.547   3.450   3.587
10393SOL    HW132078   1.574   3.540   3.622
10393SOL    HW232079   1.609   3.381   3.622
10394SOL     OW32080   3.207   0.467   4.328
10394SOL    HW132081   3.159   0.544   4.286
10394SOL    HW232082   3.183   0.383   4.281
10395SOL     OW32083   1.306   0.409   1.407
10395SOL    HW132084   1.209   0.430   1.420
10395SOL    HW232085   1.316   0.342   1.333
10396SOL     OW32086   3.193   2.157   4.596
10396SOL    HW132087   3.196   2.133   4.693
10396SOL    HW232088   3.263   2.226   4.577
10397SOL     OW32089   4.486   2.107   3.797
10397SOL    HW132090   4.439   2.024   3.828
10397SOL    HW232091   4.426   2.186   3.811
10398SOL     OW32092   6.058   3.151   1.460
10398SOL    HW132093   5.980   3.115   1.513
10398SOL    HW232094   6.024   3.195   1.377
10399SOL     OW32095   1.019   3.930   1.770
10399SOL    HW132096   0.945   3.866   1.749
10399SOL    HW232097   1.065   3.957   1.685
10400SOL     OW32098   3.259   5.866   0.776
10400SOL    HW132099   3.348   5.899   0.807
10400SOL    HW232100   3.219   5.931   0.712
10401SOL     OW32101   0.512   1.449   5.930
10401SOL    HW132102   0.487   1.472   5.836
10401SOL    HW232103   0.429   1.444   5.986
10402SOL     OW32104   0.148   2.617   5.277
10402SOL    HW132105   0.208   2.667   5.339
10402SOL    HW232106   0.064   2.669   5.263
10403SOL     OW32107   3.746   0.734   1.308
10403SOL    HW132108   3.820   0.750   1.242
10403SOL    HW232109   3.768   0.653   1.363
10404SOL     OW32110   0.123   6.730   6.483
10404SOL    HW132111   0.056   6.660   6.461
10404SOL    HW232112   0.080   6.800   6.541
10405SOL     OW32113   0.408   2.525   6.467
10405SOL    HW132114   0.507   2.536   6.468
10405SOL    HW232115   0.367   2.585   6.536
10406SOL     OW32116   2.704   4.987   1.494
10406SOL    HW132117   2.664   4.907   1.538
10406SOL    HW232118   2.758   4.959   1.415
10407SOL     OW32119   2.631   0.058   6.845
10407SOL    HW132120   2.563   7.004   6.824
10407SOL    HW232121   2.591   0.123   6.911
10408SOL     OW32122   4.102   1.714   6.907
10408SOL    HW132123   4.011   1.707   6.947
10408SOL    HW232124   4.096   1.699   6.808
10409SOL     OW32125   5.814   4.755   1.309
10409SOL    HW132126   5.894   4.800   1.349
10409SOL    HW232127   5.803   4.665   1.350
10410SOL     OW32128   5.603   0.372   0.815
10410SOL    HW132129   5.646   0.347   0.728
10410SOL    HW232130   5.511   0.334   0.818
10411SOL     OW32131   2.436   5.515   3.276
10411SOL    HW132132   2.504   5.569   3.226
10411SOL    HW232133   2.375   5.469   3.212
10412SOL     OW32134   6.363   0.749   0.700
10412SOL    HW132135   6.384   0.733   0.604
10412SOL    HW232136   6.326   0.665   0.740
10413SOL     OW32137   0.169   2.784   1.651
10413SOL    HW132138   0.107   2.718   1.693
10413SOL    HW232139   0.148   2.876   1.685
10414SOL     OW32140   4.728   2.827   4.213
10414SOL    HW132141   4.810   2.855   4.163
10414SOL    HW232142   4.731   2.864   4.305
10415SOL     OW32143   0.326   6.899   6.121
10415SOL    HW132144   0.334   6.951   6.206
10415SOL    HW232145   0.348   6.958   6.044
10416SOL     OW32146   5.516   2.524   4.401
10416SOL    HW132147   5.492   2.474   4.484
10416SOL    HW232148   5.441   2.517   4.334
10417SOL     OW32149   2.430   4.443   4.007
10417SOL    HW132150   2.370   4.390   4.067
10417SOL    HW232151   2.451   4.389   3.926
10418SOL     OW32152   0.639   4.444   5.449
10418SOL    HW132153   0.614   4.436   5.352
10418SOL    HW232154   0.657   4.540   5.471
10419SOL     OW32155   1.195   0.897   0.645
10419SOL    HW132156   1.274   0.956   0.660
10419SOL    HW232157   1.154   0.874   0.734
10420SOL     OW32158   7.014   3.370   3.868
10420SOL    HW132159   0.051   3.454   3.875
10420SOL    HW232160   6.999   3.348   3.772
10421SOL     OW32161   0.219   0.656   2.812
10421SOL    HW132162   0.143   0.622   2.868
10421SOL    HW232163   0.189   0.737   2.762
10422SOL     OW32164   5.925   3.187   6.182
10422SOL    HW132165   5.952   3.147   6.095
10422SOL    HW232166   5.904   3.284   6.168
10423SOL     OW32167   5.418   4.335   3.338
10423SOL    HW132168   5.517   4.328   3.338
10423SOL    HW232169   5.379   4.263   3.395
10424SOL     OW32170   5.042   1.823   6.548
10424SOL    HW132171   5.077   1.856   6.461
10424SOL    HW232172   5.027   1.899   6.610
10425SOL     OW32173   2.012   6.667   2.172
10425SOL    HW132174   1.935   6.632   2.120
10425SOL    HW232175   2.096   6.624   2.140
10426SOL     OW32176   6.737   4.155   6.712
10426SOL    HW132177   6.676   4.128   6.786
10426SOL    HW232178   6.828   4.115   6.727
10427SOL     OW32179   4.849   1.337   0.110
10427SOL    HW132180   4.887   1.429   0.108
10427SOL    HW232181   4.894   1.284   0.183
10428SOL     OW32182   4.673   0.779   4.056
10428SOL    HW132183   4.585   0.778   4.009
10428SOL    HW232184   4.678   0.859   4.116
10429SOL     OW32185   6.189   5.872   1.833
10429SOL    HW132186   6.225   5.965   1.841
10429SOL    HW232187   6.159   5.855   1.739
10430SOL     OW32188   3.675   6.354   2.702
10430SOL    HW132189   3.725   6.396   2.626
10430SOL    HW232190   3.595   6.410   2.723
10431SOL     OW32191   3.111   0.874   4.934
10431SOL    HW132192   3.123   0.945   5.004
10431SOL    HW232193   3.131   0.913   4.844
10432SOL     OW32194   6.057   0.560   5.435
10432SOL    HW132195   6.006   0.474   5.437
10432SOL    HW232196   6.092   0.575   5.343
10433SOL     OW32197   2.582   6.700   0.524
10433SOL    HW132198   2.487   6.714   0.549
10433SOL    HW232199   2.621   6.626   0.579
10434SOL     OW32200   1.964   1.392   3.652
10434SOL    HW132201   1.956   1.316   3.716
10434SOL    HW232202   1.894   1.383   3.581
10435SOL     OW32203   5.005   6.619   6.983
10435SOL    HW132204   5.017   6.525   7.015
10435SOL    HW232205   5.090   6.669   6.997
10436SOL     OW32206   1.062   6.078   3.014
10436SOL    HW132207   1.022   6.169   3.007
10436SOL    HW232208   1.075   6.055   3.111
10437SOL     OW32209   6.758   5.022   6.073
10437SOL    HW132210   6.831   4.963   6.108
10437SOL    HW232211   6.787   5.118   6.080
10438SOL     OW32212   3.177   5.868   6.766
10438SOL    HW132213   3.121   5.829   6.838
10438SOL    HW232214   3.123   5.879   6.683
10439SOL     OW32215   4.033   6.841   5.872
10439SOL    HW132216   4.037   6.743   5.849
10439SOL    HW232217   4.124   6.872   5.900
10440SOL     OW32218   2.154   5.549   0.625
10440SOL    HW132219   2.185   5.596   0.542
10440SOL    HW232220   2.234   5.519   0.678
10441SOL     OW32221   5.204   1.582   6.496
10441SOL    HW132222   5.191   1.485   6.515
10441SOL    HW232223   5.134   1.635   6.544
10442SOL     OW32224   4.279   5.289   5.707
10442SOL    HW132225   4.278   5.307   5.609
10442SOL    HW232226   4.306   5.194   5.723
10443SOL     OW32227   6.087   2.978   5.112
10443SOL    HW132228   6.141   3.051   5.069
10443SOL    HW232229   6.126   2.889   5.087
10444SOL     OW32230   3.993   5.411   4.005
10444SOL    HW132231   4.039   5.429   3.918
10444SOL    HW232232   3.948   5.321   4.001
10445SOL     OW32233   6.317   5.915   4.831
10445SOL    HW132234   6.379   5.976   4.781
10445SOL    HW232235   6.370   5.855   4.890
10446SOL     OW32236   1.039   5.464   6.446
10446SOL    HW132237   1.106   5.395   6.474
10446SOL    HW232238   0.977   5.484   6.522
10447SOL     OW32239   6.005   2.422   1.569
10447SOL    HW132240   6.052   2.347   1.523
10447SOL    HW232241   5.911   2.394   1.590
10448SOL     OW32242   3.570   3.997   2.326
10448SOL    HW132243   3.490   4.056   2.314
10448SOL    HW232244   3.597   3.959   2.237
10449SOL     OW32245   2.042   5.047   4.123
10449SOL    HW132246   1.954   5.093   4.130
10449SOL    HW232247   2.045   4.971   4.188
10450SOL     OW32248   0.346   2.832   1.210
10450SOL    HW132249   0.269   2.799   1.264
10450SOL    HW232250   0.390   2.755   1.164
10451SOL     OW32251   2.502   4.469   2.999
10451SOL    HW132252   2.493   4.376   2.961
10451SOL    HW232253   2.580   4.515   2.957
10452SOL     OW32254   1.191   3.330   4.925
10452SOL    HW132255   1.277   3.301   4.884
10452SOL    HW232256   1.127   3.358   4.854
10453SOL     OW32257   4.938   0.080   1.716
10453SOL    HW132258   5.019   0.035   1.677
10453SOL    HW232259   4.962   0.121   1.804
10454SOL     OW32260   5.014   3.578   2.315
10454SOL    HW132261   4.995   3.530   2.230
10454SOL    HW232262   4.988   3.521   2.393
10455SOL     OW32263   6.974   4.668   3.549
10455SOL    HW132264   6.910   4.739   3.579
10455SOL    HW232265   0.038   4.711   3.508
10456SOL     OW32266   4.127   5.834   0.816
10456SOL    HW132267   4.105   5.843   0.913
10456SOL    HW232268   4.083   5.752   0.779
10457SOL     OW32269   3.642   4.142   4.176
10457SOL    HW132270   3.656   4.204   4.253
10457SOL    HW232271   3.553   4.098   4.185
10458SOL     OW32272   6.995   0.039   1.451
10458SOL    HW132273   6.937   6.979   1.477
10458SOL    HW232274   6.942   0.104   1.396
10459SOL     OW32275   6.482   5.183   2.476
10459SOL    HW132276   6.569   5.165   2.430
10459SOL    HW232277   6.415   5.114   2.448
10460SOL     OW32278   1.834   5.733   2.438
10460SOL    HW132279   1.881   5.668   2.377
10460SOL    HW232280   1.873   5.725   2.530
10461SOL     OW32281   2.822   1.943   6.618
10461SOL    HW132282   2.778   1.946   6.707
10461SOL    HW232283   2.755   1.917   6.548
10462SOL     OW32284   6.658   0.245   1.106
10462SOL    HW132285   6.629   0.163   1.056
10462SOL    HW232286   6.649   0.325   1.047
10463SOL     OW32287   2.893   3.961   0.910
10463SOL    HW132288   2.818   3.955   0.844
10463SOL    HW232289   2.859   3.996   0.997
10464SOL     OW32290   5.639   0.290   1.703
10464SOL    HW132291   5.693   0.372   1.684
10464SOL    HW232292   5.657   0.258   1.796
10465SOL     OW32293   6.052   4.831   5.780
10465SOL    HW132294   6.044   4.904   5.848
10465SOL    HW232295   6.056   4.743   5.826
10466SOL     OW32296   4.977   5.795   5.957
10466SOL    HW132297   4.987   5.714   6.015
10466SOL    HW232298   4.881   5.808   5.934
10467SOL     OW32299   3.807   0.606   4.315
10467SOL    HW132300   3.721   0.625   4.363
10467SOL    HW232301   3.844   0.690   4.277
10468SOL     OW32302   3.727   5.917   2.796
10468SOL    HW132303   3.796   5.989   2.803
10468SOL    HW232304   3.723   5.884   2.701
10469SOL     OW32305   1.117   4.692   0.380
10469SOL    HW132306   1.101   4.596   0.356
10469SOL    HW232307   1.214   4.712   0.374
10470SOL     OW32308   2.979   1.788   4.331
10470SOL    HW132309   3.038   1.868   4.319
10470SOL    HW232310   2.924   1.775   4.248
10471SOL     OW32311   3.838   3.724   0.379
10471SOL    HW132312   3.846   3.820   0.406
10471SOL    HW232313   3.811   3.669   0.458
10472SOL     OW32314   4.380   1.125   2.614
10472SOL    HW132315   4.477   1.103   2.617
10472SOL    HW232316   4.353   1.140   2.518
10473SOL     OW32317   4.788   5.816   0.922
10473SOL    HW132318   4.781   5.750   0.847
10473SOL    HW232319   4.877   5.861   0.917
10474SOL     OW32320   4.197   6.886   4.461
10474SOL    HW132321   4.149   6.857   4.379
10474SOL    HW232322   4.283   6.834   4.470
10475SOL     OW32323   4.071   6.024   1.584
10475SOL    HW132324   3.979   6.062   1.570
10475SOL    HW232325   4.138   6.098   1.583
10476SOL     OW32326   0.231   4.779   0.855
10476SOL    HW132327   0.259   4.875   0.858
10476SOL    HW232328   0.196   4.751   0.944
10477SOL     OW32329   5.580   4.571   4.991
10477SOL    HW132330   5.591   4.481   4.949
10477SOL    HW232331   5.510   4.623   4.941
10478SOL     OW32332   0.664   6.517   1.459
10478SOL    HW132333   0.676   6.465   1.543
10478SOL    HW232334   0.723   6.598   1.460
10479SOL     OW32335   1.821   4.928   3.544
10479SOL    HW132336   1.733   4.940   3.498
10479SOL    HW232337   1.807   4.889   3.635
10480SOL     OW32338   6.003   0.061   2.345
10480SOL    HW132339   6.031   0.151   2.313
10480SOL    HW232340   5.903   0.056   2.345
10481SOL     OW32341   2.428   0.566   4.821
10481SOL    HW132342   2.413   0.568   4.723
10481SOL    HW232343   2.385   0.646   4.864
10482SOL     OW32344   0.805   5.180   5.976
10482SOL    HW132345   0.886   5.193   6.034
10482SOL    HW232346   0.820   5.103   5.914
10483SOL     OW32347   6.927   5.361   0.891
10483SOL    HW132348   6.910   5.295   0.963
10483SOL    HW232349   6.859   5.435   0.896
10484SOL     OW32350   6.325   2.056   1.524
10484SOL    HW132351   6.278   2.110   1.594
10484SOL    HW232352   6.298   1.960   1.533
10485SOL     OW32353   3.348   3.857   3.945
10485SOL    HW132354   3.328   3.936   3.887
10485SOL    HW232355   3.414   3.797   3.898
10486SOL     OW32356   5.835   6.053   5.389
10486SOL    HW132357   5.813   5.957   5.402
10486SOL    HW232358   5.882   6.066   5.301
10487SOL     OW32359   4.599   1.997   1.924
10487SOL    HW132360   4.631   2.027   2.014
10487SOL    HW232361   4.502   2.020   1.914
10488SOL     OW32362   6.596   2.302   5.486
10488SOL    HW132363   6.592   2.265   5.393
10488SOL    HW232364   6.638   2.393   5.484
10489SOL     OW32365   5.927   3.981   4.632
10489SOL    HW132366   5.949   4.065   4.582
10489SOL    HW232367   5.998   3.913   4.616
10490SOL     OW32368   5.953   6.345   6.646
10490SOL    HW132369   5.860   6.356   6.612
10490SOL    HW232370   5.959   6.385   6.738
10491SOL     OW32371   2.024   2.442   5.529
10491SOL    HW132372   2.122   2.420   5.525
10491SOL    HW232373   2.014   2.542   5.534
10492SOL     OW32374   3.805   6.791   6.968
10492SOL    HW132375   3.827   6.776   6.872
10492SOL    HW232376   3.785   6.888   6.983
10493SOL     OW32377   3.664   5.575   1.571
10493SOL    HW132378   3.582   5.563   1.515
10493SOL    HW232379   3.669   5.501   1.638
10494SOL     OW32380   1.282   4.242   4.493
10494SOL    HW132381   1.338   4.176   4.443
10494SOL    HW232382   1.335   4.281   4.568
10495SOL     OW32383   6.686   6.244   0.910
10495SOL    HW132384   6.614   6.175   0.908
10495SOL    HW232385   6.731   6.243   0.999
10496SOL     OW32386   0.685   3.126   6.052
10496SOL    HW132387   0.624   3.085   6.120
10496SOL    HW232388   0.670   3.083   5.963
10497SOL     OW32389   2.336   0.236   1.687
10497SOL    HW132390   2.398   0.305   1.724
10497SOL    HW232391   2.242   0.272   1.688
10498SOL     OW32392   4.587   4.363   7.002
10498SOL    HW132393   4.585   4.438   6.936
10498SOL    HW232394   4.562   4.278   6.956
10499SOL     OW32395   6.023   4.118   2.540
10499SOL    HW132396   6.020   4.074   2.630
10499SOL    HW232397   6.118   4.118   2.507
10500SOL     OW32398   0.674   3.439   5.328
10500SOL    HW132399   0.635   3.508   5.388
10500SOL    HW232400   0.717   3.483   5.249
10501SOL     OW32401   3.577   4.994   3.137
10501SOL    HW132402   3.651   5.008   3.071
10501SOL    HW232403   3.614   4.992   3.230
10502SOL     OW32404   3.291   3.441   2.408
10502SOL    HW132405   3.300   3.391   2.494
10502SOL    HW232406   3.382   3.452   2.367
10503SOL     OW32407   0.008   2.123   6.395
10503SOL    HW132408   0.000   2.055   6.467
10503SOL    HW232409   6.944   2.119   6.336
10504SOL     OW32410   1.004   3.149   5.904
10504SOL    HW132411   1.034   3.191   5.818
10504SOL    HW232412   0.930   3.203   5.943
10505SOL     OW32413   5.802   6.851   0.875
10505SOL    HW132414   5.789   6.907   0.793
10505SOL    HW232415   5.832   6.760   0.848
10506SOL     OW32416   1.060   3.312   6.303
10506SOL    HW132417   1.136   3.337   6.243
10506SOL    HW232418   0.998   3.251   6.255
10507SOL     OW32419   1.163   5.114   5.787
10507SOL    HW132420   1.246   5.113   5.842
10507SOL    HW232421   1.182   5.077   5.696
10508SOL     OW32422   1.744   5.146   5.440
10508SOL    HW132423   1.702   5.066   5.397
10508SOL    HW232424   1.734   5.225   5.381
10509SOL     OW32425   4.425   2.371   2.074
10509SOL    HW132426   4.503   2.426   2.104
10509SOL    HW232427   4.366   2.351   2.152
10510SOL     OW32428   5.784   6.077   3.732
10510SOL    HW132429   5.836   6.156   3.764
10510SOL    HW232430   5.723   6.046   3.805
10511SOL     OW32431   4.673   1.582   1.279
10511SOL    HW132432   4.676   1.489   1.244
10511SOL    HW232433   4.610   1.636   1.222
10512SOL     OW32434   4.791   1.042   5.031
10512SOL    HW132435   4.773   0.947   5.057
10512SOL    HW232436   4.730   1.067   4.955
10513SOL     OW32437   4.111   2.767   0.952
10513SOL    HW132438   4.127   2.769   0.853
10513SOL    HW232439   4.148   2.850   0.993
10514SOL     OW32440   1.537   3.356   1.784
10514SOL    HW132441   1.528   3.454   1.763
10514SOL    HW232442   1.626   3.323   1.753
10515SOL     OW32443   2.336   2.789   4.850
10515SOL    HW132444   2.252   2.739   4.874
10515SOL    HW232445   2.349   2.864   4.915
10516SOL     OW32446   4.513   2.347   1.528
10516SOL    HW132447   4.514   2.446   1.538
10516SOL    HW232448   4.604   2.314   1.504
10517SOL     OW32449   1.001   2.565   2.337
10517SOL    HW132450   1.007   2.547   2.239
10517SOL    HW232451   0.905   2.574   2.363
10518SOL     OW32452   0.588   5.233   2.825
10518SOL    HW132453   0.524   5.243   2.901
10518SOL    HW232454   0.680   5.259   2.855
10519SOL     OW32455   3.905   6.974   0.884
10519SOL    HW132456   3.906   0.001   0.795
10519SOL    HW232457   3.957   0.013   0.949
10520SOL     OW32458   1.003   2.885   5.826
10520SOL    HW132459   0.977   2.980   5.838
10520SOL    HW232460   1.060   2.876   5.744
10521SOL     OW32461   6.372   2.812   2.943
10521SOL    HW132462   6.298   2.745   2.941
10521SOL    HW232463   6.435   2.794   2.868
10522SOL     OW32464   5.672   2.022   3.760
10522SOL    HW132465   5.649   2.104   3.813
10522SOL    HW232466   5.651   2.038   3.664
10523SOL     OW32467   1.339   4.306   3.245
10523SOL    HW132468   1.333   4.212   3.213
10523SOL    HW232469   1.377   4.363   3.171
10524SOL     OW32470   6.596   6.358   5.213
10524SOL    HW132471   6.518   6.298   5.231
10524SOL    HW232472   6.666   6.307   5.163
10525SOL     OW32473   5.045   1.300   3.575
10525SOL    HW132474   5.015   1.208   3.600
10525SOL    HW232475   5.145   1.301   3.564
10526SOL     OW32476   0.688   4.684   6.711
10526SOL    HW132477   0.769   4.669   6.768
10526SOL    HW232478   0.619   4.734   6.763
10527SOL     OW32479   0.729   0.129   5.697
10527SOL    HW132480   0.805   0.141   5.634
10527SOL    HW232481   0.691   0.037   5.686
10528SOL     OW32482   1.279   3.795   5.375
10528SOL    HW132483   1.193   3.794   5.323
10528SOL    HW232484   1.353   3.827   5.316
10529SOL     OW32485   0.175   5.582   0.695
10529SOL    HW132486   0.266   5.602   0.659
10529SOL    HW232487   0.119   5.541   0.623
10530SOL     OW32488   6.947   6.155   1.488
10530SOL    HW132489   0.013   6.175   1.541
10530SOL    HW232490   6.867   6.195   1.533
10531SOL     OW32491   2.895   3.252   4.936
10531SOL    HW132492   2.907   3.301   5.023
10531SOL    HW232493   2.833   3.175   4.949
10532SOL     OW32494   5.445   6.213   6.825
10532SOL    HW132495   5.421   6.298   6.777
10532SOL    HW232496   5.435   6.135   6.763
10533SOL     OW32497   3.969   0.392   2.893
10533SOL    HW132498   3.920   0.308   2.916
10533SOL    HW232499   4.057   0.370   2.852
10534SOL     OW32500   1.311   5.702   4.488
10534SOL    HW132501   1.330   5.604   4.484
10534SOL    HW232502   1.334   5.744   4.400
10535SOL     OW32503   3.632   2.082   2.773
10535SOL    HW132504   3.627   2.026   2.691
10535SOL    HW232505   3.722   2.125   2.779
10536SOL     OW32506   4.865   3.060   4.840
10536SOL    HW132507   4.851   3.122   4.762
10536SOL    HW232508   4.847   3.109   4.925
10537SOL     OW32509   3.346   0.008   3.993
10537SOL    HW132510   3.411   6.990   4.061
10537SOL    HW232511   3.379   0.094   3.956
10538SOL     OW32512   6.710   3.383   3.092
10538SOL    HW132513   6.791   3.426   3.132
10538SOL    HW232514   6.636   3.382   3.160
10539SOL     OW32515   0.028   0.072   3.507
10539SOL    HW132516   0.106   0.065   3.568
10539SOL    HW232517   0.005   0.169   3.493
10540SOL     OW32518   1.567   4.376   6.493
10540SOL    HW132519   1.503   4.355   6.566
10540SOL    HW232520   1.517   4.391   6.407
10541SOL     OW32521   3.426   3.395   5.243
10541SOL    HW132522   3.330   3.406   5.271
10541SOL    HW232523   3.430   3.336   5.162
10542SOL     OW32524   5.167   0.006   3.547
10542SOL    HW132525   5.175   0.042   3.640
10542SOL    HW232526   5.188   6.926   3.547
10543SOL     OW32527   1.384   3.385   4.045
10543SOL    HW132528   1.338   3.344   4.124
10543SOL    HW232529   1.316   3.423   3.983
10544SOL     OW32530   2.203   1.629   2.979
10544SOL    HW132531   2.277   1.696   2.972
10544SOL    HW232532   2.241   1.537   2.978
10545SOL     OW32533   2.217   2.726   2.483
10545SOL    HW132534   2.197   2.791   2.410
10545SOL    HW232535   2.226   2.775   2.570
10546SOL     OW32536   3.008   6.908   6.439
10546SOL    HW132537   3.080   6.965   6.400
10546SOL    HW232538   3.041   6.867   6.524
10547SOL     OW32539   4.560   6.785   5.374
10547SOL    HW132540   4.469   6.803   5.411
10547SOL    HW232541   4.560   6.804   5.276
10548SOL     OW32542   6.827   6.223   2.847
10548SOL    HW132543   6.755   6.219   2.917
10548SOL    HW232544   6.889   6.146   2.859
10549SOL     OW32545   6.320   0.226   1.710
10549SOL    HW132546   6.379   0.170   1.653
10549SOL    HW232547   6.316   0.319   1.674
10550SOL     OW32548   4.718   5.945   3.301
10550SOL    HW132549   4.750   5.879   3.233
10550SOL    HW232550   4.793   6.007   3.325
10551SOL     OW32551   3.194   0.222   5.085
10551SOL    HW132552   3.177   0.320   5.083
10551SOL    HW232553   3.290   0.205   5.107
10552SOL     OW32554   2.797   0.289   3.847
10552SOL    HW132555   2.819   0.328   3.758
10552SOL    HW232556   2.849   0.336   3.918
10553SOL     OW32557   6.543   5.670   1.181
10553SOL    HW132558   6.490   5.650   1.263
10553SOL    HW232559   6.630   5.712   1.207
10554SOL     OW32560   5.948   5.962   2.564
10554SOL    HW132561   6.008   5.895   2.521
10554SOL    HW232562   5.853   5.936   2.549
10555SOL     OW32563   3.515   3.370   1.138
10555SOL    HW132564   3.520   3.464   1.102
10555SOL    HW232565   3.543   3.306   1.066
10556SOL     OW32566   2.065   1.506   2.390
10556SOL    HW132567   2.156   1.542   2.371
10556SOL    HW232568   1.996   1.570   2.356
10557SOL     OW32569   2.562   4.868   3.145
10557SOL    HW132570   2.616   4.873   3.061
10557SOL    HW232571   2.470   4.904   3.129
10558SOL     OW32572   3.268   5.054   5.491
10558SOL    HW132573   3.251   5.051   5.393
10558SOL    HW232574   3.303   5.144   5.517
10559SOL     OW32575   4.199   6.587   1.404
10559SOL    HW132576   4.125   6.544   1.455
10559SOL    HW232577   4.177   6.586   1.306
10560SOL     OW32578   5.797   6.590   2.896
10560SOL    HW132579   5.854   6.617   2.818
10560SOL    HW232580   5.782   6.669   2.955
10561SOL     OW32581   6.490   4.661   0.341
10561SOL    HW132582   6.560   4.656   0.413
10561SOL    HW232583   6.534   4.653   0.252
10562SOL     OW32584   4.506   5.906   2.071
10562SOL    HW132585   4.537   5.842   2.142
10562SOL    HW232586   4.410   5.929   2.086
10563SOL     OW32587   0.247   6.686   2.117
10563SOL    HW132588   0.227   6.757   2.185
10563SOL    HW232589   0.162   6.653   2.078
10564SOL     OW32590   5.090   4.137   3.695
10564SOL    HW132591   5.097   4.053   3.640
10564SOL    HW232592   5.107   4.115   3.791
10565SOL     OW32593   0.949   0.847   5.991
10565SOL    HW132594   0.885   0.771   5.996
10565SOL    HW232595   0.966   0.884   6.082
10566SOL     OW32596   3.612   2.494   0.064
10566SOL    HW132597   3.553   2.573   0.078
10566SOL    HW232598   3.658   2.471   0.150
10567SOL     OW32599   2.166   2.223   6.170
10567SOL    HW132600   2.215   2.151   6.120
10567SOL    HW232601   2.169   2.204   6.268
10568SOL     OW32602   4.347   2.364   6.117
10568SOL    HW132603   4.433   2.332   6.076
10568SOL    HW232604   4.368   2.419   6.198
10569SOL     OW32605   5.808   0.352   0.078
10569SOL    HW132606   5.899   0.318   0.102
10569SOL    HW232607   5.738   0.299   0.126
10570SOL     OW32608   1.342   4.066   3.150
10570SOL    HW132609   1.299   4.085   3.062
10570SOL    HW232610   1.411   3.995   3.138
10571SOL     OW32611   6.408   4.139   5.532
10571SOL    HW132612   6.399   4.116   5.629
10571SOL    HW232613   6.471   4.216   5.522
10572SOL     OW32614   6.341   4.274   1.009
10572SOL    HW132615   6.322   4.309   1.101
10572SOL    HW232616   6.432   4.302   0.981
10573SOL     OW32617   6.170   2.288   2.854
10573SOL    HW132618   6.178   2.386   2.872
10573SOL    HW232619   6.148   2.274   2.757
10574SOL     OW32620   5.997   3.290   2.420
10574SOL    HW132621   6.015   3.215   2.484
10574SOL    HW232622   5.935   3.356   2.463
10575SOL     OW32623   5.882   6.448   2.070
10575SOL    HW132624   5.863   6.515   2.142
10575SOL    HW232625   5.945   6.378   2.105
10576SOL     OW32626   1.822   4.230   4.508
10576SOL    HW132627   1.795   4.159   4.573
10576SOL    HW232628   1.775   4.217   4.421
10577SOL     OW32629   3.620   4.160   0.513
10577SOL    HW132630   3.538   4.104   0.496
10577SOL    HW232631   3.628   4.230   0.442
10578SOL     OW32632   0.391   3.640   3.761
10578SOL    HW132633   0.387   3.739   3.773
10578SOL    HW232634   0.463   3.618   3.695
10579SOL     OW32635   0.524   3.427   6.462
10579SOL    HW132636   0.616   3.446   6.429
10579SOL    HW232637   0.528   3.394   6.556
10580SOL     OW32638   6.193   0.157   0.158
10580SOL    HW132639   6.164   0.236   0.213
10580SOL    HW232640   6.189   0.074   0.213
10581SOL     OW32641   4.274   0.286   2.728
10581SOL    HW132642   4.216   0.245   2.657
10581SOL    HW232643   4.350   0.334   2.684
10582SOL     OW32644   6.269   3.813   6.280
10582SOL    HW132645   6.241   3.890   6.337
10582SOL    HW232646   6.267   3.729   6.334
10583SOL     OW32647   3.230   1.828   4.849
10583SOL    HW132648   3.325   1.795   4.853
10583SOL    HW232649   3.184   1.807   4.935
10584SOL     OW32650   1.102   6.877   3.773
10584SOL    HW132651   1.154   6.865   3.688
10584SOL    HW232652   1.162   6.916   3.843
10585SOL     OW32653   1.341   0.840   5.258
10585SOL    HW132654   1.307   0.933   5.262
10585SOL    HW232655   1.272   0.777   5.294
10586SOL     OW32656   4.048   4.267   5.274
10586SOL    HW132657   4.054   4.259   5.373
10586SOL    HW232658   4.135   4.300   5.238
10587SOL     OW32659   1.927   4.740   5.877
10587SOL    HW132660   2.017   4.781   5.889
10587SOL    HW232661   1.901   4.744   5.781
10588SOL     OW32662   1.444   4.011   3.412
10588SOL    HW132663   1.422   4.061   3.329
10588SOL    HW232664   1.363   3.962   3.444
10589SOL     OW32665   5.659   6.375   4.190
10589SOL    HW132666   5.724   6.451   4.189
10589SOL    HW232667   5.599   6.381   4.110
10590SOL     OW32668   0.836   5.159   2.096
10590SOL    HW132669   0.738   5.145   2.110
10590SOL    HW232670   0.865   5.106   2.016
10591SOL     OW32671   6.631   3.273   1.682
10591SOL    HW132672   6.579   3.358   1.672
10591SOL    HW232673   6.616   3.216   1.602
10592SOL     OW32674   6.829   1.014   4.967
10592SOL    HW132675   6.833   1.085   4.896
10592SOL    HW232676   6.898   0.945   4.949
10593SOL     OW32677   3.183   5.248   3.107
10593SOL    HW132678   3.187   5.165   3.163
10593SOL    HW232679   3.090   5.260   3.072
10594SOL     OW32680   3.317   5.372   3.734
10594SOL    HW132681   3.260   5.406   3.660
10594SOL    HW232682   3.413   5.374   3.705
10595SOL     OW32683   4.677   6.796   0.762
10595SOL    HW132684   4.703   6.770   0.669
10595SOL    HW232685   4.668   6.715   0.819
10596SOL     OW32686   5.082   3.293   0.060
10596SOL    HW132687   5.163   3.299   0.118
10596SOL    HW232688   5.098   3.225   7.004
10597SOL     OW32689   2.008   6.754   4.595
10597SOL    HW132690   1.926   6.696   4.592
10597SOL    HW232691   2.059   6.735   4.679
10598SOL     OW32692   2.946   1.187   6.150
10598SOL    HW132693   2.997   1.236   6.080
10598SOL    HW232694   2.904   1.253   6.213
10599SOL     OW32695   0.234   2.253   0.310
10599SOL    HW132696   0.250   2.287   0.403
10599SOL    HW232697   0.321   2.225   0.270
10600SOL     OW32698   3.590   2.025   1.647
10600SOL    HW132699   3.527   2.071   1.709
10600SOL    HW232700   3.638   1.952   1.695
10601SOL     OW32701   2.309   0.611   5.290
10601SOL    HW132702   2.304   0.513   5.274
10601SOL    HW232703   2.363   0.655   5.219
10602SOL     OW32704   6.749   6.901   1.433
10602SOL    HW132705   6.742   6.966   1.508
10602SOL    HW232706   6.687   6.824   1.449
10603SOL     OW32707   5.417   0.484   2.628
10603SOL    HW132708   5.424   0.550   2.703
10603SOL    HW232709   5.339   0.424   2.644
10604SOL     OW32710   4.955   0.330   4.831
10604SOL    HW132711   4.974   0.251   4.889
10604SOL    HW232712   4.951   0.301   4.736
10605SOL     OW32713   2.873   2.023   1.518
10605SOL    HW132714   2.886   2.122   1.515
10605SOL    HW232715   2.895   1.984   1.429
10606SOL     OW32716   6.507   0.820   0.325
10606SOL    HW132717   6.493   0.898   0.386
10606SOL    HW232718   6.488   0.848   0.231
10607SOL     OW32719   3.142   4.393   6.964
10607SOL    HW132720   3.191   4.477   6.942
10607SOL    HW232721   3.171   4.320   6.902
10608SOL     OW32722   5.753   4.002   4.141
10608SOL    HW132723   5.823   3.933   4.118
10608SOL    HW232724   5.787   4.093   4.116
10609SOL     OW32725   5.470   0.590   6.270
10609SOL    HW132726   5.536   0.638   6.327
10609SOL    HW232727   5.426   0.517   6.322
10610SOL     OW32728   0.247   1.084   3.738
10610SOL    HW132729   0.243   0.987   3.713
10610SOL    HW232730   0.285   1.136   3.661
10611SOL     OW32731   3.882   5.785   4.990
10611SOL    HW132732   3.925   5.721   5.054
10611SOL    HW232733   3.929   5.781   4.902
10612SOL     OW32734   6.203   2.322   3.445
10612SOL    HW132735   6.128   2.304   3.509
10612SOL    HW232736   6.172   2.301   3.352
10613SOL     OW32737   4.267   6.181   4.562
10613SOL    HW132738   4.276   6.281   4.561
10613SOL    HW232739   4.317   6.143   4.484
10614SOL     OW32740   4.055   1.784   5.960
10614SOL    HW132741   4.058   1.784   5.860
10614SOL    HW232742   4.024   1.874   5.992
10615SOL     OW32743   2.278   1.579   5.280
10615SOL    HW132744   2.246   1.552   5.371
10615SOL    HW232745   2.299   1.677   5.279
10616SOL     OW32746   1.944   6.140   6.941
10616SOL    HW132747   1.955   6.047   6.907
10616SOL    HW232748   1.891   6.194   6.875
10617SOL     OW32749   1.969   2.818   1.285
10617SOL    HW132750   2.045   2.851   1.341
10617SOL    HW232751   2.002   2.797   1.193
10618SOL     OW32752   1.051   5.065   3.663
10618SOL    HW132753   1.133   5.080   3.607
10618SOL    HW232754   1.015   5.153   3.694
10619SOL     OW32755   1.126   2.448   2.818
10619SOL    HW132756   1.122   2.409   2.726
10619SOL    HW232757   1.100   2.545   2.814
10620SOL     OW32758   3.424   0.777   5.650
10620SOL    HW132759   3.479   0.857   5.672
10620SOL    HW232760   3.366   0.753   5.728
10621SOL     OW32761   0.692   3.781   3.099
10621SOL    HW132762   0.631   3.727   3.042
10621SOL    HW232763   0.767   3.817   3.043
10622SOL     OW32764   4.234   1.917   7.011
10622SOL    HW132765   4.182   1.847   6.961
10622SOL    HW232766   4.175   1.995   0.013
10623SOL     OW32767   4.904   6.745   5.803
10623SOL    HW132768   4.926   6.780   5.712
10623SOL    HW232769   4.829   6.680   5.796
10624SOL     OW32770   1.022   2.173   0.506
10624SOL    HW132771   0.961   2.197   0.430
10624SOL    HW232772   1.029   2.074   0.514
10625SOL     OW32773   5.834   5.013   0.221
10625SOL    HW132774   5.835   5.102   0.266
10625SOL    HW232775   5.881   4.946   0.277
10626SOL     OW32776   5.584   3.278   1.228
10626SOL    HW132777   5.533   3.192   1.228
10626SOL    HW232778   5.537   3.345   1.170
10627SOL     OW32779   5.566   5.463   5.480
10627SOL    HW132780   5.592   5.558   5.496
10627SOL    HW232781   5.580   5.410   5.563
10628SOL     OW32782   3.507   6.949   0.204
10628SOL    HW132783   3.586   6.954   0.266
10628SOL    HW232784   3.506   0.014   0.146
10629SOL     OW32785   3.777   5.527   4.650
10629SOL    HW132786   3.725   5.443   4.669
10629SOL    HW232787   3.753   5.597   4.717
10630SOL     OW32788   3.780   1.352   1.581
10630SOL    HW132789   3.716   1.322   1.510
10630SOL    HW232790   3.775   1.288   1.659
10631SOL     OW32791   3.704   5.909   0.951
10631SOL    HW132792   3.678   5.834   1.011
10631SOL    HW232793   3.779   5.960   0.992
10632SOL     OW32794   5.078   5.997   3.620
10632SOL    HW132795   5.145   6.030   3.687
10632SOL    HW232796   5.006   6.065   3.610
10633SOL     OW32797   1.832   3.364   0.843
10633SOL    HW132798   1.918   3.369   0.793
10633SOL    HW232799   1.790   3.274   0.828
10634SOL     OW32800   0.126   4.150   6.953
10634SOL    HW132801   0.141   4.094   0.017
10634SOL    HW232802   0.174   4.237   6.963
10635SOL     OW32803   2.206   5.099   6.332
10635SOL    HW132804   2.136   5.170   6.327
10635SOL    HW232805   2.163   5.010   6.317
10636SOL     OW32806   6.555   2.276   0.176
10636SOL    HW132807   6.529   2.204   0.241
10636SOL    HW232808   6.651   2.266   0.152
10637SOL     OW32809   2.674   0.344   6.969
10637SOL    HW132810   2.733   0.296   6.904
10637SOL    HW232811   2.647   0.432   6.930
10638SOL     OW32812   5.726   5.178   1.487
10638SOL    HW132813   5.710   5.090   1.443
10638SOL    HW232814   5.641   5.211   1.527
10639SOL     OW32815   0.677   5.438   1.848
10639SOL    HW132816   0.718   5.428   1.939
10639SOL    HW232817   0.608   5.367   1.835
10640SOL     OW32818   4.316   6.510   3.566
10640SOL    HW132819   4.374   6.444   3.519
10640SOL    HW232820   4.277   6.468   3.648
10641SOL     OW32821   1.026   1.370   3.455
10641SOL    HW132822   1.103   1.322   3.411
10641SOL    HW232823   1.036   1.468   3.440
10642SOL     OW32824   6.895   2.982   6.016
10642SOL    HW132825   6.933   2.927   6.091
10642SOL    HW232826   6.856   3.066   6.052
10643SOL     OW32827   2.677   5.022   6.131
10643SOL    HW132828   2.581   5.048   6.134
10643SOL    HW232829   2.734   5.104   6.122
10644SOL     OW32830   6.449   3.099   2.856
10644SOL    HW132831   6.413   3.010   2.882
10644SOL    HW232832   6.439   3.162   2.933
10645SOL     OW32833   2.458   2.265   2.993
10645SOL    HW132834   2.358   2.274   2.990
10645SOL    HW232835   2.482   2.173   3.023
10646SOL     OW32836   5.570   0.811   3.333
10646SOL    HW132837   5.596   0.892   3.387
10646SOL    HW232838   5.541   0.738   3.395
10647SOL     OW32839   3.439   5.386   5.357
10647SOL    HW132840   3.505   5.461   5.349
10647SOL    HW232841   3.477   5.303   5.318
10648SOL     OW32842   4.556   4.500   5.905
10648SOL    HW132843   4.510   4.505   5.994
10648SOL    HW232844   4.488   4.505   5.832
10649SOL     OW32845   5.930   3.496   2.846
10649SOL    HW132846   6.018   3.522   2.886
10649SOL    HW232847   5.941   3.478   2.749
10650SOL     OW32848   1.013   0.225   3.609
10650SOL    HW132849   0.945   0.168   3.656
10650SOL    HW232850   1.062   0.281   3.676
10651SOL     OW32851   3.384   6.184   6.007
10651SOL    HW132852   3.439   6.102   5.993
10651SOL    HW232853   3.432   6.263   5.970
10652SOL     OW32854   2.157   0.585   0.425
10652SOL    HW132855   2.083   0.619   0.367
10652SOL    HW232856   2.222   0.534   0.369
10653SOL     OW32857   4.205   6.013   4.774
10653SOL    HW132858   4.288   5.971   4.811
10653SOL    HW232859   4.228   6.065   4.692
10654SOL     OW32860   6.085   1.415   4.348
10654SOL    HW132861   6.165   1.386   4.400
10654SOL    HW232862   6.115   1.462   4.265
10655SOL     OW32863   0.232   4.378   1.869
10655SOL    HW132864   0.216   4.288   1.910
10655SOL    HW232865   0.329   4.388   1.848
10656SOL     OW32866   6.082   2.655   3.939
10656SOL    HW132867   6.057   2.613   4.026
10656SOL    HW232868   6.053   2.751   3.938
10657SOL     OW32869   4.798   6.519   4.271
10657SOL    HW132870   4.775   6.463   4.350
10657SOL    HW232871   4.715   6.555   4.229
10658SOL     OW32872   0.712   2.676   5.189
10658SOL    HW132873   0.726   2.641   5.282
10658SOL    HW232874   0.644   2.750   5.192
10659SOL     OW32875   0.627   5.744   0.432
10659SOL    HW132876   0.689   5.715   0.504
10659SOL    HW232877   0.639   5.685   0.352
10660SOL     OW32878   5.575   3.092   5.581
10660SOL    HW132879   5.511   3.169   5.585
10660SOL    HW232880   5.548   3.023   5.648
10661SOL     OW32881   2.907   5.021   5.845
10661SOL    HW132882   2.810   4.997   5.835
10661SOL    HW232883   2.957   4.987   5.765
10662SOL     OW32884   2.530   1.264   1.398
10662SOL    HW132885   2.430   1.265   1.399
10662SOL    HW232886   2.564   1.261   1.492
10663SOL     OW32887   0.989   1.636   3.425
10663SOL    HW132888   0.916   1.628   3.357
10663SOL    HW232889   0.953   1.618   3.516
10664SOL     OW32890   0.467   5.577   4.897
10664SOL    HW132891   0.397   5.514   4.928
10664SOL    HW232892   0.557   5.541   4.921
10665SOL     OW32893   2.873   2.834   6.928
10665SOL    HW132894   2.873   2.849   6.829
10665SOL    HW232895   2.820   2.751   6.949
10666SOL     OW32896   3.916   3.995   1.885
10666SOL    HW132897   3.903   4.011   1.983
10666SOL    HW232898   3.948   3.901   1.871
10667SOL     OW32899   5.120   2.654   3.458
10667SOL    HW132900   5.169   2.603   3.529
10667SOL    HW232901   5.039   2.602   3.431
10668SOL     OW32902   3.490   2.985   5.383
10668SOL    HW132903   3.411   3.028   5.427
10668SOL    HW232904   3.514   3.037   5.301
10669SOL     OW32905   5.719   1.427   1.577
10669SOL    HW132906   5.755   1.444   1.485
10669SOL    HW232907   5.772   1.354   1.620
10670SOL     OW32908   4.924   3.614   4.391
10670SOL    HW132909   5.014   3.587   4.426
10670SOL    HW232910   4.900   3.704   4.429
10671SOL     OW32911   1.773   3.235   4.810
10671SOL    HW132912   1.748   3.140   4.827
10671SOL    HW232913   1.872   3.244   4.807
10672SOL     OW32914   5.764   3.367   1.600
10672SOL    HW132915   5.822   3.343   1.678
10672SOL    HW232916   5.725   3.458   1.615
10673SOL     OW32917   1.946   1.250   1.079
10673SOL    HW132918   1.876   1.199   1.128
10673SOL    HW232919   1.934   1.237   0.981
10674SOL     OW32920   3.997   3.776   3.295
10674SOL    HW132921   4.007   3.855   3.355
10674SOL    HW232922   3.939   3.707   3.339
10675SOL     OW32923   3.683   6.639   5.350
10675SOL    HW132924   3.739   6.597   5.279
10675SOL    HW232925   3.645   6.725   5.316
10676SOL     OW32926   1.614   0.560   5.362
10676SOL    HW132927   1.634   0.648   5.320
10676SOL    HW232928   1.570   0.500   5.296
10677SOL     OW32929   0.103   1.395   0.713
10677SOL    HW132930   0.173   1.340   0.668
10677SOL    HW232931   0.147   1.474   0.758
10678SOL     OW32932   4.065   5.841   3.430
10678SOL    HW132933   4.151   5.856   3.381
10678SOL    HW232934   4.080   5.852   3.528
10679SOL     OW32935   4.220   3.491   6.696
10679SOL    HW132936   4.191   3.396   6.690
10679SOL    HW232937   4.316   3.495   6.726
10680SOL     OW32938   4.271   1.393   4.426
10680SOL    HW132939   4.327   1.330   4.480
10680SOL    HW232940   4.264   1.358   4.332
10681SOL     OW32941   1.501   2.795   5.368
10681SOL    HW132942   1.534   2.702   5.349
10681SOL    HW232943   1.401   2.797   5.359
10682SOL     OW32944   5.278   3.483   6.004
10682SOL    HW132945   5.239   3.565   6.047
10682SOL    HW232946   5.378   3.488   6.008
10683SOL     OW32947   2.909   0.672   3.500
10683SOL    HW132948   2.863   0.584   3.491
10683SOL    HW232949   3.007   0.657   3.517
10684SOL     OW32950   4.291   4.711   2.286
10684SOL    HW132951   4.284   4.613   2.306
10684SOL    HW232952   4.387   4.736   2.277
10685SOL     OW32953   0.791   6.015   1.111
10685SOL    HW132954   0.815   6.100   1.064
10685SOL    HW232955   0.707   6.028   1.163
10686SOL     OW32956   3.000   1.475   6.406
10686SOL    HW132957   2.959   1.474   6.315
10686SOL    HW232958   2.975   1.560   6.453
10687SOL     OW32959   0.390   4.019   3.215
10687SOL    HW132960   0.388   3.950   3.287
10687SOL    HW232961   0.461   4.086   3.234
10688SOL     OW32962   4.918   2.199   2.132
10688SOL    HW132963   4.953   2.114   2.092
10688SOL    HW232964   4.991   2.245   2.181
10689SOL     OW32965   0.025   0.263   2.903
10689SOL    HW132966   6.953   0.279   2.860
10689SOL    HW232967   0.068   0.182   2.862
10690SOL     OW32968   0.127   6.954   4.122
10690SOL    HW132969   0.076   6.971   4.207
10690SOL    HW232970   0.214   6.910   4.144
10691SOL     OW32971   3.241   0.485   3.051
10691SOL    HW132972   3.308   0.517   2.984
10691SOL    HW232973   3.161   0.450   3.004
10692SOL     OW32974   2.190   0.480   3.915
10692SOL    HW132975   2.258   0.432   3.971
10692SOL    HW232976   2.129   0.413   3.873
10693SOL     OW32977   1.701   5.540   0.736
10693SOL    HW132978   1.746   5.627   0.754
10693SOL    HW232979   1.688   5.529   0.637
10694SOL     OW32980   4.121   6.662   5.236
10694SOL    HW132981   4.144   6.758   5.219
10694SOL    HW232982   4.198   6.617   5.281
10695SOL     OW32983   6.424   4.301   1.776
10695SOL    HW132984   6.327   4.323   1.779
10695SOL    HW232985   6.464   4.334   1.690
10696SOL     OW32986   6.555   4.961   4.377
10696SOL    HW132987   6.633   4.914   4.419
10696SOL    HW232988   6.567   5.060   4.386
10697SOL     OW32989   1.233   5.287   5.437
10697SOL    HW132990   1.252   5.194   5.470
10697SOL    HW232991   1.245   5.352   5.512
10698SOL     OW32992   4.649   2.902   0.093
10698SOL    HW132993   4.703   2.959   0.031
10698SOL    HW232994   4.661   2.933   0.187
10699SOL     OW32995   3.428   3.180   0.402
10699SOL    HW132996   3.457   3.248   0.335
10699SOL    HW232997   3.491   3.102   0.400
10700SOL     OW32998   4.936   1.035   1.074
10700SOL    HW132999   4.921   1.027   1.172
10700SOL    HW233000   4.925   0.945   1.031
10701SOL     OW33001   2.732   0.828   6.197
10701SOL    HW133002   2.830   0.812   6.194
10701SOL    HW233003   2.684   0.742   6.216
10702SOL     OW33004   5.604   2.442   2.000
10702SOL    HW133005   5.671   2.515   2.013
10702SOL    HW233006   5.531   2.474   1.940
10703SOL     OW33007   1.297   2.600   6.523
10703SOL    HW133008   1.226   2.531   6.508
10703SOL    HW233009   1.333   2.631   6.436
10704SOL     OW33010   6.048   6.750   1.949
10704SOL    HW133011   6.116   6.818   1.922
10704SOL    HW233012   6.091   6.679   2.004
10705SOL     OW33013   5.767   4.496   1.501
10705SOL    HW133014   5.759   4.431   1.426
10705SOL    HW233015   5.759   4.448   1.588
10706SOL     OW33016   4.738   0.326   1.548
10706SOL    HW133017   4.785   0.248   1.589
10706SOL    HW233018   4.676   0.366   1.615
10707SOL     OW33019   5.632   0.553   4.171
10707SOL    HW133020   5.578   0.635   4.190
10707SOL    HW233021   5.678   0.523   4.255
10708SOL     OW33022   4.264   1.922   2.174
10708SOL    HW133023   4.181   1.929   2.228
10708SOL    HW233024   4.268   1.997   2.108
10709SOL     OW33025   6.119   5.232   3.998
10709SOL    HW133026   6.215   5.247   3.977
10709SOL    HW233027   6.079   5.167   3.934
10710SOL     OW33028   5.395   1.109   3.084
10710SOL    HW133029   5.449   1.182   3.127
10710SOL    HW233030   5.310   1.096   3.134
10711SOL     OW33031   3.716   6.771   1.821
10711SOL    HW133032   3.758   6.862   1.825
10711SOL    HW233033   3.713   6.741   1.725
10712SOL     OW33034   4.716   6.554   2.932
10712SOL    HW133035   4.639   6.615   2.949
10712SOL    HW233036   4.780   6.558   3.009
10713SOL     OW33037   1.591   4.067   1.194
10713SOL    HW133038   1.688   4.092   1.200
10713SOL    HW233039   1.584   3.971   1.166
10714SOL     OW33040   3.896   3.558   4.102
10714SOL    HW133041   3.988   3.562   4.063
10714SOL    HW233042   3.829   3.578   4.030
10715SOL     OW33043   5.962   0.900   2.334
10715SOL    HW133044   6.059   0.912   2.356
10715SOL    HW233045   5.906   0.933   2.410
10716SOL     OW33046   5.909   2.555   3.702
10716SOL    HW133047   5.961   2.479   3.665
10716SOL    HW233048   5.945   2.579   3.793
10717SOL     OW33049   1.544   2.489   6.870
10717SOL    HW133050   1.478   2.425   6.831
10717SOL    HW233051   1.516   2.513   6.963
10718SOL     OW33052   1.281   5.038   5.545
10718SOL    HW133053   1.199   5.002   5.500
10718SOL    HW233054   1.361   4.987   5.514
10719SOL     OW33055   6.220   5.457   4.748
10719SOL    HW133056   6.140   5.482   4.693
10719SOL    HW233057   6.302   5.463   4.691
10720SOL     OW33058   6.108   5.661   4.070
10720SOL    HW133059   6.044   5.587   4.087
10720SOL    HW233060   6.118   5.717   4.152
10721SOL     OW33061   5.114   3.712   5.207
10721SOL    HW133062   5.078   3.655   5.280
10721SOL    HW233063   5.187   3.770   5.242
10722SOL     OW33064   0.090   4.200   6.013
10722SOL    HW133065   0.124   4.237   5.927
10722SOL    HW233066   0.159   4.141   6.054
10723SOL     OW33067   0.080   0.292   0.363
10723SOL    HW133068   0.026   0.352   0.422
10723SOL    HW233069   0.177   0.315   0.373
10724SOL     OW33070   6.567   6.492   0.544
10724SOL    HW133071   6.592   6.396   0.532
10724SOL    HW233072   6.477   6.509   0.502
10725SOL     OW33073   2.431   5.483   5.635
10725SOL    HW133074   2.431   5.450   5.541
10725SOL    HW233075   2.347   5.534   5.653
10726SOL     OW33076   4.599   0.445   3.660
10726SOL    HW133077   4.529   0.427   3.730
10726SOL    HW233078   4.555   0.480   3.578
10727SOL     OW33079   1.354   5.977   5.982
10727SOL    HW133080   1.342   6.031   6.066
10727SOL    HW233081   1.356   6.039   5.903
10728SOL     OW33082   6.549   5.419   0.846
10728SOL    HW133083   6.551   5.381   0.938
10728SOL    HW233084   6.487   5.497   0.843
10729SOL     OW33085   6.893   2.556   1.378
10729SOL    HW133086   6.985   2.529   1.407
10729SOL    HW233087   6.833   2.476   1.376
10730SOL     OW33088   4.178   0.379   1.460
10730SOL    HW133089   4.248   0.347   1.397
10730SOL    HW233090   4.217   0.388   1.552
10731SOL     OW33091   4.116   1.357   0.713
10731SOL    HW133092   4.200   1.354   0.768
10731SOL    HW233093   4.116   1.440   0.658
10732SOL     OW33094   0.140   5.539   5.257
10732SOL    HW133095   0.239   5.557   5.257
10732SOL    HW233096   0.114   5.500   5.345
10733SOL     OW33097   5.831   2.328   6.797
10733SOL    HW133098   5.818   2.333   6.896
10733SOL    HW233099   5.785   2.405   6.754
10734SOL     OW33100   0.960   1.841   1.566
10734SOL    HW133101   1.023   1.841   1.489
10734SOL    HW233102   0.867   1.856   1.532
10735SOL     OW33103   0.430   3.594   2.093
10735SOL    HW133104   0.352   3.644   2.131
10735SOL    HW233105   0.402   3.501   2.069
10736SOL     OW33106   2.988   6.628   3.795
10736SOL    HW133107   3.018   6.724   3.792
10736SOL    HW233108   2.967   6.597   3.702
10737SOL     OW33109   0.136   2.481   1.762
10737SOL    HW133110   0.055   2.539   1.768
10737SOL    HW233111   0.123   2.412   1.691
10738SOL     OW33112   4.325   0.727   2.984
10738SOL    HW133113   4.293   0.736   3.078
10738SOL    HW233114   4.345   0.817   2.946
10739SOL     OW33115   2.290   2.439   1.967
10739SOL    HW133116   2.240   2.352   1.963
10739SOL    HW233117   2.384   2.425   1.937
10740SOL     OW33118   4.982   4.759   4.299
10740SOL    HW133119   5.063   4.702   4.315
10740SOL    HW233120   5.010   4.855   4.289
10741SOL     OW33121   3.536   0.627   2.148
10741SOL    HW133122   3.587   0.541   2.153
10741SOL    HW233123   3.598   0.703   2.170
10742SOL     OW33124   5.783   5.314   0.974
10742SOL    HW133125   5.795   5.259   1.057
10742SOL    HW233126   5.862   5.373   0.961
10743SOL     OW33127   2.364   2.288   3.631
10743SOL    HW133128   2.390   2.313   3.724
10743SOL    HW233129   2.297   2.353   3.595
10744SOL     OW33130   3.748   2.503   0.976
10744SOL    HW133131   3.817   2.476   0.909
10744SOL    HW233132   3.792   2.526   1.062
10745SOL     OW33133   6.826   5.877   5.912
10745SOL    HW133134   6.771   5.961   5.909
10745SOL    HW233135   6.856   5.853   5.819
10746SOL     OW33136   0.619   3.905   5.060
10746SOL    HW133137   0.555   3.839   5.101
10746SOL    HW233138   0.589   3.997   5.083
10747SOL     OW33139   3.143   1.014   4.704
10747SOL    HW133140   3.097   1.103   4.698
10747SOL    HW233141   3.225   1.015   4.648
10748SOL     OW33142   5.333   1.312   2.335
10748SOL    HW133143   5.293   1.403   2.333
10748SOL    HW233144   5.299   1.261   2.414
10749SOL     OW33145   1.811   6.558   4.628
10749SOL    HW133146   1.836   6.486   4.563
10749SOL    HW233147   1.846   6.535   4.719
10750SOL     OW33148   3.845   0.759   5.171
10750SOL    HW133149   3.860   0.843   5.119
10750SOL    HW233150   3.816   0.686   5.109
10751SOL     OW33151   2.188   4.960   4.579
10751SOL    HW133152   2.254   5.008   4.521
10751SOL    HW233153   2.230   4.875   4.613
10752SOL     OW33154   5.378   4.691   5.161
10752SOL    HW133155   5.392   4.716   5.065
10752SOL    HW233156   5.391   4.593   5.173
10753SOL     OW33157   0.241   2.931   3.936
10753SOL    HW133158   0.177   3.007   3.949
10753SOL    HW233159   0.210   2.853   3.990
10754SOL     OW33160   1.105   0.395   3.026
10754SOL    HW133161   1.044   0.407   3.104
10754SOL    HW233162   1.060   0.427   2.943
10755SOL     OW33163   6.283   6.435   1.674
10755SOL    HW133164   6.339   6.430   1.757
10755SOL    HW233165   6.202   6.491   1.692
10756SOL     OW33166   6.460   6.433   4.974
10756SOL    HW133167   6.391   6.418   4.903
10756SOL    HW233168   6.454   6.361   5.042
10757SOL     OW33169   2.226   2.899   0.469
10757SOL    HW133170   2.302   2.940   0.520
10757SOL    HW233171   2.236   2.800   0.468
10758SOL     OW33172   0.947   6.105   3.704
10758SOL    HW133173   1.021   6.096   3.770
10758SOL    HW233174   0.867   6.054   3.736
10759SOL     OW33175   0.846   2.772   0.280
10759SOL    HW133176   0.877   2.866   0.295
10759SOL    HW233177   0.925   2.713   0.262
10760SOL     OW33178   6.142   1.442   3.263
10760SOL    HW133179   6.135   1.342   3.260
10760SOL    HW233180   6.236   1.469   3.283
10761SOL     OW33181   2.429   4.967   5.642
10761SOL    HW133182   2.380   4.880   5.643
10761SOL    HW233183   2.524   4.952   5.670
10762SOL     OW33184   3.040   0.562   4.674
10762SOL    HW133185   2.963   0.600   4.725
10762SOL    HW233186   3.022   0.570   4.576
10763SOL     OW33187   3.750   0.794   3.320
10763SOL    HW133188   3.704   0.835   3.398
10763SOL    HW233189   3.736   0.851   3.239
10764SOL     OW33190   4.963   1.218   4.227
10764SOL    HW133191   4.950   1.122   4.252
10764SOL    HW233192   5.045   1.253   4.273
10765SOL     OW33193   5.071   3.401   1.456
10765SOL    HW133194   4.998   3.340   1.488
10765SOL    HW233195   5.038   3.452   1.376
10766SOL     OW33196   2.927   3.380   1.183
10766SOL    HW133197   2.949   3.475   1.205
10766SOL    HW233198   3.009   3.335   1.147
10767SOL     OW33199   1.838   0.595   1.942
10767SOL    HW133200   1.903   0.524   1.971
10767SOL    HW233201   1.783   0.623   2.020
10768SOL     OW33202   6.726   5.109   0.837
10768SOL    HW133203   6.785   5.183   0.867
10768SOL    HW233204   6.745   5.027   0.890
10769SOL     OW33205   2.307   3.463   5.992
10769SOL    HW133206   2.286   3.388   5.930
10769SOL    HW233207   2.249   3.457   6.073
10770SOL     OW33208   4.405   5.577   3.598
10770SOL    HW133209   4.444   5.631   3.673
10770SOL    HW233210   4.409   5.629   3.513
10771SOL     OW33211   2.964   0.103   3.696
10771SOL    HW133212   2.926   0.187   3.736
10771SOL    HW233213   3.036   0.128   3.631
10772SOL     OW33214   5.983   5.787   3.754
10772SOL    HW133215   5.956   5.746   3.666
10772SOL    HW233216   5.956   5.725   3.828
10773SOL     OW33217   5.376   4.882   4.144
10773SOL    HW133218   5.403   4.908   4.052
10773SOL    HW233219   5.440   4.813   4.180
10774SOL     OW33220   1.497   0.953   3.969
10774SOL    HW133221   1.446   1.032   3.936
10774SOL    HW233222   1.572   0.932   3.906
10775SOL     OW33223   0.527   4.438   1.832
10775SOL    HW133224   0.565   4.504   1.768
10775SOL    HW233225   0.537   4.345   1.796
10776SOL     OW33226   2.131   0.282   6.728
10776SOL    HW133227   2.066   0.221   6.683
10776SOL    HW233228   2.107   0.377   6.709
10777SOL     OW33229   3.310   5.962   1.447
10777SOL    HW133230   3.367   6.043   1.456
10777SOL    HW233231   3.360   5.891   1.398
10778SOL     OW33232   5.766   6.454   3.509
10778SOL    HW133233   5.774   6.432   3.606
10778SOL    HW233234   5.691   6.400   3.470
10779SOL     OW33235   5.538   2.815   3.659
10779SOL    HW133236   5.501   2.908   3.664
10779SOL    HW233237   5.510   2.772   3.573
10780SOL     OW33238   0.801   1.220   3.167
10780SOL    HW133239   0.872   1.290   3.169
10780SOL    HW233240   0.719   1.257   3.124
10781SOL     OW33241   3.073   0.046   4.200
10781SOL    HW133242   3.090   6.976   4.154
10781SOL    HW233243   3.117   0.046   4.290
10782SOL     OW33244   6.004   6.112   4.478
10782SOL    HW133245   6.094   6.094   4.438
10782SOL    HW233246   5.978   6.207   4.458
10783SOL     OW33247   6.558   2.161   2.845
10783SOL    HW133248   6.515   2.250   2.830
10783SOL    HW233249   6.609   2.134   2.763
10784SOL     OW33250   2.564   1.549   3.695
10784SOL    HW133251   2.487   1.535   3.757
10784SOL    HW233252   2.530   1.556   3.601
10785SOL     OW33253   0.416   3.791   6.655
10785SOL    HW133254   0.424   3.867   6.719
10785SOL    HW233255   0.440   3.822   6.563
10786SOL     OW33256   6.462   5.555   3.012
10786SOL    HW133257   6.506   5.606   2.938
10786SOL    HW233258   6.371   5.593   3.029
10787SOL     OW33259   0.999   1.641   5.176
10787SOL    HW133260   1.096   1.627   5.157
10787SOL    HW233261   0.975   1.737   5.161
10788SOL     OW33262   6.806   4.186   6.440
10788SOL    HW133263   6.782   4.180   6.537
10788SOL    HW233264   6.834   4.096   6.406
10789SOL     OW33265   0.085   2.447   0.153
10789SOL    HW133266   0.119   2.368   0.102
10789SOL    HW233267   0.036   2.415   0.234
10790SOL     OW33268   0.038   0.053   2.112
10790SOL    HW133269   0.116   7.016   2.145
10790SOL    HW233270   0.005   0.015   2.026
10791SOL     OW33271   6.115   6.157   2.361
10791SOL    HW133272   6.150   6.144   2.268
10791SOL    HW233273   6.139   6.078   2.417
10792SOL     OW33274   3.931   3.716   5.087
10792SOL    HW133275   3.956   3.805   5.127
10792SOL    HW233276   3.905   3.730   4.992
10793SOL     OW33277   5.633   3.184   5.233
10793SOL    HW133278   5.716   3.216   5.186
10793SOL    HW233279   5.649   3.093   5.269
10794SOL     OW33280   3.444   3.356   3.666
10794SOL    HW133281   3.464   3.450   3.691
10794SOL    HW233282   3.414   3.305   3.747
10795SOL     OW33283   1.195   4.151   2.950
10795SOL    HW133284   1.139   4.111   2.879
10795SOL    HW233285   1.166   4.246   2.966
10796SOL     OW33286   1.126   6.125   5.144
10796SOL    HW133287   1.211   6.118   5.196
10796SOL    HW233288   1.139   6.085   5.053
10797SOL     OW33289   3.909   3.345   0.554
10797SOL    HW133290   3.815   3.309   0.550
10797SOL    HW233291   3.950   3.341   0.463
10798SOL     OW33292   1.307   1.294   1.223
10798SOL    HW133293   1.320   1.254   1.132
10798SOL    HW233294   1.244   1.372   1.216
10799SOL     OW33295   3.924   1.165   2.304
10799SOL    HW133296   3.916   1.259   2.272
10799SOL    HW233297   3.945   1.165   2.402
10800SOL     OW33298   1.099   6.543   0.149
10800SOL    HW133299   1.110   6.575   0.055
10800SOL    HW233300   1.130   6.613   0.212
10801SOL     OW33301   1.821   0.907   1.005
10801SOL    HW133302   1.805   0.809   0.990
10801SOL    HW233303   1.904   0.918   1.060
10802SOL     OW33304   6.249   0.093   3.284
10802SOL    HW133305   6.345   0.111   3.266
10802SOL    HW233306   6.237   7.015   3.313
10803SOL     OW33307   1.786   5.422   6.603
10803SOL    HW133308   1.866   5.362   6.599
10803SOL    HW233309   1.703   5.367   6.593
10804SOL     OW33310   0.380   3.191   3.809
10804SOL    HW133311   0.379   3.101   3.851
10804SOL    HW233312   0.360   3.261   3.878
10805SOL     OW33313   6.073   0.695   5.848
10805SOL    HW133314   6.045   0.749   5.768
10805SOL    HW233315   6.133   0.621   5.819
10806SOL     OW33316   1.671   4.669   6.933
10806SOL    HW133317   1.755   4.627   6.898
10806SOL    HW233318   1.683   4.690   0.013
10807SOL     OW33319   2.540   6.015   3.974
10807SOL    HW133320   2.452   6.059   3.955
10807SOL    HW233321   2.533   5.917   3.953
10808SOL     OW33322   0.401   2.010   6.039
10808SOL    HW133323   0.365   2.071   6.109
10808SOL    HW233324   0.476   1.956   6.077
10809SOL     OW33325   2.514   5.477   4.588
10809SOL    HW133326   2.531   5.406   4.656
10809SOL    HW233327   2.452   5.442   4.517
10810SOL     OW33328   0.335   0.021   4.441
10810SOL    HW133329   0.253   0.077   4.452
10810SOL    HW233330   0.364   7.002   4.530
10811SOL     OW33331   4.863   5.096   5.186
10811SOL    HW133332   4.954   5.132   5.166
10811SOL    HW233333   4.794   5.147   5.133
10812SOL     OW33334   0.056   2.545   6.523
10812SOL    HW133335   0.106   2.563   6.439
10812SOL    HW233336   0.091   2.605   6.596
10813SOL     OW33337   0.301   4.027   6.116
10813SOL    HW133338   0.398   4.039   6.135
10813SOL    HW233339   0.274   3.933   6.140
10814SOL     OW33340   2.367   0.499   0.993
10814SOL    HW133341   2.374   0.598   1.006
10814SOL    HW233342   2.320   0.459   1.072
10815SOL     OW33343   4.839   0.938   4.581
10815SOL    HW133344   4.846   0.956   4.482
10815SOL    HW233345   4.855   1.024   4.630
10816SOL     OW33346   3.524   3.057   3.104
10816SOL    HW133347   3.514   3.128   3.034
10816SOL    HW233348   3.435   3.021   3.128
10817SOL     OW33349   2.247   0.070   3.357
10817SOL    HW133350   2.306   0.057   3.277
10817SOL    HW233351   2.230   6.998   3.399
10818SOL     OW33352   4.345   5.029   5.773
10818SOL    HW133353   4.345   4.938   5.732
10818SOL    HW233354   4.406   5.031   5.852
10819SOL     OW33355   6.972   5.780   6.185
10819SOL    HW133356   7.005   5.866   6.225
10819SOL    HW233357   6.973   5.788   6.085
10820SOL     OW33358   2.143   4.414   5.827
10820SOL    HW133359   2.224   4.363   5.798
10820SOL    HW233360   2.079   4.422   5.750
10821SOL     OW33361   4.876   4.966   3.188
10821SOL    HW133362   4.911   4.966   3.281
10821SOL    HW233363   4.781   4.934   3.188
10822SOL     OW33364   5.815   3.025   1.174
10822SOL    HW133365   5.762   3.104   1.143
10822SOL    HW233366   5.801   2.949   1.111
10823SOL     OW33367   6.532   6.426   2.916
10823SOL    HW133368   6.516   6.395   2.823
10823SOL    HW233369   6.568   6.351   2.971
10824SOL     OW33370   1.110   1.855   4.134
10824SOL    HW133371   1.040   1.847   4.063
10824SOL    HW233372   1.147   1.948   4.135
10825SOL     OW33373   1.646   1.887   0.797
10825SOL    HW133374   1.563   1.925   0.755
10825SOL    HW233375   1.667   1.939   0.880
10826SOL     OW33376   1.306   2.372   3.020
10826SOL    HW133377   1.339   2.292   2.968
10826SOL    HW233378   1.233   2.416   2.969
10827SOL     OW33379   7.001   3.199   4.894
10827SOL    HW133380   6.955   3.112   4.912
10827SOL    HW233381   0.038   3.191   4.810
10828SOL     OW33382   6.165   4.224   5.963
10828SOL    HW133383   6.184   4.143   5.907
10828SOL    HW233384   6.192   4.206   6.057
10829SOL     OW33385   4.049   3.465   5.594
10829SOL    HW133386   4.133   3.420   5.624
10829SOL    HW233387   3.972   3.434   5.651
10830SOL     OW33388   4.689   1.051   3.743
10830SOL    HW133389   4.659   1.122   3.806
10830SOL    HW233390   4.786   1.064   3.722
10831SOL     OW33391   3.828   0.887   2.896
10831SOL    HW133392   3.789   0.915   2.809
10831SOL    HW233393   3.827   0.787   2.903
10832SOL     OW33394   6.900   3.500   7.003
10832SOL    HW133395   6.888   3.445   0.069
10832SOL    HW233396   6.974   3.462   6.948
10833SOL     OW33397   0.829   1.073   0.771
10833SOL    HW133398   0.809   1.132   0.849
10833SOL    HW233399   0.866   0.986   0.803
10834SOL     OW33400   6.749   6.694   0.554
10834SOL    HW133401   6.825   6.654   0.605
10834SOL    HW233402   6.691   6.621   0.518
10835SOL     OW33403   6.933   2.528   5.710
10835SOL    HW133404   7.000   2.453   5.713
10835SOL    HW233405   6.923   2.566   5.802
10836SOL     OW33406   0.109   1.829   3.625
10836SOL    HW133407   0.179   1.866   3.565
10836SOL    HW233408   0.119   1.730   3.632
10837SOL     OW33409   0.110   4.204   2.600
10837SOL    HW133410   0.162   4.228   2.682
10837SOL    HW233411   0.013   4.199   2.621
10838SOL     OW33412   6.314   5.655   3.853
10838SOL    HW133413   6.276   5.632   3.763
10838SOL    HW233414   6.239   5.665   3.919
10839SOL     OW33415   4.650   3.226   0.773
10839SOL    HW133416   4.712   3.303   0.756
10839SOL    HW233417   4.568   3.236   0.717
10840SOL     OW33418   3.065   0.587   1.083
10840SOL    HW133419   2.971   0.574   1.052
10840SOL    HW233420   3.095   0.680   1.062
10841SOL     OW33421   1.031   5.401   4.581
10841SOL    HW133422   0.972   5.433   4.507
10841SOL    HW233423   0.982   5.331   4.634
10842SOL     OW33424   5.408   4.248   0.490
10842SOL    HW133425   5.329   4.213   0.439
10842SOL    HW233426   5.397   4.347   0.504
10843SOL     OW33427   2.263   2.277   1.554
10843SOL    HW133428   2.179   2.323   1.585
10843SOL    HW233429   2.342   2.331   1.582
10844SOL     OW33430   0.908   5.423   5.168
10844SOL    HW133431   0.953   5.335   5.184
10844SOL    HW233432   0.944   5.464   5.084
10845SOL     OW33433   4.230   6.482   5.060
10845SOL    HW133434   4.174   6.422   5.002
10845SOL    HW233435   4.172   6.529   5.126
10846SOL     OW33436   5.062   0.227   0.287
10846SOL    HW133437   5.029   0.157   0.223
10846SOL    HW233438   5.116   0.184   0.359
10847SOL     OW33439   1.843   1.456   6.804
10847SOL    HW133440   1.942   1.460   6.790
10847SOL    HW233441   1.814   1.533   6.861
10848SOL     OW33442   1.972   4.470   1.677
10848SOL    HW133443   1.896   4.439   1.734
10848SOL    HW233444   1.941   4.546   1.619
10849SOL     OW33445   2.217   6.018   3.703
10849SOL    HW133446   2.148   6.080   3.667
10849SOL    HW233447   2.251   6.053   3.791
10850SOL     OW33448   3.354   6.499   0.052
10850SOL    HW133449   3.408   6.416   0.036
10850SOL    HW233450   3.401   6.556   0.120
10851SOL     OW33451   2.152   4.814   1.399
10851SOL    HW133452   2.212   4.888   1.429
10851SOL    HW233453   2.079   4.852   1.343
10852SOL     OW33454   1.901   1.514   1.191
10852SOL    HW133455   1.909   1.419   1.162
10852SOL    HW233456   1.945   1.527   1.279
10853SOL     OW33457   2.903   1.785   6.121
10853SOL    HW133458   2.949   1.810   6.206
10853SOL    HW233459   2.887   1.868   6.067
10854SOL     OW33460   4.468   5.954   5.645
10854SOL    HW133461   4.542   6.002   5.693
10854SOL    HW233462   4.380   5.997   5.669
10855SOL     OW33463   3.504   1.189   0.283
10855SOL    HW133464   3.603   1.191   0.296
10855SOL    HW233465   3.458   1.201   0.371
10856SOL     OW33466   0.156   1.045   0.120
10856SOL    HW133467   0.205   1.123   0.080
10856SOL    HW233468   0.126   0.984   0.047
10857SOL     OW33469   5.873   2.191   2.663
10857SOL    HW133470   5.834   2.136   2.589
10857SOL    HW233471   5.914   2.131   2.731
10858SOL     OW33472   2.806   6.090   1.551
10858SOL    HW133473   2.823   6.152   1.475
10858SOL    HW233474   2.888   6.037   1.570
10859SOL     OW33475   1.244   5.383   3.348
10859SOL    HW133476   1.327   5.437   3.365
10859SOL    HW233477   1.166   5.430   3.389
10860SOL     OW33478   6.735   2.554   3.266
10860SOL    HW133479   6.817   2.559   3.323
10860SOL    HW233480   6.654   2.550   3.325
10861SOL     OW33481   3.951   3.099   4.079
10861SOL    HW133482   3.902   3.012   4.083
10861SOL    HW233483   4.014   3.105   4.156
10862SOL     OW33484   1.606   0.599   4.758
10862SOL    HW133485   1.561   0.545   4.688
10862SOL    HW233486   1.593   0.696   4.739
10863SOL     OW33487   2.926   5.736   4.611
10863SOL    HW133488   2.967   5.767   4.525
10863SOL    HW233489   2.827   5.727   4.600
10864SOL     OW33490   3.213   6.167   2.593
10864SOL    HW133491   3.207   6.087   2.533
10864SOL    HW233492   3.306   6.175   2.629
10865SOL     OW33493   6.312   2.029   6.382
10865SOL    HW133494   6.265   2.057   6.466
10865SOL    HW233495   6.404   1.996   6.406
10866SOL     OW33496   5.598   4.690   0.443
10866SOL    HW133497   5.651   4.613   0.479
10866SOL    HW233498   5.559   4.742   0.519
10867SOL     OW33499   3.511   2.905   0.469
10867SOL    HW133500   3.608   2.893   0.447
10867SOL    HW233501   3.500   2.917   0.567
10868SOL     OW33502   3.259   1.740   2.820
10868SOL    HW133503   3.270   1.763   2.917
10868SOL    HW233504   3.247   1.823   2.766
10869NA      NA33505   6.538   2.219   5.692
10870NA      NA33506   4.253   4.595   5.259
10871NA      NA33507   2.175   3.565   1.451
10872NA      NA33508   4.942   3.826   5.069
10873NA      NA33509   4.182   2.372   5.284
10874NA      NA33510   3.729   4.693   1.664
10875NA      NA33511   6.702   5.721   5.684
10876NA      NA33512   4.066   3.521   5.108
10877NA      NA33513   4.429   6.752   0.000
10878NA      NA33514   3.514   6.986   5.115
10879NA      NA33515   6.397   4.819   2.612
10880NA      NA33516   2.135   0.858   3.090
10881NA      NA33517   3.389   4.605   0.909
10882NA      NA33518   3.603   3.681   2.939
   7.01674   7.01674   7.01674
