Generated by trjconv : CNT in water t= 230.00000
33518
    1C        C    1   2.845   2.773   4.749
    1C        C    2   2.899   2.719   4.868
    1C        C    3   2.840   2.772   4.984
    1C        C    4   2.850   2.775   4.260
    1C        C    5   2.901   2.732   4.384
    1C        C    6   2.843   2.773   4.506
    1C        C    7   3.017   2.650   4.625
    1C        C    8   2.900   2.728   4.627
    1C        C    9   3.081   2.611   4.745
    1C        C   10   3.011   2.633   4.865
    1C        C   11   3.188   2.493   4.978
    1C        C   12   3.066   2.562   4.973
    1C        C   13   2.847   2.772   3.771
    1C        C   14   2.903   2.729   3.893
    1C        C   15   2.849   2.773   4.016
    1C        C   16   3.023   2.653   4.139
    1C        C   17   2.903   2.727   4.138
    1C        C   18   3.083   2.618   4.262
    1C        C   19   3.021   2.656   4.383
    1C        C   20   3.211   2.562   4.505
    1C        C   21   3.079   2.613   4.503
    1C        C   22   3.281   2.538   4.625
    1C        C   23   3.212   2.556   4.747
    1C        C   24   3.414   2.477   4.862
    1C        C   25   3.273   2.501   4.863
    1C        C   26   3.488   2.474   4.981
    1C        C   27   2.853   2.771   3.280
    1C        C   28   2.907   2.730   3.404
    1C        C   29   2.854   2.773   3.528
    1C        C   30   3.021   2.646   3.649
    1C        C   31   2.905   2.726   3.651
    1C        C   32   3.080   2.608   3.772
    1C        C   33   3.018   2.647   3.893
    1C        C   34   3.210   2.559   4.016
    1C        C   35   3.080   2.614   4.016
    1C        C   36   3.282   2.542   4.137
    1C        C   37   3.214   2.564   4.258
    1C        C   38   3.415   2.506   4.381
    1C        C   39   3.278   2.540   4.382
    1C        C   40   3.487   2.497   4.502
    1C        C   41   3.419   2.508   4.626
    1C        C   42   3.634   2.481   4.743
    1C        C   43   3.492   2.480   4.743
    1C        C   44   3.707   2.483   4.864
    1C        C   45   3.627   2.478   4.979
    1C        C   46   2.838   2.755   2.793
    1C        C   47   2.893   2.709   2.915
    1C        C   48   2.844   2.763   3.036
    1C        C   49   3.015   2.637   3.162
    1C        C   50   2.900   2.718   3.158
    1C        C   51   3.081   2.607   3.283
    1C        C   52   3.020   2.645   3.405
    1C        C   53   3.210   2.550   3.526
    1C        C   54   3.081   2.608   3.527
    1C        C   55   3.277   2.530   3.649
    1C        C   56   3.210   2.552   3.771
    1C        C   57   3.416   2.509   3.893
    1C        C   58   3.277   2.536   3.894
    1C        C   59   3.487   2.500   4.015
    1C        C   60   3.419   2.509   4.138
    1C        C   61   3.630   2.501   4.258
    1C        C   62   3.489   2.501   4.261
    1C        C   63   3.700   2.501   4.380
    1C        C   64   3.628   2.500   4.502
    1C        C   65   3.839   2.539   4.621
    1C        C   66   3.703   2.501   4.622
    1C        C   67   3.909   2.556   4.742
    1C        C   68   3.843   2.521   4.862
    1C        C   69   4.048   2.589   4.984
    1C        C   70   3.924   2.524   4.976
    1C        C   71   2.821   2.734   2.307
    1C        C   72   2.881   2.696   2.429
    1C        C   73   2.832   2.747   2.551
    1C        C   74   3.002   2.619   2.675
    1C        C   75   2.885   2.698   2.673
    1C        C   76   3.069   2.591   2.796
    1C        C   77   3.008   2.627   2.917
    1C        C   78   3.204   2.544   3.039
    1C        C   79   3.073   2.596   3.039
    1C        C   80   3.275   2.530   3.161
    1C        C   81   3.209   2.548   3.285
    1C        C   82   3.418   2.505   3.404
    1C        C   83   3.278   2.524   3.406
    1C        C   84   3.487   2.502   3.527
    1C        C   85   3.416   2.507   3.649
    1C        C   86   3.629   2.499   3.772
    1C        C   87   3.487   2.500   3.771
    1C        C   88   3.701   2.506   3.893
    1C        C   89   3.629   2.500   4.014
    1C        C   90   3.835   2.550   4.136
    1C        C   91   3.699   2.510   4.135
    1C        C   92   3.903   2.569   4.258
    1C        C   93   3.836   2.541   4.379
    1C        C   94   4.031   2.629   4.501
    1C        C   95   3.907   2.563   4.499
    1C        C   96   4.094   2.664   4.622
    1C        C   97   4.038   2.616   4.742
    1C        C   98   4.187   2.766   4.863
    1C        C   99   4.094   2.657   4.867
    1C        C  100   4.205   2.848   4.975
    1C        C  101   2.823   2.734   2.071
    1C        C  102   2.991   2.592   2.192
    1C        C  103   2.880   2.683   2.188
    1C        C  104   3.063   2.577   2.314
    1C        C  105   2.998   2.617   2.433
    1C        C  106   3.197   2.534   2.554
    1C        C  107   3.065   2.585   2.553
    1C        C  108   3.269   2.522   2.674
    1C        C  109   3.203   2.544   2.797
    1C        C  110   3.410   2.493   2.917
    1C        C  111   3.271   2.518   2.918
    1C        C  112   3.481   2.487   3.039
    1C        C  113   3.414   2.504   3.162
    1C        C  114   3.629   2.502   3.282
    1C        C  115   3.488   2.497   3.282
    1C        C  116   3.698   2.510   3.405
    1C        C  117   3.629   2.505   3.528
    1C        C  118   3.838   2.539   3.648
    1C        C  119   3.699   2.511   3.650
    1C        C  120   3.905   2.564   3.770
    1C        C  121   3.838   2.541   3.893
    1C        C  122   4.030   2.633   4.014
    1C        C  123   3.905   2.567   4.014
    1C        C  124   4.088   2.673   4.136
    1C        C  125   4.031   2.630   4.258
    1C        C  126   4.198   2.762   4.378
    1C        C  127   4.093   2.668   4.379
    1C        C  128   4.245   2.816   4.500
    1C        C  129   4.195   2.763   4.621
    1C        C  130   4.323   2.935   4.741
    1C        C  131   4.241   2.819   4.742
    1C        C  132   4.357   3.000   4.861
    1C        C  133   4.279   2.966   4.972
    1C        C  134   3.172   2.465   2.084
    1C        C  135   3.037   2.505   2.088
    1C        C  136   3.258   2.474   2.194
    1C        C  137   3.192   2.517   2.311
    1C        C  138   3.401   2.477   2.430
    1C        C  139   3.262   2.502   2.432
    1C        C  140   3.476   2.482   2.550
    1C        C  141   3.408   2.492   2.673
    1C        C  142   3.621   2.494   2.793
    1C        C  143   3.480   2.487   2.794
    1C        C  144   3.694   2.504   2.914
    1C        C  145   3.622   2.493   3.036
    1C        C  146   3.832   2.535   3.156
    1C        C  147   3.695   2.503   3.157
    1C        C  148   3.898   2.564   3.278
    1C        C  149   3.836   2.538   3.402
    1C        C  150   4.027   2.629   3.524
    1C        C  151   3.903   2.562   3.525
    1C        C  152   4.089   2.665   3.646
    1C        C  153   4.031   2.628   3.769
    1C        C  154   4.198   2.760   3.889
    1C        C  155   4.089   2.670   3.891
    1C        C  156   4.246   2.813   4.011
    1C        C  157   4.196   2.763   4.133
    1C        C  158   4.340   2.918   4.255
    1C        C  159   4.250   2.810   4.256
    1C        C  160   4.377   2.982   4.376
    1C        C  161   4.332   2.927   4.498
    1C        C  162   4.426   3.120   4.615
    1C        C  163   4.366   2.992   4.619
    1C        C  164   4.456   3.189   4.735
    1C        C  165   4.417   3.128   4.856
    1C        C  166   4.511   3.322   4.974
    1C        C  167   4.470   3.189   4.970
    1C        C  168   3.473   2.436   2.075
    1C        C  169   3.398   2.454   2.192
    1C        C  170   3.616   2.468   2.308
    1C        C  171   3.474   2.457   2.311
    1C        C  172   3.689   2.493   2.426
    1C        C  173   3.617   2.485   2.547
    1C        C  174   3.824   2.536   2.666
    1C        C  175   3.688   2.498   2.669
    1C        C  176   3.894   2.560   2.786
    1C        C  177   3.831   2.539   2.911
    1C        C  178   4.024   2.623   3.032
    1C        C  179   3.898   2.558   3.033
    1C        C  180   4.084   2.663   3.153
    1C        C  181   4.025   2.626   3.276
    1C        C  182   4.194   2.751   3.401
    1C        C  183   4.084   2.662   3.399
    1C        C  184   4.250   2.800   3.521
    1C        C  185   4.200   2.753   3.644
    1C        C  186   4.335   2.917   3.763
    1C        C  187   4.250   2.805   3.766
    1C        C  188   4.377   2.976   3.885
    1C        C  189   4.336   2.922   4.009
    1C        C  190   4.435   3.107   4.130
    1C        C  191   4.375   2.980   4.133
    1C        C  192   4.461   3.177   4.250
    1C        C  193   4.438   3.110   4.372
    1C        C  194   4.499   3.317   4.493
    1C        C  195   4.456   3.182   4.492
    1C        C  196   4.523   3.387   4.613
    1C        C  197   4.509   3.321   4.737
    1C        C  198   4.558   3.536   4.852
    1C        C  199   4.531   3.395   4.856
    1C        C  200   4.582   3.623   4.962
    1C        C  201   3.613   2.420   2.075
    1C        C  202   3.825   2.511   2.186
    1C        C  203   3.691   2.461   2.187
    1C        C  204   3.896   2.548   2.303
    1C        C  205   3.827   2.524   2.424
    1C        C  206   4.021   2.616   2.543
    1C        C  207   3.895   2.552   2.544
    1C        C  208   4.080   2.657   2.665
    1C        C  209   4.018   2.627   2.788
    1C        C  210   4.194   2.748   2.908
    1C        C  211   4.084   2.659   2.909
    1C        C  212   4.247   2.795   3.029
    1C        C  213   4.195   2.750   3.153
    1C        C  214   4.334   2.906   3.273
    1C        C  215   4.240   2.800   3.277
    1C        C  216   4.370   2.970   3.393
    1C        C  217   4.331   2.916   3.518
    1C        C  218   4.424   3.107   3.639
    1C        C  219   4.367   2.977   3.640
    1C        C  220   4.454   3.171   3.761
    1C        C  221   4.437   3.103   3.884
    1C        C  222   4.496   3.307   4.006
    1C        C  223   4.464   3.170   4.006
    1C        C  224   4.508   3.382   4.126
    1C        C  225   4.496   3.314   4.249
    1C        C  226   4.517   3.527   4.369
    1C        C  227   4.506   3.386   4.370
    1C        C  228   4.519   3.600   4.490
    1C        C  229   4.534   3.528   4.611
    1C        C  230   4.501   3.742   4.727
    1C        C  231   4.537   3.605   4.729
    1C        C  232   4.495   3.820   4.845
    1C        C  233   4.550   3.760   4.959
    1C        C  234   4.017   2.611   2.061
    1C        C  235   3.896   2.542   2.069
    1C        C  236   4.087   2.644   2.178
    1C        C  237   4.023   2.613   2.300
    1C        C  238   4.200   2.734   2.423
    1C        C  239   4.084   2.650   2.422
    1C        C  240   4.253   2.786   2.543
    1C        C  241   4.193   2.743   2.663
    1C        C  242   4.335   2.903   2.785
    1C        C  243   4.245   2.793   2.784
    1C        C  244   4.373   2.963   2.907
    1C        C  245   4.335   2.906   3.031
    1C        C  246   4.431   3.096   3.150
    1C        C  247   4.375   2.967   3.152
    1C        C  248   4.456   3.164   3.271
    1C        C  249   4.428   3.099   3.393
    1C        C  250   4.496   3.302   3.515
    1C        C  251   4.449   3.169   3.515
    1C        C  252   4.506   3.372   3.637
    1C        C  253   4.491   3.307   3.762
    1C        C  254   4.525   3.516   3.878
    1C        C  255   4.508   3.376   3.884
    1C        C  256   4.520   3.590   3.998
    1C        C  257   4.520   3.522   4.122
    1C        C  258   4.498   3.733   4.241
    1C        C  259   4.516   3.593   4.244
    1C        C  260   4.474   3.805   4.361
    1C        C  261   4.487   3.738   4.484
    1C        C  262   4.428   3.942   4.604
    1C        C  263   4.477   3.810   4.605
    1C        C  264   4.400   4.010   4.725
    1C        C  265   4.435   3.948   4.847
    1C        C  266   4.323   4.134   4.960
    1C        C  267   4.408   4.024   4.961
    1C        C  268   4.262   2.775   2.064
    1C        C  269   4.200   2.729   2.181
    1C        C  270   4.342   2.892   2.299
    1C        C  271   4.250   2.783   2.301
    1C        C  272   4.382   2.954   2.419
    1C        C  273   4.342   2.897   2.542
    1C        C  274   4.440   3.087   2.663
    1C        C  275   4.375   2.961   2.663
    1C        C  276   4.464   3.155   2.784
    1C        C  277   4.438   3.088   2.906
    1C        C  278   4.501   3.294   3.024
    1C        C  279   4.460   3.158   3.026
    1C        C  280   4.513   3.364   3.146
    1C        C  281   4.498   3.299   3.271
    1C        C  282   4.515   3.512   3.390
    1C        C  283   4.506   3.371   3.392
    1C        C  284   4.517   3.583   3.512
    1C        C  285   4.520   3.513   3.634
    1C        C  286   4.489   3.724   3.754
    1C        C  287   4.521   3.586   3.755
    1C        C  288   4.473   3.794   3.876
    1C        C  289   4.494   3.729   3.999
    1C        C  290   4.429   3.933   4.117
    1C        C  291   4.482   3.802   4.119
    1C        C  292   4.399   4.002   4.237
    1C        C  293   4.428   3.938   4.359
    1C        C  294   4.328   4.127   4.479
    1C        C  295   4.399   4.005   4.481
    1C        C  296   4.289   4.191   4.598
    1C        C  297   4.327   4.132   4.721
    1C        C  298   4.200   4.312   4.839
    1C        C  299   4.282   4.195   4.840
    1C        C  300   4.167   4.402   4.945
    1C        C  301   4.355   2.879   2.064
    1C        C  302   4.467   3.068   2.177
    1C        C  303   4.402   2.941   2.180
    1C        C  304   4.474   3.144   2.298
    1C        C  305   4.445   3.080   2.420
    1C        C  306   4.507   3.286   2.537
    1C        C  307   4.474   3.149   2.541
    1C        C  308   4.512   3.360   2.657
    1C        C  309   4.500   3.292   2.780
    1C        C  310   4.526   3.503   2.901
    1C        C  311   4.515   3.362   2.901
    1C        C  312   4.524   3.575   3.023
    1C        C  313   4.520   3.505   3.145
    1C        C  314   4.491   3.719   3.265
    1C        C  315   4.511   3.579   3.265
    1C        C  316   4.478   3.790   3.386
    1C        C  317   4.497   3.723   3.510
    1C        C  318   4.433   3.927   3.627
    1C        C  319   4.476   3.792   3.631
    1C        C  320   4.403   3.992   3.749
    1C        C  321   4.429   3.929   3.873
    1C        C  322   4.321   4.113   3.991
    1C        C  323   4.400   3.996   3.994
    1C        C  324   4.278   4.171   4.113
    1C        C  325   4.326   4.123   4.237
    1C        C  326   4.185   4.285   4.353
    1C        C  327   4.283   4.183   4.357
    1C        C  328   4.137   4.340   4.475
    1C        C  329   4.195   4.297   4.596
    1C        C  330   4.021   4.427   4.714
    1C        C  331   4.141   4.350   4.715
    1C        C  332   3.965   4.487   4.828
    1C        C  333   4.051   4.480   4.939
    1C        C  334   4.550   3.267   2.065
    1C        C  335   4.528   3.128   2.063
    1C        C  336   4.533   3.350   2.176
    1C        C  337   4.515   3.280   2.298
    1C        C  338   4.535   3.498   2.412
    1C        C  339   4.527   3.357   2.416
    1C        C  340   4.526   3.571   2.532
    1C        C  341   4.518   3.502   2.655
    1C        C  342   4.497   3.710   2.774
    1C        C  343   4.519   3.571   2.778
    1C        C  344   4.483   3.780   2.896
    1C        C  345   4.503   3.715   3.020
    1C        C  346   4.430   3.917   3.138
    1C        C  347   4.480   3.785   3.140
    1C        C  348   4.399   3.983   3.259
    1C        C  349   4.427   3.922   3.384
    1C        C  350   4.321   4.107   3.502
    1C        C  351   4.397   3.988   3.505
    1C        C  352   4.278   4.163   3.624
    1C        C  353   4.326   4.110   3.746
    1C        C  354   4.182   4.267   3.864
    1C        C  355   4.284   4.169   3.867
    1C        C  356   4.123   4.312   3.984
    1C        C  357   4.179   4.272   4.107
    1C        C  358   4.012   4.403   4.229
    1C        C  359   4.128   4.322   4.229
    1C        C  360   3.956   4.450   4.349
    1C        C  361   4.023   4.423   4.471
    1C        C  362   3.827   4.510   4.591
    1C        C  363   3.959   4.460   4.591
    1C        C  364   3.758   4.537   4.711
    1C        C  365   3.836   4.544   4.829
    1C        C  366   3.626   4.595   4.945
    1C        C  367   3.764   4.577   4.944
    1C        C  368   4.513   3.564   2.051
    1C        C  369   4.528   3.491   2.169
    1C        C  370   4.508   3.706   2.287
    1C        C  371   4.526   3.566   2.289
    1C        C  372   4.490   3.777   2.408
    1C        C  373   4.506   3.711   2.532
    1C        C  374   4.429   3.912   2.649
    1C        C  375   4.484   3.781   2.653
    1C        C  376   4.397   3.975   2.771
    1C        C  377   4.429   3.911   2.892
    1C        C  378   4.320   4.094   3.012
    1C        C  379   4.400   3.977   3.014
    1C        C  380   4.275   4.154   3.132
    1C        C  381   4.323   4.101   3.254
    1C        C  382   4.183   4.260   3.376
    1C        C  383   4.280   4.158   3.377
    1C        C  384   4.125   4.307   3.496
    1C        C  385   4.177   4.262   3.619
    1C        C  386   4.007   4.386   3.740
    1C        C  387   4.126   4.311   3.742
    1C        C  388   3.944   4.422   3.861
    1C        C  389   4.006   4.391   3.985
    1C        C  390   3.818   4.490   4.109
    1C        C  391   3.947   4.431   4.107
    1C        C  392   3.751   4.514   4.231
    1C        C  393   3.822   4.497   4.352
    1C        C  394   3.617   4.559   4.471
    1C        C  395   3.754   4.526   4.472
    1C        C  396   3.544   4.562   4.592
    1C        C  397   3.618   4.557   4.712
    1C        C  398   3.407   4.546   4.837
    1C        C  399   3.546   4.569   4.833
    1C        C  400   3.340   4.521   4.958
    1C        C  401   4.502   3.703   2.050
    1C        C  402   4.447   3.914   2.165
    1C        C  403   4.488   3.778   2.167
    1C        C  404   4.415   3.979   2.286
    1C        C  405   4.443   3.910   2.406
    1C        C  406   4.327   4.094   2.525
    1C        C  407   4.402   3.975   2.525
    1C        C  408   4.282   4.151   2.647
    1C        C  409   4.321   4.094   2.770
    1C        C  410   4.175   4.251   2.887
    1C        C  411   4.276   4.152   2.891
    1C        C  412   4.128   4.303   3.009
    1C        C  413   4.179   4.257   3.133
    1C        C  414   4.001   4.374   3.253
    1C        C  415   4.120   4.298   3.255
    1C        C  416   3.941   4.413   3.375
    1C        C  417   4.003   4.379   3.496
    1C        C  418   3.812   4.472   3.621
    1C        C  419   3.941   4.413   3.618
    1C        C  420   3.745   4.497   3.742
    1C        C  421   3.812   4.472   3.864
    1C        C  422   3.609   4.528   3.986
    1C        C  423   3.748   4.503   3.987
    1C        C  424   3.541   4.542   4.109
    1C        C  425   3.612   4.540   4.231
    1C        C  426   3.400   4.546   4.354
    1C        C  427   3.541   4.554   4.352
    1C        C  428   3.330   4.539   4.477
    1C        C  429   3.403   4.551   4.597
    1C        C  430   3.192   4.516   4.721
    1C        C  431   3.331   4.548   4.718
    1C        C  432   3.122   4.496   4.843
    1C        C  433   3.204   4.491   4.957
    1C        C  434   4.383   4.124   2.052
    1C        C  435   4.441   3.997   2.052
    1C        C  436   4.307   4.166   2.165
    1C        C  437   4.340   4.100   2.287
    1C        C  438   4.185   4.255   2.404
    1C        C  439   4.286   4.156   2.405
    1C        C  440   4.126   4.298   2.525
    1C        C  441   4.179   4.248   2.646
    1C        C  442   4.003   4.374   2.761
    1C        C  443   4.123   4.299   2.765
    1C        C  444   3.945   4.411   2.885
    1C        C  445   4.007   4.375   3.007
    1C        C  446   3.810   4.456   3.129
    1C        C  447   3.941   4.405   3.129
    1C        C  448   3.744   4.483   3.251
    1C        C  449   3.808   4.462   3.376
    1C        C  450   3.608   4.527   3.496
    1C        C  451   3.744   4.492   3.498
    1C        C  452   3.538   4.538   3.618
    1C        C  453   3.608   4.531   3.741
    1C        C  454   3.397   4.538   3.864
    1C        C  455   3.538   4.536   3.864
    1C        C  456   3.331   4.531   3.989
    1C        C  457   3.400   4.540   4.112
    1C        C  458   3.190   4.503   4.236
    1C        C  459   3.328   4.532   4.233
    1C        C  460   3.124   4.481   4.359
    1C        C  461   3.193   4.506   4.479
    1C        C  462   2.992   4.437   4.603
    1C        C  463   3.122   4.491   4.601
    1C        C  464   2.926   4.406   4.724
    1C        C  465   2.988   4.446   4.845
    1C        C  466   2.798   4.336   4.962
    1C        C  467   2.907   4.425   4.961
    1C        C  468   4.125   4.284   2.041
    1C        C  469   4.190   4.249   2.160
    1C        C  470   4.008   4.368   2.279
    1C        C  471   4.131   4.297   2.280
    1C        C  472   3.939   4.398   2.398
    1C        C  473   4.003   4.366   2.519
    1C        C  474   3.809   4.461   2.644
    1C        C  475   3.938   4.404   2.639
    1C        C  476   3.741   4.486   2.765
    1C        C  477   3.814   4.463   2.884
    1C        C  478   3.607   4.511   3.009
    1C        C  479   3.745   4.481   3.006
    1C        C  480   3.535   4.526   3.130
    1C        C  481   3.607   4.516   3.252
    1C        C  482   3.395   4.528   3.376
    1C        C  483   3.536   4.529   3.374
    1C        C  484   3.324   4.531   3.498
    1C        C  485   3.397   4.536   3.619
    1C        C  486   3.189   4.502   3.745
    1C        C  487   3.326   4.535   3.742
    1C        C  488   3.127   4.476   3.869
    1C        C  489   3.194   4.496   3.992
    1C        C  490   2.993   4.426   4.114
    1C        C  491   3.123   4.481   4.113
    1C        C  492   2.932   4.392   4.237
    1C        C  493   2.994   4.424   4.359
    1C        C  494   2.825   4.302   4.483
    1C        C  495   2.931   4.395   4.482
    1C        C  496   2.771   4.257   4.606
    1C        C  497   2.815   4.317   4.726
    1C        C  498   2.665   4.163   4.845
    1C        C  499   2.754   4.274   4.845
    1C        C  500   2.590   4.123   4.956
    1C        C  501   4.007   4.357   2.041
    1C        C  502   3.812   4.453   2.156
    1C        C  503   3.940   4.396   2.158
    1C        C  504   3.739   4.474   2.275
    1C        C  505   3.807   4.449   2.397
    1C        C  506   3.605   4.507   2.519
    1C        C  507   3.743   4.475   2.520
    1C        C  508   3.533   4.512   2.641
    1C        C  509   3.601   4.505   2.764
    1C        C  510   3.393   4.523   2.886
    1C        C  511   3.534   4.516   2.888
    1C        C  512   3.323   4.523   3.009
    1C        C  513   3.394   4.530   3.131
    1C        C  514   3.187   4.492   3.255
    1C        C  515   3.324   4.526   3.254
    1C        C  516   3.120   4.474   3.378
    1C        C  517   3.186   4.504   3.500
    1C        C  518   2.996   4.414   3.624
    1C        C  519   3.120   4.482   3.623
    1C        C  520   2.937   4.379   3.748
    1C        C  521   2.999   4.417   3.869
    1C        C  522   2.833   4.288   3.994
    1C        C  523   2.937   4.383   3.991
    1C        C  524   2.787   4.236   4.117
    1C        C  525   2.831   4.294   4.238
    1C        C  526   2.695   4.134   4.362
    1C        C  527   2.778   4.248   4.361
    1C        C  528   2.657   4.076   4.485
    1C        C  529   2.686   4.145   4.605
    1C        C  530   2.580   3.961   4.729
    1C        C  531   2.639   4.091   4.727
    1C        C  532   2.535   3.903   4.850
    1C        C  533   2.526   3.998   4.957
    1C        C  534   3.615   4.550   2.037
    1C        C  535   3.746   4.501   2.042
    1C        C  536   3.534   4.538   2.154
    1C        C  537   3.601   4.508   2.276
    1C        C  538   3.390   4.518   2.399
    1C        C  539   3.532   4.515   2.399
    1C        C  540   3.320   4.511   2.520
    1C        C  541   3.392   4.514   2.642
    1C        C  542   3.184   4.482   2.766
    1C        C  543   3.322   4.512   2.765
    1C        C  544   3.117   4.464   2.889
    1C        C  545   3.186   4.490   3.009
    1C        C  546   2.993   4.406   3.135
    1C        C  547   3.121   4.468   3.133
    1C        C  548   2.936   4.368   3.259
    1C        C  549   2.994   4.411   3.380
    1C        C  550   2.826   4.285   3.505
    1C        C  551   2.933   4.377   3.503
    1C        C  552   2.778   4.235   3.629
    1C        C  553   2.833   4.284   3.749
    1C        C  554   2.696   4.124   3.874
    1C        C  555   2.783   4.236   3.872
    1C        C  556   2.665   4.063   3.998
    1C        C  557   2.702   4.124   4.120
    1C        C  558   2.598   3.941   4.246
    1C        C  559   2.662   4.067   4.243
    1C        C  560   2.566   3.879   4.369
    1C        C  561   2.597   3.948   4.488
    1C        C  562   2.534   3.748   4.615
    1C        C  563   2.564   3.886   4.611
    1C        C  564   2.519   3.682   4.739
    1C        C  565   2.519   3.761   4.857
    1C        C  566   2.532   3.550   4.976
    1C        C  567   2.519   3.688   4.977
    1C        C  568   3.325   4.480   2.037
    1C        C  569   3.394   4.513   2.154
    1C        C  570   3.184   4.471   2.280
    1C        C  571   3.320   4.509   2.276
    1C        C  572   3.112   4.458   2.401
    1C        C  573   3.181   4.481   2.522
    1C        C  574   2.984   4.406   2.647
    1C        C  575   3.114   4.463   2.644
    1C        C  576   2.926   4.367   2.769
    1C        C  577   2.992   4.398   2.890
    1C        C  578   2.826   4.271   3.018
    1C        C  579   2.936   4.360   3.014
    1C        C  580   2.777   4.222   3.141
    1C        C  581   2.828   4.278   3.261
    1C        C  582   2.695   4.115   3.383
    1C        C  583   2.781   4.227   3.384
    1C        C  584   2.664   4.057   3.508
    1C        C  585   2.696   4.120   3.631
    1C        C  586   2.594   3.936   3.754
    1C        C  587   2.656   4.063   3.753
    1C        C  588   2.574   3.872   3.879
    1C        C  589   2.602   3.936   4.001
    1C        C  590   2.535   3.738   4.126
    1C        C  591   2.578   3.872   4.124
    1C        C  592   2.523   3.671   4.251
    1C        C  593   2.531   3.742   4.373
    1C        C  594   2.511   3.533   4.496
    1C        C  595   2.518   3.674   4.496
    1C        C  596   2.518   3.465   4.620
    1C        C  597   2.517   3.539   4.740
    1C        C  598   2.530   3.328   4.864
    1C        C  599   2.527   3.469   4.862
    1C        C  600   2.536   3.250   4.980
    1C        C  601   3.191   4.446   2.040
    1C        C  602   2.980   4.400   2.159
    1C        C  603   3.117   4.440   2.158
    1C        C  604   2.921   4.362   2.283
    1C        C  605   2.985   4.397   2.404
    1C        C  606   2.817   4.271   2.529
    1C        C  607   2.924   4.363   2.527
    1C        C  608   2.769   4.219   2.651
    1C        C  609   2.819   4.274   2.771
    1C        C  610   2.688   4.112   2.894
    1C        C  611   2.775   4.223   2.896
    1C        C  612   2.655   4.051   3.018
    1C        C  613   2.689   4.112   3.141
    1C        C  614   2.589   3.927   3.265
    1C        C  615   2.650   4.054   3.264
    1C        C  616   2.571   3.863   3.390
    1C        C  617   2.605   3.929   3.510
    1C        C  618   2.529   3.732   3.636
    1C        C  619   2.573   3.866   3.633
    1C        C  620   2.524   3.663   3.759
    1C        C  621   2.538   3.735   3.880
    1C        C  622   2.510   3.527   4.009
    1C        C  623   2.526   3.668   4.004
    1C        C  624   2.513   3.456   4.131
    1C        C  625   2.512   3.531   4.251
    1C        C  626   2.540   3.323   4.380
    1C        C  627   2.512   3.461   4.374
    1C        C  628   2.556   3.253   4.502
    1C        C  629   2.536   3.325   4.622
    1C        C  630   2.596   3.121   4.744
    1C        C  631   2.550   3.255   4.744
    1C        C  632   2.618   3.051   4.866
    1C        C  633   2.560   3.112   4.982
    1C        C  634   2.779   4.305   2.054
    1C        C  635   2.892   4.387   2.046
    1C        C  636   2.747   4.231   2.168
    1C        C  637   2.807   4.278   2.287
    1C        C  638   2.674   4.111   2.408
    1C        C  639   2.760   4.223   2.409
    1C        C  640   2.641   4.047   2.530
    1C        C  641   2.682   4.108   2.651
    1C        C  642   2.589   3.921   2.777
    1C        C  643   2.645   4.051   2.775
    1C        C  644   2.563   3.857   2.900
    1C        C  645   2.593   3.924   3.021
    1C        C  646   2.526   3.724   3.148
    1C        C  647   2.569   3.858   3.143
    1C        C  648   2.514   3.655   3.271
    1C        C  649   2.534   3.727   3.391
    1C        C  650   2.511   3.520   3.520
    1C        C  651   2.516   3.661   3.514
    1C        C  652   2.517   3.452   3.644
    1C        C  653   2.513   3.522   3.766
    1C        C  654   2.531   3.314   3.889
    1C        C  655   2.507   3.453   3.889
    1C        C  656   2.552   3.248   4.012
    1C        C  657   2.537   3.317   4.135
    1C        C  658   2.607   3.121   4.260
    1C        C  659   2.557   3.253   4.259
    1C        C  660   2.637   3.056   4.382
    1C        C  661   2.601   3.119   4.503
    1C        C  662   2.708   2.936   4.627
    1C        C  663   2.628   3.052   4.625
    1C        C  664   2.753   2.882   4.750
    1C        C  665   2.697   2.932   4.871
    1C        C  666   2.741   2.870   4.988
    1C        C  667   2.683   4.022   2.053
    1C        C  668   2.686   4.103   2.167
    1C        C  669   2.583   3.915   2.290
    1C        C  670   2.641   4.045   2.288
    1C        C  671   2.563   3.847   2.412
    1C        C  672   2.591   3.915   2.533
    1C        C  673   2.520   3.718   2.658
    1C        C  674   2.562   3.853   2.656
    1C        C  675   2.509   3.649   2.781
    1C        C  676   2.528   3.720   2.902
    1C        C  677   2.512   3.511   3.029
    1C        C  678   2.519   3.653   3.026
    1C        C  679   2.517   3.443   3.153
    1C        C  680   2.509   3.514   3.275
    1C        C  681   2.532   3.307   3.402
    1C        C  682   2.509   3.447   3.399
    1C        C  683   2.548   3.239   3.525
    1C        C  684   2.538   3.312   3.645
    1C        C  685   2.603   3.112   3.770
    1C        C  686   2.553   3.244   3.768
    1C        C  687   2.633   3.051   3.894
    1C        C  688   2.603   3.117   4.016
    1C        C  689   2.712   2.935   4.138
    1C        C  690   2.637   3.055   4.139
    1C        C  691   2.757   2.881   4.260
    1C        C  692   2.715   2.938   4.383
    1C        C  693   2.745   2.875   4.505
    1C        C  694   2.625   3.895   2.057
    1C        C  695   2.528   3.703   2.175
    1C        C  696   2.572   3.837   2.173
    1C        C  697   2.500   3.638   2.298
    1C        C  698   2.516   3.714   2.416
    1C        C  699   2.483   3.506   2.543
    1C        C  700   2.498   3.647   2.539
    1C        C  701   2.499   3.434   2.664
    1C        C  702   2.506   3.508   2.784
    1C        C  703   2.528   3.299   2.910
    1C        C  704   2.512   3.440   2.907
    1C        C  705   2.543   3.232   3.033
    1C        C  706   2.531   3.303   3.155
    1C        C  707   2.596   3.106   3.277
    1C        C  708   2.550   3.239   3.279
    1C        C  709   2.631   3.044   3.400
    1C        C  710   2.607   3.110   3.522
    1C        C  711   2.710   2.931   3.647
    1C        C  712   2.634   3.050   3.647
    1C        C  713   2.759   2.882   3.770
    1C        C  714   2.715   2.936   3.893
    1C        C  715   2.758   2.881   4.016
    1C        C  716   2.455   3.499   2.061
    1C        C  717   2.502   3.630   2.058
    1C        C  718   2.464   3.421   2.181
    1C        C  719   2.476   3.498   2.300
    1C        C  720   2.510   3.292   2.426
    1C        C  721   2.481   3.430   2.424
    1C        C  722   2.528   3.220   2.546
    1C        C  723   2.516   3.294   2.666
    1C        C  724   2.573   3.090   2.790
    1C        C  725   2.535   3.226   2.789
    1C        C  726   2.620   3.036   2.912
    1C        C  727   2.592   3.099   3.035
    1C        C  728   2.705   2.920   3.158
    1C        C  729   2.625   3.037   3.157
    1C        C  730   2.754   2.872   3.281
    1C        C  731   2.708   2.926   3.403
    1C        C  732   2.752   2.870   3.526
    1C        C  733   2.491   3.199   2.072
    1C        C  734   2.483   3.280   2.186
    1C        C  735   2.579   3.086   2.306
    1C        C  736   2.524   3.217   2.307
    1C        C  737   2.612   3.022   2.428
    1C        C  738   2.585   3.091   2.548
    1C        C  739   2.695   2.913   2.670
    1C        C  740   2.610   3.026   2.670
    1C        C  741   2.744   2.860   2.792
    1C        C  742   2.702   2.921   2.913
    1C        C  743   2.748   2.867   3.035
    1C        C  744   2.544   3.071   2.073
    1C        C  745   2.684   2.899   2.186
    1C        C  746   2.608   3.017   2.186
    1C        C  747   2.729   2.841   2.307
    1C        C  748   2.688   2.903   2.427
    1C        C  749   2.738   2.852   2.550
    1C        C  750   2.735   2.842   2.068
    1C        C  751   3.659   2.322   1.974
    1C        O  752   3.618   2.203   1.989
    1C        O  753   3.687   2.346   1.839
    1C        C  754   4.624   3.059   1.974
    1C        O  755   4.618   3.063   1.848
    1C        O  756   4.723   2.968   2.014
    1C        C  757   4.429   4.209   1.940
    1C        O  758   4.491   4.317   1.962
    1C        O  759   4.402   4.173   1.807
    1C        C  760   3.585   4.648   1.929
    1C        O  761   3.644   4.759   1.935
    1C        O  762   3.582   4.604   1.796
    1C        C  763   2.877   4.502   1.954
    1C        O  764   2.916   4.504   1.835
    1C        O  765   2.762   4.582   1.962
    1C        C  766   2.349   3.466   1.962
    1C        O  767   2.385   3.466   1.841
    1C        O  768   2.214   3.485   1.991
    1C        C  769   4.681   3.591   5.067
    1C        O  770   4.656   3.573   5.189
    1C        O  771   4.817   3.586   5.032
    1C        C  772   4.275   4.462   5.026
    1C        O  773   4.275   4.455   5.152
    1C        O  774   4.347   4.573   4.981
    1C        C  775   4.141   2.514   5.072
    1C        O  776   4.197   2.403   5.049
    1C        O  777   4.200   2.593   5.171
    1C        C  778   2.898   4.541   5.053
    1C        O  779   2.864   4.652   5.006
    1C        O  780   2.971   4.542   5.172
    1C        C  781   2.445   3.042   5.044
    1C        O  782   2.340   3.014   4.981
    1C        O  783   2.441   3.011   5.180
    1C        C  784   2.418   3.990   5.058
    1C        O  785   2.297   4.013   5.029
    1C        O  786   2.455   4.000   5.192
    1C        C  787   2.952   2.420   2.003
    1C        O  788   2.962   2.449   1.881
    1C        O  789   2.909   2.289   2.027
    1C        C  790   3.180   2.373   5.064
    1C        O  791   3.194   2.260   5.010
    1C        O  792   3.187   2.382   5.204
    1C        H  793   4.242   3.048   5.030
    1C        H  794   4.182   2.808   5.071
    1C        H  795   4.517   3.121   5.039
    1C        H  796   4.536   3.368   5.067
    1C        H  797   4.597   3.824   5.030
    1C        H  798   4.474   4.013   5.045
    1C        H  799   4.269   4.156   5.050
    1C        H  800   4.001   4.490   5.033
    1C        H  801   3.811   4.569   5.040
    1C        H  802   3.597   4.678   5.007
    1C        H  803   3.382   4.552   5.051
    1C        H  804   3.156   4.489   5.052
    1C        H  805   3.903   2.448   5.048
    1C        H  806   3.673   2.448   5.071
    1C        H  807   3.006   2.564   5.062
    1C        H  808   3.444   2.522   5.066
    1C        H  809   2.891   2.748   5.075
    1C        H  810   2.663   2.846   5.057
    1C        H  811   2.545   3.298   5.076
    1C        H  812   2.521   3.510   5.075
    1C        H  813   2.477   3.728   5.066
    1C        H  814   2.554   4.196   5.025
    1C        H  815   2.722   4.350   5.036
    1C        H  816   2.662   2.835   1.989
    1C        H  817   2.846   2.688   1.977
    1C        H  818   3.211   2.442   1.987
    1C        H  819   3.425   2.448   1.980
    1C        H  820   3.868   2.490   1.980
    1C        H  821   4.037   2.657   1.967
    1C        H  822   4.234   2.736   1.969
    1C        H  823   4.418   2.884   1.977
    1C        H  824   4.592   3.308   1.975
    1C        H  825   4.464   3.515   1.969
    1C        H  826   4.536   3.753   1.962
    1C        H  827   3.808   4.545   1.966
    1C        H  828   3.946   4.339   1.954
    1C        H  829   4.180   4.283   1.950
    1C        H  830   4.513   3.979   1.975
    1C        H  831   2.613   3.854   1.959
    1C        H  832   2.677   4.069   1.957
    1C        H  833   2.701   4.303   1.981
    1C        H  834   3.381   4.452   1.950
    1C        H  835   3.161   4.367   1.974
    1C        H  836   2.555   3.022   1.978
    1C        H  837   2.449   3.236   1.981
    1C        H  838   2.547   3.662   1.966
    2V3OU   H29  839   2.810   3.552   2.255
    2V3OU   C27  840   2.788   3.499   2.351
    2V3OU   H27  841   2.735   3.568   2.421
    2V3OU   H28  842   2.734   3.402   2.332
    2V3OU   O11  843   2.915   3.472   2.412
    2V3OU   C15  844   2.926   3.399   2.528
    2V3OU   C13  845   3.052   3.369   2.584
    2V3OU   C14  846   3.076   3.264   2.674
    2V3OU   C16  847   2.975   3.189   2.732
    2V3OU    H6  848   2.993   3.104   2.799
    2V3OU   C12  849   3.212   3.221   2.715
    2V3OU    O2  850   3.236   3.126   2.793
    2V3OU   C10  851   3.325   3.308   2.680
    2V3OU    C8  852   3.456   3.272   2.707
    2V3OU   O10  853   3.485   3.143   2.738
    2V3OU   H26  854   3.400   3.112   2.773
    2V3OU    C6  855   3.567   3.356   2.676
    2V3OU    C5  856   3.540   3.473   2.605
    2V3OU    C4  857   3.703   3.296   2.674
    2V3OU    H4  858   3.724   3.233   2.766
    2V3OU    H5  859   3.714   3.230   2.583
    2V3OU    C2  860   3.817   3.398   2.675
    2V3OU    O6  861   3.805   3.477   2.794
    2V3OU   H21  862   3.756   3.558   2.770
    2V3OU    C3  863   3.785   3.495   2.561
    2V3OU    H2  864   3.870   3.568   2.555
    2V3OU    H3  865   3.788   3.435   2.466
    2V3OU   C25  866   3.956   3.338   2.655
    2V3OU    O7  867   3.998   3.308   2.544
    2V3OU   C26  868   4.032   3.291   2.779
    2V3OU   H22  869   4.069   3.380   2.835
    2V3OU   H23  870   4.120   3.229   2.749
    2V3OU    O8  871   3.965   3.210   2.873
    2V3OU   H24  872   3.928   3.262   2.945
    2V3OU    C1  873   3.651   3.566   2.566
    2V3OU    H1  874   3.629   3.616   2.467
    2V3OU    O3  875   3.664   3.654   2.678
    2V3OU   C19  876   3.619   3.789   2.667
    2V3OU    H9  877   3.520   3.800   2.615
    2V3OU    O4  878   3.715   3.852   2.584
    2V3OU   C20  879   3.844   3.873   2.641
    2V3OU   H10  880   3.893   3.774   2.665
    2V3OU   C24  881   3.613   3.848   2.808
    2V3OU   H16  882   3.545   3.784   2.871
    2V3OU   H17  883   3.566   3.949   2.803
    2V3OU   C23  884   3.752   3.872   2.868
    2V3OU   H15  885   3.794   3.770   2.896
    2V3OU    N1  886   3.739   3.955   2.987
    2V3OU   H19  887   3.808   3.926   3.052
    2V3OU   H20  888   3.647   3.940   3.023
    2V3OU   C21  889   3.852   3.947   2.775
    2V3OU   H11  890   3.957   3.930   2.813
    2V3OU    O5  891   3.823   4.086   2.773
    2V3OU   H18  892   3.775   4.106   2.855
    2V3OU   C22  893   3.915   3.948   2.529
    2V3OU   H12  894   3.868   4.048   2.510
    2V3OU   H13  895   3.908   3.888   2.435
    2V3OU   H14  896   4.022   3.962   2.556
    2V3OU   C11  897   3.160   3.469   2.576
    2V3OU    O1  898   3.133   3.584   2.537
    2V3OU    C9  899   3.298   3.427   2.607
    2V3OU    C7  900   3.406   3.506   2.567
    2V3OU    O9  901   3.387   3.617   2.488
    2V3OU   H25  902   3.291   3.632   2.499
    2V3OU   C17  903   2.828   3.315   2.584
    2V3OU    H7  904   2.725   3.345   2.563
    2V3OU   C18  905   2.848   3.218   2.681
    2V3OU    H8  906   2.773   3.166   2.742
    3SOL     OW  907   2.935   5.035   0.648
    3SOL    HW1  908   2.982   5.086   0.576
    3SOL    HW2  909   2.946   5.083   0.735
    4SOL     OW  910   0.290   6.385   2.458
    4SOL    HW1  911   0.326   6.388   2.365
    4SOL    HW2  912   0.223   6.458   2.471
    5SOL     OW  913   4.147   0.956   2.817
    5SOL    HW1  914   4.049   0.957   2.833
    5SOL    HW2  915   4.185   1.047   2.834
    6SOL     OW  916   4.030   0.844   1.540
    6SOL    HW1  917   3.983   0.868   1.625
    6SOL    HW2  918   3.990   0.896   1.464
    7SOL     OW  919   6.851   3.371   2.373
    7SOL    HW1  920   6.835   3.462   2.411
    7SOL    HW2  921   6.919   3.377   2.300
    8SOL     OW  922   3.176   0.590   0.052
    8SOL    HW1  923   3.138   0.519   7.016
    8SOL    HW2  924   3.212   0.549   0.136
    9SOL     OW  925   5.630   0.068   6.252
    9SOL    HW1  926   5.545   0.118   6.239
    9SOL    HW2  927   5.613   7.011   6.310
   10SOL     OW  928   1.455   5.013   6.378
   10SOL    HW1  929   1.554   5.015   6.383
   10SOL    HW2  930   1.422   4.920   6.398
   11SOL     OW  931   2.866   0.018   6.044
   11SOL    HW1  932   2.805   0.096   6.050
   11SOL    HW2  933   2.816   6.962   6.010
   12SOL     OW  934   3.638   5.928   3.118
   12SOL    HW1  935   3.678   5.840   3.093
   12SOL    HW2  936   3.616   5.928   3.215
   13SOL     OW  937   4.389   6.374   4.159
   13SOL    HW1  938   4.332   6.442   4.112
   13SOL    HW2  939   4.343   6.285   4.157
   14SOL     OW  940   3.443   6.106   5.734
   14SOL    HW1  941   3.435   6.204   5.715
   14SOL    HW2  942   3.537   6.085   5.764
   15SOL     OW  943   1.804   6.234   1.800
   15SOL    HW1  944   1.852   6.262   1.883
   15SOL    HW2  945   1.753   6.311   1.763
   16SOL     OW  946   4.938   2.810   5.805
   16SOL    HW1  947   5.025   2.836   5.764
   16SOL    HW2  948   4.881   2.763   5.736
   17SOL     OW  949   5.108   6.016   5.875
   17SOL    HW1  950   5.158   5.930   5.858
   17SOL    HW2  951   5.140   6.056   5.960
   18SOL     OW  952   3.250   1.284   5.926
   18SOL    HW1  953   3.288   1.332   5.847
   18SOL    HW2  954   3.324   1.237   5.975
   19SOL     OW  955   0.300   1.346   3.295
   19SOL    HW1  956   0.221   1.374   3.240
   19SOL    HW2  957   0.379   1.331   3.235
   20SOL     OW  958   5.422   2.350   4.252
   20SOL    HW1  959   5.518   2.320   4.251
   20SOL    HW2  960   5.396   2.374   4.345
   21SOL     OW  961   3.640   1.733   2.461
   21SOL    HW1  962   3.595   1.817   2.492
   21SOL    HW2  963   3.625   1.723   2.363
   22SOL     OW  964   2.334   6.569   0.380
   22SOL    HW1  965   2.354   6.557   0.477
   22SOL    HW2  966   2.418   6.594   0.332
   23SOL     OW  967   5.321   6.040   3.214
   23SOL    HW1  968   5.248   6.036   3.146
   23SOL    HW2  969   5.398   6.094   3.179
   24SOL     OW  970   4.586   0.591   3.304
   24SOL    HW1  971   4.616   0.686   3.297
   24SOL    HW2  972   4.542   0.576   3.392
   25SOL     OW  973   3.058   0.387   4.813
   25SOL    HW1  974   3.124   0.367   4.741
   25SOL    HW2  975   3.099   0.369   4.903
   26SOL     OW  976   0.264   1.039   0.266
   26SOL    HW1  977   0.302   1.127   0.239
   26SOL    HW2  978   0.332   0.967   0.252
   27SOL     OW  979   0.846   2.478   2.408
   27SOL    HW1  980   0.844   2.555   2.344
   27SOL    HW2  981   0.893   2.506   2.492
   28SOL     OW  982   3.010   2.075   5.583
   28SOL    HW1  983   3.045   2.148   5.523
   28SOL    HW2  984   3.049   2.086   5.674
   29SOL     OW  985   5.902   1.620   1.994
   29SOL    HW1  986   5.980   1.560   2.011
   29SOL    HW2  987   5.901   1.648   1.898
   30SOL     OW  988   4.276   0.847   4.169
   30SOL    HW1  989   4.367   0.807   4.180
   30SOL    HW2  990   4.227   0.844   4.256
   31SOL     OW  991   1.164   2.597   6.670
   31SOL    HW1  992   1.076   2.615   6.714
   31SOL    HW2  993   1.206   2.684   6.643
   32SOL     OW  994   0.437   1.789   2.348
   32SOL    HW1  995   0.436   1.746   2.258
   32SOL    HW2  996   0.517   1.758   2.399
   33SOL     OW  997   1.618   4.427   5.989
   33SOL    HW1  998   1.659   4.353   5.936
   33SOL    HW2  999   1.562   4.484   5.929
   34SOL     OW 1000   2.734   0.252   4.500
   34SOL    HW1 1001   2.764   0.232   4.593
   34SOL    HW2 1002   2.788   0.328   4.463
   35SOL     OW 1003   3.486   3.897   0.062
   35SOL    HW1 1004   3.567   3.847   0.032
   35SOL    HW2 1005   3.510   3.993   0.078
   36SOL     OW 1006   6.027   0.991   4.609
   36SOL    HW1 1007   6.036   0.941   4.523
   36SOL    HW2 1008   5.947   0.957   4.659
   37SOL     OW 1009   1.215   1.784   0.485
   37SOL    HW1 1010   1.187   1.839   0.563
   37SOL    HW2 1011   1.167   1.697   0.486
   38SOL     OW 1012   6.767   4.575   2.393
   38SOL    HW1 1013   6.683   4.624   2.368
   38SOL    HW2 1014   6.842   4.641   2.401
   39SOL     OW 1015   0.046   4.839   6.767
   39SOL    HW1 1016   6.991   4.891   6.801
   39SOL    HW2 1017   0.066   4.764   6.831
   40SOL     OW 1018   5.164   1.666   0.137
   40SOL    HW1 1019   5.204   1.710   0.218
   40SOL    HW2 1020   5.163   1.567   0.150
   41SOL     OW 1021   6.852   5.586   3.418
   41SOL    HW1 1022   6.813   5.507   3.466
   41SOL    HW2 1023   6.809   5.670   3.450
   42SOL     OW 1024   2.589   5.292   5.216
   42SOL    HW1 1025   2.643   5.376   5.225
   42SOL    HW2 1026   2.539   5.277   5.301
   43SOL     OW 1027   6.132   6.781   5.540
   43SOL    HW1 1028   6.231   6.790   5.527
   43SOL    HW2 1029   6.114   6.716   5.614
   44SOL     OW 1030   4.267   1.706   6.086
   44SOL    HW1 1031   4.208   1.722   6.166
   44SOL    HW2 1032   4.319   1.621   6.100
   45SOL     OW 1033   4.232   5.924   2.746
   45SOL    HW1 1034   4.230   6.021   2.771
   45SOL    HW2 1035   4.162   5.875   2.798
   46SOL     OW 1036   0.686   2.876   3.080
   46SOL    HW1 1037   0.671   2.893   2.982
   46SOL    HW2 1038   0.638   2.947   3.133
   47SOL     OW 1039   4.909   4.075   0.701
   47SOL    HW1 1040   4.873   4.127   0.623
   47SOL    HW2 1041   4.975   4.131   0.750
   48SOL     OW 1042   0.106   3.146   5.718
   48SOL    HW1 1043   0.199   3.133   5.681
   48SOL    HW2 1044   0.108   3.136   5.817
   49SOL     OW 1045   4.953   3.827   1.585
   49SOL    HW1 1046   4.932   3.730   1.594
   49SOL    HW2 1047   4.992   3.844   1.495
   50SOL     OW 1048   5.328   0.706   4.850
   50SOL    HW1 1049   5.367   0.622   4.887
   50SOL    HW2 1050   5.358   0.717   4.755
   51SOL     OW 1051   2.222   0.022   3.145
   51SOL    HW1 1052   2.239   0.084   3.068
   51SOL    HW2 1053   2.271   0.054   3.226
   52SOL     OW 1054   5.986   2.738   2.531
   52SOL    HW1 1055   5.996   2.776   2.624
   52SOL    HW2 1056   5.995   2.812   2.464
   53SOL     OW 1057   3.948   6.608   4.354
   53SOL    HW1 1058   3.884   6.599   4.278
   53SOL    HW2 1059   4.034   6.648   4.322
   54SOL     OW 1060   3.513   5.088   0.936
   54SOL    HW1 1061   3.458   5.017   0.979
   54SOL    HW2 1062   3.581   5.121   1.001
   55SOL     OW 1063   2.582   2.537   6.541
   55SOL    HW1 1064   2.579   2.437   6.533
   55SOL    HW2 1065   2.489   2.573   6.537
   56SOL     OW 1066   0.079   6.870   1.065
   56SOL    HW1 1067   0.173   6.839   1.081
   56SOL    HW2 1068   0.077   6.970   1.061
   57SOL     OW 1069   4.973   0.900   1.245
   57SOL    HW1 1070   4.982   0.878   1.148
   57SOL    HW2 1071   5.009   0.825   1.300
   58SOL     OW 1072   0.143   6.344   5.685
   58SOL    HW1 1073   0.096   6.424   5.723
   58SOL    HW2 1074   0.150   6.354   5.586
   59SOL     OW 1075   1.072   1.982   5.305
   59SOL    HW1 1076   1.021   1.988   5.391
   59SOL    HW2 1077   1.069   1.888   5.271
   60SOL     OW 1078   5.241   2.613   5.314
   60SOL    HW1 1079   5.228   2.610   5.215
   60SOL    HW2 1080   5.337   2.630   5.336
   61SOL     OW 1081   5.817   2.162   4.488
   61SOL    HW1 1082   5.788   2.156   4.392
   61SOL    HW2 1083   5.906   2.118   4.499
   62SOL     OW 1084   1.230   1.212   1.836
   62SOL    HW1 1085   1.137   1.245   1.852
   62SOL    HW2 1086   1.279   1.277   1.778
   63SOL     OW 1087   5.229   1.317   3.322
   63SOL    HW1 1088   5.279   1.234   3.299
   63SOL    HW2 1089   5.197   1.361   3.237
   64SOL     OW 1090   0.270   3.550   5.795
   64SOL    HW1 1091   0.343   3.483   5.813
   64SOL    HW2 1092   0.205   3.548   5.871
   65SOL     OW 1093   0.631   4.957   6.365
   65SOL    HW1 1094   0.637   4.858   6.368
   65SOL    HW2 1095   0.560   4.988   6.429
   66SOL     OW 1096   4.076   1.319   5.403
   66SOL    HW1 1097   4.001   1.289   5.343
   66SOL    HW2 1098   4.145   1.367   5.349
   67SOL     OW 1099   5.341   4.135   5.697
   67SOL    HW1 1100   5.371   4.215   5.647
   67SOL    HW2 1101   5.418   4.095   5.747
   68SOL     OW 1102   5.986   0.966   6.698
   68SOL    HW1 1103   5.964   0.951   6.601
   68SOL    HW2 1104   5.915   0.924   6.755
   69SOL     OW 1105   0.693   3.239   5.946
   69SOL    HW1 1106   0.667   3.224   6.042
   69SOL    HW2 1107   0.734   3.330   5.937
   70SOL     OW 1108   5.262   4.140   5.098
   70SOL    HW1 1109   5.338   4.187   5.053
   70SOL    HW2 1110   5.211   4.087   5.030
   71SOL     OW 1111   4.502   1.525   3.211
   71SOL    HW1 1112   4.464   1.445   3.258
   71SOL    HW2 1113   4.444   1.550   3.134
   72SOL     OW 1114   1.863   6.810   4.290
   72SOL    HW1 1115   1.811   6.895   4.298
   72SOL    HW2 1116   1.917   6.796   4.373
   73SOL     OW 1117   3.626   0.270   1.365
   73SOL    HW1 1118   3.686   0.268   1.444
   73SOL    HW2 1119   3.669   0.323   1.291
   74SOL     OW 1120   4.439   6.764   0.054
   74SOL    HW1 1121   4.412   6.817   6.997
   74SOL    HW2 1122   4.510   6.698   0.028
   75SOL     OW 1123   4.843   0.346   1.039
   75SOL    HW1 1124   4.906   0.277   1.004
   75SOL    HW2 1125   4.755   0.304   1.059
   76SOL     OW 1126   3.336   3.530   1.357
   76SOL    HW1 1127   3.430   3.547   1.385
   76SOL    HW2 1128   3.304   3.444   1.396
   77SOL     OW 1129   0.165   6.962   3.110
   77SOL    HW1 1130   0.241   0.003   3.124
   77SOL    HW2 1131   0.080   7.014   3.098
   78SOL     OW 1132   6.138   1.790   6.957
   78SOL    HW1 1133   6.063   1.845   6.922
   78SOL    HW2 1134   6.147   1.804   0.033
   79SOL     OW 1135   3.039   5.838   0.793
   79SOL    HW1 1136   3.059   5.760   0.852
   79SOL    HW2 1137   2.945   5.868   0.808
   80SOL     OW 1138   5.265   1.445   4.498
   80SOL    HW1 1139   5.286   1.479   4.407
   80SOL    HW2 1140   5.255   1.345   4.495
   81SOL     OW 1141   2.009   0.346   2.557
   81SOL    HW1 1142   1.939   0.291   2.512
   81SOL    HW2 1143   2.005   0.440   2.522
   82SOL     OW 1144   6.065   4.602   0.996
   82SOL    HW1 1145   6.072   4.544   1.078
   82SOL    HW2 1146   6.156   4.630   0.967
   83SOL     OW 1147   0.480   0.636   0.502
   83SOL    HW1 1148   0.575   0.622   0.477
   83SOL    HW2 1149   0.441   0.708   0.445
   84SOL     OW 1150   5.808   3.142   3.186
   84SOL    HW1 1151   5.740   3.197   3.237
   84SOL    HW2 1152   5.783   3.046   3.191
   85SOL     OW 1153   1.813   0.953   3.890
   85SOL    HW1 1154   1.800   0.974   3.793
   85SOL    HW2 1155   1.725   0.943   3.934
   86SOL     OW 1156   0.113   1.276   5.527
   86SOL    HW1 1157   0.038   1.227   5.570
   86SOL    HW2 1158   0.090   1.373   5.519
   87SOL     OW 1159   4.672   3.793   0.999
   87SOL    HW1 1160   4.722   3.743   0.928
   87SOL    HW2 1161   4.621   3.728   1.055
   88SOL     OW 1162   3.601   1.731   5.466
   88SOL    HW1 1163   3.646   1.818   5.442
   88SOL    HW2 1164   3.516   1.723   5.413
   89SOL     OW 1165   1.659   2.849   5.761
   89SOL    HW1 1166   1.591   2.808   5.822
   89SOL    HW2 1167   1.740   2.791   5.756
   90SOL     OW 1168   3.409   5.052   2.512
   90SOL    HW1 1169   3.426   5.150   2.512
   90SOL    HW2 1170   3.459   5.009   2.437
   91SOL     OW 1171   5.675   4.154   5.414
   91SOL    HW1 1172   5.752   4.199   5.369
   91SOL    HW2 1173   5.707   4.110   5.498
   92SOL     OW 1174   4.483   4.873   0.781
   92SOL    HW1 1175   4.398   4.889   0.730
   92SOL    HW2 1176   4.470   4.794   0.841
   93SOL     OW 1177   3.157   4.269   0.494
   93SOL    HW1 1178   3.143   4.172   0.476
   93SOL    HW2 1179   3.144   4.321   0.410
   94SOL     OW 1180   2.126   5.935   6.434
   94SOL    HW1 1181   2.079   5.916   6.521
   94SOL    HW2 1182   2.082   6.013   6.389
   95SOL     OW 1183   0.915   0.745   3.890
   95SOL    HW1 1184   0.942   0.695   3.808
   95SOL    HW2 1185   0.861   0.825   3.863
   96SOL     OW 1186   2.958   0.768   4.949
   96SOL    HW1 1187   3.040   0.722   4.984
   96SOL    HW2 1188   2.927   0.723   4.866
   97SOL     OW 1189   2.332   3.447   6.077
   97SOL    HW1 1190   2.278   3.465   5.994
   97SOL    HW2 1191   2.418   3.403   6.052
   98SOL     OW 1192   0.407   3.667   0.916
   98SOL    HW1 1193   0.456   3.753   0.925
   98SOL    HW2 1194   0.449   3.611   0.845
   99SOL     OW 1195   3.743   3.052   1.259
   99SOL    HW1 1196   3.803   3.117   1.212
   99SOL    HW2 1197   3.797   2.996   1.322
  100SOL     OW 1198   0.223   6.909   4.932
  100SOL    HW1 1199   0.317   6.876   4.936
  100SOL    HW2 1200   0.198   6.950   5.019
  101SOL     OW 1201   1.555   5.314   2.296
  101SOL    HW1 1202   1.595   5.298   2.386
  101SOL    HW2 1203   1.597   5.252   2.229
  102SOL     OW 1204   4.268   5.753   1.784
  102SOL    HW1 1205   4.269   5.679   1.717
  102SOL    HW2 1206   4.228   5.835   1.743
  103SOL     OW 1207   2.082   1.954   1.751
  103SOL    HW1 1208   2.180   1.969   1.764
  103SOL    HW2 1209   2.058   1.968   1.655
  104SOL     OW 1210   1.116   5.384   2.589
  104SOL    HW1 1211   1.106   5.406   2.492
  104SOL    HW2 1212   1.082   5.291   2.605
  105SOL     OW 1213   6.743   2.178   6.753
  105SOL    HW1 1214   6.722   2.147   6.660
  105SOL    HW2 1215   6.681   2.134   6.817
  106SOL     OW 1216   3.653   5.912   4.804
  106SOL    HW1 1217   3.653   5.836   4.739
  106SOL    HW2 1218   3.562   5.921   4.844
  107SOL     OW 1219   1.263   0.994   1.260
  107SOL    HW1 1220   1.314   1.078   1.243
  107SOL    HW2 1221   1.248   0.946   1.173
  108SOL     OW 1222   2.287   6.496   5.494
  108SOL    HW1 1223   2.245   6.405   5.487
  108SOL    HW2 1224   2.220   6.565   5.467
  109SOL     OW 1225   0.696   0.403   2.050
  109SOL    HW1 1226   0.724   0.310   2.025
  109SOL    HW2 1227   0.627   0.399   2.122
  110SOL     OW 1228   3.031   5.994   4.215
  110SOL    HW1 1229   2.964   6.065   4.237
  110SOL    HW2 1230   2.996   5.906   4.246
  111SOL     OW 1231   1.754   0.982   4.264
  111SOL    HW1 1232   1.841   0.932   4.263
  111SOL    HW2 1233   1.772   1.081   4.261
  112SOL     OW 1234   3.613   6.400   6.524
  112SOL    HW1 1235   3.610   6.500   6.522
  112SOL    HW2 1236   3.686   6.370   6.587
  113SOL     OW 1237   0.437   5.192   3.063
  113SOL    HW1 1238   0.449   5.096   3.039
  113SOL    HW2 1239   0.460   5.205   3.160
  114SOL     OW 1240   0.954   6.977   2.308
  114SOL    HW1 1241   0.937   6.910   2.381
  114SOL    HW2 1242   1.038   0.004   2.328
  115SOL     OW 1243   4.822   1.385   3.011
  115SOL    HW1 1244   4.737   1.421   3.049
  115SOL    HW2 1245   4.879   1.461   2.979
  116SOL     OW 1246   6.029   5.326   2.310
  116SOL    HW1 1247   6.010   5.252   2.374
  116SOL    HW2 1248   5.961   5.398   2.322
  117SOL     OW 1249   1.601   2.287   0.403
  117SOL    HW1 1250   1.699   2.276   0.422
  117SOL    HW2 1251   1.552   2.205   0.433
  118SOL     OW 1252   1.732   1.014   2.680
  118SOL    HW1 1253   1.670   1.078   2.724
  118SOL    HW2 1254   1.826   1.046   2.690
  119SOL     OW 1255   0.388   0.527   0.142
  119SOL    HW1 1256   0.381   0.540   0.043
  119SOL    HW2 1257   0.438   0.442   0.161
  120SOL     OW 1258   5.433   0.229   6.762
  120SOL    HW1 1259   5.451   0.322   6.796
  120SOL    HW2 1260   5.506   0.204   6.698
  121SOL     OW 1261   1.003   3.318   6.011
  121SOL    HW1 1262   0.989   3.343   5.915
  121SOL    HW2 1263   1.086   3.262   6.019
  122SOL     OW 1264   1.889   3.903   6.028
  122SOL    HW1 1265   1.851   3.906   5.935
  122SOL    HW2 1266   1.989   3.900   6.022
  123SOL     OW 1267   0.318   1.295   2.495
  123SOL    HW1 1268   0.237   1.337   2.455
  123SOL    HW2 1269   0.333   1.332   2.587
  124SOL     OW 1270   3.721   2.884   0.483
  124SOL    HW1 1271   3.689   2.790   0.467
  124SOL    HW2 1272   3.819   2.888   0.464
  125SOL     OW 1273   3.470   1.934   0.605
  125SOL    HW1 1274   3.522   2.019   0.597
  125SOL    HW2 1275   3.495   1.888   0.690
  126SOL     OW 1276   2.158   4.125   0.450
  126SOL    HW1 1277   2.138   4.217   0.418
  126SOL    HW2 1278   2.253   4.101   0.428
  127SOL     OW 1279   0.708   4.917   6.774
  127SOL    HW1 1280   0.771   4.985   6.811
  127SOL    HW2 1281   0.614   4.941   6.801
  128SOL     OW 1282   5.231   2.220   1.503
  128SOL    HW1 1283   5.259   2.184   1.414
  128SOL    HW2 1284   5.290   2.181   1.574
  129SOL     OW 1285   2.622   3.531   6.213
  129SOL    HW1 1286   2.531   3.570   6.230
  129SOL    HW2 1287   2.677   3.598   6.163
  130SOL     OW 1288   1.437   1.671   4.577
  130SOL    HW1 1289   1.417   1.699   4.483
  130SOL    HW2 1290   1.400   1.738   4.641
  131SOL     OW 1291   4.527   1.159   3.029
  131SOL    HW1 1292   4.567   1.214   3.102
  131SOL    HW2 1293   4.533   1.062   3.053
  132SOL     OW 1294   3.057   3.071   1.743
  132SOL    HW1 1295   3.134   3.088   1.804
  132SOL    HW2 1296   3.088   3.074   1.648
  133SOL     OW 1297   5.457   0.503   4.301
  133SOL    HW1 1298   5.357   0.514   4.298
  133SOL    HW2 1299   5.485   0.437   4.231
  134SOL     OW 1300   6.655   0.752   2.704
  134SOL    HW1 1301   6.660   0.661   2.663
  134SOL    HW2 1302   6.732   0.807   2.671
  135SOL     OW 1303   5.592   3.454   3.557
  135SOL    HW1 1304   5.647   3.505   3.491
  135SOL    HW2 1305   5.566   3.515   3.633
  136SOL     OW 1306   1.776   4.788   5.923
  136SOL    HW1 1307   1.833   4.837   5.857
  136SOL    HW2 1308   1.817   4.699   5.942
  137SOL     OW 1309   5.784   2.311   3.188
  137SOL    HW1 1310   5.723   2.246   3.142
  137SOL    HW2 1311   5.776   2.300   3.287
  138SOL     OW 1312   1.347   4.555   2.519
  138SOL    HW1 1313   1.391   4.501   2.448
  138SOL    HW2 1314   1.416   4.593   2.580
  139SOL     OW 1315   1.520   0.220   5.446
  139SOL    HW1 1316   1.461   0.170   5.382
  139SOL    HW2 1317   1.536   0.312   5.410
  140SOL     OW 1318   1.188   6.506   3.892
  140SOL    HW1 1319   1.198   6.587   3.950
  140SOL    HW2 1320   1.276   6.459   3.883
  141SOL     OW 1321   0.215   2.604   5.153
  141SOL    HW1 1322   0.144   2.592   5.223
  141SOL    HW2 1323   0.291   2.655   5.191
  142SOL     OW 1324   1.321   3.672   1.069
  142SOL    HW1 1325   1.301   3.696   0.974
  142SOL    HW2 1326   1.420   3.662   1.081
  143SOL     OW 1327   5.564   4.260   0.362
  143SOL    HW1 1328   5.628   4.291   0.433
  143SOL    HW2 1329   5.615   4.246   0.277
  144SOL     OW 1330   1.515   4.800   6.028
  144SOL    HW1 1331   1.487   4.895   6.040
  144SOL    HW2 1332   1.601   4.797   5.978
  145SOL     OW 1333   0.521   5.658   0.583
  145SOL    HW1 1334   0.548   5.598   0.507
  145SOL    HW2 1335   0.565   5.626   0.667
  146SOL     OW 1336   4.797   0.754   6.039
  146SOL    HW1 1337   4.783   0.732   6.136
  146SOL    HW2 1338   4.718   0.804   6.005
  147SOL     OW 1339   5.692   3.196   6.599
  147SOL    HW1 1340   5.608   3.250   6.589
  147SOL    HW2 1341   5.669   3.101   6.621
  148SOL     OW 1342   6.754   5.381   1.087
  148SOL    HW1 1343   6.723   5.476   1.084
  148SOL    HW2 1344   6.681   5.323   1.122
  149SOL     OW 1345   4.050   1.884   4.011
  149SOL    HW1 1346   3.958   1.895   4.048
  149SOL    HW2 1347   4.112   1.858   4.085
  150SOL     OW 1348   6.110   6.772   0.931
  150SOL    HW1 1349   6.117   6.836   1.007
  150SOL    HW2 1350   6.169   6.803   0.855
  151SOL     OW 1351   2.906   2.448   1.113
  151SOL    HW1 1352   2.955   2.513   1.172
  151SOL    HW2 1353   2.971   2.401   1.053
  152SOL     OW 1354   0.427   0.536   1.630
  152SOL    HW1 1355   0.470   0.469   1.691
  152SOL    HW2 1356   0.328   0.525   1.634
  153SOL     OW 1357   2.733   0.877   3.187
  153SOL    HW1 1358   2.657   0.941   3.178
  153SOL    HW2 1359   2.701   0.792   3.229
  154SOL     OW 1360   0.686   3.141   2.056
  154SOL    HW1 1361   0.674   3.042   2.068
  154SOL    HW2 1362   0.696   3.162   1.959
  155SOL     OW 1363   0.422   1.430   4.343
  155SOL    HW1 1364   0.498   1.389   4.393
  155SOL    HW2 1365   0.412   1.526   4.368
  156SOL     OW 1366   0.088   0.841   0.744
  156SOL    HW1 1367   0.010   0.870   0.688
  156SOL    HW2 1368   0.059   0.828   0.838
  157SOL     OW 1369   5.368   3.213   1.971
  157SOL    HW1 1370   5.318   3.131   1.945
  157SOL    HW2 1371   5.460   3.189   2.002
  158SOL     OW 1372   1.929   4.214   2.654
  158SOL    HW1 1373   1.987   4.243   2.730
  158SOL    HW2 1374   1.978   4.225   2.568
  159SOL     OW 1375   4.985   3.903   2.669
  159SOL    HW1 1376   4.897   3.912   2.714
  159SOL    HW2 1377   5.009   3.988   2.622
  160SOL     OW 1378   5.137   5.952   0.928
  160SOL    HW1 1379   5.173   5.865   0.961
  160SOL    HW2 1380   5.201   6.025   0.952
  161SOL     OW 1381   2.024   6.211   3.754
  161SOL    HW1 1382   1.988   6.125   3.790
  161SOL    HW2 1383   2.007   6.284   3.820
  162SOL     OW 1384   3.491   6.326   0.423
  162SOL    HW1 1385   3.530   6.366   0.506
  162SOL    HW2 1386   3.511   6.228   0.420
  163SOL     OW 1387   5.802   5.773   1.160
  163SOL    HW1 1388   5.803   5.703   1.089
  163SOL    HW2 1389   5.893   5.780   1.201
  164SOL     OW 1390   6.963   3.957   2.183
  164SOL    HW1 1391   0.006   4.001   2.122
  164SOL    HW2 1392   6.949   4.014   2.264
  165SOL     OW 1393   5.161   3.307   1.178
  165SOL    HW1 1394   5.063   3.316   1.197
  165SOL    HW2 1395   5.205   3.261   1.255
  166SOL     OW 1396   1.002   3.873   2.650
  166SOL    HW1 1397   0.942   3.941   2.606
  166SOL    HW2 1398   1.089   3.869   2.600
  167SOL     OW 1399   5.081   2.988   6.971
  167SOL    HW1 1400   5.048   2.971   0.041
  167SOL    HW2 1401   5.084   3.087   6.955
  168SOL     OW 1402   2.980   3.333   1.467
  168SOL    HW1 1403   3.030   3.249   1.485
  168SOL    HW2 1404   2.892   3.311   1.425
  169SOL     OW 1405   5.464   2.188   1.765
  169SOL    HW1 1406   5.426   2.116   1.822
  169SOL    HW2 1407   5.514   2.253   1.822
  170SOL     OW 1408   0.765   0.295   2.867
  170SOL    HW1 1409   0.686   0.349   2.836
  170SOL    HW2 1410   0.849   0.344   2.844
  171SOL     OW 1411   3.141   4.603   6.756
  171SOL    HW1 1412   3.132   4.605   6.856
  171SOL    HW2 1413   3.083   4.531   6.718
  172SOL     OW 1414   6.362   1.337   2.926
  172SOL    HW1 1415   6.323   1.368   2.839
  172SOL    HW2 1416   6.451   1.379   2.940
  173SOL     OW 1417   6.313   1.396   4.007
  173SOL    HW1 1418   6.279   1.452   3.931
  173SOL    HW2 1419   6.409   1.417   4.023
  174SOL     OW 1420   4.007   5.563   3.689
  174SOL    HW1 1421   3.965   5.654   3.687
  174SOL    HW2 1422   4.050   5.544   3.601
  175SOL     OW 1423   3.348   0.193   1.790
  175SOL    HW1 1424   3.417   0.262   1.810
  175SOL    HW2 1425   3.316   0.204   1.695
  176SOL     OW 1426   6.734   4.306   0.851
  176SOL    HW1 1427   6.793   4.385   0.835
  176SOL    HW2 1428   6.778   4.244   0.916
  177SOL     OW 1429   5.347   2.561   2.748
  177SOL    HW1 1430   5.290   2.639   2.720
  177SOL    HW2 1431   5.439   2.594   2.767
  178SOL     OW 1432   2.342   3.557   6.546
  178SOL    HW1 1433   2.342   3.654   6.525
  178SOL    HW2 1434   2.295   3.507   6.473
  179SOL     OW 1435   4.164   1.691   5.414
  179SOL    HW1 1436   4.084   1.752   5.419
  179SOL    HW2 1437   4.170   1.651   5.323
  180SOL     OW 1438   2.086   6.807   0.090
  180SOL    HW1 1439   2.012   6.869   0.115
  180SOL    HW2 1440   2.169   6.830   0.142
  181SOL     OW 1441   3.274   3.388   6.095
  181SOL    HW1 1442   3.226   3.378   6.008
  181SOL    HW2 1443   3.242   3.317   6.159
  182SOL     OW 1444   3.550   1.866   5.206
  182SOL    HW1 1445   3.469   1.810   5.224
  182SOL    HW2 1446   3.539   1.913   5.118
  183SOL     OW 1447   3.887   2.101   3.012
  183SOL    HW1 1448   3.912   2.004   3.022
  183SOL    HW2 1449   3.964   2.158   3.042
  184SOL     OW 1450   0.637   6.793   4.579
  184SOL    HW1 1451   0.663   6.795   4.675
  184SOL    HW2 1452   0.555   6.736   4.567
  185SOL     OW 1453   0.984   1.527   6.139
  185SOL    HW1 1454   0.898   1.490   6.102
  185SOL    HW2 1455   1.050   1.453   6.150
  186SOL     OW 1456   5.702   0.574   4.387
  186SOL    HW1 1457   5.613   0.560   4.345
  186SOL    HW2 1458   5.774   0.561   4.319
  187SOL     OW 1459   4.728   6.984   2.330
  187SOL    HW1 1460   4.804   6.967   2.394
  187SOL    HW2 1461   4.754   6.951   2.239
  188SOL     OW 1462   0.808   2.519   3.329
  188SOL    HW1 1463   0.851   2.437   3.366
  188SOL    HW2 1464   0.753   2.564   3.400
  189SOL     OW 1465   2.448   5.116   1.658
  189SOL    HW1 1466   2.357   5.129   1.696
  189SOL    HW2 1467   2.485   5.028   1.688
  190SOL     OW 1468   4.914   2.630   5.156
  190SOL    HW1 1469   5.004   2.630   5.113
  190SOL    HW2 1470   4.843   2.616   5.087
  191SOL     OW 1471   5.845   0.107   6.837
  191SOL    HW1 1472   5.807   0.183   6.783
  191SOL    HW2 1473   5.807   0.021   6.804
  192SOL     OW 1474   1.059   5.641   1.829
  192SOL    HW1 1475   1.084   5.737   1.840
  192SOL    HW2 1476   0.959   5.633   1.827
  193SOL     OW 1477   4.461   3.672   5.342
  193SOL    HW1 1478   4.410   3.742   5.291
  193SOL    HW2 1479   4.526   3.628   5.280
  194SOL     OW 1480   4.240   1.182   2.911
  194SOL    HW1 1481   4.315   1.247   2.900
  194SOL    HW2 1482   4.245   1.139   3.001
  195SOL     OW 1483   1.935   0.340   4.557
  195SOL    HW1 1484   1.841   0.345   4.592
  195SOL    HW2 1485   1.973   0.433   4.553
  196SOL     OW 1486   2.343   0.555   0.647
  196SOL    HW1 1487   2.288   0.472   0.659
  196SOL    HW2 1488   2.284   0.629   0.614
  197SOL     OW 1489   2.723   0.050   1.599
  197SOL    HW1 1490   2.626   0.029   1.612
  197SOL    HW2 1491   2.732   0.128   1.537
  198SOL     OW 1492   5.471   0.418   1.604
  198SOL    HW1 1493   5.477   0.427   1.703
  198SOL    HW2 1494   5.385   0.374   1.580
  199SOL     OW 1495   0.182   1.452   4.004
  199SOL    HW1 1496   0.261   1.485   3.953
  199SOL    HW2 1497   0.211   1.382   4.069
  200SOL     OW 1498   0.688   4.261   1.573
  200SOL    HW1 1499   0.763   4.327   1.574
  200SOL    HW2 1500   0.694   4.206   1.489
  201SOL     OW 1501   6.632   6.879   5.745
  201SOL    HW1 1502   6.582   6.895   5.660
  201SOL    HW2 1503   6.601   6.792   5.785
  202SOL     OW 1504   4.470   1.059   6.863
  202SOL    HW1 1505   4.510   1.114   6.936
  202SOL    HW2 1506   4.416   1.117   6.802
  203SOL     OW 1507   5.280   2.441   4.520
  203SOL    HW1 1508   5.321   2.383   4.591
  203SOL    HW2 1509   5.322   2.531   4.522
  204SOL     OW 1510   0.887   0.945   5.785
  204SOL    HW1 1511   0.796   0.932   5.825
  204SOL    HW2 1512   0.955   0.901   5.842
  205SOL     OW 1513   0.594   1.480   2.836
  205SOL    HW1 1514   0.686   1.518   2.830
  205SOL    HW2 1515   0.585   1.425   2.919
  206SOL     OW 1516   6.933   4.339   1.226
  206SOL    HW1 1517   6.875   4.319   1.305
  206SOL    HW2 1518   6.898   4.291   1.146
  207SOL     OW 1519   5.847   1.925   3.356
  207SOL    HW1 1520   5.907   1.883   3.424
  207SOL    HW2 1521   5.847   2.024   3.368
  208SOL     OW 1522   5.833   2.849   5.132
  208SOL    HW1 1523   5.858   2.767   5.080
  208SOL    HW2 1524   5.822   2.926   5.069
  209SOL     OW 1525   0.403   4.573   3.883
  209SOL    HW1 1526   0.408   4.642   3.811
  209SOL    HW2 1527   0.486   4.518   3.883
  210SOL     OW 1528   4.182   2.072   1.010
  210SOL    HW1 1529   4.160   1.976   0.991
  210SOL    HW2 1530   4.124   2.131   0.953
  211SOL     OW 1531   2.350   6.102   2.793
  211SOL    HW1 1532   2.305   6.051   2.720
  211SOL    HW2 1533   2.433   6.146   2.758
  212SOL     OW 1534   1.292   4.079   1.706
  212SOL    HW1 1535   1.310   4.004   1.643
  212SOL    HW2 1536   1.279   4.043   1.798
  213SOL     OW 1537   3.433   0.734   0.455
  213SOL    HW1 1538   3.447   0.833   0.449
  213SOL    HW2 1539   3.512   0.687   0.414
  214SOL     OW 1540   4.902   5.081   1.494
  214SOL    HW1 1541   4.918   5.012   1.423
  214SOL    HW2 1542   4.842   5.153   1.459
  215SOL     OW 1543   2.472   3.579   0.639
  215SOL    HW1 1544   2.496   3.616   0.729
  215SOL    HW2 1545   2.414   3.499   0.649
  216SOL     OW 1546   2.289   5.866   3.679
  216SOL    HW1 1547   2.230   5.795   3.718
  216SOL    HW2 1548   2.373   5.872   3.733
  217SOL     OW 1549   0.996   2.135   3.813
  217SOL    HW1 1550   0.950   2.221   3.793
  217SOL    HW2 1551   0.931   2.069   3.849
  218SOL     OW 1552   0.216   4.010   4.327
  218SOL    HW1 1553   0.233   4.107   4.339
  218SOL    HW2 1554   0.267   3.976   4.248
  219SOL     OW 1555   4.540   0.275   6.476
  219SOL    HW1 1556   4.572   0.189   6.517
  219SOL    HW2 1557   4.544   0.348   6.543
  220SOL     OW 1558   2.683   0.083   1.166
  220SOL    HW1 1559   2.773   0.117   1.136
  220SOL    HW2 1560   2.622   0.078   1.087
  221SOL     OW 1561   6.539   3.077   1.319
  221SOL    HW1 1562   6.551   2.989   1.272
  221SOL    HW2 1563   6.625   3.128   1.315
  222SOL     OW 1564   2.181   5.393   5.685
  222SOL    HW1 1565   2.085   5.367   5.685
  222SOL    HW2 1566   2.215   5.397   5.591
  223SOL     OW 1567   6.026   2.722   6.943
  223SOL    HW1 1568   5.974   2.783   6.883
  223SOL    HW2 1569   5.966   2.685   7.014
  224SOL     OW 1570   1.748   1.627   4.725
  224SOL    HW1 1571   1.731   1.658   4.631
  224SOL    HW2 1572   1.836   1.581   4.729
  225SOL     OW 1573   4.411   3.443   6.221
  225SOL    HW1 1574   4.449   3.516   6.165
  225SOL    HW2 1575   4.377   3.481   6.307
  226SOL     OW 1576   1.745   0.842   6.004
  226SOL    HW1 1577   1.702   0.876   6.087
  226SOL    HW2 1578   1.795   0.917   5.959
  227SOL     OW 1579   1.881   3.520   2.474
  227SOL    HW1 1580   1.872   3.583   2.397
  227SOL    HW2 1581   1.842   3.431   2.449
  228SOL     OW 1582   3.184   6.246   4.007
  228SOL    HW1 1583   3.229   6.267   3.920
  228SOL    HW2 1584   3.157   6.150   4.008
  229SOL     OW 1585   5.703   5.957   6.825
  229SOL    HW1 1586   5.648   5.894   6.770
  229SOL    HW2 1587   5.665   5.962   6.918
  230SOL     OW 1588   3.386   5.211   3.509
  230SOL    HW1 1589   3.290   5.235   3.493
  230SOL    HW2 1590   3.416   5.247   3.597
  231SOL     OW 1591   6.246   1.864   6.029
  231SOL    HW1 1592   6.174   1.901   5.971
  231SOL    HW2 1593   6.273   1.773   5.995
  232SOL     OW 1594   1.054   3.072   6.771
  232SOL    HW1 1595   1.113   3.015   6.714
  232SOL    HW2 1596   0.978   3.106   6.716
  233SOL     OW 1597   2.805   1.682   3.618
  233SOL    HW1 1598   2.873   1.688   3.544
  233SOL    HW2 1599   2.723   1.731   3.591
  234SOL     OW 1600   5.307   0.273   5.443
  234SOL    HW1 1601   5.247   0.303   5.517
  234SOL    HW2 1602   5.296   0.333   5.364
  235SOL     OW 1603   3.715   2.694   1.479
  235SOL    HW1 1604   3.750   2.637   1.553
  235SOL    HW2 1605   3.780   2.768   1.461
  236SOL     OW 1606   5.060   3.542   6.591
  236SOL    HW1 1607   5.133   3.599   6.628
  236SOL    HW2 1608   5.099   3.476   6.526
  237SOL     OW 1609   5.623   4.327   2.071
  237SOL    HW1 1610   5.529   4.319   2.102
  237SOL    HW2 1611   5.674   4.246   2.099
  238SOL     OW 1612   4.721   2.497   0.509
  238SOL    HW1 1613   4.781   2.417   0.507
  238SOL    HW2 1614   4.710   2.528   0.603
  239SOL     OW 1615   1.020   5.826   6.321
  239SOL    HW1 1616   0.931   5.867   6.298
  239SOL    HW2 1617   1.077   5.822   6.239
  240SOL     OW 1618   0.386   2.626   3.132
  240SOL    HW1 1619   0.434   2.613   3.045
  240SOL    HW2 1620   0.297   2.582   3.127
  241SOL     OW 1621   2.239   0.785   5.026
  241SOL    HW1 1622   2.290   0.702   5.003
  241SOL    HW2 1623   2.244   0.802   5.124
  242SOL     OW 1624   3.324   2.901   4.868
  242SOL    HW1 1625   3.357   2.808   4.850
  242SOL    HW2 1626   3.280   2.904   4.957
  243SOL     OW 1627   3.948   0.715   5.579
  243SOL    HW1 1628   3.959   0.768   5.663
  243SOL    HW2 1629   3.995   0.761   5.503
  244SOL     OW 1630   5.674   2.737   4.772
  244SOL    HW1 1631   5.751   2.759   4.713
  244SOL    HW2 1632   5.707   2.719   4.865
  245SOL     OW 1633   6.354   4.345   3.630
  245SOL    HW1 1634   6.449   4.371   3.615
  245SOL    HW2 1635   6.345   4.246   3.626
  246SOL     OW 1636   4.656   2.627   3.435
  246SOL    HW1 1637   4.634   2.643   3.531
  246SOL    HW2 1638   4.652   2.713   3.385
  247SOL     OW 1639   3.066   1.924   1.302
  247SOL    HW1 1640   3.040   1.875   1.219
  247SOL    HW2 1641   2.993   1.986   1.329
  248SOL     OW 1642   3.297   1.877   2.838
  248SOL    HW1 1643   3.306   1.976   2.831
  248SOL    HW2 1644   3.202   1.854   2.857
  249SOL     OW 1645   4.307   0.207   5.280
  249SOL    HW1 1646   4.329   0.217   5.182
  249SOL    HW2 1647   4.382   0.246   5.334
  250SOL     OW 1648   5.132   2.664   0.951
  250SOL    HW1 1649   5.033   2.672   0.941
  250SOL    HW2 1650   5.160   2.570   0.935
  251SOL     OW 1651   4.664   4.307   6.002
  251SOL    HW1 1652   4.713   4.231   5.959
  251SOL    HW2 1653   4.587   4.334   5.943
  252SOL     OW 1654   6.362   6.077   0.353
  252SOL    HW1 1655   6.407   6.166   0.359
  252SOL    HW2 1656   6.382   6.036   0.264
  253SOL     OW 1657   2.981   5.420   0.066
  253SOL    HW1 1658   3.060   5.464   0.107
  253SOL    HW2 1659   2.900   5.477   0.080
  254SOL     OW 1660   5.128   3.017   3.495
  254SOL    HW1 1661   5.158   2.958   3.571
  254SOL    HW2 1662   5.116   2.961   3.413
  255SOL     OW 1663   1.725   3.353   4.575
  255SOL    HW1 1664   1.777   3.365   4.660
  255SOL    HW2 1665   1.672   3.269   4.579
  256SOL     OW 1666   6.481   3.949   6.045
  256SOL    HW1 1667   6.525   3.953   6.135
  256SOL    HW2 1668   6.486   4.039   6.002
  257SOL     OW 1669   5.071   6.786   3.525
  257SOL    HW1 1670   5.039   6.870   3.481
  257SOL    HW2 1671   5.023   6.708   3.485
  258SOL     OW 1672   1.815   4.976   4.649
  258SOL    HW1 1673   1.775   4.986   4.557
  258SOL    HW2 1674   1.837   5.066   4.685
  259SOL     OW 1675   0.938   1.828   1.754
  259SOL    HW1 1676   1.018   1.872   1.796
  259SOL    HW2 1677   0.926   1.862   1.661
  260SOL     OW 1678   4.478   1.198   1.168
  260SOL    HW1 1679   4.400   1.145   1.202
  260SOL    HW2 1680   4.528   1.238   1.245
  261SOL     OW 1681   6.441   3.682   0.611
  261SOL    HW1 1682   6.504   3.644   0.543
  261SOL    HW2 1683   6.430   3.616   0.686
  262SOL     OW 1684   6.670   4.079   0.710
  262SOL    HW1 1685   6.640   4.174   0.709
  262SOL    HW2 1686   6.764   4.073   0.679
  263SOL     OW 1687   1.063   0.966   3.635
  263SOL    HW1 1688   1.095   1.046   3.584
  263SOL    HW2 1689   1.115   0.958   3.720
  264SOL     OW 1690   5.364   3.401   6.810
  264SOL    HW1 1691   5.384   3.486   6.763
  264SOL    HW2 1692   5.392   3.409   6.906
  265SOL     OW 1693   4.738   5.207   2.657
  265SOL    HW1 1694   4.721   5.144   2.581
  265SOL    HW2 1695   4.791   5.161   2.728
  266SOL     OW 1696   2.750   2.866   5.623
  266SOL    HW1 1697   2.840   2.896   5.655
  266SOL    HW2 1698   2.691   2.945   5.611
  267SOL     OW 1699   0.399   1.863   6.625
  267SOL    HW1 1700   0.361   1.924   6.555
  267SOL    HW2 1701   0.468   1.805   6.584
  268SOL     OW 1702   3.512   0.542   5.562
  268SOL    HW1 1703   3.565   0.563   5.480
  268SOL    HW2 1704   3.433   0.603   5.567
  269SOL     OW 1705   0.945   3.716   1.820
  269SOL    HW1 1706   0.896   3.801   1.801
  269SOL    HW2 1707   0.913   3.644   1.758
  270SOL     OW 1708   0.156   0.358   6.978
  270SOL    HW1 1709   0.090   0.433   6.985
  270SOL    HW2 1710   0.180   0.326   0.046
  271SOL     OW 1711   1.263   1.628   0.039
  271SOL    HW1 1712   1.356   1.656   0.015
  271SOL    HW2 1713   1.265   1.534   0.073
  272SOL     OW 1714   3.384   5.189   4.164
  272SOL    HW1 1715   3.391   5.273   4.109
  272SOL    HW2 1716   3.289   5.178   4.196
  273SOL     OW 1717   1.857   4.066   4.835
  273SOL    HW1 1718   1.950   4.031   4.830
  273SOL    HW2 1719   1.859   4.166   4.823
  274SOL     OW 1720   4.290   1.640   2.677
  274SOL    HW1 1721   4.334   1.699   2.609
  274SOL    HW2 1722   4.232   1.696   2.737
  275SOL     OW 1723   5.899   4.974   5.361
  275SOL    HW1 1724   5.860   5.064   5.343
  275SOL    HW2 1725   5.997   4.983   5.376
  276SOL     OW 1726   0.100   5.923   2.458
  276SOL    HW1 1727   0.070   5.917   2.554
  276SOL    HW2 1728   0.096   5.832   2.417
  277SOL     OW 1729   1.444   3.633   0.792
  277SOL    HW1 1730   1.473   3.727   0.772
  277SOL    HW2 1731   1.365   3.610   0.735
  278SOL     OW 1732   6.104   5.258   1.758
  278SOL    HW1 1733   6.028   5.323   1.753
  278SOL    HW2 1734   6.137   5.237   1.666
  279SOL     OW 1735   6.186   2.866   4.657
  279SOL    HW1 1736   6.229   2.777   4.643
  279SOL    HW2 1737   6.156   2.903   4.570
  280SOL     OW 1738   2.894   0.190   3.094
  280SOL    HW1 1739   2.946   0.275   3.093
  280SOL    HW2 1740   2.883   0.160   3.189
  281SOL     OW 1741   3.097   4.857   2.437
  281SOL    HW1 1742   3.127   4.945   2.400
  281SOL    HW2 1743   3.060   4.801   2.363
  282SOL     OW 1744   3.367   1.671   5.326
  282SOL    HW1 1745   3.282   1.684   5.378
  282SOL    HW2 1746   3.408   1.583   5.351
  283SOL     OW 1747   6.505   1.545   5.764
  283SOL    HW1 1748   6.509   1.523   5.666
  283SOL    HW2 1749   6.468   1.467   5.814
  284SOL     OW 1750   1.202   4.223   4.521
  284SOL    HW1 1751   1.178   4.131   4.551
  284SOL    HW2 1752   1.173   4.289   4.591
  285SOL     OW 1753   6.174   4.610   5.528
  285SOL    HW1 1754   6.173   4.662   5.443
  285SOL    HW2 1755   6.081   4.599   5.562
  286SOL     OW 1756   3.286   5.887   5.285
  286SOL    HW1 1757   3.371   5.835   5.275
  286SOL    HW2 1758   3.308   5.981   5.311
  287SOL     OW 1759   0.241   4.510   0.107
  287SOL    HW1 1760   0.339   4.495   0.095
  287SOL    HW2 1761   0.221   4.529   0.204
  288SOL     OW 1762   3.332   2.026   5.749
  288SOL    HW1 1763   3.306   2.096   5.683
  288SOL    HW2 1764   3.299   1.937   5.717
  289SOL     OW 1765   0.248   4.804   4.469
  289SOL    HW1 1766   0.229   4.723   4.524
  289SOL    HW2 1767   0.214   4.885   4.517
  290SOL     OW 1768   5.720   2.427   4.417
  290SOL    HW1 1769   5.763   2.425   4.327
  290SOL    HW2 1770   5.727   2.337   4.459
  291SOL     OW 1771   1.692   1.904   4.607
  291SOL    HW1 1772   1.738   1.993   4.608
  291SOL    HW2 1773   1.694   1.864   4.698
  292SOL     OW 1774   1.307   1.831   2.895
  292SOL    HW1 1775   1.307   1.920   2.940
  292SOL    HW2 1776   1.222   1.819   2.843
  293SOL     OW 1777   4.270   4.872   1.824
  293SOL    HW1 1778   4.227   4.801   1.881
  293SOL    HW2 1779   4.335   4.924   1.879
  294SOL     OW 1780   6.130   5.146   6.445
  294SOL    HW1 1781   6.093   5.170   6.355
  294SOL    HW2 1782   6.110   5.219   6.510
  295SOL     OW 1783   2.997   1.877   4.395
  295SOL    HW1 1784   2.922   1.898   4.333
  295SOL    HW2 1785   3.045   1.961   4.420
  296SOL     OW 1786   4.998   1.856   2.787
  296SOL    HW1 1787   5.028   1.931   2.728
  296SOL    HW2 1788   5.000   1.886   2.882
  297SOL     OW 1789   2.366   4.348   2.946
  297SOL    HW1 1790   2.382   4.393   2.858
  297SOL    HW2 1791   2.420   4.394   3.017
  298SOL     OW 1792   3.598   6.393   0.684
  298SOL    HW1 1793   3.552   6.306   0.701
  298SOL    HW2 1794   3.574   6.458   0.756
  299SOL     OW 1795   3.933   3.774   6.729
  299SOL    HW1 1796   3.836   3.749   6.726
  299SOL    HW2 1797   3.944   3.870   6.707
  300SOL     OW 1798   5.723   0.878   1.286
  300SOL    HW1 1799   5.787   0.830   1.345
  300SOL    HW2 1800   5.708   0.971   1.321
  301SOL     OW 1801   5.018   3.089   1.060
  301SOL    HW1 1802   5.070   3.008   1.087
  301SOL    HW2 1803   5.059   3.170   1.101
  302SOL     OW 1804   0.538   0.763   3.361
  302SOL    HW1 1805   0.446   0.777   3.398
  302SOL    HW2 1806   0.557   0.665   3.354
  303SOL     OW 1807   6.218   6.987   1.087
  303SOL    HW1 1808   6.238   0.062   1.082
  303SOL    HW2 1809   6.224   6.956   1.182
  304SOL     OW 1810   2.324   0.225   4.269
  304SOL    HW1 1811   2.343   0.194   4.363
  304SOL    HW2 1812   2.400   0.282   4.238
  305SOL     OW 1813   0.527   3.167   0.553
  305SOL    HW1 1814   0.525   3.087   0.493
  305SOL    HW2 1815   0.436   3.208   0.556
  306SOL     OW 1816   1.854   0.364   3.912
  306SOL    HW1 1817   1.831   0.420   3.992
  306SOL    HW2 1818   1.770   0.334   3.867
  307SOL     OW 1819   5.222   6.567   0.480
  307SOL    HW1 1820   5.154   6.639   0.492
  307SOL    HW2 1821   5.175   6.482   0.456
  308SOL     OW 1822   6.041   3.584   5.400
  308SOL    HW1 1823   5.974   3.613   5.468
  308SOL    HW2 1824   5.997   3.579   5.310
  309SOL     OW 1825   3.612   5.666   6.621
  309SOL    HW1 1826   3.565   5.754   6.610
  309SOL    HW2 1827   3.641   5.655   6.716
  310SOL     OW 1828   6.168   0.021   5.094
  310SOL    HW1 1829   6.166   0.047   5.190
  310SOL    HW2 1830   6.251   6.991   5.076
  311SOL     OW 1831   5.005   4.746   2.659
  311SOL    HW1 1832   4.937   4.704   2.719
  311SOL    HW2 1833   5.096   4.713   2.683
  312SOL     OW 1834   4.044   1.130   5.650
  312SOL    HW1 1835   4.024   1.223   5.681
  312SOL    HW2 1836   4.045   1.129   5.550
  313SOL     OW 1837   3.349   3.704   2.205
  313SOL    HW1 1838   3.312   3.778   2.261
  313SOL    HW2 1839   3.446   3.691   2.227
  314SOL     OW 1840   3.748   5.321   6.654
  314SOL    HW1 1841   3.702   5.316   6.743
  314SOL    HW2 1842   3.681   5.346   6.584
  315SOL     OW 1843   1.433   2.913   3.539
  315SOL    HW1 1844   1.510   2.851   3.552
  315SOL    HW2 1845   1.408   2.917   3.442
  316SOL     OW 1846   3.056   1.522   3.726
  316SOL    HW1 1847   2.968   1.571   3.721
  316SOL    HW2 1848   3.061   1.454   3.653
  317SOL     OW 1849   0.282   0.628   1.117
  317SOL    HW1 1850   0.316   0.550   1.170
  317SOL    HW2 1851   0.357   0.671   1.068
  318SOL     OW 1852   0.903   5.790   6.632
  318SOL    HW1 1853   0.873   5.695   6.647
  318SOL    HW2 1854   0.910   5.808   6.534
  319SOL     OW 1855   6.710   0.647   3.801
  319SOL    HW1 1856   6.744   0.716   3.865
  319SOL    HW2 1857   6.632   0.685   3.751
  320SOL     OW 1858   6.342   2.280   0.457
  320SOL    HW1 1859   6.248   2.261   0.430
  320SOL    HW2 1860   6.404   2.222   0.405
  321SOL     OW 1861   3.951   1.312   0.448
  321SOL    HW1 1862   3.864   1.322   0.496
  321SOL    HW2 1863   4.014   1.383   0.479
  322SOL     OW 1864   4.016   3.374   4.620
  322SOL    HW1 1865   4.027   3.465   4.660
  322SOL    HW2 1866   3.992   3.309   4.691
  323SOL     OW 1867   1.078   2.817   6.241
  323SOL    HW1 1868   1.084   2.760   6.323
  323SOL    HW2 1869   1.134   2.779   6.169
  324SOL     OW 1870   2.429   2.167   4.377
  324SOL    HW1 1871   2.407   2.259   4.343
  324SOL    HW2 1872   2.511   2.133   4.330
  325SOL     OW 1873   1.015   3.156   1.868
  325SOL    HW1 1874   1.079   3.219   1.912
  325SOL    HW2 1875   0.930   3.204   1.847
  326SOL     OW 1876   0.898   5.102   6.879
  326SOL    HW1 1877   0.936   5.176   6.823
  326SOL    HW2 1878   0.853   5.141   6.959
  327SOL     OW 1879   1.766   4.983   3.857
  327SOL    HW1 1880   1.676   4.958   3.822
  327SOL    HW2 1881   1.754   5.033   3.943
  328SOL     OW 1882   1.237   5.233   1.802
  328SOL    HW1 1883   1.219   5.232   1.900
  328SOL    HW2 1884   1.153   5.214   1.752
  329SOL     OW 1885   3.979   3.622   4.733
  329SOL    HW1 1886   3.879   3.618   4.738
  329SOL    HW2 1887   4.006   3.677   4.654
  330SOL     OW 1888   2.935   6.979   1.093
  330SOL    HW1 1889   2.925   0.055   1.088
  330SOL    HW2 1890   2.991   6.954   1.172
  331SOL     OW 1891   4.025   5.706   1.029
  331SOL    HW1 1892   3.966   5.627   1.046
  331SOL    HW2 1893   4.050   5.709   0.932
  332SOL     OW 1894   3.666   1.724   4.550
  332SOL    HW1 1895   3.707   1.774   4.625
  332SOL    HW2 1896   3.672   1.778   4.466
  333SOL     OW 1897   3.347   7.005   6.076
  333SOL    HW1 1898   3.423   6.950   6.110
  333SOL    HW2 1899   3.381   0.070   6.042
  334SOL     OW 1900   2.634   0.938   1.345
  334SOL    HW1 1901   2.565   0.984   1.289
  334SOL    HW2 1902   2.589   0.885   1.417
  335SOL     OW 1903   3.848   6.660   4.787
  335SOL    HW1 1904   3.820   6.718   4.710
  335SOL    HW2 1905   3.921   6.706   4.838
  336SOL     OW 1906   1.846   0.670   4.015
  336SOL    HW1 1907   1.914   0.699   3.948
  336SOL    HW2 1908   1.763   0.726   4.005
  337SOL     OW 1909   0.297   3.067   0.064
  337SOL    HW1 1910   0.321   3.133   0.136
  337SOL    HW2 1911   0.245   3.114   7.015
  338SOL     OW 1912   2.978   2.788   1.628
  338SOL    HW1 1913   3.068   2.768   1.588
  338SOL    HW2 1914   2.965   2.887   1.633
  339SOL     OW 1915   3.154   6.762   4.426
  339SOL    HW1 1916   3.156   6.738   4.329
  339SOL    HW2 1917   3.079   6.826   4.442
  340SOL     OW 1918   4.948   4.775   5.530
  340SOL    HW1 1919   4.850   4.778   5.515
  340SOL    HW2 1920   4.995   4.755   5.444
  341SOL     OW 1921   6.427   1.785   4.580
  341SOL    HW1 1922   6.525   1.779   4.564
  341SOL    HW2 1923   6.394   1.876   4.555
  342SOL     OW 1924   6.157   4.021   6.871
  342SOL    HW1 1925   6.210   4.105   6.883
  342SOL    HW2 1926   6.100   4.006   6.951
  343SOL     OW 1927   1.983   4.511   0.731
  343SOL    HW1 1928   2.036   4.559   0.661
  343SOL    HW2 1929   1.972   4.570   0.811
  344SOL     OW 1930   0.879   5.248   1.959
  344SOL    HW1 1931   0.860   5.160   2.001
  344SOL    HW2 1932   0.808   5.269   1.892
  345SOL     OW 1933   5.506   1.543   3.751
  345SOL    HW1 1934   5.570   1.495   3.690
  345SOL    HW2 1935   5.441   1.594   3.696
  346SOL     OW 1936   1.818   0.708   2.696
  346SOL    HW1 1937   1.906   0.704   2.745
  346SOL    HW2 1938   1.782   0.801   2.700
  347SOL     OW 1939   3.266   5.879   6.158
  347SOL    HW1 1940   3.323   5.900   6.238
  347SOL    HW2 1941   3.291   5.938   6.082
  348SOL     OW 1942   5.294   4.164   1.563
  348SOL    HW1 1943   5.240   4.201   1.639
  348SOL    HW2 1944   5.391   4.169   1.585
  349SOL     OW 1945   6.620   4.656   0.728
  349SOL    HW1 1946   6.673   4.651   0.812
  349SOL    HW2 1947   6.674   4.621   0.651
  350SOL     OW 1948   3.527   3.090   0.962
  350SOL    HW1 1949   3.531   3.029   1.041
  350SOL    HW2 1950   3.549   3.039   0.879
  351SOL     OW 1951   1.979   2.539   7.014
  351SOL    HW1 1952   2.011   2.608   0.056
  351SOL    HW2 1953   1.940   2.585   6.934
  352SOL     OW 1954   3.206   1.008   4.557
  352SOL    HW1 1955   3.158   0.934   4.509
  352SOL    HW2 1956   3.287   1.035   4.504
  353SOL     OW 1957   2.516   6.220   0.956
  353SOL    HW1 1958   2.495   6.139   0.901
  353SOL    HW2 1959   2.435   6.278   0.962
  354SOL     OW 1960   3.326   2.730   0.293
  354SOL    HW1 1961   3.276   2.708   0.376
  354SOL    HW2 1962   3.288   2.679   0.216
  355SOL     OW 1963   0.355   3.513   3.037
  355SOL    HW1 1964   0.337   3.442   2.969
  355SOL    HW2 1965   0.383   3.597   2.991
  356SOL     OW 1966   3.318   6.301   5.090
  356SOL    HW1 1967   3.318   6.385   5.036
  356SOL    HW2 1968   3.405   6.253   5.076
  357SOL     OW 1969   6.418   6.873   5.536
  357SOL    HW1 1970   6.450   6.779   5.524
  357SOL    HW2 1971   6.477   6.935   5.484
  358SOL     OW 1972   5.236   0.243   1.631
  358SOL    HW1 1973   5.171   0.217   1.701
  358SOL    HW2 1974   5.256   0.164   1.573
  359SOL     OW 1975   1.212   2.143   2.201
  359SOL    HW1 1976   1.249   2.219   2.255
  359SOL    HW2 1977   1.258   2.140   2.112
  360SOL     OW 1978   1.150   5.635   6.494
  360SOL    HW1 1979   1.106   5.547   6.476
  360SOL    HW2 1980   1.101   5.708   6.445
  361SOL     OW 1981   5.804   5.649   3.466
  361SOL    HW1 1982   5.720   5.687   3.502
  361SOL    HW2 1983   5.881   5.709   3.488
  362SOL     OW 1984   3.761   3.952   1.326
  362SOL    HW1 1985   3.691   3.990   1.386
  362SOL    HW2 1986   3.848   3.946   1.376
  363SOL     OW 1987   5.002   4.703   3.788
  363SOL    HW1 1988   4.904   4.682   3.783
  363SOL    HW2 1989   5.016   4.801   3.771
  364SOL     OW 1990   6.511   5.923   6.149
  364SOL    HW1 1991   6.579   5.851   6.139
  364SOL    HW2 1992   6.543   5.991   6.216
  365SOL     OW 1993   5.832   5.570   2.289
  365SOL    HW1 1994   5.910   5.618   2.328
  365SOL    HW2 1995   5.846   5.557   2.191
  366SOL     OW 1996   6.270   0.372   6.691
  366SOL    HW1 1997   6.333   0.316   6.637
  366SOL    HW2 1998   6.227   0.316   6.762
  367SOL     OW 1999   4.807   3.173   1.384
  367SOL    HW1 2000   4.824   3.229   1.303
  367SOL    HW2 2001   4.863   3.091   1.381
  368SOL     OW 2002   0.094   3.748   5.098
  368SOL    HW1 2003   0.070   3.787   5.010
  368SOL    HW2 2004   0.037   3.668   5.116
  369SOL     OW 2005   6.168   5.603   1.786
  369SOL    HW1 2006   6.182   5.585   1.883
  369SOL    HW2 2007   6.070   5.605   1.766
  370SOL     OW 2008   2.516   1.983   5.455
  370SOL    HW1 2009   2.551   2.032   5.375
  370SOL    HW2 2010   2.507   2.047   5.531
  371SOL     OW 2011   2.654   3.459   6.912
  371SOL    HW1 2012   2.560   3.494   6.916
  371SOL    HW2 2013   2.698   3.471   7.000
  372SOL     OW 2014   0.724   0.192   5.784
  372SOL    HW1 2015   0.809   0.146   5.758
  372SOL    HW2 2016   0.730   0.223   5.879
  373SOL     OW 2017   6.199   5.983   5.005
  373SOL    HW1 2018   6.172   6.071   5.044
  373SOL    HW2 2019   6.121   5.943   4.957
  374SOL     OW 2020   2.892   1.864   2.657
  374SOL    HW1 2021   2.881   1.928   2.580
  374SOL    HW2 2022   2.825   1.887   2.728
  375SOL     OW 2023   0.898   4.354   3.849
  375SOL    HW1 2024   0.929   4.319   3.937
  375SOL    HW2 2025   0.940   4.300   3.775
  376SOL     OW 2026   2.025   1.654   4.779
  376SOL    HW1 2027   2.067   1.665   4.689
  376SOL    HW2 2028   2.019   1.742   4.825
  377SOL     OW 2029   0.545   2.587   1.684
  377SOL    HW1 2030   0.553   2.499   1.636
  377SOL    HW2 2031   0.459   2.589   1.735
  378SOL     OW 2032   2.972   2.660   5.830
  378SOL    HW1 2033   2.973   2.596   5.753
  378SOL    HW2 2034   2.951   2.752   5.796
  379SOL     OW 2035   6.019   3.869   1.427
  379SOL    HW1 2036   6.102   3.863   1.372
  379SOL    HW2 2037   5.993   3.965   1.439
  380SOL     OW 2038   3.007   1.221   1.589
  380SOL    HW1 2039   3.017   1.307   1.539
  380SOL    HW2 2040   3.058   1.149   1.542
  381SOL     OW 2041   1.407   4.436   2.968
  381SOL    HW1 2042   1.319   4.437   2.922
  381SOL    HW2 2043   1.397   4.471   3.061
  382SOL     OW 2044   5.284   6.563   5.620
  382SOL    HW1 2045   5.376   6.574   5.583
  382SOL    HW2 2046   5.284   6.487   5.686
  383SOL     OW 2047   5.151   3.255   5.916
  383SOL    HW1 2048   5.053   3.274   5.927
  383SOL    HW2 2049   5.186   3.309   5.839
  384SOL     OW 2050   6.159   5.158   4.374
  384SOL    HW1 2051   6.152   5.103   4.291
  384SOL    HW2 2052   6.116   5.109   4.450
  385SOL     OW 2053   4.507   5.974   5.748
  385SOL    HW1 2054   4.508   6.066   5.787
  385SOL    HW2 2055   4.414   5.951   5.717
  386SOL     OW 2056   2.798   5.921   5.002
  386SOL    HW1 2057   2.737   5.922   5.082
  386SOL    HW2 2058   2.889   5.954   5.029
  387SOL     OW 2059   0.759   6.530   3.057
  387SOL    HW1 2060   0.703   6.552   3.137
  387SOL    HW2 2061   0.725   6.580   2.977
  388SOL     OW 2062   1.719   2.065   3.670
  388SOL    HW1 2063   1.763   2.033   3.754
  388SOL    HW2 2064   1.620   2.060   3.681
  389SOL     OW 2065   4.180   4.057   1.689
  389SOL    HW1 2066   4.115   4.027   1.758
  389SOL    HW2 2067   4.255   4.107   1.733
  390SOL     OW 2068   3.672   0.978   6.940
  390SOL    HW1 2069   3.724   0.979   6.854
  390SOL    HW2 2070   3.721   1.031   7.009
  391SOL     OW 2071   1.971   4.077   5.129
  391SOL    HW1 2072   2.009   4.159   5.172
  391SOL    HW2 2073   1.995   4.076   5.032
  392SOL     OW 2074   1.880   3.870   1.553
  392SOL    HW1 2075   1.890   3.901   1.458
  392SOL    HW2 2076   1.812   3.926   1.599
  393SOL     OW 2077   0.960   4.870   6.994
  393SOL    HW1 2078   0.919   4.785   6.959
  393SOL    HW2 2079   0.928   4.947   6.939
  394SOL     OW 2080   0.472   2.499   0.041
  394SOL    HW1 2081   0.413   2.433   7.018
  394SOL    HW2 2082   0.452   2.591   0.008
  395SOL     OW 2083   4.867   4.751   3.255
  395SOL    HW1 2084   4.902   4.776   3.164
  395SOL    HW2 2085   4.887   4.655   3.273
  396SOL     OW 2086   2.874   3.229   1.895
  396SOL    HW1 2087   2.920   3.159   1.840
  396SOL    HW2 2088   2.785   3.249   1.856
  397SOL     OW 2089   5.241   2.004   6.074
  397SOL    HW1 2090   5.232   2.031   6.169
  397SOL    HW2 2091   5.313   1.935   6.065
  398SOL     OW 2092   1.741   6.846   3.353
  398SOL    HW1 2093   1.749   6.756   3.397
  398SOL    HW2 2094   1.794   6.847   3.268
  399SOL     OW 2095   5.781   6.422   4.528
  399SOL    HW1 2096   5.818   6.357   4.462
  399SOL    HW2 2097   5.837   6.505   4.528
  400SOL     OW 2098   6.025   6.257   6.095
  400SOL    HW1 2099   6.069   6.307   6.021
  400SOL    HW2 2100   5.927   6.245   6.075
  401SOL     OW 2101   4.776   0.125   6.272
  401SOL    HW1 2102   4.683   0.088   6.275
  401SOL    HW2 2103   4.773   0.224   6.288
  402SOL     OW 2104   6.443   0.866   3.021
  402SOL    HW1 2105   6.470   0.961   3.006
  402SOL    HW2 2106   6.418   0.853   3.117
  403SOL     OW 2107   3.687   0.637   5.374
  403SOL    HW1 2108   3.757   0.652   5.443
  403SOL    HW2 2109   3.724   0.583   5.299
  404SOL     OW 2110   1.852   4.963   4.950
  404SOL    HW1 2111   1.849   5.043   4.891
  404SOL    HW2 2112   1.801   4.980   5.034
  405SOL     OW 2113   2.055   3.380   2.815
  405SOL    HW1 2114   2.132   3.444   2.813
  405SOL    HW2 2115   1.976   3.423   2.771
  406SOL     OW 2116   0.225   4.617   4.666
  406SOL    HW1 2117   0.264   4.670   4.742
  406SOL    HW2 2118   0.299   4.574   4.615
  407SOL     OW 2119   1.913   2.393   5.144
  407SOL    HW1 2120   1.823   2.351   5.140
  407SOL    HW2 2121   1.904   2.493   5.152
  408SOL     OW 2122   3.373   2.063   3.187
  408SOL    HW1 2123   3.470   2.075   3.166
  408SOL    HW2 2124   3.318   2.080   3.105
  409SOL     OW 2125   6.579   3.232   1.702
  409SOL    HW1 2126   6.670   3.261   1.673
  409SOL    HW2 2127   6.524   3.312   1.723
  410SOL     OW 2128   1.281   1.818   1.183
  410SOL    HW1 2129   1.229   1.779   1.107
  410SOL    HW2 2130   1.370   1.773   1.188
  411SOL     OW 2131   6.073   0.739   1.199
  411SOL    HW1 2132   6.079   0.640   1.195
  411SOL    HW2 2133   6.015   0.766   1.277
  412SOL     OW 2134   3.363   4.938   3.281
  412SOL    HW1 2135   3.454   4.953   3.321
  412SOL    HW2 2136   3.373   4.913   3.185
  413SOL     OW 2137   4.645   4.348   1.550
  413SOL    HW1 2138   4.579   4.273   1.545
  413SOL    HW2 2139   4.663   4.382   1.457
  414SOL     OW 2140   3.155   6.606   4.181
  414SOL    HW1 2141   3.064   6.584   4.147
  414SOL    HW2 2142   3.198   6.524   4.218
  415SOL     OW 2143   0.707   0.548   6.985
  415SOL    HW1 2144   0.797   0.529   0.002
  415SOL    HW2 2145   0.640   0.560   0.035
  416SOL     OW 2146   5.231   4.991   4.797
  416SOL    HW1 2147   5.205   4.894   4.789
  416SOL    HW2 2148   5.154   5.048   4.766
  417SOL     OW 2149   1.985   0.627   6.188
  417SOL    HW1 2150   2.069   0.574   6.189
  417SOL    HW2 2151   1.986   0.689   6.109
  418SOL     OW 2152   2.772   6.853   5.854
  418SOL    HW1 2153   2.815   6.890   5.771
  418SOL    HW2 2154   2.821   6.770   5.882
  419SOL     OW 2155   0.722   0.009   2.878
  419SOL    HW1 2156   0.736   7.011   2.781
  419SOL    HW2 2157   0.723   0.109   2.891
  420SOL     OW 2158   5.847   1.456   6.412
  420SOL    HW1 2159   5.896   1.504   6.340
  420SOL    HW2 2160   5.764   1.507   6.436
  421SOL     OW 2161   5.767   3.635   4.945
  421SOL    HW1 2162   5.764   3.613   4.848
  421SOL    HW2 2163   5.799   3.729   4.958
  422SOL     OW 2164   4.887   3.077   0.643
  422SOL    HW1 2165   4.826   3.153   0.664
  422SOL    HW2 2166   4.849   3.022   0.569
  423SOL     OW 2167   2.456   1.441   6.600
  423SOL    HW1 2168   2.454   1.540   6.586
  423SOL    HW2 2169   2.531   1.418   6.661
  424SOL     OW 2170   1.481   4.740   2.707
  424SOL    HW1 2171   1.453   4.808   2.639
  424SOL    HW2 2172   1.444   4.766   2.796
  425SOL     OW 2173   5.235   1.856   4.764
  425SOL    HW1 2174   5.263   1.767   4.729
  425SOL    HW2 2175   5.213   1.917   4.688
  426SOL     OW 2176   2.371   2.648   4.712
  426SOL    HW1 2177   2.449   2.599   4.673
  426SOL    HW2 2178   2.398   2.689   4.799
  427SOL     OW 2179   6.037   0.264   4.071
  427SOL    HW1 2180   5.948   0.243   4.032
  427SOL    HW2 2181   6.109   0.243   4.005
  428SOL     OW 2182   3.919   0.518   2.705
  428SOL    HW1 2183   4.006   0.470   2.693
  428SOL    HW2 2184   3.853   0.485   2.637
  429SOL     OW 2185   1.258   5.151   3.915
  429SOL    HW1 2186   1.302   5.199   3.991
  429SOL    HW2 2187   1.180   5.204   3.882
  430SOL     OW 2188   1.000   6.907   4.314
  430SOL    HW1 2189   1.096   6.932   4.299
  430SOL    HW2 2190   0.981   6.820   4.268
  431SOL     OW 2191   2.665   1.970   0.812
  431SOL    HW1 2192   2.733   1.949   0.741
  431SOL    HW2 2193   2.662   1.894   0.878
  432SOL     OW 2194   6.127   1.907   0.477
  432SOL    HW1 2195   6.218   1.900   0.517
  432SOL    HW2 2196   6.096   2.002   0.480
  433SOL     OW 2197   2.518   6.200   6.201
  433SOL    HW1 2198   2.423   6.204   6.168
  433SOL    HW2 2199   2.569   6.277   6.164
  434SOL     OW 2200   4.173   5.796   3.458
  434SOL    HW1 2201   4.080   5.761   3.453
  434SOL    HW2 2202   4.173   5.894   3.439
  435SOL     OW 2203   3.809   2.173   5.248
  435SOL    HW1 2204   3.812   2.125   5.160
  435SOL    HW2 2205   3.876   2.247   5.247
  436SOL     OW 2206   3.365   5.585   2.629
  436SOL    HW1 2207   3.284   5.586   2.570
  436SOL    HW2 2208   3.352   5.648   2.705
  437SOL     OW 2209   0.276   1.083   5.684
  437SOL    HW1 2210   0.210   1.011   5.663
  437SOL    HW2 2211   0.263   1.160   5.621
  438SOL     OW 2212   1.477   3.455   3.887
  438SOL    HW1 2213   1.443   3.549   3.878
  438SOL    HW2 2214   1.569   3.449   3.847
  439SOL     OW 2215   6.158   6.564   2.353
  439SOL    HW1 2216   6.086   6.574   2.422
  439SOL    HW2 2217   6.164   6.468   2.324
  440SOL     OW 2218   3.618   1.415   6.433
  440SOL    HW1 2219   3.547   1.460   6.380
  440SOL    HW2 2220   3.618   1.451   6.527
  441SOL     OW 2221   5.873   4.277   3.388
  441SOL    HW1 2222   5.928   4.227   3.455
  441SOL    HW2 2223   5.933   4.313   3.316
  442SOL     OW 2224   4.693   5.380   5.557
  442SOL    HW1 2225   4.698   5.469   5.511
  442SOL    HW2 2226   4.745   5.312   5.505
  443SOL     OW 2227   6.019   4.213   4.309
  443SOL    HW1 2228   5.940   4.249   4.260
  443SOL    HW2 2229   6.101   4.264   4.282
  444SOL     OW 2230   4.482   0.957   6.563
  444SOL    HW1 2231   4.516   0.998   6.648
  444SOL    HW2 2232   4.558   0.915   6.514
  445SOL     OW 2233   2.179   6.002   3.236
  445SOL    HW1 2234   2.239   6.045   3.168
  445SOL    HW2 2235   2.234   5.971   3.313
  446SOL     OW 2236   4.045   5.874   2.963
  446SOL    HW1 2237   3.971   5.910   2.907
  446SOL    HW2 2238   4.006   5.830   3.045
  447SOL     OW 2239   6.529   3.220   4.899
  447SOL    HW1 2240   6.516   3.313   4.865
  447SOL    HW2 2241   6.561   3.224   4.994
  448SOL     OW 2242   2.354   1.018   2.821
  448SOL    HW1 2243   2.299   0.936   2.804
  448SOL    HW2 2244   2.295   1.091   2.855
  449SOL     OW 2245   2.595   1.869   3.601
  449SOL    HW1 2246   2.525   1.834   3.539
  449SOL    HW2 2247   2.562   1.951   3.647
  450SOL     OW 2248   2.033   4.709   3.684
  450SOL    HW1 2249   1.964   4.646   3.720
  450SOL    HW2 2250   1.990   4.771   3.618
  451SOL     OW 2251   1.648   2.407   3.950
  451SOL    HW1 2252   1.735   2.358   3.958
  451SOL    HW2 2253   1.575   2.350   3.987
  452SOL     OW 2254   4.300   0.122   1.607
  452SOL    HW1 2255   4.229   0.137   1.538
  452SOL    HW2 2256   4.376   0.070   1.567
  453SOL     OW 2257   3.319   6.649   6.294
  453SOL    HW1 2258   3.328   6.651   6.394
  453SOL    HW2 2259   3.261   6.573   6.267
  454SOL     OW 2260   6.792   4.027   6.711
  454SOL    HW1 2261   6.705   3.980   6.724
  454SOL    HW2 2262   6.788   4.117   6.753
  455SOL     OW 2263   6.333   3.171   5.277
  455SOL    HW1 2264   6.252   3.227   5.265
  455SOL    HW2 2265   6.339   3.104   5.204
  456SOL     OW 2266   2.018   0.777   4.217
  456SOL    HW1 2267   1.958   0.727   4.155
  456SOL    HW2 2268   2.057   0.714   4.284
  457SOL     OW 2269   1.329   4.748   4.277
  457SOL    HW1 2270   1.344   4.746   4.376
  457SOL    HW2 2271   1.325   4.654   4.243
  458SOL     OW 2272   3.662   0.446   2.906
  458SOL    HW1 2273   3.758   0.451   2.876
  458SOL    HW2 2274   3.614   0.528   2.876
  459SOL     OW 2275   2.011   0.383   5.393
  459SOL    HW1 2276   2.107   0.411   5.398
  459SOL    HW2 2277   1.956   0.459   5.358
  460SOL     OW 2278   1.320   0.857   5.097
  460SOL    HW1 2279   1.393   0.882   5.034
  460SOL    HW2 2280   1.256   0.934   5.106
  461SOL     OW 2281   6.328   5.157   5.830
  461SOL    HW1 2282   6.365   5.091   5.896
  461SOL    HW2 2283   6.398   5.179   5.763
  462SOL     OW 2284   4.072   3.686   5.190
  462SOL    HW1 2285   4.084   3.647   5.098
  462SOL    HW2 2286   4.029   3.775   5.183
  463SOL     OW 2287   6.930   0.478   3.182
  463SOL    HW1 2288   0.006   0.471   3.190
  463SOL    HW2 2289   6.899   0.562   3.226
  464SOL     OW 2290   2.875   0.358   5.654
  464SOL    HW1 2291   2.936   0.380   5.730
  464SOL    HW2 2292   2.814   0.284   5.681
  465SOL     OW 2293   0.724   2.398   0.027
  465SOL    HW1 2294   0.634   2.434   0.002
  465SOL    HW2 2295   0.794   2.467   0.008
  466SOL     OW 2296   2.943   6.309   4.103
  466SOL    HW1 2297   2.921   6.404   4.126
  466SOL    HW2 2298   3.032   6.306   4.058
  467SOL     OW 2299   1.098   1.826   2.710
  467SOL    HW1 2300   1.055   1.900   2.659
  467SOL    HW2 2301   1.028   1.763   2.744
  468SOL     OW 2302   4.254   5.836   5.987
  468SOL    HW1 2303   4.210   5.925   5.997
  468SOL    HW2 2304   4.351   5.844   6.010
  469SOL     OW 2305   3.199   4.612   5.596
  469SOL    HW1 2306   3.100   4.625   5.591
  469SOL    HW2 2307   3.227   4.546   5.525
  470SOL     OW 2308   4.088   5.633   2.557
  470SOL    HW1 2309   3.995   5.669   2.552
  470SOL    HW2 2310   4.152   5.705   2.530
  471SOL     OW 2311   2.934   2.244   4.276
  471SOL    HW1 2312   2.956   2.196   4.191
  471SOL    HW2 2313   2.985   2.330   4.280
  472SOL     OW 2314   5.681   4.919   7.010
  472SOL    HW1 2315   5.622   4.839   7.013
  472SOL    HW2 2316   5.707   4.938   6.915
  473SOL     OW 2317   0.217   2.147   2.799
  473SOL    HW1 2318   0.218   2.126   2.702
  473SOL    HW2 2319   0.224   2.062   2.852
  474SOL     OW 2320   5.928   5.219   5.912
  474SOL    HW1 2321   6.025   5.227   5.891
  474SOL    HW2 2322   5.887   5.310   5.915
  475SOL     OW 2323   5.971   3.459   6.998
  475SOL    HW1 2324   5.988   3.556   6.978
  475SOL    HW2 2325   6.023   3.433   0.057
  476SOL     OW 2326   0.058   3.830   1.877
  476SOL    HW1 2327   6.998   3.805   1.926
  476SOL    HW2 2328   0.035   3.885   1.797
  477SOL     OW 2329   2.230   5.519   3.475
  477SOL    HW1 2330   2.197   5.580   3.547
  477SOL    HW2 2331   2.182   5.431   3.482
  478SOL     OW 2332   3.993   6.225   3.562
  478SOL    HW1 2333   3.905   6.221   3.608
  478SOL    HW2 2334   4.065   6.243   3.628
  479SOL     OW 2335   3.650   3.244   5.246
  479SOL    HW1 2336   3.711   3.322   5.230
  479SOL    HW2 2337   3.679   3.168   5.187
  480SOL     OW 2338   2.312   0.401   2.120
  480SOL    HW1 2339   2.213   0.415   2.111
  480SOL    HW2 2340   2.355   0.410   2.030
  481SOL     OW 2341   0.743   6.843   1.807
  481SOL    HW1 2342   0.791   6.845   1.719
  481SOL    HW2 2343   0.696   6.930   1.822
  482SOL     OW 2344   4.708   4.840   2.733
  482SOL    HW1 2345   4.761   4.923   2.747
  482SOL    HW2 2346   4.685   4.830   2.636
  483SOL     OW 2347   6.357   2.237   2.321
  483SOL    HW1 2348   6.431   2.224   2.387
  483SOL    HW2 2349   6.367   2.326   2.276
  484SOL     OW 2350   1.428   4.542   4.991
  484SOL    HW1 2351   1.328   4.543   5.003
  484SOL    HW2 2352   1.472   4.572   5.075
  485SOL     OW 2353   5.298   4.026   2.552
  485SOL    HW1 2354   5.294   3.974   2.638
  485SOL    HW2 2355   5.354   4.108   2.566
  486SOL     OW 2356   5.788   1.243   6.637
  486SOL    HW1 2357   5.825   1.255   6.545
  486SOL    HW2 2358   5.864   1.237   6.702
  487SOL     OW 2359   0.773   0.336   3.133
  487SOL    HW1 2360   0.867   0.358   3.160
  487SOL    HW2 2361   0.772   0.294   3.043
  488SOL     OW 2362   1.498   6.870   2.899
  488SOL    HW1 2363   1.591   6.857   2.931
  488SOL    HW2 2364   1.448   6.783   2.907
  489SOL     OW 2365   5.800   5.482   5.219
  489SOL    HW1 2366   5.708   5.499   5.181
  489SOL    HW2 2367   5.855   5.565   5.210
  490SOL     OW 2368   1.714   6.148   4.390
  490SOL    HW1 2369   1.674   6.166   4.300
  490SOL    HW2 2370   1.646   6.166   4.461
  491SOL     OW 2371   0.746   3.504   0.373
  491SOL    HW1 2372   0.677   3.435   0.397
  491SOL    HW2 2373   0.834   3.477   0.412
  492SOL     OW 2374   1.733   1.003   5.524
  492SOL    HW1 2375   1.779   1.021   5.437
  492SOL    HW2 2376   1.634   1.004   5.510
  493SOL     OW 2377   2.486   6.888   5.366
  493SOL    HW1 2378   2.534   6.815   5.414
  493SOL    HW2 2379   2.457   6.855   5.276
  494SOL     OW 2380   2.099   1.503   6.268
  494SOL    HW1 2381   2.074   1.537   6.358
  494SOL    HW2 2382   2.058   1.562   6.197
  495SOL     OW 2383   3.576   6.166   5.087
  495SOL    HW1 2384   3.642   6.178   5.012
  495SOL    HW2 2385   3.624   6.129   5.167
  496SOL     OW 2386   6.201   1.556   2.097
  496SOL    HW1 2387   6.278   1.561   2.033
  496SOL    HW2 2388   6.208   1.473   2.151
  497SOL     OW 2389   3.728   0.821   4.651
  497SOL    HW1 2390   3.725   0.905   4.705
  497SOL    HW2 2391   3.637   0.802   4.614
  498SOL     OW 2392   0.470   4.622   1.945
  498SOL    HW1 2393   0.570   4.613   1.941
  498SOL    HW2 2394   0.439   4.672   1.864
  499SOL     OW 2395   1.976   5.786   5.046
  499SOL    HW1 2396   1.945   5.779   4.952
  499SOL    HW2 2397   1.979   5.882   5.074
  500SOL     OW 2398   5.492   3.186   5.643
  500SOL    HW1 2399   5.563   3.255   5.632
  500SOL    HW2 2400   5.469   3.146   5.554
  501SOL     OW 2401   3.356   0.242   1.519
  501SOL    HW1 2402   3.447   0.235   1.478
  501SOL    HW2 2403   3.290   0.268   1.448
  502SOL     OW 2404   0.840   4.595   6.561
  502SOL    HW1 2405   0.765   4.661   6.549
  502SOL    HW2 2406   0.905   4.630   6.627
  503SOL     OW 2407   1.860   4.983   6.169
  503SOL    HW1 2408   1.808   5.023   6.094
  503SOL    HW2 2409   1.883   4.889   6.147
  504SOL     OW 2410   0.472   5.865   1.642
  504SOL    HW1 2411   0.465   5.766   1.636
  504SOL    HW2 2412   0.393   5.901   1.691
  505SOL     OW 2413   4.176   0.422   4.992
  505SOL    HW1 2414   4.138   0.361   5.062
  505SOL    HW2 2415   4.260   0.382   4.955
  506SOL     OW 2416   2.933   5.870   2.264
  506SOL    HW1 2417   2.866   5.927   2.216
  506SOL    HW2 2418   3.014   5.925   2.285
  507SOL     OW 2419   3.899   0.371   2.290
  507SOL    HW1 2420   3.809   0.414   2.289
  507SOL    HW2 2421   3.919   0.334   2.200
  508SOL     OW 2422   6.878   2.469   2.830
  508SOL    HW1 2423   6.845   2.383   2.869
  508SOL    HW2 2424   6.958   2.500   2.881
  509SOL     OW 2425   4.201   0.928   0.327
  509SOL    HW1 2426   4.284   0.907   0.379
  509SOL    HW2 2427   4.192   0.864   0.251
  510SOL     OW 2428   6.838   4.887   5.832
  510SOL    HW1 2429   6.839   4.788   5.842
  510SOL    HW2 2430   6.865   4.929   5.919
  511SOL     OW 2431   1.035   2.086   6.705
  511SOL    HW1 2432   1.075   2.168   6.666
  511SOL    HW2 2433   1.092   2.053   6.780
  512SOL     OW 2434   6.288   2.822   6.712
  512SOL    HW1 2435   6.209   2.800   6.655
  512SOL    HW2 2436   6.260   2.877   6.791
  513SOL     OW 2437   5.439   6.584   2.615
  513SOL    HW1 2438   5.404   6.524   2.543
  513SOL    HW2 2439   5.423   6.541   2.704
  514SOL     OW 2440   0.573   0.400   4.492
  514SOL    HW1 2441   0.507   0.470   4.517
  514SOL    HW2 2442   0.536   0.345   4.417
  515SOL     OW 2443   2.160   0.375   6.772
  515SOL    HW1 2444   2.090   0.445   6.760
  515SOL    HW2 2445   2.173   0.358   6.869
  516SOL     OW 2446   2.503   4.548   2.118
  516SOL    HW1 2447   2.484   4.568   2.214
  516SOL    HW2 2448   2.601   4.555   2.102
  517SOL     OW 2449   3.579   5.057   2.240
  517SOL    HW1 2450   3.510   5.128   2.225
  517SOL    HW2 2451   3.630   5.042   2.155
  518SOL     OW 2452   2.786   2.053   3.889
  518SOL    HW1 2453   2.874   2.099   3.883
  518SOL    HW2 2454   2.724   2.106   3.947
  519SOL     OW 2455   0.645   6.284   3.315
  519SOL    HW1 2456   0.711   6.271   3.241
  519SOL    HW2 2457   0.558   6.315   3.277
  520SOL     OW 2458   0.985   3.875   6.707
  520SOL    HW1 2459   0.921   3.860   6.632
  520SOL    HW2 2460   1.053   3.944   6.681
  521SOL     OW 2461   4.502   5.617   4.957
  521SOL    HW1 2462   4.551   5.660   4.880
  521SOL    HW2 2463   4.523   5.520   4.958
  522SOL     OW 2464   3.954   3.636   2.241
  522SOL    HW1 2465   4.015   3.558   2.249
  522SOL    HW2 2466   3.881   3.615   2.175
  523SOL     OW 2467   6.819   5.847   2.069
  523SOL    HW1 2468   6.786   5.940   2.080
  523SOL    HW2 2469   6.905   5.847   2.017
  524SOL     OW 2470   1.137   3.107   2.599
  524SOL    HW1 2471   1.111   3.145   2.688
  524SOL    HW2 2472   1.174   3.015   2.612
  525SOL     OW 2473   2.182   4.028   6.400
  525SOL    HW1 2474   2.171   4.074   6.488
  525SOL    HW2 2475   2.133   4.080   6.329
  526SOL     OW 2476   2.920   6.584   3.736
  526SOL    HW1 2477   2.849   6.608   3.670
  526SOL    HW2 2478   2.921   6.485   3.749
  527SOL     OW 2479   0.329   2.318   6.932
  527SOL    HW1 2480   0.358   2.228   6.966
  527SOL    HW2 2481   0.361   2.330   6.837
  528SOL     OW 2482   1.500   2.820   3.896
  528SOL    HW1 2483   1.422   2.825   3.834
  528SOL    HW2 2484   1.544   2.910   3.902
  529SOL     OW 2485   2.039   0.131   5.298
  529SOL    HW1 2486   2.066   0.219   5.338
  529SOL    HW2 2487   1.961   0.094   5.348
  530SOL     OW 2488   3.922   3.010   2.619
  530SOL    HW1 2489   3.983   2.938   2.654
  530SOL    HW2 2490   3.836   3.008   2.670
  531SOL     OW 2491   0.994   0.974   2.623
  531SOL    HW1 2492   0.928   1.037   2.664
  531SOL    HW2 2493   1.062   0.947   2.691
  532SOL     OW 2494   1.675   3.455   0.613
  532SOL    HW1 2495   1.578   3.458   0.592
  532SOL    HW2 2496   1.710   3.548   0.626
  533SOL     OW 2497   4.714   7.007   4.048
  533SOL    HW1 2498   4.628   6.972   4.084
  533SOL    HW2 2499   4.722   0.082   4.069
  534SOL     OW 2500   6.477   6.093   2.221
  534SOL    HW1 2501   6.485   5.996   2.242
  534SOL    HW2 2502   6.543   6.118   2.150
  535SOL     OW 2503   0.171   4.403   2.856
  535SOL    HW1 2504   0.270   4.391   2.854
  535SOL    HW2 2505   0.147   4.493   2.820
  536SOL     OW 2506   6.623   5.185   2.755
  536SOL    HW1 2507   6.629   5.088   2.729
  536SOL    HW2 2508   6.664   5.241   2.683
  537SOL     OW 2509   3.617   6.981   4.496
  537SOL    HW1 2510   3.694   6.932   4.537
  537SOL    HW2 2511   3.651   0.023   4.428
  538SOL     OW 2512   1.007   4.349   4.679
  538SOL    HW1 2513   1.013   4.449   4.677
  538SOL    HW2 2514   1.054   4.314   4.759
  539SOL     OW 2515   1.626   5.490   2.017
  539SOL    HW1 2516   1.587   5.450   1.934
  539SOL    HW2 2517   1.564   5.561   2.051
  540SOL     OW 2518   1.501   0.524   3.960
  540SOL    HW1 2519   1.489   0.614   3.919
  540SOL    HW2 2520   1.412   0.488   3.990
  541SOL     OW 2521   4.485   5.654   3.835
  541SOL    HW1 2522   4.487   5.651   3.935
  541SOL    HW2 2523   4.524   5.740   3.803
  542SOL     OW 2524   4.038   6.143   6.444
  542SOL    HW1 2525   4.002   6.157   6.537
  542SOL    HW2 2526   4.117   6.082   6.448
  543SOL     OW 2527   5.951   3.454   3.206
  543SOL    HW1 2528   5.982   3.359   3.213
  543SOL    HW2 2529   5.883   3.462   3.134
  544SOL     OW 2530   0.421   5.287   0.235
  544SOL    HW1 2531   0.326   5.285   0.267
  544SOL    HW2 2532   0.478   5.233   0.298
  545SOL     OW 2533   4.147   1.050   0.977
  545SOL    HW1 2534   4.247   1.040   0.977
  545SOL    HW2 2535   4.110   1.008   1.060
  546SOL     OW 2536   1.576   3.732   2.179
  546SOL    HW1 2537   1.592   3.785   2.096
  546SOL    HW2 2538   1.498   3.671   2.165
  547SOL     OW 2539   3.262   2.850   1.103
  547SOL    HW1 2540   3.356   2.884   1.111
  547SOL    HW2 2541   3.251   2.802   1.016
  548SOL     OW 2542   3.747   3.740   1.599
  548SOL    HW1 2543   3.727   3.691   1.683
  548SOL    HW2 2544   3.831   3.794   1.611
  549SOL     OW 2545   5.314   2.540   1.757
  549SOL    HW1 2546   5.380   2.566   1.687
  549SOL    HW2 2547   5.313   2.440   1.768
  550SOL     OW 2548   1.146   5.477   3.225
  550SOL    HW1 2549   1.072   5.530   3.265
  550SOL    HW2 2550   1.110   5.390   3.189
  551SOL     OW 2551   6.735   0.299   1.623
  551SOL    HW1 2552   6.710   0.395   1.610
  551SOL    HW2 2553   6.832   0.286   1.606
  552SOL     OW 2554   5.887   4.095   5.624
  552SOL    HW1 2555   5.920   4.007   5.589
  552SOL    HW2 2556   5.965   4.155   5.640
  553SOL     OW 2557   2.812   6.728   3.502
  553SOL    HW1 2558   2.725   6.704   3.546
  553SOL    HW2 2559   2.848   6.811   3.543
  554SOL     OW 2560   5.615   6.830   0.116
  554SOL    HW1 2561   5.594   6.755   0.179
  554SOL    HW2 2562   5.603   6.917   0.163
  555SOL     OW 2563   2.980   5.079   5.065
  555SOL    HW1 2564   2.904   5.069   5.130
  555SOL    HW2 2565   2.947   5.127   4.984
  556SOL     OW 2566   5.001   1.631   4.236
  556SOL    HW1 2567   5.036   1.588   4.153
  556SOL    HW2 2568   4.935   1.569   4.280
  557SOL     OW 2569   6.908   4.965   6.361
  557SOL    HW1 2570   6.992   4.910   6.360
  557SOL    HW2 2571   6.895   5.007   6.271
  558SOL     OW 2572   3.057   3.155   4.296
  558SOL    HW1 2573   3.123   3.094   4.252
  558SOL    HW2 2574   2.976   3.164   4.238
  559SOL     OW 2575   6.841   5.522   5.173
  559SOL    HW1 2576   6.825   5.431   5.210
  559SOL    HW2 2577   6.796   5.531   5.084
  560SOL     OW 2578   6.635   4.038   3.177
  560SOL    HW1 2579   6.641   3.944   3.142
  560SOL    HW2 2580   6.548   4.078   3.151
  561SOL     OW 2581   0.157   2.181   0.516
  561SOL    HW1 2582   0.115   2.160   0.428
  561SOL    HW2 2583   0.103   2.251   0.563
  562SOL     OW 2584   3.713   0.804   5.912
  562SOL    HW1 2585   3.711   0.827   6.010
  562SOL    HW2 2586   3.798   0.837   5.872
  563SOL     OW 2587   2.098   1.469   3.551
  563SOL    HW1 2588   2.139   1.486   3.640
  563SOL    HW2 2589   2.047   1.550   3.521
  564SOL     OW 2590   0.916   2.760   0.382
  564SOL    HW1 2591   0.922   2.788   0.478
  564SOL    HW2 2592   1.007   2.735   0.349
  565SOL     OW 2593   3.314   3.540   3.678
  565SOL    HW1 2594   3.352   3.611   3.619
  565SOL    HW2 2595   3.383   3.512   3.745
  566SOL     OW 2596   1.092   3.438   4.035
  566SOL    HW1 2597   1.133   3.516   4.082
  566SOL    HW2 2598   1.062   3.371   4.102
  567SOL     OW 2599   3.188   2.695   1.499
  567SOL    HW1 2600   3.285   2.721   1.497
  567SOL    HW2 2601   3.180   2.599   1.526
  568SOL     OW 2602   4.526   6.715   0.302
  568SOL    HW1 2603   4.477   6.633   0.330
  568SOL    HW2 2604   4.487   6.750   0.217
  569SOL     OW 2605   1.081   3.057   0.681
  569SOL    HW1 2606   0.995   3.078   0.633
  569SOL    HW2 2607   1.119   3.141   0.720
  570SOL     OW 2608   3.238   0.214   6.680
  570SOL    HW1 2609   3.286   0.248   6.760
  570SOL    HW2 2610   3.268   0.265   6.599
  571SOL     OW 2611   2.817   5.340   4.147
  571SOL    HW1 2612   2.830   5.285   4.065
  571SOL    HW2 2613   2.758   5.418   4.126
  572SOL     OW 2614   2.079   5.120   5.299
  572SOL    HW1 2615   2.054   5.177   5.220
  572SOL    HW2 2616   2.178   5.104   5.298
  573SOL     OW 2617   5.800   1.071   6.123
  573SOL    HW1 2618   5.702   1.085   6.132
  573SOL    HW2 2619   5.848   1.125   6.192
  574SOL     OW 2620   3.802   0.543   4.697
  574SOL    HW1 2621   3.736   0.479   4.658
  574SOL    HW2 2622   3.761   0.634   4.703
  575SOL     OW 2623   4.302   2.958   1.727
  575SOL    HW1 2624   4.337   2.999   1.643
  575SOL    HW2 2625   4.237   3.019   1.770
  576SOL     OW 2626   1.147   3.209   3.558
  576SOL    HW1 2627   1.112   3.117   3.573
  576SOL    HW2 2628   1.145   3.260   3.644
  577SOL     OW 2629   1.663   1.170   2.405
  577SOL    HW1 2630   1.661   1.148   2.307
  577SOL    HW2 2631   1.725   1.107   2.452
  578SOL     OW 2632   0.224   5.031   4.718
  578SOL    HW1 2633   0.229   4.945   4.769
  578SOL    HW2 2634   0.180   5.101   4.775
  579SOL     OW 2635   1.766   4.166   3.203
  579SOL    HW1 2636   1.794   4.114   3.123
  579SOL    HW2 2637   1.690   4.119   3.248
  580SOL     OW 2638   4.325   5.095   5.517
  580SOL    HW1 2639   4.273   5.067   5.598
  580SOL    HW2 2640   4.275   5.070   5.435
  581SOL     OW 2641   2.146   2.844   1.958
  581SOL    HW1 2642   2.245   2.846   1.958
  581SOL    HW2 2643   2.110   2.890   1.877
  582SOL     OW 2644   4.458   5.257   2.343
  582SOL    HW1 2645   4.361   5.235   2.352
  582SOL    HW2 2646   4.482   5.329   2.407
  583SOL     OW 2647   2.461   6.238   5.121
  583SOL    HW1 2648   2.502   6.287   5.045
  583SOL    HW2 2649   2.396   6.171   5.086
  584SOL     OW 2650   3.257   6.625   6.672
  584SOL    HW1 2651   3.264   6.537   6.624
  584SOL    HW2 2652   3.301   6.696   6.618
  585SOL     OW 2653   4.134   0.839   0.073
  585SOL    HW1 2654   4.085   0.793   7.022
  585SOL    HW2 2655   4.231   0.845   0.050
  586SOL     OW 2656   3.488   0.356   0.265
  586SOL    HW1 2657   3.528   0.442   0.296
  586SOL    HW2 2658   3.508   0.342   0.168
  587SOL     OW 2659   4.360   2.325   3.146
  587SOL    HW1 2660   4.371   2.228   3.168
  587SOL    HW2 2661   4.345   2.335   3.047
  588SOL     OW 2662   2.065   4.913   1.589
  588SOL    HW1 2663   2.049   4.868   1.501
  588SOL    HW2 2664   2.055   4.846   1.662
  589SOL     OW 2665   3.466   5.608   1.968
  589SOL    HW1 2666   3.425   5.641   2.054
  589SOL    HW2 2667   3.474   5.684   1.904
  590SOL     OW 2668   5.570   1.552   1.155
  590SOL    HW1 2669   5.495   1.613   1.131
  590SOL    HW2 2670   5.559   1.521   1.250
  591SOL     OW 2671   3.634   6.585   3.511
  591SOL    HW1 2672   3.662   6.671   3.468
  591SOL    HW2 2673   3.701   6.560   3.581
  592SOL     OW 2674   4.500   0.710   2.103
  592SOL    HW1 2675   4.424   0.694   2.165
  592SOL    HW2 2676   4.520   0.626   2.053
  593SOL     OW 2677   4.750   2.489   3.810
  593SOL    HW1 2678   4.740   2.417   3.878
  593SOL    HW2 2679   4.840   2.531   3.818
  594SOL     OW 2680   6.041   0.385   0.959
  594SOL    HW1 2681   6.022   0.469   0.908
  594SOL    HW2 2682   5.998   0.308   0.912
  595SOL     OW 2683   5.406   6.599   3.226
  595SOL    HW1 2684   5.433   6.592   3.130
  595SOL    HW2 2685   5.405   6.695   3.254
  596SOL     OW 2686   6.887   5.351   2.861
  596SOL    HW1 2687   6.945   5.273   2.884
  596SOL    HW2 2688   6.938   5.436   2.875
  597SOL     OW 2689   2.596   0.168   6.587
  597SOL    HW1 2690   2.608   0.072   6.614
  597SOL    HW2 2691   2.643   0.227   6.652
  598SOL     OW 2692   3.794   3.920   4.724
  598SOL    HW1 2693   3.760   3.982   4.653
  598SOL    HW2 2694   3.874   3.870   4.691
  599SOL     OW 2695   2.343   5.716   2.536
  599SOL    HW1 2696   2.335   5.771   2.453
  599SOL    HW2 2697   2.266   5.735   2.596
  600SOL     OW 2698   6.157   1.896   6.503
  600SOL    HW1 2699   6.220   1.861   6.571
  600SOL    HW2 2700   6.197   1.885   6.412
  601SOL     OW 2701   1.556   0.863   4.002
  601SOL    HW1 2702   1.485   0.863   3.931
  601SOL    HW2 2703   1.512   0.870   4.092
  602SOL     OW 2704   2.002   0.345   6.328
  602SOL    HW1 2705   1.930   0.404   6.363
  602SOL    HW2 2706   2.002   0.258   6.378
  603SOL     OW 2707   3.023   2.564   5.366
  603SOL    HW1 2708   3.088   2.499   5.327
  603SOL    HW2 2709   3.046   2.657   5.336
  604SOL     OW 2710   1.084   1.381   1.402
  604SOL    HW1 2711   1.081   1.288   1.438
  604SOL    HW2 2712   0.991   1.413   1.384
  605SOL     OW 2713   6.481   4.852   0.969
  605SOL    HW1 2714   6.567   4.805   0.986
  605SOL    HW2 2715   6.487   4.902   0.882
  606SOL     OW 2716   4.875   6.523   5.420
  606SOL    HW1 2717   4.868   6.548   5.516
  606SOL    HW2 2718   4.968   6.540   5.387
  607SOL     OW 2719   6.486   4.737   5.024
  607SOL    HW1 2720   6.453   4.830   5.040
  607SOL    HW2 2721   6.412   4.672   5.043
  608SOL     OW 2722   4.060   6.185   6.914
  608SOL    HW1 2723   3.989   6.122   6.945
  608SOL    HW2 2724   4.129   6.135   6.862
  609SOL     OW 2725   3.708   3.017   2.288
  609SOL    HW1 2726   3.648   2.995   2.365
  609SOL    HW2 2727   3.801   2.986   2.308
  610SOL     OW 2728   5.617   3.180   0.510
  610SOL    HW1 2729   5.683   3.138   0.572
  610SOL    HW2 2730   5.585   3.113   0.444
  611SOL     OW 2731   4.596   0.105   1.910
  611SOL    HW1 2732   4.627   0.172   1.977
  611SOL    HW2 2733   4.559   0.025   1.957
  612SOL     OW 2734   3.443   5.432   4.015
  612SOL    HW1 2735   3.464   5.518   4.061
  612SOL    HW2 2736   3.353   5.438   3.972
  613SOL     OW 2737   4.445   5.191   5.294
  613SOL    HW1 2738   4.383   5.263   5.265
  613SOL    HW2 2739   4.426   5.167   5.389
  614SOL     OW 2740   4.548   5.123   5.713
  614SOL    HW1 2741   4.571   5.201   5.772
  614SOL    HW2 2742   4.458   5.136   5.673
  615SOL     OW 2743   6.721   1.892   1.081
  615SOL    HW1 2744   6.736   1.947   1.163
  615SOL    HW2 2745   6.648   1.933   1.027
  616SOL     OW 2746   0.183   2.033   2.087
  616SOL    HW1 2747   0.146   2.125   2.076
  616SOL    HW2 2748   0.268   2.037   2.140
  617SOL     OW 2749   0.264   4.747   5.768
  617SOL    HW1 2750   0.349   4.796   5.754
  617SOL    HW2 2751   0.258   4.671   5.703
  618SOL     OW 2752   0.935   2.439   0.716
  618SOL    HW1 2753   0.934   2.471   0.810
  618SOL    HW2 2754   0.859   2.480   0.666
  619SOL     OW 2755   3.547   1.482   0.884
  619SOL    HW1 2756   3.528   1.411   0.952
  619SOL    HW2 2757   3.644   1.481   0.862
  620SOL     OW 2758   4.684   2.060   1.055
  620SOL    HW1 2759   4.721   1.967   1.055
  620SOL    HW2 2760   4.760   2.125   1.059
  621SOL     OW 2761   3.172   6.214   6.929
  621SOL    HW1 2762   3.163   6.238   6.833
  621SOL    HW2 2763   3.249   6.151   6.940
  622SOL     OW 2764   0.943   1.191   6.110
  622SOL    HW1 2765   0.906   1.248   6.037
  622SOL    HW2 2766   1.026   1.146   6.077
  623SOL     OW 2767   1.143   5.593   5.757
  623SOL    HW1 2768   1.194   5.514   5.790
  623SOL    HW2 2769   1.067   5.613   5.819
  624SOL     OW 2770   0.080   2.213   1.160
  624SOL    HW1 2771   0.088   2.248   1.067
  624SOL    HW2 2772   0.168   2.178   1.191
  625SOL     OW 2773   2.747   1.869   1.384
  625SOL    HW1 2774   2.687   1.797   1.348
  625SOL    HW2 2775   2.735   1.876   1.483
  626SOL     OW 2776   2.840   5.636   3.906
  626SOL    HW1 2777   2.894   5.556   3.877
  626SOL    HW2 2778   2.763   5.606   3.961
  627SOL     OW 2779   5.100   6.955   0.569
  627SOL    HW1 2780   5.173   6.922   0.627
  627SOL    HW2 2781   5.054   6.878   0.525
  628SOL     OW 2782   5.767   5.464   5.918
  628SOL    HW1 2783   5.775   5.563   5.926
  628SOL    HW2 2784   5.671   5.438   5.918
  629SOL     OW 2785   6.985   6.594   0.338
  629SOL    HW1 2786   6.967   6.692   0.344
  629SOL    HW2 2787   0.032   6.577   0.269
  630SOL     OW 2788   6.703   1.329   2.397
  630SOL    HW1 2789   6.785   1.286   2.357
  630SOL    HW2 2790   6.680   1.283   2.483
  631SOL     OW 2791   3.231   6.747   5.096
  631SOL    HW1 2792   3.258   6.660   5.055
  631SOL    HW2 2793   3.287   6.765   5.177
  632SOL     OW 2794   2.716   1.887   0.395
  632SOL    HW1 2795   2.770   1.845   0.322
  632SOL    HW2 2796   2.684   1.977   0.365
  633SOL     OW 2797   4.845   4.256   0.520
  633SOL    HW1 2798   4.933   4.271   0.474
  633SOL    HW2 2799   4.779   4.323   0.487
  634SOL     OW 2800   4.793   4.480   1.882
  634SOL    HW1 2801   4.715   4.429   1.846
  634SOL    HW2 2802   4.791   4.477   1.982
  635SOL     OW 2803   4.681   5.219   1.400
  635SOL    HW1 2804   4.608   5.166   1.446
  635SOL    HW2 2805   4.672   5.209   1.301
  636SOL     OW 2806   4.633   6.179   6.889
  636SOL    HW1 2807   4.728   6.192   6.918
  636SOL    HW2 2808   4.616   6.081   6.874
  637SOL     OW 2809   6.591   3.535   1.777
  637SOL    HW1 2810   6.513   3.502   1.724
  637SOL    HW2 2811   6.669   3.549   1.716
  638SOL     OW 2812   5.411   2.322   2.213
  638SOL    HW1 2813   5.413   2.322   2.313
  638SOL    HW2 2814   5.328   2.369   2.182
  639SOL     OW 2815   5.438   4.375   2.692
  639SOL    HW1 2816   5.523   4.423   2.671
  639SOL    HW2 2817   5.381   4.370   2.610
  640SOL     OW 2818   0.508   4.987   4.610
  640SOL    HW1 2819   0.526   5.022   4.519
  640SOL    HW2 2820   0.414   5.007   4.636
  641SOL     OW 2821   7.017   5.701   4.360
  641SOL    HW1 2822   6.980   5.766   4.294
  641SOL    HW2 2823   0.094   5.699   4.353
  642SOL     OW 2824   6.688   4.176   4.087
  642SOL    HW1 2825   6.645   4.147   4.001
  642SOL    HW2 2826   6.655   4.118   4.162
  643SOL     OW 2827   5.588   4.561   5.106
  643SOL    HW1 2828   5.571   4.604   5.194
  643SOL    HW2 2829   5.687   4.558   5.089
  644SOL     OW 2830   1.275   6.466   4.469
  644SOL    HW1 2831   1.198   6.501   4.416
  644SOL    HW2 2832   1.254   6.473   4.566
  645SOL     OW 2833   5.504   2.602   4.361
  645SOL    HW1 2834   5.473   2.549   4.282
  645SOL    HW2 2835   5.582   2.556   4.403
  646SOL     OW 2836   2.430   1.334   3.723
  646SOL    HW1 2837   2.336   1.366   3.734
  646SOL    HW2 2838   2.458   1.285   3.806
  647SOL     OW 2839   5.582   2.063   5.560
  647SOL    HW1 2840   5.671   2.101   5.588
  647SOL    HW2 2841   5.593   2.013   5.475
  648SOL     OW 2842   0.035   4.241   3.288
  648SOL    HW1 2843   0.023   4.288   3.201
  648SOL    HW2 2844   0.025   4.307   3.363
  649SOL     OW 2845   4.179   4.361   0.855
  649SOL    HW1 2846   4.145   4.411   0.935
  649SOL    HW2 2847   4.124   4.383   0.775
  650SOL     OW 2848   5.434   4.139   0.856
  650SOL    HW1 2849   5.372   4.060   0.850
  650SOL    HW2 2850   5.421   4.185   0.943
  651SOL     OW 2851   6.768   6.657   6.522
  651SOL    HW1 2852   6.849   6.714   6.536
  651SOL    HW2 2853   6.732   6.628   6.610
  652SOL     OW 2854   5.591   6.228   3.543
  652SOL    HW1 2855   5.522   6.239   3.614
  652SOL    HW2 2856   5.680   6.214   3.585
  653SOL     OW 2857   3.403   5.934   4.936
  653SOL    HW1 2858   3.412   6.010   5.000
  653SOL    HW2 2859   3.306   5.908   4.929
  654SOL     OW 2860   0.016   3.917   5.813
  654SOL    HW1 2861   0.024   3.836   5.755
  654SOL    HW2 2862   0.104   3.964   5.818
  655SOL     OW 2863   0.722   6.680   2.293
  655SOL    HW1 2864   0.776   6.718   2.369
  655SOL    HW2 2865   0.773   6.691   2.208
  656SOL     OW 2866   1.894   5.305   1.720
  656SOL    HW1 2867   1.898   5.363   1.802
  656SOL    HW2 2868   1.956   5.341   1.651
  657SOL     OW 2869   1.785   1.933   1.682
  657SOL    HW1 2870   1.812   1.842   1.652
  657SOL    HW2 2871   1.698   1.927   1.732
  658SOL     OW 2872   2.840   4.008   6.050
  658SOL    HW1 2873   2.885   4.087   6.090
  658SOL    HW2 2874   2.754   4.037   6.008
  659SOL     OW 2875   2.256   6.182   6.088
  659SOL    HW1 2876   2.232   6.087   6.067
  659SOL    HW2 2877   2.178   6.229   6.128
  660SOL     OW 2878   5.130   4.003   2.001
  660SOL    HW1 2879   5.096   4.085   2.048
  660SOL    HW2 2880   5.053   3.944   1.977
  661SOL     OW 2881   4.489   6.680   3.577
  661SOL    HW1 2882   4.542   6.738   3.639
  661SOL    HW2 2883   4.468   6.730   3.494
  662SOL     OW 2884   4.325   1.044   5.707
  662SOL    HW1 2885   4.362   1.126   5.750
  662SOL    HW2 2886   4.225   1.051   5.704
  663SOL     OW 2887   2.655   4.181   6.254
  663SOL    HW1 2888   2.645   4.154   6.158
  663SOL    HW2 2889   2.708   4.112   6.302
  664SOL     OW 2890   7.019   6.093   6.282
  664SOL    HW1 2891   0.016   6.191   6.271
  664SOL    HW2 2892   6.983   6.057   6.196
  665SOL     OW 2893   4.691   5.149   1.835
  665SOL    HW1 2894   4.674   5.091   1.755
  665SOL    HW2 2895   4.604   5.183   1.869
  666SOL     OW 2896   5.322   1.468   2.023
  666SOL    HW1 2897   5.391   1.455   1.952
  666SOL    HW2 2898   5.360   1.526   2.096
  667SOL     OW 2899   0.774   4.854   2.701
  667SOL    HW1 2900   0.759   4.805   2.615
  667SOL    HW2 2901   0.709   4.822   2.770
  668SOL     OW 2902   4.729   6.201   5.998
  668SOL    HW1 2903   4.650   6.193   5.938
  668SOL    HW2 2904   4.717   6.278   6.060
  669SOL     OW 2905   5.394   6.883   3.149
  669SOL    HW1 2906   5.392   6.983   3.149
  669SOL    HW2 2907   5.302   6.848   3.168
  670SOL     OW 2908   3.119   2.496   1.670
  670SOL    HW1 2909   3.212   2.495   1.705
  670SOL    HW2 2910   3.054   2.489   1.746
  671SOL     OW 2911   3.114   6.701   1.013
  671SOL    HW1 2912   3.151   6.659   0.930
  671SOL    HW2 2913   3.014   6.704   1.007
  672SOL     OW 2914   6.783   5.823   1.718
  672SOL    HW1 2915   6.842   5.829   1.799
  672SOL    HW2 2916   6.738   5.734   1.717
  673SOL     OW 2917   6.457   0.426   1.728
  673SOL    HW1 2918   6.535   0.435   1.667
  673SOL    HW2 2919   6.483   0.374   1.810
  674SOL     OW 2920   0.407   1.195   4.861
  674SOL    HW1 2921   0.395   1.129   4.787
  674SOL    HW2 2922   0.433   1.148   4.945
  675SOL     OW 2923   6.805   2.167   1.870
  675SOL    HW1 2924   6.728   2.157   1.934
  675SOL    HW2 2925   6.775   2.220   1.790
  676SOL     OW 2926   3.101   5.402   3.354
  676SOL    HW1 2927   3.053   5.339   3.293
  676SOL    HW2 2928   3.200   5.392   3.342
  677SOL     OW 2929   5.531   1.661   0.242
  677SOL    HW1 2930   5.502   1.692   0.151
  677SOL    HW2 2931   5.579   1.736   0.288
  678SOL     OW 2932   2.387   6.722   4.811
  678SOL    HW1 2933   2.397   6.645   4.748
  678SOL    HW2 2934   2.478   6.750   4.843
  679SOL     OW 2935   4.675   2.275   4.037
  679SOL    HW1 2936   4.679   2.211   4.114
  679SOL    HW2 2937   4.631   2.360   4.066
  680SOL     OW 2938   5.114   5.408   4.836
  680SOL    HW1 2939   5.182   5.379   4.903
  680SOL    HW2 2940   5.076   5.496   4.863
  681SOL     OW 2941   4.514   5.053   1.521
  681SOL    HW1 2942   4.424   5.019   1.549
  681SOL    HW2 2943   4.585   5.004   1.570
  682SOL     OW 2944   6.608   0.786   1.119
  682SOL    HW1 2945   6.633   0.748   1.030
  682SOL    HW2 2946   6.586   0.883   1.108
  683SOL     OW 2947   5.389   2.696   0.867
  683SOL    HW1 2948   5.444   2.618   0.896
  683SOL    HW2 2949   5.293   2.679   0.891
  684SOL     OW 2950   6.714   1.030   0.438
  684SOL    HW1 2951   6.619   1.055   0.457
  684SOL    HW2 2952   6.762   1.014   0.524
  685SOL     OW 2953   4.107   1.576   3.893
  685SOL    HW1 2954   4.081   1.492   3.942
  685SOL    HW2 2955   4.038   1.597   3.825
  686SOL     OW 2956   4.888   2.850   4.013
  686SOL    HW1 2957   4.822   2.860   4.088
  686SOL    HW2 2958   4.916   2.754   4.006
  687SOL     OW 2959   0.797   2.059   4.120
  687SOL    HW1 2960   0.824   1.989   4.054
  687SOL    HW2 2961   0.877   2.112   4.147
  688SOL     OW 2962   0.421   2.065   6.832
  688SOL    HW1 2963   0.326   2.072   6.861
  688SOL    HW2 2964   0.429   2.001   6.755
  689SOL     OW 2965   1.100   4.816   6.434
  689SOL    HW1 2966   1.054   4.736   6.475
  689SOL    HW2 2967   1.070   4.826   6.339
  690SOL     OW 2968   0.322   2.900   3.210
  690SOL    HW1 2969   0.333   2.806   3.177
  690SOL    HW2 2970   0.407   2.951   3.194
  691SOL     OW 2971   2.959   1.095   0.202
  691SOL    HW1 2972   2.928   1.015   0.253
  691SOL    HW2 2973   3.011   1.065   0.122
  692SOL     OW 2974   4.037   1.097   3.537
  692SOL    HW1 2975   3.940   1.111   3.558
  692SOL    HW2 2976   4.084   1.185   3.535
  693SOL     OW 2977   5.759   0.199   3.975
  693SOL    HW1 2978   5.744   0.104   4.004
  693SOL    HW2 2979   5.686   0.226   3.912
  694SOL     OW 2980   4.448   6.992   4.376
  694SOL    HW1 2981   4.445   6.938   4.291
  694SOL    HW2 2982   4.478   0.062   4.355
  695SOL     OW 2983   4.680   6.889   3.672
  695SOL    HW1 2984   4.687   6.909   3.770
  695SOL    HW2 2985   4.749   6.940   3.622
  696SOL     OW 2986   4.609   5.029   3.521
  696SOL    HW1 2987   4.536   5.016   3.588
  696SOL    HW2 2988   4.671   4.950   3.523
  697SOL     OW 2989   1.517   4.195   2.976
  697SOL    HW1 2990   1.583   4.197   3.050
  697SOL    HW2 2991   1.474   4.285   2.966
  698SOL     OW 2992   4.953   6.434   1.085
  698SOL    HW1 2993   5.019   6.402   1.018
  698SOL    HW2 2994   4.878   6.368   1.093
  699SOL     OW 2995   1.891   3.825   6.859
  699SOL    HW1 2996   1.983   3.832   6.819
  699SOL    HW2 2997   1.898   3.803   6.956
  700SOL     OW 2998   3.218   1.303   2.348
  700SOL    HW1 2999   3.120   1.300   2.369
  700SOL    HW2 3000   3.242   1.393   2.313
  701SOL     OW 3001   6.600   3.568   6.782
  701SOL    HW1 3002   6.567   3.564   6.876
  701SOL    HW2 3003   6.558   3.645   6.735
  702SOL     OW 3004   1.494   6.548   4.947
  702SOL    HW1 3005   1.548   6.496   4.881
  702SOL    HW2 3006   1.532   6.536   5.039
  703SOL     OW 3007   3.443   3.095   6.474
  703SOL    HW1 3008   3.398   3.137   6.395
  703SOL    HW2 3009   3.374   3.063   6.539
  704SOL     OW 3010   1.752   2.925   6.456
  704SOL    HW1 3011   1.733   3.011   6.504
  704SOL    HW2 3012   1.688   2.915   6.380
  705SOL     OW 3013   6.109   4.709   2.879
  705SOL    HW1 3014   6.150   4.618   2.890
  705SOL    HW2 3015   6.083   4.745   2.969
  706SOL     OW 3016   3.943   1.733   4.877
  706SOL    HW1 3017   3.882   1.655   4.888
  706SOL    HW2 3018   4.023   1.721   4.937
  707SOL     OW 3019   4.288   4.868   3.303
  707SOL    HW1 3020   4.316   4.964   3.299
  707SOL    HW2 3021   4.264   4.845   3.397
  708SOL     OW 3022   2.788   0.885   2.730
  708SOL    HW1 3023   2.718   0.816   2.711
  708SOL    HW2 3024   2.874   0.839   2.752
  709SOL     OW 3025   0.512   5.893   0.428
  709SOL    HW1 3026   0.522   5.814   0.488
  709SOL    HW2 3027   0.602   5.923   0.396
  710SOL     OW 3028   4.181   2.110   1.305
  710SOL    HW1 3029   4.222   2.201   1.314
  710SOL    HW2 3030   4.164   2.091   1.208
  711SOL     OW 3031   0.057   3.032   5.998
  711SOL    HW1 3032   7.021   2.961   5.958
  711SOL    HW2 3033   0.085   3.004   6.089
  712SOL     OW 3034   4.525   2.115   1.521
  712SOL    HW1 3035   4.545   2.045   1.452
  712SOL    HW2 3036   4.476   2.191   1.478
  713SOL     OW 3037   3.524   3.590   6.249
  713SOL    HW1 3038   3.425   3.599   6.257
  713SOL    HW2 3039   3.562   3.558   6.336
  714SOL     OW 3040   0.224   4.939   3.608
  714SOL    HW1 3041   0.215   4.926   3.707
  714SOL    HW2 3042   0.319   4.961   3.586
  715SOL     OW 3043   5.332   6.148   6.812
  715SOL    HW1 3044   5.356   6.052   6.826
  715SOL    HW2 3045   5.233   6.157   6.806
  716SOL     OW 3046   0.605   1.051   1.914
  716SOL    HW1 3047   0.704   1.049   1.929
  716SOL    HW2 3048   0.581   0.987   1.841
  717SOL     OW 3049   6.730   4.996   4.027
  717SOL    HW1 3050   6.714   4.932   4.102
  717SOL    HW2 3051   6.643   5.032   3.994
  718SOL     OW 3052   4.814   3.723   6.007
  718SOL    HW1 3053   4.873   3.804   6.003
  718SOL    HW2 3054   4.842   3.665   6.083
  719SOL     OW 3055   6.377   6.998   2.958
  719SOL    HW1 3056   6.326   6.978   3.042
  719SOL    HW2 3057   6.429   0.060   2.971
  720SOL     OW 3058   2.392   7.012   6.240
  720SOL    HW1 3059   2.453   6.986   6.166
  720SOL    HW2 3060   2.439   0.053   6.301
  721SOL     OW 3061   2.562   1.903   2.063
  721SOL    HW1 3062   2.628   1.972   2.032
  721SOL    HW2 3063   2.606   1.813   2.064
  722SOL     OW 3064   2.356   0.908   5.280
  722SOL    HW1 3065   2.435   0.854   5.310
  722SOL    HW2 3066   2.387   0.989   5.231
  723SOL     OW 3067   2.219   4.548   3.612
  723SOL    HW1 3068   2.193   4.461   3.655
  723SOL    HW2 3069   2.156   4.619   3.641
  724SOL     OW 3070   0.439   1.477   3.898
  724SOL    HW1 3071   0.501   1.452   3.972
  724SOL    HW2 3072   0.480   1.450   3.810
  725SOL     OW 3073   1.636   5.567   2.419
  725SOL    HW1 3074   1.559   5.537   2.363
  725SOL    HW2 3075   1.606   5.640   2.481
  726SOL     OW 3076   3.074   5.028   1.627
  726SOL    HW1 3077   3.061   5.102   1.692
  726SOL    HW2 3078   3.107   5.065   1.540
  727SOL     OW 3079   6.332   4.420   5.641
  727SOL    HW1 3080   6.313   4.497   5.579
  727SOL    HW2 3081   6.431   4.409   5.650
  728SOL     OW 3082   6.492   3.279   3.730
  728SOL    HW1 3083   6.467   3.182   3.726
  728SOL    HW2 3084   6.576   3.290   3.782
  729SOL     OW 3085   0.479   2.113   1.138
  729SOL    HW1 3086   0.570   2.072   1.130
  729SOL    HW2 3087   0.409   2.041   1.134
  730SOL     OW 3088   6.840   0.257   4.389
  730SOL    HW1 3089   6.868   0.291   4.300
  730SOL    HW2 3090   6.869   0.161   4.398
  731SOL     OW 3091   4.383   5.470   6.372
  731SOL    HW1 3092   4.289   5.502   6.359
  731SOL    HW2 3093   4.408   5.477   6.469
  732SOL     OW 3094   6.059   2.928   1.755
  732SOL    HW1 3095   5.984   2.924   1.822
  732SOL    HW2 3096   6.147   2.921   1.803
  733SOL     OW 3097   5.593   0.072   4.628
  733SOL    HW1 3098   5.621   0.008   4.557
  733SOL    HW2 3099   5.581   0.163   4.590
  734SOL     OW 3100   6.080   4.803   3.156
  734SOL    HW1 3101   6.115   4.896   3.146
  734SOL    HW2 3102   5.982   4.805   3.174
  735SOL     OW 3103   3.951   1.525   0.729
  735SOL    HW1 3104   4.047   1.502   0.718
  735SOL    HW2 3105   3.930   1.610   0.679
  736SOL     OW 3106   0.809   1.375   3.492
  736SOL    HW1 3107   0.854   1.293   3.456
  736SOL    HW2 3108   0.737   1.404   3.429
  737SOL     OW 3109   4.825   1.881   5.694
  737SOL    HW1 3110   4.766   1.935   5.754
  737SOL    HW2 3111   4.885   1.823   5.749
  738SOL     OW 3112   3.019   3.837   1.625
  738SOL    HW1 3113   3.062   3.750   1.602
  738SOL    HW2 3114   2.937   3.850   1.568
  739SOL     OW 3115   5.106   0.818   4.566
  739SOL    HW1 3116   5.068   0.820   4.659
  739SOL    HW2 3117   5.033   0.802   4.500
  740SOL     OW 3118   6.062   1.147   2.439
  740SOL    HW1 3119   6.048   1.081   2.512
  740SOL    HW2 3120   6.008   1.229   2.457
  741SOL     OW 3121   1.595   0.324   3.345
  741SOL    HW1 3122   1.581   0.377   3.261
  741SOL    HW2 3123   1.591   0.226   3.323
  742SOL     OW 3124   2.215   6.986   2.038
  742SOL    HW1 3125   2.212   6.958   1.942
  742SOL    HW2 3126   2.243   6.909   2.094
  743SOL     OW 3127   0.631   5.319   2.955
  743SOL    HW1 3128   0.541   5.284   2.981
  743SOL    HW2 3129   0.702   5.276   3.011
  744SOL     OW 3130   5.943   0.970   0.815
  744SOL    HW1 3131   5.959   0.876   0.845
  744SOL    HW2 3132   5.974   1.033   0.887
  745SOL     OW 3133   1.514   5.792   4.960
  745SOL    HW1 3134   1.534   5.888   4.940
  745SOL    HW2 3135   1.494   5.781   5.057
  746SOL     OW 3136   6.279   3.769   5.944
  746SOL    HW1 3137   6.195   3.726   5.977
  746SOL    HW2 3138   6.320   3.823   6.018
  747SOL     OW 3139   3.871   5.958   5.048
  747SOL    HW1 3140   3.937   5.903   4.997
  747SOL    HW2 3141   3.815   6.011   4.984
  748SOL     OW 3142   4.139   5.209   2.742
  748SOL    HW1 3143   4.231   5.168   2.738
  748SOL    HW2 3144   4.087   5.167   2.816
  749SOL     OW 3145   6.363   4.008   4.574
  749SOL    HW1 3146   6.286   4.046   4.521
  749SOL    HW2 3147   6.340   3.916   4.604
  750SOL     OW 3148   2.811   1.040   1.042
  750SOL    HW1 3149   2.784   0.945   1.061
  750SOL    HW2 3150   2.737   1.101   1.069
  751SOL     OW 3151   4.625   1.948   0.217
  751SOL    HW1 3152   4.551   1.908   0.162
  751SOL    HW2 3153   4.635   2.045   0.193
  752SOL     OW 3154   2.639   2.796   0.692
  752SOL    HW1 3155   2.626   2.859   0.769
  752SOL    HW2 3156   2.690   2.715   0.723
  753SOL     OW 3157   1.014   3.618   6.058
  753SOL    HW1 3158   1.056   3.708   6.066
  753SOL    HW2 3159   0.974   3.592   6.146
  754SOL     OW 3160   4.432   1.201   6.305
  754SOL    HW1 3161   4.411   1.267   6.377
  754SOL    HW2 3162   4.529   1.177   6.308
  755SOL     OW 3163   1.465   4.577   5.315
  755SOL    HW1 3164   1.497   4.591   5.409
  755SOL    HW2 3165   1.392   4.643   5.295
  756SOL     OW 3166   2.387   5.752   0.192
  756SOL    HW1 3167   2.348   5.791   0.276
  756SOL    HW2 3168   2.345   5.663   0.174
  757SOL     OW 3169   0.421   6.483   4.264
  757SOL    HW1 3170   0.483   6.415   4.303
  757SOL    HW2 3171   0.391   6.453   4.173
  758SOL     OW 3172   4.453   0.539   3.533
  758SOL    HW1 3173   4.393   0.616   3.557
  758SOL    HW2 3174   4.411   0.454   3.564
  759SOL     OW 3175   0.416   2.949   2.307
  759SOL    HW1 3176   0.390   3.031   2.257
  759SOL    HW2 3177   0.428   2.873   2.243
  760SOL     OW 3178   6.018   0.089   3.482
  760SOL    HW1 3179   6.070   0.025   3.538
  760SOL    HW2 3180   5.993   0.045   3.395
  761SOL     OW 3181   5.525   4.140   6.322
  761SOL    HW1 3182   5.437   4.165   6.362
  761SOL    HW2 3183   5.583   4.100   6.393
  762SOL     OW 3184   3.006   0.037   5.510
  762SOL    HW1 3185   3.005   0.038   5.610
  762SOL    HW2 3186   3.063   0.112   5.476
  763SOL     OW 3187   3.881   5.882   6.320
  763SOL    HW1 3188   3.836   5.967   6.345
  763SOL    HW2 3189   3.980   5.894   6.323
  764SOL     OW 3190   5.508   0.946   5.766
  764SOL    HW1 3191   5.461   0.903   5.689
  764SOL    HW2 3192   5.607   0.939   5.755
  765SOL     OW 3193   1.438   5.836   0.885
  765SOL    HW1 3194   1.364   5.903   0.891
  765SOL    HW2 3195   1.466   5.826   0.790
  766SOL     OW 3196   2.805   2.230   5.261
  766SOL    HW1 3197   2.766   2.310   5.306
  766SOL    HW2 3198   2.733   2.163   5.243
  767SOL     OW 3199   6.344   6.149   3.624
  767SOL    HW1 3200   6.405   6.224   3.650
  767SOL    HW2 3201   6.301   6.111   3.705
  768SOL     OW 3202   1.821   5.252   3.031
  768SOL    HW1 3203   1.801   5.237   3.128
  768SOL    HW2 3204   1.911   5.213   3.009
  769SOL     OW 3205   2.440   1.122   5.140
  769SOL    HW1 3206   2.417   1.214   5.171
  769SOL    HW2 3207   2.404   1.108   5.048
  770SOL     OW 3208   1.560   5.416   3.900
  770SOL    HW1 3209   1.637   5.352   3.898
  770SOL    HW2 3210   1.511   5.412   3.813
  771SOL     OW 3211   0.972   4.931   2.882
  771SOL    HW1 3212   0.898   4.898   2.824
  771SOL    HW2 3213   0.937   4.949   2.974
  772SOL     OW 3214   6.123   4.563   0.214
  772SOL    HW1 3215   6.052   4.593   0.150
  772SOL    HW2 3216   6.092   4.576   0.308
  773SOL     OW 3217   0.659   4.263   3.394
  773SOL    HW1 3218   0.664   4.274   3.295
  773SOL    HW2 3219   0.709   4.181   3.421
  774SOL     OW 3220   1.687   1.433   1.571
  774SOL    HW1 3221   1.635   1.444   1.656
  774SOL    HW2 3222   1.731   1.344   1.570
  775SOL     OW 3223   2.163   1.853   4.083
  775SOL    HW1 3224   2.216   1.837   3.999
  775SOL    HW2 3225   2.113   1.939   4.074
  776SOL     OW 3226   6.976   0.430   6.268
  776SOL    HW1 3227   6.915   0.387   6.202
  776SOL    HW2 3228   6.947   0.524   6.284
  777SOL     OW 3229   1.936   4.151   1.068
  777SOL    HW1 3230   2.017   4.205   1.046
  777SOL    HW2 3231   1.860   4.178   1.009
  778SOL     OW 3232   2.373   0.565   1.413
  778SOL    HW1 3233   2.277   0.538   1.421
  778SOL    HW2 3234   2.394   0.584   1.317
  779SOL     OW 3235   6.777   2.312   2.473
  779SOL    HW1 3236   6.809   2.247   2.543
  779SOL    HW2 3237   6.846   2.319   2.401
  780SOL     OW 3238   0.597   2.612   4.123
  780SOL    HW1 3239   0.663   2.687   4.113
  780SOL    HW2 3240   0.638   2.527   4.089
  781SOL     OW 3241   5.614   6.281   0.891
  781SOL    HW1 3242   5.605   6.191   0.933
  781SOL    HW2 3243   5.594   6.274   0.793
  782SOL     OW 3244   1.651   3.499   5.988
  782SOL    HW1 3245   1.702   3.547   5.916
  782SOL    HW2 3246   1.714   3.443   6.042
  783SOL     OW 3247   5.094   4.798   1.826
  783SOL    HW1 3248   5.047   4.710   1.824
  783SOL    HW2 3249   5.135   4.815   1.736
  784SOL     OW 3250   3.973   5.121   1.518
  784SOL    HW1 3251   3.965   5.087   1.611
  784SOL    HW2 3252   3.996   5.046   1.456
  785SOL     OW 3253   0.635   1.732   3.421
  785SOL    HW1 3254   0.728   1.716   3.388
  785SOL    HW2 3255   0.609   1.827   3.404
  786SOL     OW 3256   0.241   0.338   2.667
  786SOL    HW1 3257   0.296   0.420   2.682
  786SOL    HW2 3258   0.246   0.280   2.749
  787SOL     OW 3259   1.484   0.757   6.842
  787SOL    HW1 3260   1.522   0.733   6.930
  787SOL    HW2 3261   1.385   0.772   6.851
  788SOL     OW 3262   4.392   1.764   1.196
  788SOL    HW1 3263   4.406   1.819   1.114
  788SOL    HW2 3264   4.383   1.824   1.275
  789SOL     OW 3265   4.158   4.677   1.952
  789SOL    HW1 3266   4.238   4.632   1.990
  789SOL    HW2 3267   4.100   4.710   2.027
  790SOL     OW 3268   2.825   1.721   3.026
  790SOL    HW1 3269   2.804   1.624   3.035
  790SOL    HW2 3270   2.858   1.756   3.113
  791SOL     OW 3271   1.904   6.381   4.606
  791SOL    HW1 3272   1.950   6.468   4.588
  791SOL    HW2 3273   1.807   6.397   4.623
  792SOL     OW 3274   0.999   0.717   1.933
  792SOL    HW1 3275   0.968   0.690   2.024
  792SOL    HW2 3276   1.095   0.745   1.937
  793SOL     OW 3277   4.963   5.749   4.617
  793SOL    HW1 3278   4.949   5.738   4.518
  793SOL    HW2 3279   5.014   5.671   4.652
  794SOL     OW 3280   3.042   4.048   5.733
  794SOL    HW1 3281   2.996   4.128   5.772
  794SOL    HW2 3282   3.140   4.052   5.754
  795SOL     OW 3283   3.975   0.490   5.356
  795SOL    HW1 3284   4.061   0.542   5.353
  795SOL    HW2 3285   3.984   0.408   5.299
  796SOL     OW 3286   0.780   2.970   6.986
  796SOL    HW1 3287   0.828   2.891   7.023
  796SOL    HW2 3288   0.832   3.053   7.007
  797SOL     OW 3289   4.871   0.470   0.805
  797SOL    HW1 3290   4.848   0.403   0.734
  797SOL    HW2 3291   4.825   0.444   0.890
  798SOL     OW 3292   3.587   6.642   2.128
  798SOL    HW1 3293   3.545   6.733   2.131
  798SOL    HW2 3294   3.533   6.583   2.068
  799SOL     OW 3295   0.434   0.217   6.498
  799SOL    HW1 3296   0.362   0.243   6.563
  799SOL    HW2 3297   0.517   0.269   6.518
  800SOL     OW 3298   6.181   0.751   2.113
  800SOL    HW1 3299   6.174   0.843   2.152
  800SOL    HW2 3300   6.278   0.724   2.111
  801SOL     OW 3301   2.241   4.725   5.183
  801SOL    HW1 3302   2.149   4.764   5.193
  801SOL    HW2 3303   2.236   4.642   5.128
  802SOL     OW 3304   3.154   2.607   0.483
  802SOL    HW1 3305   3.134   2.562   0.570
  802SOL    HW2 3306   3.096   2.569   0.411
  803SOL     OW 3307   1.382   0.557   5.933
  803SOL    HW1 3308   1.325   0.602   5.864
  803SOL    HW2 3309   1.333   0.555   6.020
  804SOL     OW 3310   6.228   6.468   0.978
  804SOL    HW1 3311   6.130   6.481   0.964
  804SOL    HW2 3312   6.266   6.546   1.027
  805SOL     OW 3313   2.192   1.222   4.329
  805SOL    HW1 3314   2.282   1.180   4.321
  805SOL    HW2 3315   2.195   1.294   4.398
  806SOL     OW 3316   5.346   0.613   5.592
  806SOL    HW1 3317   5.317   0.700   5.553
  806SOL    HW2 3318   5.354   0.545   5.519
  807SOL     OW 3319   0.633   0.368   4.959
  807SOL    HW1 3320   0.638   0.268   4.962
  807SOL    HW2 3321   0.543   0.397   4.926
  808SOL     OW 3322   4.404   3.406   0.081
  808SOL    HW1 3323   4.457   3.412   0.165
  808SOL    HW2 3324   4.365   3.496   0.059
  809SOL     OW 3325   0.430   4.920   0.967
  809SOL    HW1 3326   0.492   4.998   0.954
  809SOL    HW2 3327   0.359   4.922   0.896
  810SOL     OW 3328   3.340   4.754   0.394
  810SOL    HW1 3329   3.333   4.704   0.481
  810SOL    HW2 3330   3.436   4.766   0.370
  811SOL     OW 3331   5.268   5.828   4.472
  811SOL    HW1 3332   5.226   5.907   4.518
  811SOL    HW2 3333   5.365   5.847   4.457
  812SOL     OW 3334   0.083   1.440   2.393
  812SOL    HW1 3335   0.111   1.469   2.301
  812SOL    HW2 3336   0.096   1.516   2.457
  813SOL     OW 3337   3.735   0.046   4.262
  813SOL    HW1 3338   3.806   0.107   4.226
  813SOL    HW2 3339   3.671   0.023   4.188
  814SOL     OW 3340   6.411   5.342   2.409
  814SOL    HW1 3341   6.499   5.305   2.378
  814SOL    HW2 3342   6.341   5.326   2.340
  815SOL     OW 3343   6.301   3.070   3.391
  815SOL    HW1 3344   6.209   3.108   3.378
  815SOL    HW2 3345   6.359   3.138   3.436
  816SOL     OW 3346   5.699   5.214   0.495
  816SOL    HW1 3347   5.690   5.150   0.572
  816SOL    HW2 3348   5.610   5.227   0.452
  817SOL     OW 3349   0.911   5.301   1.091
  817SOL    HW1 3350   0.955   5.223   1.045
  817SOL    HW2 3351   0.959   5.320   1.176
  818SOL     OW 3352   6.245   3.684   3.495
  818SOL    HW1 3353   6.318   3.657   3.433
  818SOL    HW2 3354   6.212   3.603   3.544
  819SOL     OW 3355   6.421   3.062   1.588
  819SOL    HW1 3356   6.493   3.123   1.623
  819SOL    HW2 3357   6.460   3.002   1.518
  820SOL     OW 3358   2.778   2.229   4.864
  820SOL    HW1 3359   2.839   2.187   4.931
  820SOL    HW2 3360   2.739   2.313   4.902
  821SOL     OW 3361   6.475   4.798   6.319
  821SOL    HW1 3362   6.543   4.724   6.316
  821SOL    HW2 3363   6.491   4.855   6.400
  822SOL     OW 3364   6.943   3.288   3.243
  822SOL    HW1 3365   6.969   3.279   3.146
  822SOL    HW2 3366   6.993   3.221   3.297
  823SOL     OW 3367   6.345   4.490   5.907
  823SOL    HW1 3368   6.256   4.522   5.939
  823SOL    HW2 3369   6.339   4.470   5.809
  824SOL     OW 3370   4.197   1.109   6.214
  824SOL    HW1 3371   4.282   1.153   6.243
  824SOL    HW2 3372   4.203   1.011   6.233
  825SOL     OW 3373   6.340   5.435   1.398
  825SOL    HW1 3374   6.331   5.443   1.299
  825SOL    HW2 3375   6.318   5.523   1.441
  826SOL     OW 3376   4.067   2.319   5.593
  826SOL    HW1 3377   4.028   2.243   5.645
  826SOL    HW2 3378   4.142   2.360   5.645
  827SOL     OW 3379   2.610   4.365   5.303
  827SOL    HW1 3380   2.573   4.281   5.343
  827SOL    HW2 3381   2.553   4.393   5.225
  828SOL     OW 3382   5.776   6.554   6.675
  828SOL    HW1 3383   5.821   6.638   6.645
  828SOL    HW2 3384   5.845   6.484   6.693
  829SOL     OW 3385   3.879   3.444   2.020
  829SOL    HW1 3386   3.810   3.398   1.964
  829SOL    HW2 3387   3.877   3.406   2.113
  830SOL     OW 3388   5.256   4.834   6.691
  830SOL    HW1 3389   5.326   4.768   6.661
  830SOL    HW2 3390   5.168   4.787   6.700
  831SOL     OW 3391   5.996   6.953   0.603
  831SOL    HW1 3392   6.084   6.934   0.647
  831SOL    HW2 3393   6.010   7.012   0.523
  832SOL     OW 3394   4.270   2.313   3.913
  832SOL    HW1 3395   4.240   2.235   3.859
  832SOL    HW2 3396   4.190   2.369   3.938
  833SOL     OW 3397   2.023   3.686   6.550
  833SOL    HW1 3398   1.924   3.690   6.560
  833SOL    HW2 3399   2.046   3.664   6.455
  834SOL     OW 3400   5.191   3.585   1.223
  834SOL    HW1 3401   5.196   3.487   1.245
  834SOL    HW2 3402   5.189   3.638   1.308
  835SOL     OW 3403   3.121   6.764   4.847
  835SOL    HW1 3404   3.023   6.745   4.844
  835SOL    HW2 3405   3.153   6.756   4.942
  836SOL     OW 3406   4.057   6.803   4.954
  836SOL    HW1 3407   4.109   6.883   4.923
  836SOL    HW2 3408   4.091   6.773   5.042
  837SOL     OW 3409   6.946   0.774   1.284
  837SOL    HW1 3410   6.930   0.867   1.249
  837SOL    HW2 3411   0.003   0.774   1.344
  838SOL     OW 3412   2.681   6.742   4.565
  838SOL    HW1 3413   2.709   6.735   4.470
  838SOL    HW2 3414   2.645   6.833   4.583
  839SOL     OW 3415   2.215   1.364   1.994
  839SOL    HW1 3416   2.284   1.416   2.045
  839SOL    HW2 3417   2.182   1.419   1.918
  840SOL     OW 3418   6.359   5.733   0.117
  840SOL    HW1 3419   6.409   5.788   0.184
  840SOL    HW2 3420   6.332   5.791   0.039
  841SOL     OW 3421   3.426   5.514   5.942
  841SOL    HW1 3422   3.379   5.504   5.855
  841SOL    HW2 3423   3.517   5.473   5.936
  842SOL     OW 3424   3.623   0.491   5.803
  842SOL    HW1 3425   3.591   0.564   5.864
  842SOL    HW2 3426   3.593   0.511   5.709
  843SOL     OW 3427   1.211   1.673   1.580
  843SOL    HW1 3428   1.268   1.755   1.579
  843SOL    HW2 3429   1.169   1.661   1.489
  844SOL     OW 3430   6.879   6.839   0.321
  844SOL    HW1 3431   6.847   6.886   0.239
  844SOL    HW2 3432   6.906   6.906   0.390
  845SOL     OW 3433   5.103   4.236   3.408
  845SOL    HW1 3434   5.117   4.245   3.310
  845SOL    HW2 3435   5.033   4.167   3.426
  846SOL     OW 3436   2.043   0.732   5.954
  846SOL    HW1 3437   1.971   0.722   5.885
  846SOL    HW2 3438   2.127   0.763   5.910
  847SOL     OW 3439   1.153   3.377   1.412
  847SOL    HW1 3440   1.128   3.288   1.452
  847SOL    HW2 3441   1.093   3.396   1.335
  848SOL     OW 3442   6.861   6.904   5.884
  848SOL    HW1 3443   6.781   6.894   5.824
  848SOL    HW2 3444   6.926   6.968   5.843
  849SOL     OW 3445   6.238   4.287   6.426
  849SOL    HW1 3446   6.215   4.280   6.329
  849SOL    HW2 3447   6.200   4.371   6.464
  850SOL     OW 3448   6.013   0.415   4.931
  850SOL    HW1 3449   5.935   0.389   4.874
  850SOL    HW2 3450   5.988   0.493   4.989
  851SOL     OW 3451   6.739   2.688   0.596
  851SOL    HW1 3452   6.666   2.619   0.590
  851SOL    HW2 3453   6.818   2.649   0.643
  852SOL     OW 3454   0.931   4.243   0.361
  852SOL    HW1 3455   1.013   4.219   0.309
  852SOL    HW2 3456   0.941   4.335   0.399
  853SOL     OW 3457   0.910   4.769   0.436
  853SOL    HW1 3458   0.820   4.732   0.462
  853SOL    HW2 3459   0.945   4.826   0.510
  854SOL     OW 3460   4.808   5.628   0.500
  854SOL    HW1 3461   4.778   5.698   0.564
  854SOL    HW2 3462   4.908   5.627   0.497
  855SOL     OW 3463   6.546   6.960   0.927
  855SOL    HW1 3464   6.572   6.953   1.023
  855SOL    HW2 3465   6.457   6.915   0.914
  856SOL     OW 3466   1.485   1.411   6.722
  856SOL    HW1 3467   1.549   1.364   6.662
  856SOL    HW2 3468   1.478   1.361   6.809
  857SOL     OW 3469   6.134   5.113   1.974
  857SOL    HW1 3470   6.123   5.178   1.899
  857SOL    HW2 3471   6.129   5.020   1.938
  858SOL     OW 3472   2.940   4.115   1.217
  858SOL    HW1 3473   2.858   4.113   1.274
  858SOL    HW2 3474   2.920   4.072   1.129
  859SOL     OW 3475   5.661   6.542   5.234
  859SOL    HW1 3476   5.723   6.465   5.248
  859SOL    HW2 3477   5.713   6.627   5.228
  860SOL     OW 3478   6.782   2.772   6.997
  860SOL    HW1 3479   6.787   2.674   6.979
  860SOL    HW2 3480   6.731   2.788   0.058
  861SOL     OW 3481   2.210   4.740   3.885
  861SOL    HW1 3482   2.145   4.751   3.809
  861SOL    HW2 3483   2.204   4.646   3.919
  862SOL     OW 3484   1.821   3.924   3.027
  862SOL    HW1 3485   1.832   3.967   2.937
  862SOL    HW2 3486   1.861   3.832   3.025
  863SOL     OW 3487   5.674   0.906   6.446
  863SOL    HW1 3488   5.655   0.933   6.540
  863SOL    HW2 3489   5.590   0.869   6.405
  864SOL     OW 3490   4.075   6.150   3.867
  864SOL    HW1 3491   4.163   6.194   3.885
  864SOL    HW2 3492   4.083   6.052   3.884
  865SOL     OW 3493   1.700   6.883   6.124
  865SOL    HW1 3494   1.663   6.862   6.034
  865SOL    HW2 3495   1.770   6.816   6.148
  866SOL     OW 3496   3.047   0.814   0.682
  866SOL    HW1 3497   3.097   0.769   0.756
  866SOL    HW2 3498   3.074   0.910   0.677
  867SOL     OW 3499   5.306   3.434   0.298
  867SOL    HW1 3500   5.282   3.365   0.366
  867SOL    HW2 3501   5.319   3.522   0.344
  868SOL     OW 3502   6.566   0.926   1.455
  868SOL    HW1 3503   6.518   0.853   1.406
  868SOL    HW2 3504   6.500   0.978   1.509
  869SOL     OW 3505   0.455   4.343   2.925
  869SOL    HW1 3506   0.429   4.305   3.014
  869SOL    HW2 3507   0.546   4.311   2.900
  870SOL     OW 3508   4.077   3.852   0.540
  870SOL    HW1 3509   4.096   3.785   0.468
  870SOL    HW2 3510   4.163   3.893   0.570
  871SOL     OW 3511   5.233   2.239   3.379
  871SOL    HW1 3512   5.317   2.290   3.360
  871SOL    HW2 3513   5.189   2.214   3.293
  872SOL     OW 3514   5.582   3.231   3.753
  872SOL    HW1 3515   5.680   3.209   3.753
  872SOL    HW2 3516   5.570   3.323   3.715
  873SOL     OW 3517   5.104   5.524   5.227
  873SOL    HW1 3518   5.035   5.464   5.187
  873SOL    HW2 3519   5.063   5.576   5.303
  874SOL     OW 3520   6.277   3.655   6.322
  874SOL    HW1 3521   6.286   3.606   6.409
  874SOL    HW2 3522   6.363   3.651   6.272
  875SOL     OW 3523   5.112   5.171   1.085
  875SOL    HW1 3524   5.052   5.219   1.149
  875SOL    HW2 3525   5.144   5.234   1.015
  876SOL     OW 3526   0.049   5.081   2.261
  876SOL    HW1 3527   0.065   5.178   2.244
  876SOL    HW2 3528   0.038   5.066   2.359
  877SOL     OW 3529   3.665   4.967   5.558
  877SOL    HW1 3530   3.742   5.027   5.535
  877SOL    HW2 3531   3.615   4.943   5.475
  878SOL     OW 3532   5.039   6.636   4.392
  878SOL    HW1 3533   5.009   6.643   4.487
  878SOL    HW2 3534   5.046   6.728   4.352
  879SOL     OW 3535   4.168   1.122   1.738
  879SOL    HW1 3536   4.104   1.064   1.788
  879SOL    HW2 3537   4.154   1.218   1.766
  880SOL     OW 3538   3.134   3.893   3.879
  880SOL    HW1 3539   3.110   3.798   3.901
  880SOL    HW2 3540   3.111   3.952   3.956
  881SOL     OW 3541   5.173   3.947   5.585
  881SOL    HW1 3542   5.241   4.008   5.625
  881SOL    HW2 3543   5.177   3.858   5.630
  882SOL     OW 3544   1.211   2.186   3.639
  882SOL    HW1 3545   1.139   2.178   3.709
  882SOL    HW2 3546   1.168   2.192   3.549
  883SOL     OW 3547   3.505   0.287   0.546
  883SOL    HW1 3548   3.468   0.364   0.598
  883SOL    HW2 3549   3.491   0.303   0.449
  884SOL     OW 3550   0.069   4.180   6.860
  884SOL    HW1 3551   0.124   4.261   6.842
  884SOL    HW2 3552   0.057   4.129   6.775
  885SOL     OW 3553   4.796   0.176   4.855
  885SOL    HW1 3554   4.892   0.146   4.852
  885SOL    HW2 3555   4.752   0.139   4.937
  886SOL     OW 3556   3.785   0.244   0.542
  886SOL    HW1 3557   3.690   0.265   0.564
  886SOL    HW2 3558   3.804   0.148   0.563
  887SOL     OW 3559   3.849   6.500   3.689
  887SOL    HW1 3560   3.865   6.408   3.726
  887SOL    HW2 3561   3.936   6.539   3.658
  888SOL     OW 3562   0.688   6.058   3.471
  888SOL    HW1 3563   0.787   6.061   3.456
  888SOL    HW2 3564   0.645   6.136   3.425
  889SOL     OW 3565   0.141   1.550   6.571
  889SOL    HW1 3566   0.235   1.557   6.604
  889SOL    HW2 3567   0.094   1.637   6.584
  890SOL     OW 3568   2.479   4.903   2.848
  890SOL    HW1 3569   2.467   4.913   2.947
  890SOL    HW2 3570   2.393   4.924   2.802
  891SOL     OW 3571   6.697   3.868   1.035
  891SOL    HW1 3572   6.614   3.845   1.086
  891SOL    HW2 3573   6.695   3.822   0.946
  892SOL     OW 3574   3.309   3.839   4.957
  892SOL    HW1 3575   3.280   3.781   4.881
  892SOL    HW2 3576   3.241   3.837   5.029
  893SOL     OW 3577   2.074   6.857   3.503
  893SOL    HW1 3578   2.094   6.772   3.454
  893SOL    HW2 3579   1.977   6.861   3.524
  894SOL     OW 3580   1.284   2.897   2.748
  894SOL    HW1 3581   1.293   2.810   2.699
  894SOL    HW2 3582   1.363   2.955   2.728
  895SOL     OW 3583   1.266   5.159   4.336
  895SOL    HW1 3584   1.203   5.082   4.320
  895SOL    HW2 3585   1.272   5.177   4.434
  896SOL     OW 3586   5.677   4.894   1.589
  896SOL    HW1 3587   5.749   4.944   1.637
  896SOL    HW2 3588   5.715   4.811   1.549
  897SOL     OW 3589   4.174   1.250   6.468
  897SOL    HW1 3590   4.208   1.225   6.559
  897SOL    HW2 3591   4.201   1.181   6.402
  898SOL     OW 3592   4.065   6.638   2.779
  898SOL    HW1 3593   4.151   6.646   2.729
  898SOL    HW2 3594   4.081   6.659   2.876
  899SOL     OW 3595   0.416   6.175   6.992
  899SOL    HW1 3596   0.391   6.211   0.059
  899SOL    HW2 3597   0.466   6.089   7.004
  900SOL     OW 3598   5.403   6.856   6.637
  900SOL    HW1 3599   5.406   6.848   6.737
  900SOL    HW2 3600   5.329   6.917   6.611
  901SOL     OW 3601   1.426   0.769   3.717
  901SOL    HW1 3602   1.353   0.716   3.675
  901SOL    HW2 3603   1.422   0.863   3.685
  902SOL     OW 3604   1.098   3.180   1.608
  902SOL    HW1 3605   1.093   3.086   1.575
  902SOL    HW2 3606   1.073   3.183   1.705
  903SOL     OW 3607   1.223   3.283   6.859
  903SOL    HW1 3608   1.179   3.206   6.813
  903SOL    HW2 3609   1.178   3.300   6.946
  904SOL     OW 3610   1.845   2.572   2.408
  904SOL    HW1 3611   1.847   2.481   2.367
  904SOL    HW2 3612   1.781   2.630   2.357
  905SOL     OW 3613   5.029   3.869   6.706
  905SOL    HW1 3614   4.936   3.884   6.671
  905SOL    HW2 3615   5.024   3.839   6.801
  906SOL     OW 3616   0.633   2.206   6.682
  906SOL    HW1 3617   0.572   2.241   6.611
  906SOL    HW2 3618   0.579   2.174   6.760
  907SOL     OW 3619   4.824   2.704   0.934
  907SOL    HW1 3620   4.844   2.709   1.032
  907SOL    HW2 3621   4.763   2.779   0.909
  908SOL     OW 3622   2.423   4.405   3.369
  908SOL    HW1 3623   2.442   4.425   3.273
  908SOL    HW2 3624   2.432   4.489   3.423
  909SOL     OW 3625   3.905   6.184   2.186
  909SOL    HW1 3626   3.893   6.094   2.143
  909SOL    HW2 3627   3.967   6.240   2.131
  910SOL     OW 3628   3.272   1.798   1.444
  910SOL    HW1 3629   3.192   1.832   1.394
  910SOL    HW2 3630   3.301   1.866   1.511
  911SOL     OW 3631   1.372   6.355   6.911
  911SOL    HW1 3632   1.340   6.311   6.995
  911SOL    HW2 3633   1.302   6.418   6.877
  912SOL     OW 3634   5.907   0.995   3.069
  912SOL    HW1 3635   5.839   0.956   3.007
  912SOL    HW2 3636   5.887   1.092   3.084
  913SOL     OW 3637   3.257   0.629   4.291
  913SOL    HW1 3638   3.226   0.561   4.226
  913SOL    HW2 3639   3.282   0.585   4.377
  914SOL     OW 3640   2.176   6.739   5.448
  914SOL    HW1 3641   2.155   6.774   5.357
  914SOL    HW2 3642   2.204   6.814   5.508
  915SOL     OW 3643   0.051   3.182   0.397
  915SOL    HW1 3644   0.016   3.121   0.468
  915SOL    HW2 3645   0.051   3.276   0.431
  916SOL     OW 3646   1.930   3.143   2.531
  916SOL    HW1 3647   2.019   3.183   2.509
  916SOL    HW2 3648   1.880   3.123   2.446
  917SOL     OW 3649   0.883   6.732   2.099
  917SOL    HW1 3650   0.927   6.822   2.097
  917SOL    HW2 3651   0.917   6.676   2.024
  918SOL     OW 3652   3.631   0.205   0.855
  918SOL    HW1 3653   3.718   0.254   0.863
  918SOL    HW2 3654   3.555   0.270   0.864
  919SOL     OW 3655   6.755   6.460   3.251
  919SOL    HW1 3656   6.804   6.480   3.166
  919SOL    HW2 3657   6.674   6.518   3.256
  920SOL     OW 3658   2.463   4.498   2.735
  920SOL    HW1 3659   2.547   4.512   2.787
  920SOL    HW2 3660   2.482   4.439   2.657
  921SOL     OW 3661   4.259   5.611   4.096
  921SOL    HW1 3662   4.178   5.573   4.053
  921SOL    HW2 3663   4.267   5.576   4.190
  922SOL     OW 3664   3.029   3.892   4.412
  922SOL    HW1 3665   3.118   3.925   4.444
  922SOL    HW2 3666   3.004   3.809   4.461
  923SOL     OW 3667   2.747   3.772   6.150
  923SOL    HW1 3668   2.776   3.753   6.244
  923SOL    HW2 3669   2.794   3.853   6.116
  924SOL     OW 3670   6.246   3.499   2.111
  924SOL    HW1 3671   6.223   3.401   2.108
  924SOL    HW2 3672   6.212   3.539   2.196
  925SOL     OW 3673   6.959   2.144   6.933
  925SOL    HW1 3674   6.975   2.238   6.962
  925SOL    HW2 3675   6.910   2.144   6.846
  926SOL     OW 3676   6.476   0.633   1.324
  926SOL    HW1 3677   6.529   0.675   1.251
  926SOL    HW2 3678   6.428   0.553   1.288
  927SOL     OW 3679   5.625   4.319   3.027
  927SOL    HW1 3680   5.556   4.389   3.047
  927SOL    HW2 3681   5.684   4.307   3.107
  928SOL     OW 3682   1.724   6.631   0.232
  928SOL    HW1 3683   1.806   6.613   0.177
  928SOL    HW2 3684   1.717   6.563   0.305
  929SOL     OW 3685   0.650   0.678   6.732
  929SOL    HW1 3686   0.608   0.610   6.672
  929SOL    HW2 3687   0.670   0.636   6.820
  930SOL     OW 3688   5.351   6.364   5.805
  930SOL    HW1 3689   5.290   6.356   5.884
  930SOL    HW2 3690   5.445   6.349   5.835
  931SOL     OW 3691   6.403   1.615   4.996
  931SOL    HW1 3692   6.488   1.629   4.946
  931SOL    HW2 3693   6.381   1.518   4.998
  932SOL     OW 3694   3.436   0.304   3.259
  932SOL    HW1 3695   3.492   0.221   3.264
  932SOL    HW2 3696   3.389   0.318   3.346
  933SOL     OW 3697   1.652   6.336   3.433
  933SOL    HW1 3698   1.685   6.303   3.521
  933SOL    HW2 3699   1.552   6.342   3.435
  934SOL     OW 3700   2.402   6.176   0.204
  934SOL    HW1 3701   2.471   6.248   0.203
  934SOL    HW2 3702   2.325   6.205   0.261
  935SOL     OW 3703   5.322   3.994   4.500
  935SOL    HW1 3704   5.351   4.089   4.508
  935SOL    HW2 3705   5.241   3.979   4.557
  936SOL     OW 3706   6.798   0.353   6.084
  936SOL    HW1 3707   6.700   0.337   6.070
  936SOL    HW2 3708   6.846   0.342   5.997
  937SOL     OW 3709   5.123   2.000   6.318
  937SOL    HW1 3710   5.216   2.028   6.345
  937SOL    HW2 3711   5.096   1.921   6.374
  938SOL     OW 3712   5.570   4.768   6.569
  938SOL    HW1 3713   5.603   4.690   6.622
  938SOL    HW2 3714   5.574   4.851   6.625
  939SOL     OW 3715   0.209   0.055   4.047
  939SOL    HW1 3716   0.282   0.121   4.067
  939SOL    HW2 3717   0.145   0.051   4.124
  940SOL     OW 3718   0.479   4.075   1.658
  940SOL    HW1 3719   0.480   4.057   1.756
  940SOL    HW2 3720   0.554   4.137   1.634
  941SOL     OW 3721   5.907   1.936   6.878
  941SOL    HW1 3722   5.906   2.033   6.900
  941SOL    HW2 3723   5.905   1.925   6.779
  942SOL     OW 3724   5.912   6.816   2.872
  942SOL    HW1 3725   5.925   6.728   2.918
  942SOL    HW2 3726   5.999   6.865   2.869
  943SOL     OW 3727   1.586   3.750   3.191
  943SOL    HW1 3728   1.505   3.692   3.197
  943SOL    HW2 3729   1.572   3.820   3.122
  944SOL     OW 3730   6.971   5.137   5.666
  944SOL    HW1 3731   6.960   5.050   5.715
  944SOL    HW2 3732   6.887   5.190   5.674
  945SOL     OW 3733   0.354   3.994   6.033
  945SOL    HW1 3734   0.402   3.909   6.056
  945SOL    HW2 3735   0.416   4.056   5.986
  946SOL     OW 3736   4.985   4.249   4.981
  946SOL    HW1 3737   5.049   4.304   5.033
  946SOL    HW2 3738   5.006   4.255   4.883
  947SOL     OW 3739   3.805   3.291   3.715
  947SOL    HW1 3740   3.870   3.313   3.788
  947SOL    HW2 3741   3.743   3.369   3.702
  948SOL     OW 3742   5.087   0.965   2.783
  948SOL    HW1 3743   5.183   0.947   2.765
  948SOL    HW2 3744   5.033   0.884   2.763
  949SOL     OW 3745   1.950   5.796   0.898
  949SOL    HW1 3746   1.887   5.846   0.958
  949SOL    HW2 3747   1.970   5.707   0.938
  950SOL     OW 3748   5.264   5.770   2.306
  950SOL    HW1 3749   5.249   5.695   2.370
  950SOL    HW2 3750   5.330   5.834   2.344
  951SOL     OW 3751   1.236   0.485   4.069
  951SOL    HW1 3752   1.167   0.425   4.029
  951SOL    HW2 3753   1.224   0.490   4.168
  952SOL     OW 3754   4.176   2.320   3.398
  952SOL    HW1 3755   4.244   2.299   3.328
  952SOL    HW2 3756   4.207   2.396   3.454
  953SOL     OW 3757   5.254   5.675   4.740
  953SOL    HW1 3758   5.220   5.596   4.689
  953SOL    HW2 3759   5.271   5.750   4.677
  954SOL     OW 3760   3.793   5.653   2.005
  954SOL    HW1 3761   3.885   5.618   2.020
  954SOL    HW2 3762   3.737   5.581   1.963
  955SOL     OW 3763   0.567   3.886   0.953
  955SOL    HW1 3764   0.540   3.929   1.039
  955SOL    HW2 3765   0.605   3.955   0.892
  956SOL     OW 3766   6.178   0.372   1.669
  956SOL    HW1 3767   6.270   0.408   1.690
  956SOL    HW2 3768   6.182   0.273   1.662
  957SOL     OW 3769   5.767   2.881   3.074
  957SOL    HW1 3770   5.800   2.932   2.994
  957SOL    HW2 3771   5.814   2.793   3.078
  958SOL     OW 3772   4.491   1.103   1.436
  958SOL    HW1 3773   4.465   1.123   1.531
  958SOL    HW2 3774   4.584   1.066   1.433
  959SOL     OW 3775   3.871   6.080   4.430
  959SOL    HW1 3776   3.898   6.045   4.341
  959SOL    HW2 3777   3.780   6.122   4.423
  960SOL     OW 3778   0.688   0.416   2.356
  960SOL    HW1 3779   0.749   0.359   2.412
  960SOL    HW2 3780   0.642   0.358   2.289
  961SOL     OW 3781   4.283   6.500   3.268
  961SOL    HW1 3782   4.184   6.502   3.288
  961SOL    HW2 3783   4.309   6.409   3.236
  962SOL     OW 3784   6.943   1.263   4.893
  962SOL    HW1 3785   7.014   1.323   4.857
  962SOL    HW2 3786   6.864   1.264   4.831
  963SOL     OW 3787   5.080   1.388   6.121
  963SOL    HW1 3788   5.143   1.450   6.075
  963SOL    HW2 3789   4.997   1.437   6.148
  964SOL     OW 3790   5.362   5.024   0.335
  964SOL    HW1 3791   5.362   4.926   0.316
  964SOL    HW2 3792   5.294   5.044   0.406
  965SOL     OW 3793   5.709   1.748   2.138
  965SOL    HW1 3794   5.765   1.682   2.088
  965SOL    HW2 3795   5.664   1.809   2.072
  966SOL     OW 3796   5.723   2.912   2.234
  966SOL    HW1 3797   5.786   2.834   2.238
  966SOL    HW2 3798   5.631   2.880   2.210
  967SOL     OW 3799   2.695   4.129   1.436
  967SOL    HW1 3800   2.702   4.047   1.493
  967SOL    HW2 3801   2.744   4.204   1.480
  968SOL     OW 3802   4.313   0.610   1.911
  968SOL    HW1 3803   4.351   0.700   1.890
  968SOL    HW2 3804   4.387   0.549   1.938
  969SOL     OW 3805   2.925   4.688   5.591
  969SOL    HW1 3806   2.896   4.671   5.685
  969SOL    HW2 3807   2.862   4.643   5.528
  970SOL     OW 3808   5.526   0.943   6.700
  970SOL    HW1 3809   5.448   0.883   6.717
  970SOL    HW2 3810   5.498   1.019   6.640
  971SOL     OW 3811   0.154   2.962   1.883
  971SOL    HW1 3812   0.089   2.907   1.935
  971SOL    HW2 3813   0.215   3.010   1.946
  972SOL     OW 3814   5.893   1.765   1.261
  972SOL    HW1 3815   5.955   1.689   1.244
  972SOL    HW2 3816   5.873   1.813   1.176
  973SOL     OW 3817   0.828   5.541   6.720
  973SOL    HW1 3818   0.920   5.519   6.752
  973SOL    HW2 3819   0.763   5.533   6.796
  974SOL     OW 3820   5.862   6.470   2.148
  974SOL    HW1 3821   5.817   6.412   2.080
  974SOL    HW2 3822   5.925   6.415   2.202
  975SOL     OW 3823   1.816   0.520   0.254
  975SOL    HW1 3824   1.747   0.516   0.181
  975SOL    HW2 3825   1.855   0.428   0.267
  976SOL     OW 3826   0.309   3.466   1.943
  976SOL    HW1 3827   0.268   3.545   1.897
  976SOL    HW2 3828   0.253   3.440   2.022
  977SOL     OW 3829   0.263   0.414   2.126
  977SOL    HW1 3830   0.169   0.399   2.157
  977SOL    HW2 3831   0.269   0.393   2.028
  978SOL     OW 3832   5.465   2.703   6.490
  978SOL    HW1 3833   5.469   2.794   6.530
  978SOL    HW2 3834   5.512   2.702   6.402
  979SOL     OW 3835   0.676   3.217   0.218
  979SOL    HW1 3836   0.600   3.274   0.185
  979SOL    HW2 3837   0.739   3.201   0.143
  980SOL     OW 3838   5.235   2.133   3.624
  980SOL    HW1 3839   5.142   2.120   3.659
  980SOL    HW2 3840   5.231   2.169   3.531
  981SOL     OW 3841   7.018   1.761   4.833
  981SOL    HW1 3842   0.072   1.709   4.794
  981SOL    HW2 3843   6.995   1.837   4.772
  982SOL     OW 3844   0.994   1.163   4.816
  982SOL    HW1 3845   1.048   1.080   4.799
  982SOL    HW2 3846   0.901   1.150   4.781
  983SOL     OW 3847   6.248   2.512   3.264
  983SOL    HW1 3848   6.294   2.588   3.310
  983SOL    HW2 3849   6.317   2.448   3.229
  984SOL     OW 3850   2.415   2.426   4.268
  984SOL    HW1 3851   2.345   2.419   4.198
  984SOL    HW2 3852   2.443   2.522   4.278
  985SOL     OW 3853   6.662   3.149   5.139
  985SOL    HW1 3854   6.624   3.231   5.181
  985SOL    HW2 3855   6.727   3.107   5.203
  986SOL     OW 3856   4.943   4.860   0.989
  986SOL    HW1 3857   4.892   4.940   0.957
  986SOL    HW2 3858   5.039   4.868   0.961
  987SOL     OW 3859   4.932   6.531   2.563
  987SOL    HW1 3860   4.948   6.480   2.478
  987SOL    HW2 3861   4.941   6.469   2.641
  988SOL     OW 3862   3.212   4.553   1.326
  988SOL    HW1 3863   3.296   4.505   1.353
  988SOL    HW2 3864   3.140   4.487   1.305
  989SOL     OW 3865   6.634   2.394   6.485
  989SOL    HW1 3866   6.572   2.409   6.408
  989SOL    HW2 3867   6.596   2.324   6.545
  990SOL     OW 3868   3.496   1.273   2.245
  990SOL    HW1 3869   3.527   1.228   2.162
  990SOL    HW2 3870   3.396   1.274   2.247
  991SOL     OW 3871   0.891   3.579   4.217
  991SOL    HW1 3872   0.893   3.625   4.128
  991SOL    HW2 3873   0.810   3.520   4.222
  992SOL     OW 3874   0.765   3.295   1.841
  992SOL    HW1 3875   0.814   3.335   1.764
  992SOL    HW2 3876   0.722   3.367   1.895
  993SOL     OW 3877   6.772   4.648   0.951
  993SOL    HW1 3878   6.860   4.676   0.913
  993SOL    HW2 3879   6.786   4.610   1.043
  994SOL     OW 3880   4.047   5.152   2.034
  994SOL    HW1 3881   4.048   5.248   2.063
  994SOL    HW2 3882   4.064   5.093   2.113
  995SOL     OW 3883   3.908   3.241   5.797
  995SOL    HW1 3884   3.815   3.244   5.760
  995SOL    HW2 3885   3.968   3.194   5.733
  996SOL     OW 3886   3.352   5.404   4.982
  996SOL    HW1 3887   3.352   5.354   5.068
  996SOL    HW2 3888   3.440   5.450   4.970
  997SOL     OW 3889   0.958   6.720   2.758
  997SOL    HW1 3890   0.963   6.816   2.730
  997SOL    HW2 3891   0.876   6.705   2.812
  998SOL     OW 3892   5.587   0.463   5.959
  998SOL    HW1 3893   5.587   0.363   5.969
  998SOL    HW2 3894   5.516   0.490   5.894
  999SOL     OW 3895   5.393   3.959   2.046
  999SOL    HW1 3896   5.298   3.988   2.040
  999SOL    HW2 3897   5.409   3.915   2.135
 1000SOL     OW 3898   3.865   1.793   1.627
 1000SOL    HW1 3899   3.850   1.773   1.724
 1000SOL    HW2 3900   3.800   1.741   1.572
 1001SOL     OW 3901   4.708   6.043   1.189
 1001SOL    HW1 3902   4.617   6.043   1.229
 1001SOL    HW2 3903   4.775   6.015   1.259
 1002SOL     OW 3904   5.837   1.862   0.982
 1002SOL    HW1 3905   5.888   1.889   0.900
 1002SOL    HW2 3906   5.801   1.769   0.969
 1003SOL     OW 3907   1.914   6.070   3.029
 1003SOL    HW1 3908   1.960   6.111   3.108
 1003SOL    HW2 3909   1.817   6.061   3.048
 1004SOL     OW 3910   0.485   0.958   2.174
 1004SOL    HW1 3911   0.482   0.923   2.080
 1004SOL    HW2 3912   0.394   0.985   2.203
 1005SOL     OW 3913   2.015   2.635   4.108
 1005SOL    HW1 3914   1.957   2.713   4.083
 1005SOL    HW2 3915   2.012   2.622   4.207
 1006SOL     OW 3916   1.207   4.528   0.463
 1006SOL    HW1 3917   1.286   4.496   0.411
 1006SOL    HW2 3918   1.239   4.571   0.548
 1007SOL     OW 3919   4.568   0.931   5.260
 1007SOL    HW1 3920   4.568   0.866   5.184
 1007SOL    HW2 3921   4.476   0.967   5.273
 1008SOL     OW 3922   0.623   2.424   6.125
 1008SOL    HW1 3923   0.720   2.447   6.117
 1008SOL    HW2 3924   0.592   2.379   6.042
 1009SOL     OW 3925   0.075   5.344   5.506
 1009SOL    HW1 3926   0.104   5.266   5.562
 1009SOL    HW2 3927   0.074   5.318   5.410
 1010SOL     OW 3928   2.390   2.175   1.160
 1010SOL    HW1 3929   2.473   2.135   1.200
 1010SOL    HW2 3930   2.384   2.271   1.187
 1011SOL     OW 3931   1.386   5.635   3.141
 1011SOL    HW1 3932   1.371   5.542   3.175
 1011SOL    HW2 3933   1.300   5.685   3.140
 1012SOL     OW 3934   0.486   6.729   2.426
 1012SOL    HW1 3935   0.566   6.698   2.375
 1012SOL    HW2 3936   0.405   6.722   2.368
 1013SOL     OW 3937   0.900   1.300   6.356
 1013SOL    HW1 3938   0.955   1.265   6.432
 1013SOL    HW2 3939   0.921   1.249   6.273
 1014SOL     OW 3940   0.392   4.178   5.508
 1014SOL    HW1 3941   0.306   4.174   5.457
 1014SOL    HW2 3942   0.439   4.090   5.499
 1015SOL     OW 3943   2.525   6.985   5.982
 1015SOL    HW1 3944   2.592   6.935   5.928
 1015SOL    HW2 3945   2.508   0.051   5.941
 1016SOL     OW 3946   4.085   3.583   0.370
 1016SOL    HW1 3947   4.159   3.537   0.418
 1016SOL    HW2 3948   4.113   3.602   0.276
 1017SOL     OW 3949   4.444   1.957   1.002
 1017SOL    HW1 3950   4.359   2.008   1.007
 1017SOL    HW2 3951   4.520   2.015   1.032
 1018SOL     OW 3952   1.211   3.952   4.115
 1018SOL    HW1 3953   1.212   3.869   4.171
 1018SOL    HW2 3954   1.216   4.032   4.175
 1019SOL     OW 3955   0.192   5.999   1.019
 1019SOL    HW1 3956   0.148   5.921   0.975
 1019SOL    HW2 3957   0.122   6.060   1.056
 1020SOL     OW 3958   6.337   1.034   1.571
 1020SOL    HW1 3959   6.353   1.052   1.668
 1020SOL    HW2 3960   6.257   0.975   1.561
 1021SOL     OW 3961   5.690   6.846   1.991
 1021SOL    HW1 3962   5.596   6.829   1.959
 1021SOL    HW2 3963   5.705   6.944   1.999
 1022SOL     OW 3964   3.051   4.742   5.342
 1022SOL    HW1 3965   3.016   4.695   5.261
 1022SOL    HW2 3966   3.000   4.712   5.423
 1023SOL     OW 3967   0.294   0.829   2.759
 1023SOL    HW1 3968   0.357   0.802   2.686
 1023SOL    HW2 3969   0.214   0.769   2.758
 1024SOL     OW 3970   0.116   2.453   3.991
 1024SOL    HW1 3971   0.027   2.499   3.993
 1024SOL    HW2 3972   0.173   2.494   3.920
 1025SOL     OW 3973   3.663   3.489   1.137
 1025SOL    HW1 3974   3.755   3.486   1.177
 1025SOL    HW2 3975   3.630   3.583   1.138
 1026SOL     OW 3976   2.625   2.864   1.678
 1026SOL    HW1 3977   2.666   2.954   1.665
 1026SOL    HW2 3978   2.691   2.794   1.653
 1027SOL     OW 3979   3.152   0.522   2.165
 1027SOL    HW1 3980   3.117   0.510   2.258
 1027SOL    HW2 3981   3.085   0.491   2.099
 1028SOL     OW 3982   1.560   6.885   2.627
 1028SOL    HW1 3983   1.642   6.935   2.656
 1028SOL    HW2 3984   1.492   6.889   2.700
 1029SOL     OW 3985   1.502   1.574   6.215
 1029SOL    HW1 3986   1.414   1.601   6.175
 1029SOL    HW2 3987   1.511   1.614   6.307
 1030SOL     OW 3988   3.512   3.481   1.983
 1030SOL    HW1 3989   3.522   3.555   2.050
 1030SOL    HW2 3990   3.441   3.418   2.013
 1031SOL     OW 3991   4.772   3.508   1.479
 1031SOL    HW1 3992   4.675   3.512   1.457
 1031SOL    HW2 3993   4.826   3.518   1.395
 1032SOL     OW 3994   0.732   0.971   5.329
 1032SOL    HW1 3995   0.748   0.903   5.257
 1032SOL    HW2 3996   0.730   0.925   5.418
 1033SOL     OW 3997   1.373   5.596   1.043
 1033SOL    HW1 3998   1.373   5.683   0.993
 1033SOL    HW2 3999   1.346   5.522   0.981
 1034SOL     OW 4000   1.472   4.922   4.533
 1034SOL    HW1 4001   1.515   4.959   4.615
 1034SOL    HW2 4002   1.386   4.971   4.515
 1035SOL     OW 4003   0.112   1.543   6.044
 1035SOL    HW1 4004   0.075   1.635   6.035
 1035SOL    HW2 4005   0.078   1.485   5.969
 1036SOL     OW 4006   4.429   0.966   2.226
 1036SOL    HW1 4007   4.464   1.021   2.301
 1036SOL    HW2 4008   4.411   0.873   2.258
 1037SOL     OW 4009   1.735   1.442   2.756
 1037SOL    HW1 4010   1.735   1.540   2.777
 1037SOL    HW2 4011   1.812   1.399   2.802
 1038SOL     OW 4012   1.812   1.274   5.161
 1038SOL    HW1 4013   1.743   1.335   5.200
 1038SOL    HW2 4014   1.903   1.300   5.193
 1039SOL     OW 4015   3.991   3.813   4.309
 1039SOL    HW1 4016   3.935   3.732   4.287
 1039SOL    HW2 4017   3.931   3.891   4.325
 1040SOL     OW 4018   4.751   0.707   2.429
 1040SOL    HW1 4019   4.764   0.771   2.505
 1040SOL    HW2 4020   4.659   0.718   2.391
 1041SOL     OW 4021   0.091   6.257   3.145
 1041SOL    HW1 4022   0.145   6.229   3.225
 1041SOL    HW2 4023   0.041   6.341   3.167
 1042SOL     OW 4024   4.012   5.450   2.737
 1042SOL    HW1 4025   4.049   5.358   2.728
 1042SOL    HW2 4026   4.070   5.515   2.687
 1043SOL     OW 4027   3.488   2.015   3.778
 1043SOL    HW1 4028   3.466   1.973   3.866
 1043SOL    HW2 4029   3.565   2.077   3.790
 1044SOL     OW 4030   5.509   4.777   2.700
 1044SOL    HW1 4031   5.500   4.877   2.708
 1044SOL    HW2 4032   5.582   4.755   2.636
 1045SOL     OW 4033   4.428   0.764   2.420
 1045SOL    HW1 4034   4.389   0.827   2.486
 1045SOL    HW2 4035   4.354   0.712   2.376
 1046SOL     OW 4036   1.655   1.215   0.202
 1046SOL    HW1 4037   1.675   1.119   0.183
 1046SOL    HW2 4038   1.710   1.247   0.279
 1047SOL     OW 4039   2.291   6.924   3.784
 1047SOL    HW1 4040   2.225   6.898   3.714
 1047SOL    HW2 4041   2.310   6.846   3.844
 1048SOL     OW 4042   3.477   6.467   2.771
 1048SOL    HW1 4043   3.457   6.497   2.864
 1048SOL    HW2 4044   3.393   6.468   2.716
 1049SOL     OW 4045   6.356   6.683   3.911
 1049SOL    HW1 4046   6.275   6.705   3.966
 1049SOL    HW2 4047   6.340   6.599   3.860
 1050SOL     OW 4048   3.533   4.962   2.739
 1050SOL    HW1 4049   3.602   4.922   2.678
 1050SOL    HW2 4050   3.472   5.021   2.686
 1051SOL     OW 4051   0.266   4.990   0.767
 1051SOL    HW1 4052   0.211   4.955   0.692
 1051SOL    HW2 4053   0.322   5.067   0.735
 1052SOL     OW 4054   4.338   1.032   5.382
 1052SOL    HW1 4055   4.270   0.959   5.370
 1052SOL    HW2 4056   4.342   1.058   5.478
 1053SOL     OW 4057   6.234   3.826   2.986
 1053SOL    HW1 4058   6.328   3.803   3.012
 1053SOL    HW2 4059   6.205   3.908   3.034
 1054SOL     OW 4060   3.023   3.486   0.968
 1054SOL    HW1 4061   3.067   3.523   0.886
 1054SOL    HW2 4062   3.052   3.539   1.048
 1055SOL     OW 4063   4.142   6.761   5.205
 1055SOL    HW1 4064   4.109   6.682   5.257
 1055SOL    HW2 4065   4.188   6.825   5.267
 1056SOL     OW 4066   1.970   3.338   0.033
 1056SOL    HW1 4067   1.943   3.375   0.122
 1056SOL    HW2 4068   2.038   3.266   0.045
 1057SOL     OW 4069   3.579   3.562   1.429
 1057SOL    HW1 4070   3.630   3.478   1.412
 1057SOL    HW2 4071   3.642   3.635   1.455
 1058SOL     OW 4072   5.238   2.674   3.449
 1058SOL    HW1 4073   5.207   2.726   3.369
 1058SOL    HW2 4074   5.237   2.733   3.530
 1059SOL     OW 4075   1.922   0.841   2.170
 1059SOL    HW1 4076   2.004   0.810   2.218
 1059SOL    HW2 4077   1.906   0.937   2.192
 1060SOL     OW 4078   0.220   4.838   3.866
 1060SOL    HW1 4079   0.286   4.801   3.930
 1060SOL    HW2 4080   0.130   4.797   3.883
 1061SOL     OW 4081   6.553   3.383   6.287
 1061SOL    HW1 4082   6.573   3.401   6.383
 1061SOL    HW2 4083   6.485   3.311   6.279
 1062SOL     OW 4084   5.553   5.301   5.804
 1062SOL    HW1 4085   5.544   5.226   5.739
 1062SOL    HW2 4086   5.470   5.307   5.860
 1063SOL     OW 4087   0.972   5.613   0.622
 1063SOL    HW1 4088   0.958   5.707   0.590
 1063SOL    HW2 4089   0.925   5.600   0.709
 1064SOL     OW 4090   1.476   4.592   3.276
 1064SOL    HW1 4091   1.500   4.657   3.348
 1064SOL    HW2 4092   1.537   4.512   3.282
 1065SOL     OW 4093   4.687   0.979   2.760
 1065SOL    HW1 4094   4.653   0.973   2.854
 1065SOL    HW2 4095   4.729   1.069   2.745
 1066SOL     OW 4096   4.707   6.582   2.771
 1066SOL    HW1 4097   4.692   6.566   2.869
 1066SOL    HW2 4098   4.792   6.538   2.743
 1067SOL     OW 4099   0.870   2.767   0.112
 1067SOL    HW1 4100   0.960   2.726   0.123
 1067SOL    HW2 4101   0.823   2.769   0.201
 1068SOL     OW 4102   6.775   5.172   2.025
 1068SOL    HW1 4103   6.860   5.218   2.000
 1068SOL    HW2 4104   6.760   5.182   2.124
 1069SOL     OW 4105   5.003   5.876   0.461
 1069SOL    HW1 4106   5.060   5.903   0.539
 1069SOL    HW2 4107   5.049   5.804   0.410
 1070SOL     OW 4108   1.111   0.186   1.414
 1070SOL    HW1 4109   1.135   0.123   1.488
 1070SOL    HW2 4110   1.093   0.277   1.452
 1071SOL     OW 4111   1.479   1.054   3.668
 1071SOL    HW1 4112   1.569   1.015   3.646
 1071SOL    HW2 4113   1.417   1.039   3.591
 1072SOL     OW 4114   2.486   1.023   1.116
 1072SOL    HW1 4115   2.421   0.985   1.181
 1072SOL    HW2 4116   2.472   1.122   1.109
 1073SOL     OW 4117   4.772   0.695   3.568
 1073SOL    HW1 4118   4.803   0.600   3.574
 1073SOL    HW2 4119   4.794   0.744   3.652
 1074SOL     OW 4120   2.573   5.393   1.609
 1074SOL    HW1 4121   2.632   5.314   1.591
 1074SOL    HW2 4122   2.572   5.411   1.707
 1075SOL     OW 4123   5.553   0.109   3.023
 1075SOL    HW1 4124   5.518   0.194   2.984
 1075SOL    HW2 4125   5.642   0.088   2.982
 1076SOL     OW 4126   0.953   2.393   5.664
 1076SOL    HW1 4127   1.046   2.421   5.686
 1076SOL    HW2 4128   0.890   2.468   5.683
 1077SOL     OW 4129   6.256   0.183   0.686
 1077SOL    HW1 4130   6.267   0.279   0.711
 1077SOL    HW2 4131   6.346   0.141   0.673
 1078SOL     OW 4132   6.832   0.776   2.347
 1078SOL    HW1 4133   6.734   0.776   2.370
 1078SOL    HW2 4134   6.842   0.772   2.247
 1079SOL     OW 4135   1.571   6.257   2.365
 1079SOL    HW1 4136   1.593   6.230   2.458
 1079SOL    HW2 4137   1.650   6.240   2.306
 1080SOL     OW 4138   2.119   5.293   3.316
 1080SOL    HW1 4139   2.105   5.338   3.228
 1080SOL    HW2 4140   2.039   5.307   3.374
 1081SOL     OW 4141   6.374   5.322   5.352
 1081SOL    HW1 4142   6.452   5.263   5.372
 1081SOL    HW2 4143   6.367   5.393   5.422
 1082SOL     OW 4144   5.433   2.319   5.558
 1082SOL    HW1 4145   5.486   2.235   5.569
 1082SOL    HW2 4146   5.335   2.298   5.565
 1083SOL     OW 4147   4.352   4.024   0.280
 1083SOL    HW1 4148   4.355   4.102   0.218
 1083SOL    HW2 4149   4.440   3.977   0.280
 1084SOL     OW 4150   6.376   6.623   6.290
 1084SOL    HW1 4151   6.340   6.680   6.363
 1084SOL    HW2 4152   6.361   6.526   6.312
 1085SOL     OW 4153   1.146   3.950   4.654
 1085SOL    HW1 4154   1.202   3.870   4.678
 1085SOL    HW2 4155   1.074   3.962   4.723
 1086SOL     OW 4156   7.017   4.279   0.066
 1086SOL    HW1 4157   0.057   4.356   0.080
 1086SOL    HW2 4158   0.005   4.244   6.996
 1087SOL     OW 4159   0.240   2.163   4.894
 1087SOL    HW1 4160   0.145   2.187   4.911
 1087SOL    HW2 4161   0.300   2.222   4.948
 1088SOL     OW 4162   0.066   3.181   2.634
 1088SOL    HW1 4163   0.050   3.126   2.552
 1088SOL    HW2 4164   7.005   3.185   2.688
 1089SOL     OW 4165   6.995   6.176   4.179
 1089SOL    HW1 4166   0.011   6.156   4.269
 1089SOL    HW2 4167   0.046   6.179   4.112
 1090SOL     OW 4168   3.199   1.865   3.307
 1090SOL    HW1 4169   3.111   1.880   3.261
 1090SOL    HW2 4170   3.253   1.949   3.302
 1091SOL     OW 4171   2.508   2.218   4.644
 1091SOL    HW1 4172   2.481   2.187   4.553
 1091SOL    HW2 4173   2.457   2.168   4.713
 1092SOL     OW 4174   1.077   4.642   0.243
 1092SOL    HW1 4175   1.020   4.714   0.284
 1092SOL    HW2 4176   1.114   4.585   0.316
 1093SOL     OW 4177   2.470   7.005   1.618
 1093SOL    HW1 4178   2.425   6.997   1.529
 1093SOL    HW2 4179   2.467   6.917   1.664
 1094SOL     OW 4180   1.113   6.731   3.386
 1094SOL    HW1 4181   1.109   6.813   3.330
 1094SOL    HW2 4182   1.059   6.658   3.342
 1095SOL     OW 4183   0.737   2.705   5.964
 1095SOL    HW1 4184   0.818   2.652   5.987
 1095SOL    HW2 4185   0.749   2.800   5.994
 1096SOL     OW 4186   3.456   4.425   1.436
 1096SOL    HW1 4187   3.474   4.365   1.359
 1096SOL    HW2 4188   3.474   4.377   1.522
 1097SOL     OW 4189   2.697   4.685   3.883
 1097SOL    HW1 4190   2.701   4.641   3.973
 1097SOL    HW2 4191   2.620   4.647   3.832
 1098SOL     OW 4192   4.667   3.461   6.873
 1098SOL    HW1 4193   4.692   3.540   6.929
 1098SOL    HW2 4194   4.602   3.490   6.803
 1099SOL     OW 4195   3.622   0.803   5.619
 1099SOL    HW1 4196   3.661   0.789   5.528
 1099SOL    HW2 4197   3.693   0.788   5.688
 1100SOL     OW 4198   4.051   1.865   4.660
 1100SOL    HW1 4199   4.079   1.803   4.587
 1100SOL    HW2 4200   4.007   1.813   4.733
 1101SOL     OW 4201   5.690   3.145   6.052
 1101SOL    HW1 4202   5.775   3.118   6.007
 1101SOL    HW2 4203   5.615   3.143   5.987
 1102SOL     OW 4204   1.132   0.650   4.852
 1102SOL    HW1 4205   1.063   0.579   4.864
 1102SOL    HW2 4206   1.186   0.660   4.936
 1103SOL     OW 4207   3.692   0.974   0.280
 1103SOL    HW1 4208   3.769   0.915   0.256
 1103SOL    HW2 4209   3.687   1.050   0.215
 1104SOL     OW 4210   1.988   3.321   4.783
 1104SOL    HW1 4211   1.919   3.310   4.854
 1104SOL    HW2 4212   2.009   3.418   4.772
 1105SOL     OW 4213   5.974   3.579   5.133
 1105SOL    HW1 4214   5.998   3.563   5.038
 1105SOL    HW2 4215   5.881   3.614   5.140
 1106SOL     OW 4216   0.342   2.749   0.541
 1106SOL    HW1 4217   0.349   2.771   0.638
 1106SOL    HW2 4218   0.434   2.734   0.504
 1107SOL     OW 4219   1.264   0.247   0.024
 1107SOL    HW1 4220   1.342   0.247   0.087
 1107SOL    HW2 4221   1.268   0.329   6.989
 1108SOL     OW 4222   3.796   6.844   5.721
 1108SOL    HW1 4223   3.843   6.767   5.765
 1108SOL    HW2 4224   3.719   6.874   5.778
 1109SOL     OW 4225   5.637   0.956   4.089
 1109SOL    HW1 4226   5.730   0.959   4.054
 1109SOL    HW2 4227   5.575   0.995   4.021
 1110SOL     OW 4228   4.113   2.216   3.076
 1110SOL    HW1 4229   4.160   2.303   3.087
 1110SOL    HW2 4230   4.169   2.153   3.022
 1111SOL     OW 4231   5.528   5.431   6.717
 1111SOL    HW1 4232   5.463   5.507   6.708
 1111SOL    HW2 4233   5.517   5.368   6.640
 1112SOL     OW 4234   5.788   1.262   2.439
 1112SOL    HW1 4235   5.795   1.313   2.354
 1112SOL    HW2 4236   5.772   1.165   2.420
 1113SOL     OW 4237   5.845   4.371   1.441
 1113SOL    HW1 4238   5.843   4.387   1.342
 1113SOL    HW2 4239   5.834   4.459   1.489
 1114SOL     OW 4240   2.755   1.030   5.910
 1114SOL    HW1 4241   2.855   1.026   5.912
 1114SOL    HW2 4242   2.721   0.978   5.832
 1115SOL     OW 4243   3.780   3.616   6.014
 1115SOL    HW1 4244   3.857   3.632   6.077
 1115SOL    HW2 4245   3.730   3.535   6.044
 1116SOL     OW 4246   4.656   6.742   6.180
 1116SOL    HW1 4247   4.579   6.718   6.239
 1116SOL    HW2 4248   4.632   6.820   6.123
 1117SOL     OW 4249   1.344   2.119   1.957
 1117SOL    HW1 4250   1.397   2.203   1.971
 1117SOL    HW2 4251   1.404   2.047   1.923
 1118SOL     OW 4252   2.339   4.730   0.572
 1118SOL    HW1 4253   2.324   4.756   0.667
 1118SOL    HW2 4254   2.421   4.673   0.565
 1119SOL     OW 4255   4.005   4.640   1.732
 1119SOL    HW1 4256   3.925   4.701   1.734
 1119SOL    HW2 4257   4.066   4.662   1.808
 1120SOL     OW 4258   6.027   5.976   0.722
 1120SOL    HW1 4259   6.062   6.018   0.806
 1120SOL    HW2 4260   6.022   6.045   0.650
 1121SOL     OW 4261   6.990   4.603   4.632
 1121SOL    HW1 4262   6.975   4.512   4.594
 1121SOL    HW2 4263   0.066   4.622   4.635
 1122SOL     OW 4264   4.934   2.447   1.749
 1122SOL    HW1 4265   4.942   2.420   1.653
 1122SOL    HW2 4266   4.847   2.493   1.764
 1123SOL     OW 4267   5.221   2.160   3.040
 1123SOL    HW1 4268   5.148   2.224   3.067
 1123SOL    HW2 4269   5.302   2.211   3.013
 1124SOL     OW 4270   6.931   3.483   5.472
 1124SOL    HW1 4271   6.873   3.405   5.448
 1124SOL    HW2 4272   6.941   3.488   5.571
 1125SOL     OW 4273   2.265   1.827   3.580
 1125SOL    HW1 4274   2.319   1.814   3.497
 1125SOL    HW2 4275   2.168   1.829   3.558
 1126SOL     OW 4276   5.781   5.618   6.333
 1126SOL    HW1 4277   5.687   5.619   6.368
 1126SOL    HW2 4278   5.844   5.592   6.407
 1127SOL     OW 4279   5.333   6.411   4.646
 1127SOL    HW1 4280   5.326   6.505   4.678
 1127SOL    HW2 4281   5.362   6.352   4.721
 1128SOL     OW 4282   5.831   1.629   4.084
 1128SOL    HW1 4283   5.857   1.542   4.042
 1128SOL    HW2 4284   5.735   1.648   4.066
 1129SOL     OW 4285   1.827   0.060   0.781
 1129SOL    HW1 4286   1.846   0.141   0.726
 1129SOL    HW2 4287   1.861   0.074   0.874
 1130SOL     OW 4288   2.116   5.078   0.624
 1130SOL    HW1 4289   2.078   5.153   0.571
 1130SOL    HW2 4290   2.061   5.063   0.706
 1131SOL     OW 4291   0.910   6.728   5.622
 1131SOL    HW1 4292   0.994   6.679   5.602
 1131SOL    HW2 4293   0.917   6.772   5.712
 1132SOL     OW 4294   4.951   6.984   2.484
 1132SOL    HW1 4295   5.013   0.022   2.435
 1132SOL    HW2 4296   5.000   6.941   2.560
 1133SOL     OW 4297   1.180   1.265   0.533
 1133SOL    HW1 4298   1.118   1.224   0.466
 1133SOL    HW2 4299   1.266   1.290   0.487
 1134SOL     OW 4300   5.101   6.734   2.271
 1134SOL    HW1 4301   5.199   6.712   2.269
 1134SOL    HW2 4302   5.082   6.791   2.351
 1135SOL     OW 4303   2.682   6.805   4.219
 1135SOL    HW1 4304   2.640   6.812   4.128
 1135SOL    HW2 4305   2.611   6.815   4.289
 1136SOL     OW 4306   4.573   4.545   3.350
 1136SOL    HW1 4307   4.607   4.482   3.280
 1136SOL    HW2 4308   4.640   4.553   3.424
 1137SOL     OW 4309   1.430   6.925   0.604
 1137SOL    HW1 4310   1.349   6.872   0.629
 1137SOL    HW2 4311   1.498   6.865   0.563
 1138SOL     OW 4312   0.346   1.038   6.139
 1138SOL    HW1 4313   0.371   0.981   6.218
 1138SOL    HW2 4314   0.353   0.983   6.055
 1139SOL     OW 4315   2.703   4.641   3.033
 1139SOL    HW1 4316   2.697   4.635   2.934
 1139SOL    HW2 4317   2.766   4.714   3.058
 1140SOL     OW 4318   2.707   1.289   2.596
 1140SOL    HW1 4319   2.656   1.273   2.680
 1140SOL    HW2 4320   2.672   1.371   2.551
 1141SOL     OW 4321   0.515   5.906   0.011
 1141SOL    HW1 4322   0.469   5.874   0.093
 1141SOL    HW2 4323   0.609   5.872   0.010
 1142SOL     OW 4324   3.398   0.356   3.769
 1142SOL    HW1 4325   3.407   0.375   3.867
 1142SOL    HW2 4326   3.447   0.426   3.717
 1143SOL     OW 4327   2.329   2.452   3.524
 1143SOL    HW1 4328   2.363   2.438   3.432
 1143SOL    HW2 4329   2.235   2.485   3.520
 1144SOL     OW 4330   6.338   4.537   3.847
 1144SOL    HW1 4331   6.328   4.468   3.775
 1144SOL    HW2 4332   6.390   4.614   3.812
 1145SOL     OW 4333   6.372   3.140   1.057
 1145SOL    HW1 4334   6.398   3.117   1.151
 1145SOL    HW2 4335   6.280   3.179   1.057
 1146SOL     OW 4336   6.906   0.851   2.081
 1146SOL    HW1 4337   6.874   0.808   1.997
 1146SOL    HW2 4338   7.003   0.875   2.071
 1147SOL     OW 4339   3.171   5.555   1.920
 1147SOL    HW1 4340   3.154   5.645   1.961
 1147SOL    HW2 4341   3.267   5.547   1.896
 1148SOL     OW 4342   4.525   6.170   0.587
 1148SOL    HW1 4343   4.563   6.257   0.617
 1148SOL    HW2 4344   4.598   6.114   0.547
 1149SOL     OW 4345   5.605   2.618   2.782
 1149SOL    HW1 4346   5.678   2.567   2.828
 1149SOL    HW2 4347   5.644   2.674   2.709
 1150SOL     OW 4348   0.784   4.228   0.004
 1150SOL    HW1 4349   0.837   4.291   0.061
 1150SOL    HW2 4350   0.831   4.216   6.939
 1151SOL     OW 4351   5.915   4.582   5.621
 1151SOL    HW1 4352   5.885   4.670   5.658
 1151SOL    HW2 4353   5.845   4.545   5.560
 1152SOL     OW 4354   4.438   5.894   6.371
 1152SOL    HW1 4355   4.470   5.964   6.308
 1152SOL    HW2 4356   4.510   5.826   6.384
 1153SOL     OW 4357   0.105   6.788   2.253
 1153SOL    HW1 4358   0.097   6.886   2.273
 1153SOL    HW2 4359   0.060   6.768   2.166
 1154SOL     OW 4360   0.255   4.213   1.104
 1154SOL    HW1 4361   0.213   4.224   1.195
 1154SOL    HW2 4362   0.288   4.302   1.073
 1155SOL     OW 4363   2.862   4.800   6.129
 1155SOL    HW1 4364   2.917   4.876   6.164
 1155SOL    HW2 4365   2.765   4.821   6.143
 1156SOL     OW 4366   4.564   1.934   4.974
 1156SOL    HW1 4367   4.489   1.969   4.917
 1156SOL    HW2 4368   4.594   1.846   4.938
 1157SOL     OW 4369   5.170   1.078   6.104
 1157SOL    HW1 4370   5.123   1.166   6.109
 1157SOL    HW2 4371   5.261   1.091   6.063
 1158SOL     OW 4372   6.662   5.319   5.160
 1158SOL    HW1 4373   6.658   5.335   5.061
 1158SOL    HW2 4374   6.674   5.221   5.177
 1159SOL     OW 4375   6.606   0.189   3.962
 1159SOL    HW1 4376   6.589   0.104   3.912
 1159SOL    HW2 4377   6.603   0.170   4.060
 1160SOL     OW 4378   4.925   4.499   1.221
 1160SOL    HW1 4379   4.999   4.432   1.236
 1160SOL    HW2 4380   4.915   4.556   1.302
 1161SOL     OW 4381   6.734   5.685   5.856
 1161SOL    HW1 4382   6.692   5.595   5.856
 1161SOL    HW2 4383   6.781   5.701   5.769
 1162SOL     OW 4384   2.368   1.922   6.509
 1162SOL    HW1 4385   2.404   2.011   6.480
 1162SOL    HW2 4386   2.338   1.927   6.604
 1163SOL     OW 4387   6.337   4.173   1.930
 1163SOL    HW1 4388   6.287   4.255   1.957
 1163SOL    HW2 4389   6.430   4.198   1.905
 1164SOL     OW 4390   5.173   2.841   3.669
 1164SOL    HW1 4391   5.107   2.767   3.687
 1164SOL    HW2 4392   5.235   2.850   3.747
 1165SOL     OW 4393   4.282   5.829   3.731
 1165SOL    HW1 4394   4.356   5.775   3.770
 1165SOL    HW2 4395   4.264   5.799   3.638
 1166SOL     OW 4396   3.085   6.481   0.715
 1166SOL    HW1 4397   3.029   6.423   0.657
 1166SOL    HW2 4398   3.164   6.514   0.663
 1167SOL     OW 4399   3.915   6.838   1.011
 1167SOL    HW1 4400   3.850   6.863   0.939
 1167SOL    HW2 4401   3.929   6.739   1.010
 1168SOL     OW 4402   5.475   2.664   1.580
 1168SOL    HW1 4403   5.511   2.677   1.487
 1168SOL    HW2 4404   5.425   2.746   1.608
 1169SOL     OW 4405   4.269   2.025   5.919
 1169SOL    HW1 4406   4.207   2.011   5.842
 1169SOL    HW2 4407   4.220   2.010   6.005
 1170SOL     OW 4408   5.067   6.764   2.657
 1170SOL    HW1 4409   5.005   6.700   2.612
 1170SOL    HW2 4410   5.120   6.716   2.727
 1171SOL     OW 4411   2.956   6.537   0.133
 1171SOL    HW1 4412   2.885   6.526   0.063
 1171SOL    HW2 4413   2.989   6.447   0.161
 1172SOL     OW 4414   3.649   4.093   0.738
 1172SOL    HW1 4415   3.626   4.029   0.811
 1172SOL    HW2 4416   3.711   4.049   0.673
 1173SOL     OW 4417   3.929   0.874   0.870
 1173SOL    HW1 4418   3.835   0.909   0.870
 1173SOL    HW2 4419   3.993   0.950   0.858
 1174SOL     OW 4420   2.593   4.295   1.661
 1174SOL    HW1 4421   2.568   4.389   1.637
 1174SOL    HW2 4422   2.692   4.289   1.673
 1175SOL     OW 4423   4.039   4.378   6.317
 1175SOL    HW1 4424   4.067   4.292   6.275
 1175SOL    HW2 4425   3.947   4.402   6.287
 1176SOL     OW 4426   5.344   3.750   0.356
 1176SOL    HW1 4427   5.439   3.719   0.354
 1176SOL    HW2 4428   5.341   3.847   0.382
 1177SOL     OW 4429   6.814   3.773   4.831
 1177SOL    HW1 4430   6.795   3.869   4.853
 1177SOL    HW2 4431   6.731   3.730   4.796
 1178SOL     OW 4432   3.427   3.929   0.939
 1178SOL    HW1 4433   3.359   3.880   0.993
 1178SOL    HW2 4434   3.494   3.971   1.000
 1179SOL     OW 4435   2.779   5.939   0.866
 1179SOL    HW1 4436   2.796   5.972   0.958
 1179SOL    HW2 4437   2.695   5.885   0.866
 1180SOL     OW 4438   2.404   5.631   3.840
 1180SOL    HW1 4439   2.458   5.547   3.846
 1180SOL    HW2 4440   2.314   5.611   3.804
 1181SOL     OW 4441   0.043   5.197   4.878
 1181SOL    HW1 4442   0.007   5.171   4.968
 1181SOL    HW2 4443   0.030   5.296   4.865
 1182SOL     OW 4444   5.089   5.840   3.912
 1182SOL    HW1 4445   5.151   5.766   3.884
 1182SOL    HW2 4446   5.031   5.808   3.986
 1183SOL     OW 4447   2.863   4.617   0.726
 1183SOL    HW1 4448   2.921   4.537   0.744
 1183SOL    HW2 4449   2.867   4.680   0.803
 1184SOL     OW 4450   6.773   1.406   5.069
 1184SOL    HW1 4451   6.829   1.337   5.023
 1184SOL    HW2 4452   6.830   1.458   5.133
 1185SOL     OW 4453   1.058   0.822   1.056
 1185SOL    HW1 4454   1.153   0.845   1.036
 1185SOL    HW2 4455   1.011   0.797   0.971
 1186SOL     OW 4456   4.782   6.100   5.506
 1186SOL    HW1 4457   4.740   6.020   5.464
 1186SOL    HW2 4458   4.844   6.071   5.579
 1187SOL     OW 4459   4.731   0.312   5.825
 1187SOL    HW1 4460   4.786   0.247   5.772
 1187SOL    HW2 4461   4.782   0.339   5.907
 1188SOL     OW 4462   3.180   6.241   6.380
 1188SOL    HW1 4463   3.175   6.331   6.335
 1188SOL    HW2 4464   3.098   6.188   6.357
 1189SOL     OW 4465   6.315   1.736   1.675
 1189SOL    HW1 4466   6.275   1.656   1.720
 1189SOL    HW2 4467   6.390   1.707   1.615
 1190SOL     OW 4468   3.593   6.124   3.710
 1190SOL    HW1 4469   3.585   6.220   3.685
 1190SOL    HW2 4470   3.648   6.076   3.641
 1191SOL     OW 4471   3.937   5.533   4.654
 1191SOL    HW1 4472   3.940   5.433   4.646
 1191SOL    HW2 4473   3.961   5.573   4.566
 1192SOL     OW 4474   5.189   4.559   2.707
 1192SOL    HW1 4475   5.144   4.481   2.750
 1192SOL    HW2 4476   5.252   4.601   2.772
 1193SOL     OW 4477   7.000   2.078   5.027
 1193SOL    HW1 4478   0.059   2.020   5.033
 1193SOL    HW2 4479   6.996   2.120   4.936
 1194SOL     OW 4480   5.917   0.141   1.513
 1194SOL    HW1 4481   5.903   0.237   1.492
 1194SOL    HW2 4482   6.011   0.126   1.543
 1195SOL     OW 4483   6.843   4.127   1.030
 1195SOL    HW1 4484   6.787   4.044   1.027
 1195SOL    HW2 4485   6.934   4.108   0.994
 1196SOL     OW 4486   6.674   4.984   3.602
 1196SOL    HW1 4487   6.762   4.975   3.650
 1196SOL    HW2 4488   6.686   5.045   3.523
 1197SOL     OW 4489   4.980   6.822   4.895
 1197SOL    HW1 4490   4.961   6.910   4.851
 1197SOL    HW2 4491   4.938   6.821   4.986
 1198SOL     OW 4492   1.688   3.204   2.814
 1198SOL    HW1 4493   1.737   3.179   2.898
 1198SOL    HW2 4494   1.681   3.303   2.809
 1199SOL     OW 4495   3.301   3.815   1.370
 1199SOL    HW1 4496   3.313   3.716   1.366
 1199SOL    HW2 4497   3.204   3.837   1.355
 1200SOL     OW 4498   3.744   4.146   4.542
 1200SOL    HW1 4499   3.798   4.230   4.537
 1200SOL    HW2 4500   3.653   4.162   4.503
 1201SOL     OW 4501   1.237   1.587   4.081
 1201SOL    HW1 4502   1.269   1.556   4.170
 1201SOL    HW2 4503   1.308   1.571   4.012
 1202SOL     OW 4504   0.493   5.636   5.018
 1202SOL    HW1 4505   0.508   5.685   5.104
 1202SOL    HW2 4506   0.579   5.592   4.990
 1203SOL     OW 4507   0.068   5.918   6.929
 1203SOL    HW1 4508   0.017   5.960   6.854
 1203SOL    HW2 4509   0.023   5.833   6.956
 1204SOL     OW 4510   4.692   1.374   1.307
 1204SOL    HW1 4511   4.753   1.358   1.385
 1204SOL    HW2 4512   4.612   1.426   1.337
 1205SOL     OW 4513   3.792   3.268   0.895
 1205SOL    HW1 4514   3.699   3.239   0.919
 1205SOL    HW2 4515   3.818   3.225   0.809
 1206SOL     OW 4516   2.703   2.483   5.370
 1206SOL    HW1 4517   2.763   2.562   5.377
 1206SOL    HW2 4518   2.625   2.506   5.312
 1207SOL     OW 4519   2.092   6.637   1.419
 1207SOL    HW1 4520   2.061   6.543   1.434
 1207SOL    HW2 4521   2.192   6.639   1.420
 1208SOL     OW 4522   3.573   3.739   1.132
 1208SOL    HW1 4523   3.558   3.834   1.160
 1208SOL    HW2 4524   3.490   3.686   1.147
 1209SOL     OW 4525   4.579   0.501   3.806
 1209SOL    HW1 4526   4.538   0.423   3.758
 1209SOL    HW2 4527   4.590   0.578   3.743
 1210SOL     OW 4528   3.817   6.769   3.124
 1210SOL    HW1 4529   3.823   6.864   3.094
 1210SOL    HW2 4530   3.797   6.766   3.222
 1211SOL     OW 4531   0.795   3.955   3.132
 1211SOL    HW1 4532   0.761   3.964   3.038
 1211SOL    HW2 4533   0.722   3.919   3.190
 1212SOL     OW 4534   5.960   0.461   6.877
 1212SOL    HW1 4535   5.911   0.530   6.823
 1212SOL    HW2 4536   5.965   0.376   6.824
 1213SOL     OW 4537   5.947   2.496   0.993
 1213SOL    HW1 4538   6.011   2.536   0.927
 1213SOL    HW2 4539   5.976   2.518   1.086
 1214SOL     OW 4540   1.092   3.431   0.051
 1214SOL    HW1 4541   0.996   3.406   0.067
 1214SOL    HW2 4542   1.097   3.526   0.021
 1215SOL     OW 4543   1.325   4.606   3.618
 1215SOL    HW1 4544   1.307   4.692   3.570
 1215SOL    HW2 4545   1.274   4.604   3.704
 1216SOL     OW 4546   4.930   0.041   0.973
 1216SOL    HW1 4547   5.001   0.073   0.909
 1216SOL    HW2 4548   4.875   6.993   0.929
 1217SOL     OW 4549   2.765   4.452   1.324
 1217SOL    HW1 4550   2.737   4.465   1.229
 1217SOL    HW2 4551   2.684   4.459   1.383
 1218SOL     OW 4552   1.196   3.423   5.027
 1218SOL    HW1 4553   1.291   3.403   5.050
 1218SOL    HW2 4554   1.178   3.520   5.044
 1219SOL     OW 4555   5.081   5.925   2.086
 1219SOL    HW1 4556   5.129   5.897   2.169
 1219SOL    HW2 4557   5.147   5.965   2.021
 1220SOL     OW 4558   0.766   4.659   3.578
 1220SOL    HW1 4559   0.814   4.659   3.665
 1220SOL    HW2 4560   0.813   4.598   3.514
 1221SOL     OW 4561   4.470   4.303   6.248
 1221SOL    HW1 4562   4.443   4.390   6.206
 1221SOL    HW2 4563   4.536   4.257   6.188
 1222SOL     OW 4564   6.788   0.542   0.163
 1222SOL    HW1 4565   6.836   0.628   0.178
 1222SOL    HW2 4566   6.836   0.488   0.094
 1223SOL     OW 4567   4.192   2.023   0.213
 1223SOL    HW1 4568   4.109   2.049   0.163
 1223SOL    HW2 4569   4.173   1.944   0.272
 1224SOL     OW 4570   3.741   5.514   0.839
 1224SOL    HW1 4571   3.767   5.506   0.935
 1224SOL    HW2 4572   3.756   5.427   0.793
 1225SOL     OW 4573   3.014   3.341   6.476
 1225SOL    HW1 4574   2.997   3.407   6.404
 1225SOL    HW2 4575   2.941   3.345   6.544
 1226SOL     OW 4576   2.110   6.108   2.164
 1226SOL    HW1 4577   2.045   6.098   2.088
 1226SOL    HW2 4578   2.070   6.068   2.247
 1227SOL     OW 4579   6.607   4.526   5.635
 1227SOL    HW1 4580   6.703   4.506   5.613
 1227SOL    HW2 4581   6.572   4.595   5.571
 1228SOL     OW 4582   2.949   1.913   6.301
 1228SOL    HW1 4583   2.955   1.813   6.303
 1228SOL    HW2 4584   2.996   1.951   6.380
 1229SOL     OW 4585   3.643   5.356   5.607
 1229SOL    HW1 4586   3.699   5.438   5.597
 1229SOL    HW2 4587   3.690   5.290   5.666
 1230SOL     OW 4588   4.621   6.542   2.528
 1230SOL    HW1 4589   4.641   6.552   2.625
 1230SOL    HW2 4590   4.623   6.631   2.484
 1231SOL     OW 4591   1.900   2.538   4.766
 1231SOL    HW1 4592   1.833   2.544   4.693
 1231SOL    HW2 4593   1.907   2.443   4.798
 1232SOL     OW 4594   0.431   1.809   5.590
 1232SOL    HW1 4595   0.398   1.718   5.565
 1232SOL    HW2 4596   0.357   1.876   5.578
 1233SOL     OW 4597   0.774   4.520   5.141
 1233SOL    HW1 4598   0.716   4.455   5.091
 1233SOL    HW2 4599   0.716   4.579   5.197
 1234SOL     OW 4600   6.419   3.449   5.811
 1234SOL    HW1 4601   6.384   3.518   5.748
 1234SOL    HW2 4602   6.370   3.454   5.897
 1235SOL     OW 4603   6.835   5.585   2.609
 1235SOL    HW1 4604   6.829   5.604   2.511
 1235SOL    HW2 4605   6.930   5.562   2.632
 1236SOL     OW 4606   4.271   1.564   0.115
 1236SOL    HW1 4607   4.228   1.637   0.062
 1236SOL    HW2 4608   4.370   1.570   0.106
 1237SOL     OW 4609   2.437   5.082   6.011
 1237SOL    HW1 4610   2.476   5.092   5.919
 1237SOL    HW2 4611   2.486   5.141   6.075
 1238SOL     OW 4612   2.694   1.188   0.132
 1238SOL    HW1 4613   2.647   1.108   0.169
 1238SOL    HW2 4614   2.793   1.172   0.134
 1239SOL     OW 4615   0.114   6.912   6.217
 1239SOL    HW1 4616   0.065   6.998   6.236
 1239SOL    HW2 4617   0.048   6.843   6.187
 1240SOL     OW 4618   5.514   7.021   1.661
 1240SOL    HW1 4619   5.428   0.045   1.682
 1240SOL    HW2 4620   5.499   6.922   1.657
 1241SOL     OW 4621   5.170   3.525   4.344
 1241SOL    HW1 4622   5.107   3.496   4.416
 1241SOL    HW2 4623   5.120   3.533   4.257
 1242SOL     OW 4624   0.572   3.665   1.657
 1242SOL    HW1 4625   0.584   3.669   1.756
 1242SOL    HW2 4626   0.511   3.589   1.634
 1243SOL     OW 4627   0.011   6.969   4.740
 1243SOL    HW1 4628   0.049   0.034   4.709
 1243SOL    HW2 4629   0.084   6.914   4.780
 1244SOL     OW 4630   6.355   0.172   4.334
 1244SOL    HW1 4631   6.413   0.245   4.371
 1244SOL    HW2 4632   6.384   0.084   4.372
 1245SOL     OW 4633   5.161   5.133   0.481
 1245SOL    HW1 4634   5.123   5.077   0.554
 1245SOL    HW2 4635   5.091   5.197   0.449
 1246SOL     OW 4636   2.311   6.361   1.798
 1246SOL    HW1 4637   2.343   6.279   1.847
 1246SOL    HW2 4638   2.388   6.424   1.786
 1247SOL     OW 4639   1.928   0.256   6.656
 1247SOL    HW1 4640   1.831   0.272   6.673
 1247SOL    HW2 4641   1.979   0.342   6.668
 1248SOL     OW 4642   2.365   0.074   4.939
 1248SOL    HW1 4643   2.403   0.084   5.031
 1248SOL    HW2 4644   2.267   0.088   4.941
 1249SOL     OW 4645   6.278   2.066   2.789
 1249SOL    HW1 4646   6.349   2.000   2.766
 1249SOL    HW2 4647   6.212   2.071   2.715
 1250SOL     OW 4648   5.852   5.000   4.305
 1250SOL    HW1 4649   5.879   5.075   4.244
 1250SOL    HW2 4650   5.933   4.966   4.353
 1251SOL     OW 4651   3.469   0.813   4.516
 1251SOL    HW1 4652   3.400   0.754   4.473
 1251SOL    HW2 4653   3.469   0.902   4.471
 1252SOL     OW 4654   3.953   3.755   5.631
 1252SOL    HW1 4655   3.895   3.673   5.625
 1252SOL    HW2 4656   3.943   3.796   5.721
 1253SOL     OW 4657   3.119   5.735   2.458
 1253SOL    HW1 4658   3.087   5.748   2.552
 1253SOL    HW2 4659   3.063   5.789   2.396
 1254SOL     OW 4660   1.316   2.203   2.576
 1254SOL    HW1 4661   1.229   2.154   2.576
 1254SOL    HW2 4662   1.309   2.283   2.515
 1255SOL     OW 4663   6.442   2.354   4.747
 1255SOL    HW1 4664   6.407   2.319   4.660
 1255SOL    HW2 4665   6.513   2.422   4.730
 1256SOL     OW 4666   6.585   6.106   3.434
 1256SOL    HW1 4667   6.496   6.120   3.478
 1256SOL    HW2 4668   6.656   6.095   3.503
 1257SOL     OW 4669   0.089   6.529   4.844
 1257SOL    HW1 4670   0.103   6.526   4.745
 1257SOL    HW2 4671   0.013   6.590   4.865
 1258SOL     OW 4672   1.617   5.431   3.533
 1258SOL    HW1 4673   1.556   5.391   3.602
 1258SOL    HW2 4674   1.624   5.529   3.548
 1259SOL     OW 4675   4.195   1.277   4.378
 1259SOL    HW1 4676   4.207   1.225   4.462
 1259SOL    HW2 4677   4.131   1.230   4.318
 1260SOL     OW 4678   1.681   1.598   0.241
 1260SOL    HW1 4679   1.702   1.615   0.145
 1260SOL    HW2 4680   1.665   1.686   0.287
 1261SOL     OW 4681   0.300   5.521   6.489
 1261SOL    HW1 4682   0.381   5.463   6.483
 1261SOL    HW2 4683   0.321   5.612   6.452
 1262SOL     OW 4684   4.893   4.248   1.576
 1262SOL    HW1 4685   4.913   4.181   1.648
 1262SOL    HW2 4686   4.819   4.308   1.606
 1263SOL     OW 4687   0.291   2.015   2.481
 1263SOL    HW1 4688   0.328   1.935   2.434
 1263SOL    HW2 4689   0.202   2.038   2.443
 1264SOL     OW 4690   6.381   4.443   0.210
 1264SOL    HW1 4691   6.379   4.398   0.299
 1264SOL    HW2 4692   6.293   4.485   0.191
 1265SOL     OW 4693   5.727   4.883   4.773
 1265SOL    HW1 4694   5.705   4.974   4.738
 1265SOL    HW2 4695   5.722   4.816   4.698
 1266SOL     OW 4696   0.563   1.279   4.125
 1266SOL    HW1 4697   0.529   1.339   4.197
 1266SOL    HW2 4698   0.653   1.309   4.095
 1267SOL     OW 4699   5.499   1.151   1.028
 1267SOL    HW1 4700   5.538   1.222   0.969
 1267SOL    HW2 4701   5.548   1.065   1.013
 1268SOL     OW 4702   3.098   2.721   6.768
 1268SOL    HW1 4703   3.158   2.781   6.821
 1268SOL    HW2 4704   3.153   2.669   6.703
 1269SOL     OW 4705   6.079   3.429   4.375
 1269SOL    HW1 4706   6.003   3.365   4.362
 1269SOL    HW2 4707   6.118   3.453   4.286
 1270SOL     OW 4708   1.496   3.879   2.893
 1270SOL    HW1 4709   1.549   3.867   2.808
 1270SOL    HW2 4710   1.528   3.962   2.940
 1271SOL     OW 4711   3.874   1.739   2.577
 1271SOL    HW1 4712   3.942   1.695   2.518
 1271SOL    HW2 4713   3.786   1.745   2.528
 1272SOL     OW 4714   5.739   4.507   6.887
 1272SOL    HW1 4715   5.813   4.440   6.893
 1272SOL    HW2 4716   5.678   4.484   6.811
 1273SOL     OW 4717   0.986   3.656   6.437
 1273SOL    HW1 4718   0.923   3.728   6.468
 1273SOL    HW2 4719   0.941   3.600   6.368
 1274SOL     OW 4720   6.769   4.480   1.574
 1274SOL    HW1 4721   6.730   4.486   1.666
 1274SOL    HW2 4722   6.865   4.454   1.580
 1275SOL     OW 4723   4.035   1.596   3.621
 1275SOL    HW1 4724   4.003   1.685   3.651
 1275SOL    HW2 4725   3.957   1.539   3.595
 1276SOL     OW 4726   6.178   5.117   4.982
 1276SOL    HW1 4727   6.189   5.193   5.046
 1276SOL    HW2 4728   6.196   5.149   4.889
 1277SOL     OW 4729   1.887   5.718   6.318
 1277SOL    HW1 4730   1.902   5.777   6.397
 1277SOL    HW2 4731   1.973   5.674   6.292
 1278SOL     OW 4732   1.102   6.978   5.110
 1278SOL    HW1 4733   1.124   0.050   5.087
 1278SOL    HW2 4734   1.157   6.916   5.054
 1279SOL     OW 4735   1.629   5.077   6.676
 1279SOL    HW1 4736   1.711   5.058   6.731
 1279SOL    HW2 4737   1.656   5.088   6.580
 1280SOL     OW 4738   4.648   0.237   4.409
 1280SOL    HW1 4739   4.721   0.209   4.471
 1280SOL    HW2 4740   4.683   0.238   4.315
 1281SOL     OW 4741   2.410   6.042   3.049
 1281SOL    HW1 4742   2.386   6.054   2.952
 1281SOL    HW2 4743   2.450   5.952   3.063
 1282SOL     OW 4744   6.420   2.202   6.319
 1282SOL    HW1 4745   6.484   2.205   6.242
 1282SOL    HW2 4746   6.461   2.149   6.394
 1283SOL     OW 4747   6.258   3.412   5.048
 1283SOL    HW1 4748   6.200   3.443   4.974
 1283SOL    HW2 4749   6.338   3.471   5.055
 1284SOL     OW 4750   4.743   1.580   1.761
 1284SOL    HW1 4751   4.829   1.532   1.743
 1284SOL    HW2 4752   4.759   1.678   1.763
 1285SOL     OW 4753   4.423   1.456   5.624
 1285SOL    HW1 4754   4.501   1.517   5.639
 1285SOL    HW2 4755   4.453   1.377   5.571
 1286SOL     OW 4756   4.137   3.580   0.992
 1286SOL    HW1 4757   4.043   3.574   0.957
 1286SOL    HW2 4758   4.134   3.583   1.092
 1287SOL     OW 4759   5.416   4.224   5.322
 1287SOL    HW1 4760   5.510   4.192   5.324
 1287SOL    HW2 4761   5.376   4.204   5.232
 1288SOL     OW 4762   3.702   3.766   6.601
 1288SOL    HW1 4763   3.787   3.798   6.559
 1288SOL    HW2 4764   3.627   3.824   6.570
 1289SOL     OW 4765   0.608   6.914   1.360
 1289SOL    HW1 4766   0.625   6.996   1.416
 1289SOL    HW2 4767   0.658   6.921   1.274
 1290SOL     OW 4768   1.165   6.764   0.755
 1290SOL    HW1 4769   1.107   6.815   0.820
 1290SOL    HW2 4770   1.136   6.787   0.662
 1291SOL     OW 4771   0.598   4.373   3.839
 1291SOL    HW1 4772   0.688   4.332   3.825
 1291SOL    HW2 4773   0.531   4.325   3.782
 1292SOL     OW 4774   0.720   5.654   2.379
 1292SOL    HW1 4775   0.631   5.680   2.414
 1292SOL    HW2 4776   0.708   5.585   2.307
 1293SOL     OW 4777   2.214   2.396   6.920
 1293SOL    HW1 4778   2.227   2.343   6.836
 1293SOL    HW2 4779   2.119   2.389   6.951
 1294SOL     OW 4780   0.451   3.320   5.799
 1294SOL    HW1 4781   0.416   3.251   5.736
 1294SOL    HW2 4782   0.535   3.287   5.842
 1295SOL     OW 4783   0.109   3.826   1.174
 1295SOL    HW1 4784   0.018   3.803   1.209
 1295SOL    HW2 4785   0.104   3.910   1.119
 1296SOL     OW 4786   3.806   6.386   5.362
 1296SOL    HW1 4787   3.865   6.426   5.432
 1296SOL    HW2 4788   3.742   6.455   5.328
 1297SOL     OW 4789   0.960   7.000   1.316
 1297SOL    HW1 4790   0.920   6.955   1.396
 1297SOL    HW2 4791   1.007   0.061   1.344
 1298SOL     OW 4792   5.188   5.515   3.292
 1298SOL    HW1 4793   5.180   5.460   3.375
 1298SOL    HW2 4794   5.100   5.514   3.244
 1299SOL     OW 4795   2.725   2.423   3.811
 1299SOL    HW1 4796   2.770   2.353   3.755
 1299SOL    HW2 4797   2.692   2.497   3.753
 1300SOL     OW 4798   1.775   2.664   0.242
 1300SOL    HW1 4799   1.841   2.679   0.168
 1300SOL    HW2 4800   1.822   2.668   0.330
 1301SOL     OW 4801   0.613   6.336   1.743
 1301SOL    HW1 4802   0.526   6.384   1.730
 1301SOL    HW2 4803   0.687   6.402   1.753
 1302SOL     OW 4804   4.836   6.788   5.099
 1302SOL    HW1 4805   4.750   6.741   5.080
 1302SOL    HW2 4806   4.864   6.770   5.193
 1303SOL     OW 4807   4.282   1.656   1.607
 1303SOL    HW1 4808   4.294   1.577   1.546
 1303SOL    HW2 4809   4.291   1.740   1.554
 1304SOL     OW 4810   1.663   0.074   0.522
 1304SOL    HW1 4811   1.745   0.017   0.509
 1304SOL    HW2 4812   1.586   0.016   0.546
 1305SOL     OW 4813   5.621   3.669   0.433
 1305SOL    HW1 4814   5.656   3.648   0.342
 1305SOL    HW2 4815   5.644   3.594   0.496
 1306SOL     OW 4816   1.487   6.028   4.142
 1306SOL    HW1 4817   1.527   5.970   4.071
 1306SOL    HW2 4818   1.486   6.123   4.111
 1307SOL     OW 4819   2.403   4.379   4.146
 1307SOL    HW1 4820   2.321   4.327   4.170
 1307SOL    HW2 4821   2.416   4.376   4.046
 1308SOL     OW 4822   6.366   0.060   5.971
 1308SOL    HW1 4823   6.295   0.020   6.029
 1308SOL    HW2 4824   6.330   0.072   5.879
 1309SOL     OW 4825   5.833   4.789   5.768
 1309SOL    HW1 4826   5.913   4.818   5.820
 1309SOL    HW2 4827   5.768   4.743   5.829
 1310SOL     OW 4828   0.349   3.818   3.501
 1310SOL    HW1 4829   0.436   3.783   3.533
 1310SOL    HW2 4830   0.292   3.843   3.580
 1311SOL     OW 4831   6.719   5.715   6.152
 1311SOL    HW1 4832   6.812   5.696   6.184
 1311SOL    HW2 4833   6.714   5.699   6.053
 1312SOL     OW 4834   1.578   6.762   0.472
 1312SOL    HW1 4835   1.662   6.740   0.422
 1312SOL    HW2 4836   1.503   6.707   0.437
 1313SOL     OW 4837   0.070   4.870   2.934
 1313SOL    HW1 4838   0.125   4.827   2.863
 1313SOL    HW2 4839   0.124   4.877   3.018
 1314SOL     OW 4840   4.034   1.437   4.546
 1314SOL    HW1 4841   4.002   1.381   4.622
 1314SOL    HW2 4842   4.079   1.378   4.478
 1315SOL     OW 4843   6.868   1.976   2.922
 1315SOL    HW1 4844   6.922   1.897   2.951
 1315SOL    HW2 4845   6.925   2.058   2.922
 1316SOL     OW 4846   3.225   0.149   5.800
 1316SOL    HW1 4847   3.217   0.223   5.734
 1316SOL    HW2 4848   3.302   0.168   5.862
 1317SOL     OW 4849   2.659   4.009   5.680
 1317SOL    HW1 4850   2.737   4.071   5.684
 1317SOL    HW2 4851   2.625   4.003   5.586
 1318SOL     OW 4852   0.952   2.596   0.936
 1318SOL    HW1 4853   1.036   2.642   0.908
 1318SOL    HW2 4854   0.928   2.622   1.029
 1319SOL     OW 4855   7.005   6.144   1.166
 1319SOL    HW1 4856   7.002   6.122   1.264
 1319SOL    HW2 4857   7.015   6.243   1.154
 1320SOL     OW 4858   3.670   4.513   6.890
 1320SOL    HW1 4859   3.679   4.592   6.830
 1320SOL    HW2 4860   3.691   4.539   6.984
 1321SOL     OW 4861   5.027   2.849   6.536
 1321SOL    HW1 4862   5.093   2.776   6.516
 1321SOL    HW2 4863   4.976   2.871   6.452
 1322SOL     OW 4864   3.909   1.803   3.732
 1322SOL    HW1 4865   3.837   1.734   3.737
 1322SOL    HW2 4866   3.961   1.804   3.817
 1323SOL     OW 4867   3.936   6.546   6.358
 1323SOL    HW1 4868   3.948   6.571   6.454
 1323SOL    HW2 4869   3.841   6.559   6.331
 1324SOL     OW 4870   0.647   3.404   6.673
 1324SOL    HW1 4871   0.687   3.342   6.605
 1324SOL    HW2 4872   0.576   3.356   6.724
 1325SOL     OW 4873   3.624   6.184   4.588
 1325SOL    HW1 4874   3.689   6.246   4.632
 1325SOL    HW2 4875   3.605   6.107   4.650
 1326SOL     OW 4876   4.904   3.387   5.183
 1326SOL    HW1 4877   4.892   3.477   5.140
 1326SOL    HW2 4878   4.917   3.318   5.113
 1327SOL     OW 4879   1.197   6.286   1.153
 1327SOL    HW1 4880   1.295   6.269   1.153
 1327SOL    HW2 4881   1.172   6.338   1.071
 1328SOL     OW 4882   2.569   3.328   0.278
 1328SOL    HW1 4883   2.615   3.298   0.194
 1328SOL    HW2 4884   2.638   3.356   0.345
 1329SOL     OW 4885   0.862   2.167   2.372
 1329SOL    HW1 4886   0.867   2.158   2.272
 1329SOL    HW2 4887   0.870   2.263   2.398
 1330SOL     OW 4888   1.406   1.201   1.164
 1330SOL    HW1 4889   1.456   1.234   1.245
 1330SOL    HW2 4890   1.458   1.222   1.082
 1331SOL     OW 4891   4.789   2.927   3.035
 1331SOL    HW1 4892   4.734   2.846   3.015
 1331SOL    HW2 4893   4.825   2.965   2.949
 1332SOL     OW 4894   2.233   6.865   0.649
 1332SOL    HW1 4895   2.210   6.852   0.746
 1332SOL    HW2 4896   2.220   6.961   0.624
 1333SOL     OW 4897   3.000   3.350   3.336
 1333SOL    HW1 4898   2.930   3.386   3.398
 1333SOL    HW2 4899   3.087   3.395   3.354
 1334SOL     OW 4900   6.420   1.634   3.526
 1334SOL    HW1 4901   6.354   1.566   3.494
 1334SOL    HW2 4902   6.383   1.682   3.605
 1335SOL     OW 4903   2.872   1.944   2.126
 1335SOL    HW1 4904   2.938   1.876   2.092
 1335SOL    HW2 4905   2.920   2.011   2.182
 1336SOL     OW 4906   2.472   1.924   4.998
 1336SOL    HW1 4907   2.420   1.843   5.027
 1336SOL    HW2 4908   2.556   1.895   4.953
 1337SOL     OW 4909   0.994   1.732   3.039
 1337SOL    HW1 4910   1.052   1.809   3.067
 1337SOL    HW2 4911   0.919   1.722   3.104
 1338SOL     OW 4912   6.758   2.969   4.711
 1338SOL    HW1 4913   6.660   2.989   4.708
 1338SOL    HW2 4914   6.805   3.039   4.764
 1339SOL     OW 4915   6.618   1.927   6.852
 1339SOL    HW1 4916   6.626   1.899   6.756
 1339SOL    HW2 4917   6.708   1.918   6.897
 1340SOL     OW 4918   5.279   1.658   2.783
 1340SOL    HW1 4919   5.287   1.754   2.811
 1340SOL    HW2 4920   5.207   1.649   2.715
 1341SOL     OW 4921   4.178   6.633   6.747
 1341SOL    HW1 4922   4.125   6.549   6.763
 1341SOL    HW2 4923   4.116   6.711   6.743
 1342SOL     OW 4924   3.249   5.585   6.390
 1342SOL    HW1 4925   3.197   5.670   6.383
 1342SOL    HW2 4926   3.230   5.528   6.309
 1343SOL     OW 4927   4.981   5.413   2.966
 1343SOL    HW1 4928   4.917   5.458   2.904
 1343SOL    HW2 4929   4.973   5.453   3.057
 1344SOL     OW 4930   0.290   6.292   4.560
 1344SOL    HW1 4931   0.290   6.231   4.639
 1344SOL    HW2 4932   0.288   6.238   4.476
 1345SOL     OW 4933   0.840   5.784   2.771
 1345SOL    HW1 4934   0.746   5.765   2.745
 1345SOL    HW2 4935   0.858   5.882   2.765
 1346SOL     OW 4936   1.975   6.204   4.431
 1346SOL    HW1 4937   1.982   6.247   4.521
 1346SOL    HW2 4938   1.880   6.179   4.413
 1347SOL     OW 4939   7.000   0.045   5.751
 1347SOL    HW1 4940   6.944   0.119   5.712
 1347SOL    HW2 4941   0.064   0.083   5.784
 1348SOL     OW 4942   6.160   6.628   4.417
 1348SOL    HW1 4943   6.073   6.640   4.465
 1348SOL    HW2 4944   6.144   6.583   4.329
 1349SOL     OW 4945   5.217   3.114   5.142
 1349SOL    HW1 4946   5.218   3.081   5.237
 1349SOL    HW2 4947   5.276   3.195   5.134
 1350SOL     OW 4948   5.032   5.167   5.319
 1350SOL    HW1 4949   4.984   5.210   5.241
 1350SOL    HW2 4950   4.966   5.114   5.372
 1351SOL     OW 4951   6.074   1.967   2.947
 1351SOL    HW1 4952   6.078   2.018   3.033
 1351SOL    HW2 4953   6.162   1.976   2.900
 1352SOL     OW 4954   6.664   5.724   4.032
 1352SOL    HW1 4955   6.634   5.630   4.020
 1352SOL    HW2 4956   6.591   5.778   4.074
 1353SOL     OW 4957   0.679   2.432   0.317
 1353SOL    HW1 4958   0.677   2.420   0.218
 1353SOL    HW2 4959   0.705   2.345   0.361
 1354SOL     OW 4960   0.426   4.489   1.616
 1354SOL    HW1 4961   0.507   4.486   1.557
 1354SOL    HW2 4962   0.376   4.402   1.608
 1355SOL     OW 4963   5.780   3.662   4.421
 1355SOL    HW1 4964   5.823   3.594   4.363
 1355SOL    HW2 4965   5.727   3.726   4.364
 1356SOL     OW 4966   3.046   3.037   2.048
 1356SOL    HW1 4967   2.979   3.108   2.026
 1356SOL    HW2 4968   3.003   2.947   2.040
 1357SOL     OW 4969   0.179   4.446   6.294
 1357SOL    HW1 4970   0.183   4.346   6.292
 1357SOL    HW2 4971   0.101   4.474   6.350
 1358SOL     OW 4972   5.206   6.604   6.423
 1358SOL    HW1 4973   5.241   6.697   6.438
 1358SOL    HW2 4974   5.195   6.558   6.511
 1359SOL     OW 4975   5.672   4.877   3.059
 1359SOL    HW1 4976   5.639   4.969   3.036
 1359SOL    HW2 4977   5.644   4.813   2.988
 1360SOL     OW 4978   2.696   3.929   0.512
 1360SOL    HW1 4979   2.748   4.015   0.518
 1360SOL    HW2 4980   2.749   3.862   0.461
 1361SOL     OW 4981   6.313   4.934   5.107
 1361SOL    HW1 4982   6.342   4.979   5.191
 1361SOL    HW2 4983   6.246   4.991   5.060
 1362SOL     OW 4984   3.868   4.036   3.609
 1362SOL    HW1 4985   3.877   3.999   3.517
 1362SOL    HW2 4986   3.861   4.135   3.604
 1363SOL     OW 4987   6.742   5.275   3.890
 1363SOL    HW1 4988   6.739   5.184   3.931
 1363SOL    HW2 4989   6.812   5.330   3.935
 1364SOL     OW 4990   5.252   4.365   1.001
 1364SOL    HW1 4991   5.300   4.321   1.077
 1364SOL    HW2 4992   5.175   4.308   0.973
 1365SOL     OW 4993   0.199   4.190   6.441
 1365SOL    HW1 4994   0.291   4.169   6.472
 1365SOL    HW2 4995   0.133   4.164   6.511
 1366SOL     OW 4996   1.715   5.827   0.220
 1366SOL    HW1 4997   1.782   5.859   0.287
 1366SOL    HW2 4998   1.763   5.787   0.141
 1367SOL     OW 4999   2.193   0.429   3.397
 1367SOL    HW1 5000   2.127   0.417   3.472
 1367SOL    HW2 5001   2.257   0.353   3.396
 1368SOL     OW 5002   5.845   0.487   3.816
 1368SOL    HW1 5003   5.878   0.413   3.758
 1368SOL    HW2 5004   5.919   0.552   3.832
 1369SOL     OW 5005   1.784   6.494   2.395
 1369SOL    HW1 5006   1.871   6.445   2.403
 1369SOL    HW2 5007   1.787   6.577   2.450
 1370SOL     OW 5008   3.487   1.263   1.023
 1370SOL    HW1 5009   3.435   1.213   0.955
 1370SOL    HW2 5010   3.429   1.285   1.101
 1371SOL     OW 5011   5.364   1.382   4.185
 1371SOL    HW1 5012   5.355   1.476   4.153
 1371SOL    HW2 5013   5.406   1.326   4.114
 1372SOL     OW 5014   0.994   3.007   0.964
 1372SOL    HW1 5015   1.054   3.086   0.950
 1372SOL    HW2 5016   0.983   2.959   0.877
 1373SOL     OW 5017   6.039   4.084   6.517
 1373SOL    HW1 5018   6.073   4.012   6.579
 1373SOL    HW2 5019   6.112   4.150   6.500
 1374SOL     OW 5020   4.419   2.493   0.536
 1374SOL    HW1 5021   4.512   2.460   0.519
 1374SOL    HW2 5022   4.369   2.495   0.449
 1375SOL     OW 5023   0.086   4.777   6.326
 1375SOL    HW1 5024   0.009   4.735   6.277
 1375SOL    HW2 5025   0.166   4.778   6.266
 1376SOL     OW 5026   4.941   3.567   3.872
 1376SOL    HW1 5027   4.922   3.480   3.916
 1376SOL    HW2 5028   4.949   3.554   3.773
 1377SOL     OW 5029   6.718   4.033   5.203
 1377SOL    HW1 5030   6.725   4.061   5.107
 1377SOL    HW2 5031   6.788   3.965   5.224
 1378SOL     OW 5032   6.487   1.506   4.650
 1378SOL    HW1 5033   6.490   1.605   4.642
 1378SOL    HW2 5034   6.573   1.474   4.692
 1379SOL     OW 5035   3.405   0.384   2.113
 1379SOL    HW1 5036   3.341   0.313   2.084
 1379SOL    HW2 5037   3.354   0.463   2.147
 1380SOL     OW 5038   0.332   6.931   2.543
 1380SOL    HW1 5039   0.366   7.015   2.502
 1380SOL    HW2 5040   0.404   6.861   2.540
 1381SOL     OW 5041   5.383   2.648   0.085
 1381SOL    HW1 5042   5.286   2.669   0.070
 1381SOL    HW2 5043   5.435   2.669   0.002
 1382SOL     OW 5044   5.333   4.384   0.312
 1382SOL    HW1 5045   5.411   4.328   0.341
 1382SOL    HW2 5046   5.261   4.379   0.381
 1383SOL     OW 5047   0.358   0.832   0.725
 1383SOL    HW1 5048   0.260   0.815   0.739
 1383SOL    HW2 5049   0.396   0.762   0.665
 1384SOL     OW 5050   3.677   1.011   2.564
 1384SOL    HW1 5051   3.744   0.980   2.631
 1384SOL    HW2 5052   3.718   1.008   2.473
 1385SOL     OW 5053   0.654   2.944   2.814
 1385SOL    HW1 5054   0.559   2.965   2.792
 1385SOL    HW2 5055   0.714   3.007   2.764
 1386SOL     OW 5056   2.561   1.779   4.458
 1386SOL    HW1 5057   2.643   1.830   4.483
 1386SOL    HW2 5058   2.480   1.822   4.500
 1387SOL     OW 5059   3.821   0.278   3.422
 1387SOL    HW1 5060   3.772   0.315   3.343
 1387SOL    HW2 5061   3.768   0.202   3.461
 1388SOL     OW 5062   6.995   6.794   3.984
 1388SOL    HW1 5063   6.914   6.849   3.962
 1388SOL    HW2 5064   7.012   6.798   4.082
 1389SOL     OW 5065   0.780   1.103   3.349
 1389SOL    HW1 5066   0.741   1.169   3.285
 1389SOL    HW2 5067   0.874   1.081   3.321
 1390SOL     OW 5068   4.744   1.466   6.686
 1390SOL    HW1 5069   4.744   1.465   6.586
 1390SOL    HW2 5070   4.797   1.388   6.720
 1391SOL     OW 5071   5.963   1.327   5.408
 1391SOL    HW1 5072   5.882   1.327   5.467
 1391SOL    HW2 5073   6.024   1.401   5.436
 1392SOL     OW 5074   5.396   5.144   5.159
 1392SOL    HW1 5075   5.356   5.117   5.247
 1392SOL    HW2 5076   5.493   5.164   5.172
 1393SOL     OW 5077   5.951   3.116   6.688
 1393SOL    HW1 5078   5.860   3.124   6.646
 1393SOL    HW2 5079   5.961   3.026   6.730
 1394SOL     OW 5080   4.272   6.857   3.759
 1394SOL    HW1 5081   4.330   6.893   3.686
 1394SOL    HW2 5082   4.214   6.784   3.724
 1395SOL     OW 5083   0.708   4.252   2.860
 1395SOL    HW1 5084   0.802   4.270   2.828
 1395SOL    HW2 5085   0.695   4.153   2.870
 1396SOL     OW 5086   1.649   0.086   4.012
 1396SOL    HW1 5087   1.749   0.086   4.015
 1396SOL    HW2 5088   1.618   0.158   3.950
 1397SOL     OW 5089   0.391   6.452   4.899
 1397SOL    HW1 5090   0.339   6.429   4.981
 1397SOL    HW2 5091   0.330   6.494   4.832
 1398SOL     OW 5092   1.588   1.352   0.768
 1398SOL    HW1 5093   1.648   1.430   0.787
 1398SOL    HW2 5094   1.566   1.352   0.670
 1399SOL     OW 5095   4.181   0.571   0.525
 1399SOL    HW1 5096   4.146   0.483   0.494
 1399SOL    HW2 5097   4.117   0.612   0.590
 1400SOL     OW 5098   6.586   0.718   4.232
 1400SOL    HW1 5099   6.610   0.622   4.220
 1400SOL    HW2 5100   6.516   0.743   4.166
 1401SOL     OW 5101   5.992   6.921   4.421
 1401SOL    HW1 5102   5.971   6.973   4.503
 1401SOL    HW2 5103   6.042   6.978   4.356
 1402SOL     OW 5104   6.205   4.205   0.055
 1402SOL    HW1 5105   6.246   4.171   0.140
 1402SOL    HW2 5106   6.269   4.266   0.009
 1403SOL     OW 5107   2.250   2.974   0.302
 1403SOL    HW1 5108   2.319   2.903   0.287
 1403SOL    HW2 5109   2.291   3.049   0.354
 1404SOL     OW 5110   4.584   0.233   1.029
 1404SOL    HW1 5111   4.557   0.167   0.959
 1404SOL    HW2 5112   4.503   0.275   1.069
 1405SOL     OW 5113   1.822   3.511   0.893
 1405SOL    HW1 5114   1.730   3.489   0.927
 1405SOL    HW2 5115   1.855   3.436   0.836
 1406SOL     OW 5116   2.010   4.166   1.910
 1406SOL    HW1 5117   1.926   4.129   1.949
 1406SOL    HW2 5118   2.038   4.247   1.960
 1407SOL     OW 5119   1.367   3.326   2.616
 1407SOL    HW1 5120   1.351   3.231   2.589
 1407SOL    HW2 5121   1.314   3.386   2.557
 1408SOL     OW 5122   6.234   6.582   6.966
 1408SOL    HW1 5123   6.215   6.656   6.901
 1408SOL    HW2 5124   6.148   6.550   7.007
 1409SOL     OW 5125   6.976   0.678   5.916
 1409SOL    HW1 5126   6.943   0.600   5.863
 1409SOL    HW2 5127   0.038   0.654   5.962
 1410SOL     OW 5128   2.721   3.386   6.472
 1410SOL    HW1 5129   2.736   3.431   6.384
 1410SOL    HW2 5130   2.675   3.448   6.535
 1411SOL     OW 5131   3.433   6.175   6.757
 1411SOL    HW1 5132   3.421   6.149   6.853
 1411SOL    HW2 5133   3.458   6.272   6.751
 1412SOL     OW 5134   0.760   3.655   0.896
 1412SOL    HW1 5135   0.721   3.741   0.930
 1412SOL    HW2 5136   0.761   3.657   0.796
 1413SOL     OW 5137   1.700   1.652   4.417
 1413SOL    HW1 5138   1.618   1.709   4.430
 1413SOL    HW2 5139   1.772   1.707   4.374
 1414SOL     OW 5140   1.477   3.001   1.767
 1414SOL    HW1 5141   1.416   3.079   1.752
 1414SOL    HW2 5142   1.497   2.956   1.680
 1415SOL     OW 5143   2.697   2.109   4.319
 1415SOL    HW1 5144   2.703   2.062   4.407
 1415SOL    HW2 5145   2.771   2.176   4.312
 1416SOL     OW 5146   4.612   1.035   4.853
 1416SOL    HW1 5147   4.630   0.940   4.829
 1416SOL    HW2 5148   4.665   1.059   4.935
 1417SOL     OW 5149   3.542   3.309   6.070
 1417SOL    HW1 5150   3.574   3.294   6.163
 1417SOL    HW2 5151   3.468   3.377   6.070
 1418SOL     OW 5152   3.367   4.055   0.718
 1418SOL    HW1 5153   3.431   4.118   0.675
 1418SOL    HW2 5154   3.406   4.020   0.803
 1419SOL     OW 5155   1.696   5.013   4.395
 1419SOL    HW1 5156   1.605   4.983   4.422
 1419SOL    HW2 5157   1.731   4.954   4.322
 1420SOL     OW 5158   4.001   4.860   3.128
 1420SOL    HW1 5159   4.005   4.839   3.225
 1420SOL    HW2 5160   4.072   4.809   3.080
 1421SOL     OW 5161   1.220   4.198   4.250
 1421SOL    HW1 5162   1.183   4.215   4.341
 1421SOL    HW2 5163   1.228   4.285   4.201
 1422SOL     OW 5164   2.576   4.846   6.072
 1422SOL    HW1 5165   2.518   4.921   6.039
 1422SOL    HW2 5166   2.524   4.792   6.138
 1423SOL     OW 5167   3.988   2.105   4.738
 1423SOL    HW1 5168   3.998   2.157   4.653
 1423SOL    HW2 5169   3.998   2.007   4.718
 1424SOL     OW 5170   6.483   3.775   6.659
 1424SOL    HW1 5171   6.529   3.753   6.573
 1424SOL    HW2 5172   6.479   3.874   6.670
 1425SOL     OW 5173   2.609   6.348   4.891
 1425SOL    HW1 5174   2.578   6.401   4.813
 1425SOL    HW2 5175   2.622   6.252   4.864
 1426SOL     OW 5176   1.892   1.263   6.455
 1426SOL    HW1 5177   1.984   1.231   6.436
 1426SOL    HW2 5178   1.853   1.303   6.373
 1427SOL     OW 5179   1.015   0.288   3.489
 1427SOL    HW1 5180   0.948   0.219   3.518
 1427SOL    HW2 5181   1.089   0.244   3.439
 1428SOL     OW 5182   0.323   2.197   1.355
 1428SOL    HW1 5183   0.397   2.152   1.305
 1428SOL    HW2 5184   0.331   2.296   1.345
 1429SOL     OW 5185   6.430   1.257   6.607
 1429SOL    HW1 5186   6.400   1.163   6.623
 1429SOL    HW2 5187   6.388   1.317   6.676
 1430SOL     OW 5188   2.414   4.575   4.583
 1430SOL    HW1 5189   2.426   4.627   4.667
 1430SOL    HW2 5190   2.366   4.489   4.603
 1431SOL     OW 5191   2.560   2.458   5.615
 1431SOL    HW1 5192   2.478   2.513   5.603
 1431SOL    HW2 5193   2.610   2.452   5.529
 1432SOL     OW 5194   2.126   1.368   0.459
 1432SOL    HW1 5195   2.169   1.412   0.538
 1432SOL    HW2 5196   2.144   1.270   0.462
 1433SOL     OW 5197   4.084   0.061   3.708
 1433SOL    HW1 5198   4.044   0.124   3.775
 1433SOL    HW2 5199   4.092   6.993   3.748
 1434SOL     OW 5200   0.005   2.033   6.394
 1434SOL    HW1 5201   0.014   2.012   6.491
 1434SOL    HW2 5202   6.951   1.980   6.356
 1435SOL     OW 5203   0.248   0.463   3.917
 1435SOL    HW1 5204   0.279   0.525   3.845
 1435SOL    HW2 5205   0.220   0.516   3.997
 1436SOL     OW 5206   5.983   3.536   0.532
 1436SOL    HW1 5207   6.045   3.486   0.472
 1436SOL    HW2 5208   6.032   3.562   0.616
 1437SOL     OW 5209   3.219   1.484   5.718
 1437SOL    HW1 5210   3.245   1.581   5.718
 1437SOL    HW2 5211   3.123   1.475   5.746
 1438SOL     OW 5212   3.302   1.149   1.405
 1438SOL    HW1 5213   3.312   1.205   1.323
 1438SOL    HW2 5214   3.283   1.208   1.483
 1439SOL     OW 5215   0.760   5.764   0.117
 1439SOL    HW1 5216   0.745   5.833   0.188
 1439SOL    HW2 5217   0.754   5.673   0.159
 1440SOL     OW 5218   3.494   3.701   4.360
 1440SOL    HW1 5219   3.452   3.737   4.276
 1440SOL    HW2 5220   3.491   3.770   4.432
 1441SOL     OW 5221   6.954   3.964   3.283
 1441SOL    HW1 5222   6.928   3.962   3.186
 1441SOL    HW2 5223   6.987   4.056   3.306
 1442SOL     OW 5224   5.480   5.269   0.826
 1442SOL    HW1 5225   5.440   5.343   0.772
 1442SOL    HW2 5226   5.572   5.248   0.791
 1443SOL     OW 5227   0.533   0.420   3.572
 1443SOL    HW1 5228   0.562   0.349   3.636
 1443SOL    HW2 5229   0.522   0.507   3.620
 1444SOL     OW 5230   3.923   5.843   3.206
 1444SOL    HW1 5231   3.878   5.771   3.259
 1444SOL    HW2 5232   3.919   5.929   3.257
 1445SOL     OW 5233   0.342   2.732   1.928
 1445SOL    HW1 5234   0.323   2.666   1.855
 1445SOL    HW2 5235   0.267   2.731   1.994
 1446SOL     OW 5236   5.076   2.730   7.022
 1446SOL    HW1 5237   5.066   2.793   6.945
 1446SOL    HW2 5238   5.041   2.774   0.082
 1447SOL     OW 5239   6.654   0.580   5.138
 1447SOL    HW1 5240   6.667   0.580   5.039
 1447SOL    HW2 5241   6.642   0.673   5.171
 1448SOL     OW 5242   6.334   1.651   0.223
 1448SOL    HW1 5243   6.416   1.708   0.227
 1448SOL    HW2 5244   6.253   1.706   0.244
 1449SOL     OW 5245   5.998   6.664   0.203
 1449SOL    HW1 5246   5.953   6.749   0.230
 1449SOL    HW2 5247   6.096   6.680   0.191
 1450SOL     OW 5248   7.012   2.310   2.046
 1450SOL    HW1 5249   0.080   2.319   2.006
 1450SOL    HW2 5250   6.947   2.281   1.976
 1451SOL     OW 5251   3.066   0.688   3.129
 1451SOL    HW1 5252   3.042   0.602   3.176
 1451SOL    HW2 5253   3.147   0.673   3.073
 1452SOL     OW 5254   4.960   1.684   4.671
 1452SOL    HW1 5255   4.980   1.710   4.577
 1452SOL    HW2 5256   4.932   1.765   4.723
 1453SOL     OW 5257   5.759   3.594   4.673
 1453SOL    HW1 5258   5.690   3.523   4.688
 1453SOL    HW2 5259   5.757   3.623   4.577
 1454SOL     OW 5260   5.712   2.727   2.547
 1454SOL    HW1 5261   5.811   2.719   2.531
 1454SOL    HW2 5262   5.666   2.744   2.460
 1455SOL     OW 5263   0.898   0.514   1.757
 1455SOL    HW1 5264   0.895   0.553   1.849
 1455SOL    HW2 5265   0.812   0.532   1.709
 1456SOL     OW 5266   6.734   6.700   5.206
 1456SOL    HW1 5267   6.760   6.632   5.137
 1456SOL    HW2 5268   6.786   6.682   5.290
 1457SOL     OW 5269   1.157   0.118   2.391
 1457SOL    HW1 5270   1.169   0.084   2.484
 1457SOL    HW2 5271   1.139   0.216   2.393
 1458SOL     OW 5272   5.266   6.868   4.850
 1458SOL    HW1 5273   5.170   6.861   4.879
 1458SOL    HW2 5274   5.282   6.958   4.808
 1459SOL     OW 5275   2.734   4.655   0.043
 1459SOL    HW1 5276   2.765   4.616   0.130
 1459SOL    HW2 5277   2.756   4.593   6.991
 1460SOL     OW 5278   6.872   5.674   6.403
 1460SOL    HW1 5279   6.826   5.585   6.409
 1460SOL    HW2 5280   6.971   5.661   6.416
 1461SOL     OW 5281   6.654   4.824   3.338
 1461SOL    HW1 5282   6.672   4.919   3.362
 1461SOL    HW2 5283   6.698   4.764   3.405
 1462SOL     OW 5284   6.516   1.948   0.088
 1462SOL    HW1 5285   6.565   1.944   0.001
 1462SOL    HW2 5286   6.467   2.034   0.095
 1463SOL     OW 5287   0.624   6.786   6.010
 1463SOL    HW1 5288   0.529   6.791   6.039
 1463SOL    HW2 5289   0.635   6.709   5.947
 1464SOL     OW 5290   0.448   6.665   0.691
 1464SOL    HW1 5291   0.357   6.653   0.649
 1464SOL    HW2 5292   0.461   6.595   0.761
 1465SOL     OW 5293   1.290   1.409   3.029
 1465SOL    HW1 5294   1.390   1.403   3.030
 1465SOL    HW2 5295   1.263   1.504   3.045
 1466SOL     OW 5296   0.309   6.577   3.129
 1466SOL    HW1 5297   0.233   6.616   3.181
 1466SOL    HW2 5298   0.294   6.591   3.032
 1467SOL     OW 5299   1.760   0.366   2.372
 1467SOL    HW1 5300   1.694   0.312   2.424
 1467SOL    HW2 5301   1.732   0.462   2.373
 1468SOL     OW 5302   5.555   5.982   2.842
 1468SOL    HW1 5303   5.569   5.981   2.942
 1468SOL    HW2 5304   5.626   5.925   2.799
 1469SOL     OW 5305   0.824   1.049   3.023
 1469SOL    HW1 5306   0.781   1.054   2.932
 1469SOL    HW2 5307   0.842   1.141   3.056
 1470SOL     OW 5308   0.680   1.044   2.345
 1470SOL    HW1 5309   0.614   1.015   2.275
 1470SOL    HW2 5310   0.746   0.970   2.361
 1471SOL     OW 5311   0.973   0.533   0.070
 1471SOL    HW1 5312   0.944   0.627   0.051
 1471SOL    HW2 5313   1.013   0.528   0.161
 1472SOL     OW 5314   4.572   5.920   4.276
 1472SOL    HW1 5315   4.539   6.003   4.321
 1472SOL    HW2 5316   4.660   5.938   4.232
 1473SOL     OW 5317   5.929   6.093   3.780
 1473SOL    HW1 5318   5.897   6.001   3.758
 1473SOL    HW2 5319   6.009   6.088   3.841
 1474SOL     OW 5320   6.418   5.839   3.607
 1474SOL    HW1 5321   6.378   5.839   3.516
 1474SOL    HW2 5322   6.413   5.931   3.646
 1475SOL     OW 5323   0.439   0.360   1.867
 1475SOL    HW1 5324   0.438   0.263   1.891
 1475SOL    HW2 5325   0.529   0.398   1.888
 1476SOL     OW 5326   1.582   0.835   1.008
 1476SOL    HW1 5327   1.612   0.760   1.066
 1476SOL    HW2 5328   1.650   0.851   0.936
 1477SOL     OW 5329   2.917   0.344   6.518
 1477SOL    HW1 5330   2.870   0.311   6.600
 1477SOL    HW2 5331   2.939   0.267   6.459
 1478SOL     OW 5332   5.844   4.620   0.817
 1478SOL    HW1 5333   5.932   4.609   0.863
 1478SOL    HW2 5334   5.852   4.688   0.745
 1479SOL     OW 5335   1.514   4.685   0.084
 1479SOL    HW1 5336   1.572   4.740   0.023
 1479SOL    HW2 5337   1.566   4.609   0.121
 1480SOL     OW 5338   2.553   0.950   0.195
 1480SOL    HW1 5339   2.615   0.874   0.173
 1480SOL    HW2 5340   2.467   0.913   0.230
 1481SOL     OW 5341   5.650   2.134   4.724
 1481SOL    HW1 5342   5.675   2.037   4.727
 1481SOL    HW2 5343   5.702   2.179   4.652
 1482SOL     OW 5344   5.630   1.540   0.669
 1482SOL    HW1 5345   5.669   1.522   0.579
 1482SOL    HW2 5346   5.545   1.593   0.659
 1483SOL     OW 5347   0.013   3.243   6.391
 1483SOL    HW1 5348   0.112   3.234   6.400
 1483SOL    HW2 5349   7.001   3.303   6.463
 1484SOL     OW 5350   6.630   4.362   3.544
 1484SOL    HW1 5351   6.684   4.286   3.509
 1484SOL    HW2 5352   6.681   4.409   3.616
 1485SOL     OW 5353   4.587   2.574   2.495
 1485SOL    HW1 5354   4.550   2.481   2.484
 1485SOL    HW2 5355   4.669   2.584   2.440
 1486SOL     OW 5356   4.618   2.399   3.235
 1486SOL    HW1 5357   4.522   2.398   3.209
 1486SOL    HW2 5358   4.641   2.486   3.279
 1487SOL     OW 5359   6.501   1.792   6.393
 1487SOL    HW1 5360   6.435   1.851   6.345
 1487SOL    HW2 5361   6.559   1.747   6.326
 1488SOL     OW 5362   6.117   2.365   2.941
 1488SOL    HW1 5363   6.109   2.307   2.860
 1488SOL    HW2 5364   6.201   2.418   2.934
 1489SOL     OW 5365   3.860   4.911   4.646
 1489SOL    HW1 5366   3.942   4.854   4.656
 1489SOL    HW2 5367   3.809   4.913   4.732
 1490SOL     OW 5368   1.221   2.449   1.067
 1490SOL    HW1 5369   1.317   2.471   1.079
 1490SOL    HW2 5370   1.192   2.472   0.974
 1491SOL     OW 5371   0.041   3.464   2.812
 1491SOL    HW1 5372   6.997   3.539   2.813
 1491SOL    HW2 5373   0.123   3.494   2.764
 1492SOL     OW 5374   6.023   1.927   1.839
 1492SOL    HW1 5375   5.931   1.956   1.866
 1492SOL    HW2 5376   6.019   1.839   1.792
 1493SOL     OW 5377   4.963   0.895   4.778
 1493SOL    HW1 5378   4.935   0.886   4.874
 1493SOL    HW2 5379   4.988   0.990   4.760
 1494SOL     OW 5380   4.233   2.670   5.823
 1494SOL    HW1 5381   4.222   2.726   5.741
 1494SOL    HW2 5382   4.331   2.659   5.843
 1495SOL     OW 5383   0.765   3.349   3.650
 1495SOL    HW1 5384   0.741   3.366   3.745
 1495SOL    HW2 5385   0.843   3.405   3.624
 1496SOL     OW 5386   0.665   0.680   1.939
 1496SOL    HW1 5387   0.742   0.737   1.967
 1496SOL    HW2 5388   0.675   0.589   1.980
 1497SOL     OW 5389   0.338   4.211   3.187
 1497SOL    HW1 5390   0.238   4.217   3.192
 1497SOL    HW2 5391   0.367   4.119   3.212
 1498SOL     OW 5392   1.739   5.043   6.410
 1498SOL    HW1 5393   1.822   5.026   6.463
 1498SOL    HW2 5394   1.761   5.043   6.312
 1499SOL     OW 5395   1.126   3.676   5.084
 1499SOL    HW1 5396   1.161   3.701   5.174
 1499SOL    HW2 5397   1.026   3.684   5.083
 1500SOL     OW 5398   5.924   6.921   0.246
 1500SOL    HW1 5399   5.901   7.015   0.220
 1500SOL    HW2 5400   5.877   6.898   0.331
 1501SOL     OW 5401   4.536   0.875   5.986
 1501SOL    HW1 5402   4.502   0.855   5.894
 1501SOL    HW2 5403   4.526   0.973   6.005
 1502SOL     OW 5404   6.355   6.837   0.504
 1502SOL    HW1 5405   6.451   6.830   0.476
 1502SOL    HW2 5406   6.304   6.889   0.436
 1503SOL     OW 5407   2.472   2.702   1.073
 1503SOL    HW1 5408   2.529   2.636   1.024
 1503SOL    HW2 5409   2.525   2.741   1.149
 1504SOL     OW 5410   2.700   0.312   5.016
 1504SOL    HW1 5411   2.753   0.392   5.044
 1504SOL    HW2 5412   2.711   0.240   5.085
 1505SOL     OW 5413   5.051   0.702   6.633
 1505SOL    HW1 5414   5.107   0.654   6.701
 1505SOL    HW2 5415   5.032   0.640   6.557
 1506SOL     OW 5416   1.207   5.342   3.472
 1506SOL    HW1 5417   1.117   5.331   3.513
 1506SOL    HW2 5418   1.203   5.410   3.399
 1507SOL     OW 5419   1.796   1.843   4.900
 1507SOL    HW1 5420   1.750   1.760   4.869
 1507SOL    HW2 5421   1.741   1.886   4.973
 1508SOL     OW 5422   4.731   6.894   0.872
 1508SOL    HW1 5423   4.679   6.979   0.867
 1508SOL    HW2 5424   4.681   6.828   0.928
 1509SOL     OW 5425   4.181   2.919   6.003
 1509SOL    HW1 5426   4.175   2.842   5.940
 1509SOL    HW2 5427   4.099   2.923   6.060
 1510SOL     OW 5428   5.492   2.118   3.790
 1510SOL    HW1 5429   5.508   2.024   3.819
 1510SOL    HW2 5430   5.397   2.128   3.759
 1511SOL     OW 5431   2.022   2.162   6.909
 1511SOL    HW1 5432   2.092   2.091   6.922
 1511SOL    HW2 5433   2.000   2.170   6.812
 1512SOL     OW 5434   6.799   6.544   1.683
 1512SOL    HW1 5435   6.897   6.534   1.662
 1512SOL    HW2 5436   6.784   6.527   1.780
 1513SOL     OW 5437   4.503   0.847   3.822
 1513SOL    HW1 5438   4.426   0.792   3.790
 1513SOL    HW2 5439   4.469   0.926   3.873
 1514SOL     OW 5440   5.424   2.091   4.474
 1514SOL    HW1 5441   5.492   2.160   4.451
 1514SOL    HW2 5442   5.469   2.003   4.487
 1515SOL     OW 5443   6.913   2.547   6.018
 1515SOL    HW1 5444   6.983   2.510   5.957
 1515SOL    HW2 5445   6.865   2.472   6.063
 1516SOL     OW 5446   0.499   0.717   0.960
 1516SOL    HW1 5447   0.597   0.727   0.973
 1516SOL    HW2 5448   0.467   0.784   0.893
 1517SOL     OW 5449   4.773   5.440   3.872
 1517SOL    HW1 5450   4.793   5.533   3.843
 1517SOL    HW2 5451   4.751   5.383   3.792
 1518SOL     OW 5452   0.205   2.886   6.745
 1518SOL    HW1 5453   0.284   2.945   6.759
 1518SOL    HW2 5454   0.167   2.901   6.654
 1519SOL     OW 5455   0.098   4.473   2.166
 1519SOL    HW1 5456   0.150   4.458   2.081
 1519SOL    HW2 5457   0.012   4.422   2.161
 1520SOL     OW 5458   1.771   3.398   2.093
 1520SOL    HW1 5459   1.700   3.356   2.036
 1520SOL    HW2 5460   1.730   3.428   2.179
 1521SOL     OW 5461   2.235   3.454   6.769
 1521SOL    HW1 5462   2.277   3.523   6.710
 1521SOL    HW2 5463   2.137   3.470   6.775
 1522SOL     OW 5464   6.924   1.568   5.240
 1522SOL    HW1 5465   6.891   1.639   5.178
 1522SOL    HW2 5466   6.911   1.598   5.335
 1523SOL     OW 5467   5.114   4.164   6.745
 1523SOL    HW1 5468   5.107   4.068   6.718
 1523SOL    HW2 5469   5.044   4.184   6.814
 1524SOL     OW 5470   0.903   2.186   1.696
 1524SOL    HW1 5471   0.981   2.241   1.726
 1524SOL    HW2 5472   0.921   2.149   1.605
 1525SOL     OW 5473   4.874   2.458   5.874
 1525SOL    HW1 5474   4.927   2.542   5.882
 1525SOL    HW2 5475   4.868   2.414   5.964
 1526SOL     OW 5476   0.781   1.062   1.340
 1526SOL    HW1 5477   0.867   1.099   1.376
 1526SOL    HW2 5478   0.792   1.043   1.242
 1527SOL     OW 5479   3.908   1.210   4.688
 1527SOL    HW1 5480   3.966   1.130   4.676
 1527SOL    HW2 5481   3.814   1.181   4.703
 1528SOL     OW 5482   4.882   5.742   2.966
 1528SOL    HW1 5483   4.853   5.826   2.920
 1528SOL    HW2 5484   4.894   5.669   2.899
 1529SOL     OW 5485   4.177   1.560   5.672
 1529SOL    HW1 5486   4.273   1.535   5.681
 1529SOL    HW2 5487   4.158   1.586   5.578
 1530SOL     OW 5488   3.046   0.560   0.995
 1530SOL    HW1 5489   3.007   0.552   1.087
 1530SOL    HW2 5490   2.972   0.553   0.927
 1531SOL     OW 5491   5.974   1.053   5.073
 1531SOL    HW1 5492   6.004   0.958   5.075
 1531SOL    HW2 5493   5.932   1.073   4.984
 1532SOL     OW 5494   2.598   2.472   4.676
 1532SOL    HW1 5495   2.573   2.376   4.665
 1532SOL    HW2 5496   2.654   2.501   4.599
 1533SOL     OW 5497   0.011   3.417   6.596
 1533SOL    HW1 5498   0.092   3.473   6.615
 1533SOL    HW2 5499   7.006   3.369   6.679
 1534SOL     OW 5500   1.402   5.118   0.088
 1534SOL    HW1 5501   1.333   5.045   0.085
 1534SOL    HW2 5502   1.438   5.133   7.019
 1535SOL     OW 5503   5.939   5.909   4.426
 1535SOL    HW1 5504   6.012   5.970   4.456
 1535SOL    HW2 5505   5.866   5.962   4.383
 1536SOL     OW 5506   3.290   5.176   4.510
 1536SOL    HW1 5507   3.246   5.107   4.567
 1536SOL    HW2 5508   3.237   5.191   4.427
 1537SOL     OW 5509   3.784   5.592   3.316
 1537SOL    HW1 5510   3.728   5.518   3.354
 1537SOL    HW2 5511   3.733   5.639   3.244
 1538SOL     OW 5512   3.413   5.150   5.601
 1538SOL    HW1 5513   3.490   5.206   5.630
 1538SOL    HW2 5514   3.438   5.100   5.517
 1539SOL     OW 5515   4.410   4.202   1.500
 1539SOL    HW1 5516   4.368   4.160   1.419
 1539SOL    HW2 5517   4.419   4.133   1.572
 1540SOL     OW 5518   0.637   7.000   5.136
 1540SOL    HW1 5519   0.670   0.052   5.194
 1540SOL    HW2 5520   0.697   6.991   5.057
 1541SOL     OW 5521   4.085   2.686   1.146
 1541SOL    HW1 5522   4.105   2.774   1.102
 1541SOL    HW2 5523   4.161   2.623   1.131
 1542SOL     OW 5524   6.642   6.240   1.875
 1542SOL    HW1 5525   6.621   6.302   1.800
 1542SOL    HW2 5526   6.559   6.189   1.900
 1543SOL     OW 5527   2.891   3.679   3.523
 1543SOL    HW1 5528   2.952   3.609   3.559
 1543SOL    HW2 5529   2.921   3.769   3.553
 1544SOL     OW 5530   3.066   4.024   2.374
 1544SOL    HW1 5531   3.001   3.955   2.406
 1544SOL    HW2 5532   3.016   4.100   2.333
 1545SOL     OW 5533   5.647   1.070   5.446
 1545SOL    HW1 5534   5.604   1.047   5.359
 1545SOL    HW2 5535   5.614   1.007   5.517
 1546SOL     OW 5536   4.890   0.071   6.027
 1546SOL    HW1 5537   4.866   0.156   5.981
 1546SOL    HW2 5538   4.855   0.073   6.121
 1547SOL     OW 5539   1.864   3.892   2.478
 1547SOL    HW1 5540   1.868   3.806   2.428
 1547SOL    HW2 5541   1.954   3.912   2.517
 1548SOL     OW 5542   4.409   4.176   5.430
 1548SOL    HW1 5543   4.472   4.100   5.423
 1548SOL    HW2 5544   4.323   4.152   5.384
 1549SOL     OW 5545   6.196   1.291   2.207
 1549SOL    HW1 5546   6.139   1.232   2.265
 1549SOL    HW2 5547   6.259   1.234   2.154
 1550SOL     OW 5548   2.874   6.449   5.888
 1550SOL    HW1 5549   2.909   6.538   5.915
 1550SOL    HW2 5550   2.786   6.459   5.841
 1551SOL     OW 5551   1.384   3.419   1.175
 1551SOL    HW1 5552   1.454   3.394   1.108
 1551SOL    HW2 5553   1.335   3.500   1.142
 1552SOL     OW 5554   1.013   6.727   1.850
 1552SOL    HW1 5555   0.954   6.807   1.834
 1552SOL    HW2 5556   1.091   6.754   1.908
 1553SOL     OW 5557   6.292   1.960   6.281
 1553SOL    HW1 5558   6.267   1.950   6.185
 1553SOL    HW2 5559   6.292   2.057   6.305
 1554SOL     OW 5560   3.658   2.094   3.161
 1554SOL    HW1 5561   3.756   2.107   3.146
 1554SOL    HW2 5562   3.642   2.009   3.212
 1555SOL     OW 5563   4.663   2.369   5.501
 1555SOL    HW1 5564   4.607   2.295   5.464
 1555SOL    HW2 5565   4.673   2.440   5.432
 1556SOL     OW 5566   4.035   0.249   0.573
 1556SOL    HW1 5567   3.937   0.258   0.558
 1556SOL    HW2 5568   4.084   0.261   0.486
 1557SOL     OW 5569   2.585   2.482   0.991
 1557SOL    HW1 5570   2.519   2.464   1.063
 1557SOL    HW2 5571   2.609   2.397   0.945
 1558SOL     OW 5572   5.429   2.593   4.730
 1558SOL    HW1 5573   5.520   2.635   4.722
 1558SOL    HW2 5574   5.438   2.504   4.776
 1559SOL     OW 5575   0.331   3.063   1.406
 1559SOL    HW1 5576   0.326   3.085   1.503
 1559SOL    HW2 5577   0.407   3.113   1.364
 1560SOL     OW 5578   3.004   1.484   6.834
 1560SOL    HW1 5579   3.063   1.540   6.891
 1560SOL    HW2 5580   2.909   1.496   6.862
 1561SOL     OW 5581   4.461   5.411   3.286
 1561SOL    HW1 5582   4.405   5.490   3.314
 1561SOL    HW2 5583   4.506   5.432   3.200
 1562SOL     OW 5584   3.529   6.107   2.426
 1562SOL    HW1 5585   3.511   6.172   2.500
 1562SOL    HW2 5586   3.507   6.015   2.457
 1563SOL     OW 5587   2.719   1.797   4.950
 1563SOL    HW1 5588   2.810   1.817   4.986
 1563SOL    HW2 5589   2.713   1.700   4.927
 1564SOL     OW 5590   1.355   1.520   2.328
 1564SOL    HW1 5591   1.434   1.562   2.374
 1564SOL    HW2 5592   1.274   1.531   2.386
 1565SOL     OW 5593   4.418   5.323   4.638
 1565SOL    HW1 5594   4.507   5.364   4.618
 1565SOL    HW2 5595   4.349   5.362   4.577
 1566SOL     OW 5596   6.100   4.975   4.148
 1566SOL    HW1 5597   6.084   4.882   4.114
 1566SOL    HW2 5598   6.036   5.038   4.103
 1567SOL     OW 5599   5.898   5.317   0.019
 1567SOL    HW1 5600   5.901   5.222   0.050
 1567SOL    HW2 5601   5.838   5.370   0.079
 1568SOL     OW 5602   2.881   6.056   3.391
 1568SOL    HW1 5603   2.839   6.104   3.468
 1568SOL    HW2 5604   2.837   5.967   3.378
 1569SOL     OW 5605   3.723   0.085   3.042
 1569SOL    HW1 5606   3.658   0.017   3.006
 1569SOL    HW2 5607   3.690   0.120   3.130
 1570SOL     OW 5608   2.532   6.469   6.364
 1570SOL    HW1 5609   2.532   6.527   6.282
 1570SOL    HW2 5610   2.612   6.409   6.362
 1571SOL     OW 5611   1.127   2.768   3.253
 1571SOL    HW1 5612   1.139   2.673   3.224
 1571SOL    HW2 5613   1.054   2.773   3.322
 1572SOL     OW 5614   1.753   5.139   2.167
 1572SOL    HW1 5615   1.835   5.190   2.142
 1572SOL    HW2 5616   1.717   5.093   2.085
 1573SOL     OW 5617   5.574   5.049   2.428
 1573SOL    HW1 5618   5.618   5.135   2.401
 1573SOL    HW2 5619   5.607   4.975   2.369
 1574SOL     OW 5620   6.565   2.987   2.199
 1574SOL    HW1 5621   6.566   2.924   2.121
 1574SOL    HW2 5622   6.583   3.080   2.166
 1575SOL     OW 5623   2.267   0.626   1.702
 1575SOL    HW1 5624   2.335   0.560   1.735
 1575SOL    HW2 5625   2.233   0.598   1.613
 1576SOL     OW 5626   1.077   6.154   3.055
 1576SOL    HW1 5627   1.120   6.216   2.990
 1576SOL    HW2 5628   0.992   6.196   3.089
 1577SOL     OW 5629   2.314   0.308   6.359
 1577SOL    HW1 5630   2.218   0.331   6.346
 1577SOL    HW2 5631   2.347   0.348   6.444
 1578SOL     OW 5632   4.699   1.208   6.352
 1578SOL    HW1 5633   4.690   1.181   6.448
 1578SOL    HW2 5634   4.787   1.179   6.317
 1579SOL     OW 5635   0.000   2.476   1.325
 1579SOL    HW1 5636   0.077   2.420   1.356
 1579SOL    HW2 5637   0.027   2.529   1.245
 1580SOL     OW 5638   2.963   3.870   2.905
 1580SOL    HW1 5639   2.872   3.832   2.924
 1580SOL    HW2 5640   3.002   3.906   2.990
 1581SOL     OW 5641   6.898   4.530   5.563
 1581SOL    HW1 5642   6.887   4.519   5.464
 1581SOL    HW2 5643   6.953   4.612   5.581
 1582SOL     OW 5644   3.337   5.841   4.559
 1582SOL    HW1 5645   3.368   5.869   4.650
 1582SOL    HW2 5646   3.272   5.765   4.568
 1583SOL     OW 5647   0.654   5.397   4.691
 1583SOL    HW1 5648   0.632   5.437   4.602
 1583SOL    HW2 5649   0.578   5.340   4.722
 1584SOL     OW 5650   1.987   4.989   6.564
 1584SOL    HW1 5651   1.988   4.948   6.656
 1584SOL    HW2 5652   2.077   4.978   6.522
 1585SOL     OW 5653   4.117   1.442   2.966
 1585SOL    HW1 5654   4.094   1.346   2.946
 1585SOL    HW2 5655   4.064   1.473   3.045
 1586SOL     OW 5656   2.918   4.860   3.107
 1586SOL    HW1 5657   2.959   4.901   3.025
 1586SOL    HW2 5658   2.984   4.865   3.182
 1587SOL     OW 5659   1.824   4.864   5.510
 1587SOL    HW1 5660   1.829   4.834   5.414
 1587SOL    HW2 5661   1.879   4.947   5.522
 1588SOL     OW 5662   4.730   0.400   2.486
 1588SOL    HW1 5663   4.630   0.399   2.476
 1588SOL    HW2 5664   4.764   0.491   2.465
 1589SOL     OW 5665   6.825   3.237   2.733
 1589SOL    HW1 5666   6.756   3.222   2.662
 1589SOL    HW2 5667   6.879   3.318   2.709
 1590SOL     OW 5668   5.251   1.068   3.562
 1590SOL    HW1 5669   5.213   1.019   3.483
 1590SOL    HW2 5670   5.345   1.037   3.579
 1591SOL     OW 5671   6.548   6.113   1.310
 1591SOL    HW1 5672   6.472   6.144   1.253
 1591SOL    HW2 5673   6.533   6.142   1.404
 1592SOL     OW 5674   1.932   4.091   0.104
 1592SOL    HW1 5675   2.015   4.043   0.131
 1592SOL    HW2 5676   1.870   4.097   0.182
 1593SOL     OW 5677   0.738   0.264   6.031
 1593SOL    HW1 5678   0.811   0.258   6.099
 1593SOL    HW2 5679   0.651   0.238   6.073
 1594SOL     OW 5680   0.315   6.197   1.985
 1594SOL    HW1 5681   0.338   6.276   1.928
 1594SOL    HW2 5682   0.217   6.178   1.979
 1595SOL     OW 5683   0.560   4.343   0.643
 1595SOL    HW1 5684   0.466   4.333   0.610
 1595SOL    HW2 5685   0.566   4.422   0.704
 1596SOL     OW 5686   6.291   2.662   2.477
 1596SOL    HW1 5687   6.202   2.684   2.517
 1596SOL    HW2 5688   6.362   2.719   2.517
 1597SOL     OW 5689   2.528   5.901   1.310
 1597SOL    HW1 5690   2.524   5.835   1.235
 1597SOL    HW2 5691   2.506   5.855   1.396
 1598SOL     OW 5692   1.302   5.319   6.462
 1598SOL    HW1 5693   1.397   5.303   6.487
 1598SOL    HW2 5694   1.262   5.235   6.424
 1599SOL     OW 5695   4.815   4.923   5.271
 1599SOL    HW1 5696   4.817   4.887   5.177
 1599SOL    HW2 5697   4.779   4.852   5.332
 1600SOL     OW 5698   2.782   1.303   2.160
 1600SOL    HW1 5699   2.699   1.293   2.215
 1600SOL    HW2 5700   2.833   1.218   2.161
 1601SOL     OW 5701   0.287   6.720   4.370
 1601SOL    HW1 5702   0.332   6.634   4.350
 1601SOL    HW2 5703   0.332   6.765   4.447
 1602SOL     OW 5704   4.685   5.399   4.544
 1602SOL    HW1 5705   4.691   5.321   4.481
 1602SOL    HW2 5706   4.776   5.420   4.580
 1603SOL     OW 5707   2.552   5.072   3.730
 1603SOL    HW1 5708   2.570   5.029   3.818
 1603SOL    HW2 5709   2.621   5.041   3.664
 1604SOL     OW 5710   3.723   5.346   1.611
 1604SOL    HW1 5711   3.624   5.356   1.619
 1604SOL    HW2 5712   3.746   5.250   1.596
 1605SOL     OW 5713   6.323   5.654   1.564
 1605SOL    HW1 5714   6.321   5.749   1.534
 1605SOL    HW2 5715   6.250   5.638   1.630
 1606SOL     OW 5716   4.090   5.324   5.458
 1606SOL    HW1 5717   4.102   5.405   5.400
 1606SOL    HW2 5718   4.075   5.244   5.400
 1607SOL     OW 5719   4.271   0.359   0.768
 1607SOL    HW1 5720   4.202   0.298   0.808
 1607SOL    HW2 5721   4.237   0.395   0.681
 1608SOL     OW 5722   6.671   1.212   2.817
 1608SOL    HW1 5723   6.771   1.219   2.818
 1608SOL    HW2 5724   6.641   1.184   2.726
 1609SOL     OW 5725   3.398   7.011   0.834
 1609SOL    HW1 5726   3.339   0.059   0.873
 1609SOL    HW2 5727   3.493   0.021   0.833
 1610SOL     OW 5728   4.919   6.196   0.687
 1610SOL    HW1 5729   4.983   6.267   0.718
 1610SOL    HW2 5730   4.920   6.121   0.752
 1611SOL     OW 5731   1.720   3.222   0.759
 1611SOL    HW1 5732   1.702   3.284   0.682
 1611SOL    HW2 5733   1.818   3.203   0.764
 1612SOL     OW 5734   3.322   6.697   1.630
 1612SOL    HW1 5735   3.250   6.636   1.597
 1612SOL    HW2 5736   3.280   6.779   1.669
 1613SOL     OW 5737   0.445   5.432   1.954
 1613SOL    HW1 5738   0.440   5.532   1.954
 1613SOL    HW2 5739   0.457   5.400   2.047
 1614SOL     OW 5740   5.807   1.865   5.969
 1614SOL    HW1 5741   5.858   1.851   5.884
 1614SOL    HW2 5742   5.733   1.931   5.952
 1615SOL     OW 5743   6.509   5.390   6.451
 1615SOL    HW1 5744   6.452   5.472   6.439
 1615SOL    HW2 5745   6.517   5.342   6.363
 1616SOL     OW 5746   4.502   0.185   3.419
 1616SOL    HW1 5747   4.595   0.196   3.384
 1616SOL    HW2 5748   4.437   0.229   3.356
 1617SOL     OW 5749   4.809   6.005   2.934
 1617SOL    HW1 5750   4.817   6.046   3.025
 1617SOL    HW2 5751   4.758   6.067   2.874
 1618SOL     OW 5752   1.125   5.760   2.810
 1618SOL    HW1 5753   1.168   5.712   2.734
 1618SOL    HW2 5754   1.029   5.730   2.819
 1619SOL     OW 5755   0.180   5.471   0.041
 1619SOL    HW1 5756   0.101   5.531   0.026
 1619SOL    HW2 5757   0.216   5.441   6.975
 1620SOL     OW 5758   3.293   4.773   1.609
 1620SOL    HW1 5759   3.381   4.749   1.567
 1620SOL    HW2 5760   3.246   4.690   1.638
 1621SOL     OW 5761   6.015   0.152   0.811
 1621SOL    HW1 5762   5.964   0.068   0.794
 1621SOL    HW2 5763   6.099   0.151   0.756
 1622SOL     OW 5764   0.697   3.118   5.186
 1622SOL    HW1 5765   0.788   3.083   5.209
 1622SOL    HW2 5766   0.702   3.170   5.101
 1623SOL     OW 5767   0.610   2.223   4.733
 1623SOL    HW1 5768   0.529   2.239   4.677
 1623SOL    HW2 5769   0.644   2.130   4.717
 1624SOL     OW 5770   4.351   1.304   5.850
 1624SOL    HW1 5771   4.356   1.355   5.764
 1624SOL    HW2 5772   4.271   1.336   5.902
 1625SOL     OW 5773   1.412   5.181   6.793
 1625SOL    HW1 5774   1.488   5.128   6.756
 1625SOL    HW2 5775   1.326   5.146   6.756
 1626SOL     OW 5776   3.454   1.595   1.485
 1626SOL    HW1 5777   3.362   1.627   1.462
 1626SOL    HW2 5778   3.468   1.601   1.584
 1627SOL     OW 5779   5.304   3.249   3.441
 1627SOL    HW1 5780   5.232   3.180   3.440
 1627SOL    HW2 5781   5.393   3.205   3.432
 1628SOL     OW 5782   4.757   5.551   6.964
 1628SOL    HW1 5783   4.790   5.471   7.013
 1628SOL    HW2 5784   4.833   5.595   6.916
 1629SOL     OW 5785   2.812   1.384   4.009
 1629SOL    HW1 5786   2.861   1.455   4.059
 1629SOL    HW2 5787   2.799   1.412   3.914
 1630SOL     OW 5788   6.839   4.438   5.304
 1630SOL    HW1 5789   6.780   4.359   5.322
 1630SOL    HW2 5790   6.790   4.503   5.246
 1631SOL     OW 5791   0.411   3.063   0.872
 1631SOL    HW1 5792   0.475   3.012   0.815
 1631SOL    HW2 5793   0.319   3.026   0.861
 1632SOL     OW 5794   4.895   3.480   2.987
 1632SOL    HW1 5795   4.898   3.410   2.915
 1632SOL    HW2 5796   4.887   3.436   3.076
 1633SOL     OW 5797   5.208   4.370   4.654
 1633SOL    HW1 5798   5.289   4.312   4.659
 1633SOL    HW2 5799   5.127   4.316   4.678
 1634SOL     OW 5800   4.683   0.935   4.144
 1634SOL    HW1 5801   4.652   1.013   4.198
 1634SOL    HW2 5802   4.705   0.965   4.051
 1635SOL     OW 5803   1.073   5.108   6.431
 1635SOL    HW1 5804   1.094   5.011   6.443
 1635SOL    HW2 5805   0.997   5.117   6.366
 1636SOL     OW 5806   3.215   5.444   1.606
 1636SOL    HW1 5807   3.128   5.407   1.639
 1636SOL    HW2 5808   3.228   5.536   1.644
 1637SOL     OW 5809   6.683   7.006   3.759
 1637SOL    HW1 5810   6.751   6.986   3.688
 1637SOL    HW2 5811   6.720   6.980   3.848
 1638SOL     OW 5812   0.813   3.307   2.249
 1638SOL    HW1 5813   0.776   3.248   2.177
 1638SOL    HW2 5814   0.891   3.262   2.293
 1639SOL     OW 5815   5.870   5.007   1.756
 1639SOL    HW1 5816   5.894   4.942   1.828
 1639SOL    HW2 5817   5.950   5.060   1.730
 1640SOL     OW 5818   6.332   6.962   6.929
 1640SOL    HW1 5819   6.247   6.930   6.970
 1640SOL    HW2 5820   6.407   6.953   6.995
 1641SOL     OW 5821   0.047   2.737   3.206
 1641SOL    HW1 5822   0.073   2.822   3.252
 1641SOL    HW2 5823   6.974   2.716   3.226
 1642SOL     OW 5824   6.692   3.105   6.489
 1642SOL    HW1 5825   6.697   3.083   6.392
 1642SOL    HW2 5826   6.652   3.196   6.500
 1643SOL     OW 5827   2.481   4.496   3.112
 1643SOL    HW1 5828   2.420   4.575   3.108
 1643SOL    HW2 5829   2.575   4.525   3.094
 1644SOL     OW 5830   5.477   3.336   6.562
 1644SOL    HW1 5831   5.460   3.342   6.660
 1644SOL    HW2 5832   5.390   3.340   6.513
 1645SOL     OW 5833   3.165   6.445   6.188
 1645SOL    HW1 5834   3.193   6.393   6.107
 1645SOL    HW2 5835   3.082   6.497   6.167
 1646SOL     OW 5836   2.217   6.565   0.134
 1646SOL    HW1 5837   2.229   6.563   0.234
 1646SOL    HW2 5838   2.152   6.636   0.110
 1647SOL     OW 5839   6.345   2.301   4.167
 1647SOL    HW1 5840   6.405   2.370   4.207
 1647SOL    HW2 5841   6.292   2.256   4.239
 1648SOL     OW 5842   5.576   6.655   0.526
 1648SOL    HW1 5843   5.580   6.685   0.621
 1648SOL    HW2 5844   5.623   6.567   0.517
 1649SOL     OW 5845   3.659   1.096   4.719
 1649SOL    HW1 5846   3.641   1.151   4.800
 1649SOL    HW2 5847   3.586   1.110   4.652
 1650SOL     OW 5848   1.096   5.728   5.020
 1650SOL    HW1 5849   1.178   5.717   4.964
 1650SOL    HW2 5850   1.080   5.645   5.074
 1651SOL     OW 5851   0.691   2.283   2.773
 1651SOL    HW1 5852   0.682   2.371   2.727
 1651SOL    HW2 5853   0.633   2.215   2.728
 1652SOL     OW 5854   1.518   3.676   2.437
 1652SOL    HW1 5855   1.562   3.733   2.368
 1652SOL    HW2 5856   1.490   3.732   2.515
 1653SOL     OW 5857   0.393   6.087   1.404
 1653SOL    HW1 5858   0.457   6.083   1.481
 1653SOL    HW2 5859   0.370   6.183   1.385
 1654SOL     OW 5860   6.859   3.501   1.131
 1654SOL    HW1 5861   6.859   3.601   1.128
 1654SOL    HW2 5862   6.943   3.468   1.174
 1655SOL     OW 5863   6.724   1.465   3.825
 1655SOL    HW1 5864   6.751   1.372   3.801
 1655SOL    HW2 5865   6.687   1.466   3.918
 1656SOL     OW 5866   1.781   5.718   3.149
 1656SOL    HW1 5867   1.754   5.645   3.212
 1656SOL    HW2 5868   1.871   5.754   3.176
 1657SOL     OW 5869   5.924   0.334   4.510
 1657SOL    HW1 5870   5.902   0.410   4.571
 1657SOL    HW2 5871   6.009   0.353   4.462
 1658SOL     OW 5872   6.566   0.355   1.096
 1658SOL    HW1 5873   6.570   0.256   1.116
 1658SOL    HW2 5874   6.618   0.404   1.166
 1659SOL     OW 5875   3.465   0.011   0.083
 1659SOL    HW1 5876   3.426   0.100   0.062
 1659SOL    HW2 5877   3.499   6.992   7.022
 1660SOL     OW 5878   2.230   6.526   2.692
 1660SOL    HW1 5879   2.213   6.447   2.634
 1660SOL    HW2 5880   2.318   6.568   2.667
 1661SOL     OW 5881   2.382   5.884   1.551
 1661SOL    HW1 5882   2.290   5.906   1.582
 1661SOL    HW2 5883   2.405   5.791   1.578
 1662SOL     OW 5884   6.914   0.776   4.353
 1662SOL    HW1 5885   6.834   0.831   4.377
 1662SOL    HW2 5886   6.909   0.751   4.256
 1663SOL     OW 5887   4.861   5.395   3.475
 1663SOL    HW1 5888   4.911   5.319   3.432
 1663SOL    HW2 5889   4.797   5.358   3.542
 1664SOL     OW 5890   1.943   5.744   5.785
 1664SOL    HW1 5891   1.846   5.769   5.777
 1664SOL    HW2 5892   1.998   5.810   5.735
 1665SOL     OW 5893   6.615   3.692   1.440
 1665SOL    HW1 5894   6.527   3.666   1.479
 1665SOL    HW2 5895   6.625   3.648   1.350
 1666SOL     OW 5896   5.587   0.051   0.245
 1666SOL    HW1 5897   5.659   0.071   0.179
 1666SOL    HW2 5898   5.519   0.125   0.244
 1667SOL     OW 5899   6.851   6.086   1.764
 1667SOL    HW1 5900   6.784   6.143   1.812
 1667SOL    HW2 5901   6.815   5.994   1.752
 1668SOL     OW 5902   5.047   4.986   3.813
 1668SOL    HW1 5903   5.015   5.000   3.907
 1668SOL    HW2 5904   4.997   5.047   3.752
 1669SOL     OW 5905   6.817   4.621   5.848
 1669SOL    HW1 5906   6.823   4.567   5.931
 1669SOL    HW2 5907   6.836   4.563   5.769
 1670SOL     OW 5908   0.229   4.508   5.080
 1670SOL    HW1 5909   0.183   4.481   5.164
 1670SOL    HW2 5910   0.174   4.482   5.001
 1671SOL     OW 5911   5.644   1.118   3.270
 1671SOL    HW1 5912   5.645   1.209   3.313
 1671SOL    HW2 5913   5.656   1.048   3.341
 1672SOL     OW 5914   2.169   3.947   0.143
 1672SOL    HW1 5915   2.207   3.925   0.232
 1672SOL    HW2 5916   2.190   3.873   0.079
 1673SOL     OW 5917   0.781   1.567   4.681
 1673SOL    HW1 5918   0.701   1.518   4.715
 1673SOL    HW2 5919   0.860   1.506   4.682
 1674SOL     OW 5920   0.094   3.466   2.447
 1674SOL    HW1 5921   0.105   3.373   2.482
 1674SOL    HW2 5922   7.020   3.491   2.448
 1675SOL     OW 5923   5.042   0.368   0.148
 1675SOL    HW1 5924   5.011   0.394   0.239
 1675SOL    HW2 5925   5.048   0.449   0.090
 1676SOL     OW 5926   1.911   2.716   2.030
 1676SOL    HW1 5927   2.008   2.739   2.034
 1676SOL    HW2 5928   1.868   2.764   1.954
 1677SOL     OW 5929   4.015   3.803   3.604
 1677SOL    HW1 5930   4.012   3.767   3.697
 1677SOL    HW2 5931   3.970   3.892   3.602
 1678SOL     OW 5932   6.941   5.423   1.907
 1678SOL    HW1 5933   6.915   5.390   1.816
 1678SOL    HW2 5934   6.860   5.457   1.955
 1679SOL     OW 5935   1.441   1.219   4.550
 1679SOL    HW1 5936   1.368   1.233   4.483
 1679SOL    HW2 5937   1.523   1.266   4.519
 1680SOL     OW 5938   6.691   4.111   5.659
 1680SOL    HW1 5939   6.677   4.190   5.719
 1680SOL    HW2 5940   6.668   4.027   5.708
 1681SOL     OW 5941   1.419   6.077   6.030
 1681SOL    HW1 5942   1.475   6.149   6.070
 1681SOL    HW2 5943   1.405   6.004   6.097
 1682SOL     OW 5944   1.950   0.708   5.351
 1682SOL    HW1 5945   1.869   0.766   5.344
 1682SOL    HW2 5946   2.017   0.752   5.411
 1683SOL     OW 5947   6.308   5.357   2.651
 1683SOL    HW1 5948   6.376   5.351   2.723
 1683SOL    HW2 5949   6.352   5.341   2.562
 1684SOL     OW 5950   0.121   5.602   1.991
 1684SOL    HW1 5951   0.215   5.620   1.962
 1684SOL    HW2 5952   0.083   5.528   1.936
 1685SOL     OW 5953   2.289   1.276   5.826
 1685SOL    HW1 5954   2.374   1.322   5.850
 1685SOL    HW2 5955   2.274   1.199   5.888
 1686SOL     OW 5956   3.619   6.159   4.247
 1686SOL    HW1 5957   3.622   6.059   4.256
 1686SOL    HW2 5958   3.533   6.193   4.285
 1687SOL     OW 5959   0.696   2.610   2.055
 1687SOL    HW1 5960   0.708   2.552   1.975
 1687SOL    HW2 5961   0.767   2.588   2.123
 1688SOL     OW 5962   1.466   1.530   3.918
 1688SOL    HW1 5963   1.431   1.604   3.861
 1688SOL    HW2 5964   1.558   1.553   3.949
 1689SOL     OW 5965   6.277   0.578   2.548
 1689SOL    HW1 5966   6.232   0.604   2.463
 1689SOL    HW2 5967   6.296   0.660   2.602
 1690SOL     OW 5968   1.519   3.044   4.906
 1690SOL    HW1 5969   1.573   3.071   4.826
 1690SOL    HW2 5970   1.573   3.058   4.989
 1691SOL     OW 5971   5.816   3.330   4.125
 1691SOL    HW1 5972   5.762   3.352   4.206
 1691SOL    HW2 5973   5.892   3.270   4.151
 1692SOL     OW 5974   4.978   6.119   1.825
 1692SOL    HW1 5975   4.946   6.026   1.846
 1692SOL    HW2 5976   5.069   6.115   1.784
 1693SOL     OW 5977   6.830   2.744   3.609
 1693SOL    HW1 5978   6.825   2.645   3.604
 1693SOL    HW2 5979   6.925   2.774   3.605
 1694SOL     OW 5980   6.300   1.772   3.720
 1694SOL    HW1 5981   6.228   1.720   3.765
 1694SOL    HW2 5982   6.356   1.818   3.789
 1695SOL     OW 5983   3.292   0.655   6.397
 1695SOL    HW1 5984   3.317   0.743   6.356
 1695SOL    HW2 5985   3.192   0.649   6.404
 1696SOL     OW 5986   3.472   6.130   0.713
 1696SOL    HW1 5987   3.452   6.062   0.642
 1696SOL    HW2 5988   3.396   6.134   0.778
 1697SOL     OW 5989   6.413   1.385   0.945
 1697SOL    HW1 5990   6.482   1.441   0.991
 1697SOL    HW2 5991   6.419   1.401   0.846
 1698SOL     OW 5992   4.317   0.683   1.435
 1698SOL    HW1 5993   4.311   0.742   1.515
 1698SOL    HW2 5994   4.325   0.588   1.464
 1699SOL     OW 5995   1.861   1.699   5.934
 1699SOL    HW1 5996   1.943   1.704   5.991
 1699SOL    HW2 5997   1.885   1.714   5.838
 1700SOL     OW 5998   6.737   3.834   3.018
 1700SOL    HW1 5999   6.784   3.860   2.934
 1700SOL    HW2 6000   6.747   3.735   3.033
 1701SOL     OW 6001   5.853   5.885   5.327
 1701SOL    HW1 6002   5.786   5.877   5.401
 1701SOL    HW2 6003   5.945   5.894   5.366
 1702SOL     OW 6004   0.222   1.077   1.357
 1702SOL    HW1 6005   0.164   1.001   1.385
 1702SOL    HW2 6006   0.252   1.063   1.263
 1703SOL     OW 6007   3.888   1.203   6.763
 1703SOL    HW1 6008   3.814   1.160   6.710
 1703SOL    HW2 6009   3.967   1.141   6.766
 1704SOL     OW 6010   1.241   2.547   0.347
 1704SOL    HW1 6011   1.340   2.528   0.346
 1704SOL    HW2 6012   1.193   2.473   0.299
 1705SOL     OW 6013   3.573   2.374   1.608
 1705SOL    HW1 6014   3.625   2.357   1.525
 1705SOL    HW2 6015   3.629   2.352   1.688
 1706SOL     OW 6016   4.186   2.001   2.035
 1706SOL    HW1 6017   4.162   1.904   2.031
 1706SOL    HW2 6018   4.127   2.053   1.973
 1707SOL     OW 6019   4.933   2.503   2.773
 1707SOL    HW1 6020   4.855   2.557   2.806
 1707SOL    HW2 6021   5.010   2.515   2.836
 1708SOL     OW 6022   4.461   5.436   1.841
 1708SOL    HW1 6023   4.455   5.397   1.933
 1708SOL    HW2 6024   4.374   5.479   1.817
 1709SOL     OW 6025   3.332   6.775   2.008
 1709SOL    HW1 6026   3.296   6.833   2.081
 1709SOL    HW2 6027   3.282   6.688   2.006
 1710SOL     OW 6028   4.252   5.188   3.509
 1710SOL    HW1 6029   4.166   5.206   3.461
 1710SOL    HW2 6030   4.267   5.258   3.579
 1711SOL     OW 6031   2.102   5.336   4.718
 1711SOL    HW1 6032   2.093   5.246   4.675
 1711SOL    HW2 6033   2.196   5.369   4.707
 1712SOL     OW 6034   6.951   1.957   4.656
 1712SOL    HW1 6035   6.880   2.026   4.666
 1712SOL    HW2 6036   7.018   1.986   4.588
 1713SOL     OW 6037   4.251   1.377   2.661
 1713SOL    HW1 6038   4.343   1.355   2.693
 1713SOL    HW2 6039   4.238   1.476   2.662
 1714SOL     OW 6040   3.956   1.840   5.968
 1714SOL    HW1 6041   3.990   1.746   5.967
 1714SOL    HW2 6042   3.900   1.854   6.049
 1715SOL     OW 6043   2.130   5.709   3.057
 1715SOL    HW1 6044   2.157   5.775   3.127
 1715SOL    HW2 6045   2.080   5.756   2.985
 1716SOL     OW 6046   4.260   0.234   3.888
 1716SOL    HW1 6047   4.236   0.274   3.976
 1716SOL    HW2 6048   4.263   0.306   3.818
 1717SOL     OW 6049   3.563   5.913   4.330
 1717SOL    HW1 6050   3.609   5.882   4.413
 1717SOL    HW2 6051   3.485   5.854   4.311
 1718SOL     OW 6052   2.685   1.551   2.510
 1718SOL    HW1 6053   2.757   1.615   2.481
 1718SOL    HW2 6054   2.629   1.593   2.580
 1719SOL     OW 6055   2.186   3.570   1.103
 1719SOL    HW1 6056   2.145   3.525   1.182
 1719SOL    HW2 6057   2.258   3.633   1.133
 1720SOL     OW 6058   0.118   2.947   6.231
 1720SOL    HW1 6059   0.217   2.932   6.231
 1720SOL    HW2 6060   0.081   2.924   6.321
 1721SOL     OW 6061   1.664   6.865   1.257
 1721SOL    HW1 6062   1.565   6.876   1.268
 1721SOL    HW2 6063   1.706   6.855   1.347
 1722SOL     OW 6064   4.395   1.279   3.297
 1722SOL    HW1 6065   4.327   1.224   3.249
 1722SOL    HW2 6066   4.480   1.227   3.306
 1723SOL     OW 6067   4.728   2.748   6.985
 1723SOL    HW1 6068   4.740   2.694   0.045
 1723SOL    HW2 6069   4.815   2.754   6.936
 1724SOL     OW 6070   6.643   2.439   1.787
 1724SOL    HW1 6071   6.547   2.422   1.807
 1724SOL    HW2 6072   6.664   2.536   1.801
 1725SOL     OW 6073   1.851   5.101   6.830
 1725SOL    HW1 6074   1.801   5.058   6.906
 1725SOL    HW2 6075   1.944   5.064   6.827
 1726SOL     OW 6076   5.141   3.822   4.661
 1726SOL    HW1 6077   5.225   3.770   4.677
 1726SOL    HW2 6078   5.076   3.765   4.610
 1727SOL     OW 6079   3.877   3.573   3.502
 1727SOL    HW1 6080   3.934   3.643   3.546
 1727SOL    HW2 6081   3.933   3.519   3.440
 1728SOL     OW 6082   5.072   4.844   5.292
 1728SOL    HW1 6083   5.149   4.887   5.245
 1728SOL    HW2 6084   4.990   4.901   5.280
 1729SOL     OW 6085   1.438   3.424   3.095
 1729SOL    HW1 6086   1.391   3.379   3.170
 1729SOL    HW2 6087   1.395   3.513   3.077
 1730SOL     OW 6088   2.940   6.957   5.102
 1730SOL    HW1 6089   2.933   6.870   5.150
 1730SOL    HW2 6090   3.036   6.986   5.100
 1731SOL     OW 6091   6.387   4.760   3.430
 1731SOL    HW1 6092   6.429   4.765   3.340
 1731SOL    HW2 6093   6.315   4.690   3.429
 1732SOL     OW 6094   1.988   4.439   6.263
 1732SOL    HW1 6095   1.889   4.453   6.264
 1732SOL    HW2 6096   2.033   4.515   6.217
 1733SOL     OW 6097   2.182   3.939   2.089
 1733SOL    HW1 6098   2.140   3.983   2.010
 1733SOL    HW2 6099   2.142   3.848   2.102
 1734SOL     OW 6100   5.934   2.906   2.029
 1734SOL    HW1 6101   5.848   2.951   2.053
 1734SOL    HW2 6102   5.951   2.831   2.093
 1735SOL     OW 6103   4.586   5.601   6.187
 1735SOL    HW1 6104   4.621   5.641   6.271
 1735SOL    HW2 6105   4.518   5.531   6.210
 1736SOL     OW 6106   3.665   3.737   0.549
 1736SOL    HW1 6107   3.629   3.750   0.641
 1736SOL    HW2 6108   3.599   3.769   0.482
 1737SOL     OW 6109   5.103   6.982   4.561
 1737SOL    HW1 6110   5.031   6.913   4.546
 1737SOL    HW2 6111   5.181   6.962   4.502
 1738SOL     OW 6112   1.865   3.219   3.990
 1738SOL    HW1 6113   1.899   3.310   3.969
 1738SOL    HW2 6114   1.942   3.158   4.008
 1739SOL     OW 6115   6.297   0.800   4.373
 1739SOL    HW1 6116   6.226   0.782   4.440
 1739SOL    HW2 6117   6.386   0.777   4.411
 1740SOL     OW 6118   6.601   1.862   5.002
 1740SOL    HW1 6119   6.648   1.950   4.997
 1740SOL    HW2 6120   6.502   1.876   4.997
 1741SOL     OW 6121   3.058   0.758   4.464
 1741SOL    HW1 6122   2.962   0.738   4.442
 1741SOL    HW2 6123   3.117   0.722   4.391
 1742SOL     OW 6124   5.653   0.681   6.113
 1742SOL    HW1 6125   5.593   0.620   6.063
 1742SOL    HW2 6126   5.602   0.727   6.186
 1743SOL     OW 6127   0.589   1.154   2.560
 1743SOL    HW1 6128   0.611   1.100   2.479
 1743SOL    HW2 6129   0.496   1.190   2.552
 1744SOL     OW 6130   6.019   3.006   2.695
 1744SOL    HW1 6131   6.092   3.012   2.626
 1744SOL    HW2 6132   6.053   2.954   2.774
 1745SOL     OW 6133   6.032   6.301   2.271
 1745SOL    HW1 6134   5.988   6.234   2.331
 1745SOL    HW2 6135   6.105   6.257   2.219
 1746SOL     OW 6136   1.825   4.329   3.901
 1746SOL    HW1 6137   1.853   4.251   3.844
 1746SOL    HW2 6138   1.799   4.296   3.991
 1747SOL     OW 6139   3.138   1.599   2.747
 1747SOL    HW1 6140   3.089   1.677   2.787
 1747SOL    HW2 6141   3.103   1.581   2.655
 1748SOL     OW 6142   6.461   1.879   3.918
 1748SOL    HW1 6143   6.408   1.964   3.919
 1748SOL    HW2 6144   6.507   1.866   4.006
 1749SOL     OW 6145   2.366   6.970   6.790
 1749SOL    HW1 6146   2.282   7.002   6.746
 1749SOL    HW2 6147   2.355   6.874   6.815
 1750SOL     OW 6148   5.486   0.540   3.531
 1750SOL    HW1 6149   5.505   0.446   3.503
 1750SOL    HW2 6150   5.571   0.586   3.555
 1751SOL     OW 6151   5.539   1.573   4.960
 1751SOL    HW1 6152   5.566   1.557   4.865
 1751SOL    HW2 6153   5.529   1.485   5.007
 1752SOL     OW 6154   5.846   0.389   1.442
 1752SOL    HW1 6155   5.925   0.439   1.407
 1752SOL    HW2 6156   5.762   0.430   1.406
 1753SOL     OW 6157   6.500   0.729   1.807
 1753SOL    HW1 6158   6.465   0.672   1.882
 1753SOL    HW2 6159   6.438   0.722   1.729
 1754SOL     OW 6160   1.754   5.484   6.426
 1754SOL    HW1 6161   1.848   5.458   6.449
 1754SOL    HW2 6162   1.756   5.558   6.359
 1755SOL     OW 6163   7.002   5.935   6.501
 1755SOL    HW1 6164   6.929   5.871   6.523
 1755SOL    HW2 6165   6.992   5.966   6.406
 1756SOL     OW 6166   4.451   6.316   6.332
 1756SOL    HW1 6167   4.420   6.406   6.303
 1756SOL    HW2 6168   4.446   6.310   6.432
 1757SOL     OW 6169   3.664   5.536   5.351
 1757SOL    HW1 6170   3.568   5.552   5.329
 1757SOL    HW2 6171   3.678   5.549   5.450
 1758SOL     OW 6172   1.616   0.494   4.416
 1758SOL    HW1 6173   1.610   0.593   4.435
 1758SOL    HW2 6174   1.645   0.480   4.321
 1759SOL     OW 6175   1.595   6.455   5.449
 1759SOL    HW1 6176   1.652   6.423   5.524
 1759SOL    HW2 6177   1.544   6.536   5.478
 1760SOL     OW 6178   5.845   0.759   4.031
 1760SOL    HW1 6179   5.860   0.763   3.932
 1760SOL    HW2 6180   5.793   0.676   4.054
 1761SOL     OW 6181   6.634   0.553   1.532
 1761SOL    HW1 6182   6.688   0.635   1.552
 1761SOL    HW2 6183   6.556   0.579   1.474
 1762SOL     OW 6184   6.598   1.695   4.261
 1762SOL    HW1 6185   6.675   1.735   4.212
 1762SOL    HW2 6186   6.615   1.699   4.359
 1763SOL     OW 6187   1.082   4.643   4.682
 1763SOL    HW1 6188   1.170   4.625   4.639
 1763SOL    HW2 6189   1.091   4.718   4.747
 1764SOL     OW 6190   0.964   3.548   2.292
 1764SOL    HW1 6191   0.907   3.467   2.275
 1764SOL    HW2 6192   1.025   3.530   2.369
 1765SOL     OW 6193   3.697   1.569   1.207
 1765SOL    HW1 6194   3.630   1.625   1.159
 1765SOL    HW2 6195   3.783   1.568   1.155
 1766SOL     OW 6196   5.347   4.479   3.975
 1766SOL    HW1 6197   5.298   4.440   4.053
 1766SOL    HW2 6198   5.356   4.578   3.987
 1767SOL     OW 6199   1.177   4.847   3.510
 1767SOL    HW1 6200   1.158   4.770   3.449
 1767SOL    HW2 6201   1.095   4.868   3.564
 1768SOL     OW 6202   3.699   0.651   6.718
 1768SOL    HW1 6203   3.786   0.605   6.733
 1768SOL    HW2 6204   3.664   0.687   6.805
 1769SOL     OW 6205   5.653   0.803   0.129
 1769SOL    HW1 6206   5.589   0.762   0.063
 1769SOL    HW2 6207   5.637   0.764   0.219
 1770SOL     OW 6208   0.451   4.273   5.163
 1770SOL    HW1 6209   0.523   4.211   5.196
 1770SOL    HW2 6210   0.491   4.337   5.097
 1771SOL     OW 6211   1.567   5.042   0.309
 1771SOL    HW1 6212   1.566   5.104   0.387
 1771SOL    HW2 6213   1.516   5.082   0.234
 1772SOL     OW 6214   3.624   5.345   4.238
 1772SOL    HW1 6215   3.553   5.310   4.176
 1772SOL    HW2 6216   3.618   5.298   4.326
 1773SOL     OW 6217   1.393   2.248   5.465
 1773SOL    HW1 6218   1.331   2.240   5.388
 1773SOL    HW2 6219   1.477   2.294   5.436
 1774SOL     OW 6220   5.362   6.656   2.193
 1774SOL    HW1 6221   5.437   6.718   2.216
 1774SOL    HW2 6222   5.398   6.564   2.178
 1775SOL     OW 6223   2.055   5.707   6.776
 1775SOL    HW1 6224   2.098   5.732   6.863
 1775SOL    HW2 6225   2.108   5.634   6.733
 1776SOL     OW 6226   5.059   0.857   5.663
 1776SOL    HW1 6227   5.106   0.928   5.610
 1776SOL    HW2 6228   4.965   0.886   5.681
 1777SOL     OW 6229   3.670   6.697   6.523
 1777SOL    HW1 6230   3.679   6.741   6.433
 1777SOL    HW2 6231   3.761   6.682   6.561
 1778SOL     OW 6232   4.807   1.392   4.573
 1778SOL    HW1 6233   4.785   1.295   4.562
 1778SOL    HW2 6234   4.890   1.402   4.628
 1779SOL     OW 6235   4.897   0.117   5.677
 1779SOL    HW1 6236   4.975   0.058   5.694
 1779SOL    HW2 6237   4.830   0.070   5.620
 1780SOL     OW 6238   1.504   3.722   4.902
 1780SOL    HW1 6239   1.570   3.778   4.852
 1780SOL    HW2 6240   1.536   3.707   4.995
 1781SOL     OW 6241   5.165   0.061   5.302
 1781SOL    HW1 6242   5.109   0.137   5.334
 1781SOL    HW2 6243   5.253   0.063   5.349
 1782SOL     OW 6244   2.461   1.519   2.954
 1782SOL    HW1 6245   2.429   1.477   2.869
 1782SOL    HW2 6246   2.405   1.487   3.030
 1783SOL     OW 6247   2.410   3.684   6.232
 1783SOL    HW1 6248   2.427   3.737   6.149
 1783SOL    HW2 6249   2.340   3.615   6.213
 1784SOL     OW 6250   2.540   1.384   1.975
 1784SOL    HW1 6251   2.613   1.335   2.025
 1784SOL    HW2 6252   2.488   1.318   1.921
 1785SOL     OW 6253   0.026   6.794   4.274
 1785SOL    HW1 6254   0.120   6.788   4.310
 1785SOL    HW2 6255   7.004   6.705   4.285
 1786SOL     OW 6256   2.043   5.383   0.648
 1786SOL    HW1 6257   2.110   5.458   0.641
 1786SOL    HW2 6258   1.961   5.416   0.695
 1787SOL     OW 6259   1.909   2.040   5.782
 1787SOL    HW1 6260   1.818   2.040   5.824
 1787SOL    HW2 6261   1.945   1.947   5.780
 1788SOL     OW 6262   4.611   3.646   0.227
 1788SOL    HW1 6263   4.590   3.724   0.286
 1788SOL    HW2 6264   4.592   3.561   0.276
 1789SOL     OW 6265   6.375   2.736   1.873
 1789SOL    HW1 6266   6.387   2.835   1.871
 1789SOL    HW2 6267   6.381   2.704   1.967
 1790SOL     OW 6268   3.076   0.957   4.146
 1790SOL    HW1 6269   3.021   1.028   4.191
 1790SOL    HW2 6270   3.173   0.976   4.159
 1791SOL     OW 6271   6.384   0.865   3.290
 1791SOL    HW1 6272   6.444   0.944   3.296
 1791SOL    HW2 6273   6.422   0.789   3.342
 1792SOL     OW 6274   0.141   2.028   4.430
 1792SOL    HW1 6275   0.202   2.003   4.355
 1792SOL    HW2 6276   0.090   2.111   4.406
 1793SOL     OW 6277   6.201   1.509   4.608
 1793SOL    HW1 6278   6.299   1.519   4.629
 1793SOL    HW2 6279   6.148   1.517   4.692
 1794SOL     OW 6280   5.778   0.046   5.974
 1794SOL    HW1 6281   5.861   0.102   5.985
 1794SOL    HW2 6282   5.710   0.075   6.041
 1795SOL     OW 6283   5.992   5.126   1.357
 1795SOL    HW1 6284   6.028   5.145   1.266
 1795SOL    HW2 6285   5.912   5.182   1.374
 1796SOL     OW 6286   1.823   1.350   5.579
 1796SOL    HW1 6287   1.890   1.320   5.646
 1796SOL    HW2 6288   1.731   1.349   5.619
 1797SOL     OW 6289   1.200   0.164   5.510
 1797SOL    HW1 6290   1.272   0.122   5.454
 1797SOL    HW2 6291   1.202   0.263   5.497
 1798SOL     OW 6292   3.602   2.869   4.626
 1798SOL    HW1 6293   3.571   2.955   4.666
 1798SOL    HW2 6294   3.702   2.871   4.616
 1799SOL     OW 6295   4.117   2.545   6.552
 1799SOL    HW1 6296   4.185   2.487   6.508
 1799SOL    HW2 6297   4.147   2.640   6.549
 1800SOL     OW 6298   5.302   4.543   3.630
 1800SOL    HW1 6299   5.354   4.609   3.684
 1800SOL    HW2 6300   5.348   4.527   3.543
 1801SOL     OW 6301   0.798   2.142   1.950
 1801SOL    HW1 6302   0.842   2.140   1.860
 1801SOL    HW2 6303   0.859   2.099   2.017
 1802SOL     OW 6304   6.339   5.826   3.333
 1802SOL    HW1 6305   6.245   5.853   3.355
 1802SOL    HW2 6306   6.360   5.853   3.239
 1803SOL     OW 6307   0.276   6.636   2.863
 1803SOL    HW1 6308   0.179   6.661   2.864
 1803SOL    HW2 6309   0.307   6.629   2.768
 1804SOL     OW 6310   3.414   3.173   5.800
 1804SOL    HW1 6311   3.342   3.242   5.809
 1804SOL    HW2 6312   3.471   3.173   5.882
 1805SOL     OW 6313   1.013   5.365   6.097
 1805SOL    HW1 6314   0.991   5.447   6.044
 1805SOL    HW2 6315   1.001   5.386   6.195
 1806SOL     OW 6316   0.042   2.634   2.332
 1806SOL    HW1 6317   0.133   2.594   2.322
 1806SOL    HW2 6318   0.005   2.612   2.422
 1807SOL     OW 6319   5.992   3.730   6.912
 1807SOL    HW1 6320   6.046   3.731   6.828
 1807SOL    HW2 6321   6.008   3.814   6.963
 1808SOL     OW 6322   5.922   3.183   4.532
 1808SOL    HW1 6323   5.974   3.199   4.616
 1808SOL    HW2 6324   5.853   3.254   4.521
 1809SOL     OW 6325   3.067   1.314   5.368
 1809SOL    HW1 6326   3.027   1.319   5.460
 1809SOL    HW2 6327   3.166   1.326   5.373
 1810SOL     OW 6328   0.242   0.828   4.849
 1810SOL    HW1 6329   0.270   0.890   4.923
 1810SOL    HW2 6330   0.199   0.881   4.776
 1811SOL     OW 6331   4.996   4.645   1.523
 1811SOL    HW1 6332   5.014   4.572   1.588
 1811SOL    HW2 6333   4.898   4.666   1.523
 1812SOL     OW 6334   4.561   6.991   6.082
 1812SOL    HW1 6335   4.563   0.063   6.052
 1812SOL    HW2 6336   4.484   6.977   6.145
 1813SOL     OW 6337   4.670   4.368   2.146
 1813SOL    HW1 6338   4.594   4.344   2.086
 1813SOL    HW2 6339   4.637   4.379   2.239
 1814SOL     OW 6340   6.292   6.713   0.230
 1814SOL    HW1 6341   6.287   6.615   0.250
 1814SOL    HW2 6342   6.388   6.739   0.219
 1815SOL     OW 6343   5.511   6.239   2.560
 1815SOL    HW1 6344   5.530   6.283   2.473
 1815SOL    HW2 6345   5.578   6.268   2.628
 1816SOL     OW 6346   3.828   5.763   6.053
 1816SOL    HW1 6347   3.849   5.780   6.149
 1816SOL    HW2 6348   3.728   5.756   6.041
 1817SOL     OW 6349   3.329   1.712   3.056
 1817SOL    HW1 6350   3.354   1.758   2.970
 1817SOL    HW2 6351   3.262   1.768   3.105
 1818SOL     OW 6352   1.922   6.518   0.624
 1818SOL    HW1 6353   1.885   6.582   0.691
 1818SOL    HW2 6354   2.003   6.557   0.581
 1819SOL     OW 6355   1.738   4.979   1.908
 1819SOL    HW1 6356   1.641   4.998   1.925
 1819SOL    HW2 6357   1.751   4.955   1.812
 1820SOL     OW 6358   4.020   0.786   3.234
 1820SOL    HW1 6359   3.928   0.753   3.253
 1820SOL    HW2 6360   4.072   0.715   3.187
 1821SOL     OW 6361   3.800   1.162   1.798
 1821SOL    HW1 6362   3.859   1.203   1.729
 1821SOL    HW2 6363   3.768   1.232   1.861
 1822SOL     OW 6364   1.194   3.327   1.977
 1822SOL    HW1 6365   1.257   3.319   1.900
 1822SOL    HW2 6366   1.161   3.421   1.984
 1823SOL     OW 6367   3.078   6.325   3.023
 1823SOL    HW1 6368   3.146   6.394   3.048
 1823SOL    HW2 6369   3.044   6.280   3.105
 1824SOL     OW 6370   3.577   4.195   0.464
 1824SOL    HW1 6371   3.631   4.202   0.547
 1824SOL    HW2 6372   3.497   4.255   0.470
 1825SOL     OW 6373   6.990   3.528   5.195
 1825SOL    HW1 6374   7.013   3.432   5.177
 1825SOL    HW2 6375   6.966   3.538   5.292
 1826SOL     OW 6376   3.707   1.053   0.876
 1826SOL    HW1 6377   3.625   1.048   0.933
 1826SOL    HW2 6378   3.750   1.142   0.888
 1827SOL     OW 6379   5.052   5.413   0.710
 1827SOL    HW1 6380   5.032   5.469   0.790
 1827SOL    HW2 6381   5.113   5.337   0.736
 1828SOL     OW 6382   1.963   3.441   6.798
 1828SOL    HW1 6383   1.876   3.483   6.773
 1828SOL    HW2 6384   1.965   3.422   6.896
 1829SOL     OW 6385   3.770   0.430   3.197
 1829SOL    HW1 6386   3.779   0.528   3.214
 1829SOL    HW2 6387   3.742   0.416   3.102
 1830SOL     OW 6388   5.897   6.975   5.039
 1830SOL    HW1 6389   5.990   7.005   5.057
 1830SOL    HW2 6390   5.868   7.008   4.949
 1831SOL     OW 6391   4.805   5.776   2.577
 1831SOL    HW1 6392   4.814   5.694   2.634
 1831SOL    HW2 6393   4.874   5.774   2.505
 1832SOL     OW 6394   3.176   3.772   0.330
 1832SOL    HW1 6395   3.159   3.674   0.337
 1832SOL    HW2 6396   3.152   3.804   0.239
 1833SOL     OW 6397   5.025   0.131   1.282
 1833SOL    HW1 6398   4.972   0.120   1.197
 1833SOL    HW2 6399   4.990   0.209   1.333
 1834SOL     OW 6400   3.100   3.081   1.470
 1834SOL    HW1 6401   3.023   3.067   1.407
 1834SOL    HW2 6402   3.178   3.025   1.441
 1835SOL     OW 6403   0.298   4.957   1.379
 1835SOL    HW1 6404   0.371   4.918   1.323
 1835SOL    HW2 6405   0.329   5.043   1.420
 1836SOL     OW 6406   5.306   1.854   1.927
 1836SOL    HW1 6407   5.405   1.862   1.934
 1836SOL    HW2 6408   5.269   1.821   2.014
 1837SOL     OW 6409   2.183   0.789   5.548
 1837SOL    HW1 6410   2.210   0.765   5.641
 1837SOL    HW2 6411   2.246   0.857   5.511
 1838SOL     OW 6412   6.455   0.655   6.504
 1838SOL    HW1 6413   6.542   0.702   6.515
 1838SOL    HW2 6414   6.418   0.675   6.413
 1839SOL     OW 6415   6.416   1.581   6.563
 1839SOL    HW1 6416   6.443   1.631   6.480
 1839SOL    HW2 6417   6.496   1.536   6.602
 1840SOL     OW 6418   3.976   0.169   2.913
 1840SOL    HW1 6419   3.886   0.142   2.949
 1840SOL    HW2 6420   4.045   0.156   2.985
 1841SOL     OW 6421   2.447   0.925   2.529
 1841SOL    HW1 6422   2.481   0.942   2.437
 1841SOL    HW2 6423   2.410   1.010   2.567
 1842SOL     OW 6424   1.866   5.096   0.081
 1842SOL    HW1 6425   1.806   5.044   0.141
 1842SOL    HW2 6426   1.877   5.189   0.118
 1843SOL     OW 6427   4.627   1.010   4.562
 1843SOL    HW1 6428   4.599   1.012   4.658
 1843SOL    HW2 6429   4.608   0.919   4.524
 1844SOL     OW 6430   4.978   1.991   5.469
 1844SOL    HW1 6431   5.027   2.072   5.501
 1844SOL    HW2 6432   4.904   1.970   5.533
 1845SOL     OW 6433   3.005   0.665   3.484
 1845SOL    HW1 6434   2.939   0.692   3.555
 1845SOL    HW2 6435   3.015   0.740   3.419
 1846SOL     OW 6436   5.374   0.880   2.777
 1846SOL    HW1 6437   5.396   0.822   2.856
 1846SOL    HW2 6438   5.397   0.975   2.798
 1847SOL     OW 6439   1.558   0.807   5.242
 1847SOL    HW1 6440   1.464   0.813   5.209
 1847SOL    HW2 6441   1.581   0.890   5.294
 1848SOL     OW 6442   1.882   5.921   4.221
 1848SOL    HW1 6443   1.964   5.955   4.175
 1848SOL    HW2 6444   1.859   5.981   4.298
 1849SOL     OW 6445   4.968   3.065   2.123
 1849SOL    HW1 6446   4.959   3.164   2.109
 1849SOL    HW2 6447   4.880   3.021   2.104
 1850SOL     OW 6448   5.417   1.558   2.477
 1850SOL    HW1 6449   5.442   1.512   2.562
 1850SOL    HW2 6450   5.318   1.569   2.473
 1851SOL     OW 6451   0.672   3.249   6.449
 1851SOL    HW1 6452   0.649   3.157   6.482
 1851SOL    HW2 6453   0.772   3.259   6.444
 1852SOL     OW 6454   6.865   5.040   1.688
 1852SOL    HW1 6455   6.774   5.076   1.708
 1852SOL    HW2 6456   6.857   4.950   1.645
 1853SOL     OW 6457   6.878   2.655   4.023
 1853SOL    HW1 6458   6.820   2.687   4.098
 1853SOL    HW2 6459   6.826   2.591   3.966
 1854SOL     OW 6460   1.375   5.398   3.696
 1854SOL    HW1 6461   1.340   5.371   3.606
 1854SOL    HW2 6462   1.333   5.341   3.767
 1855SOL     OW 6463   5.545   3.429   4.705
 1855SOL    HW1 6464   5.547   3.405   4.802
 1855SOL    HW2 6465   5.523   3.347   4.651
 1856SOL     OW 6466   4.404   3.214   6.538
 1856SOL    HW1 6467   4.423   3.179   6.446
 1856SOL    HW2 6468   4.339   3.290   6.532
 1857SOL     OW 6469   5.707   1.070   0.197
 1857SOL    HW1 6470   5.719   1.114   0.109
 1857SOL    HW2 6471   5.682   0.974   0.183
 1858SOL     OW 6472   5.026   2.607   3.742
 1858SOL    HW1 6473   5.033   2.569   3.650
 1858SOL    HW2 6474   5.071   2.545   3.807
 1859SOL     OW 6475   5.311   1.924   4.166
 1859SOL    HW1 6476   5.289   1.971   4.252
 1859SOL    HW2 6477   5.321   1.991   4.093
 1860SOL     OW 6478   0.578   1.929   4.953
 1860SOL    HW1 6479   0.576   1.990   5.032
 1860SOL    HW2 6480   0.634   1.969   4.881
 1861SOL     OW 6481   5.501   0.376   2.952
 1861SOL    HW1 6482   5.548   0.463   2.965
 1861SOL    HW2 6483   5.403   0.392   2.942
 1862SOL     OW 6484   1.365   6.938   0.108
 1862SOL    HW1 6485   1.396   6.843   0.119
 1862SOL    HW2 6486   1.294   6.958   0.175
 1863SOL     OW 6487   0.074   2.704   1.148
 1863SOL    HW1 6488   7.006   2.744   1.162
 1863SOL    HW2 6489   0.142   2.760   1.195
 1864SOL     OW 6490   2.915   5.783   4.340
 1864SOL    HW1 6491   2.908   5.749   4.434
 1864SOL    HW2 6492   2.824   5.791   4.301
 1865SOL     OW 6493   3.897   1.011   1.356
 1865SOL    HW1 6494   3.820   1.071   1.378
 1865SOL    HW2 6495   3.865   0.935   1.300
 1866SOL     OW 6496   6.263   4.331   4.248
 1866SOL    HW1 6497   6.287   4.263   4.178
 1866SOL    HW2 6498   6.282   4.423   4.213
 1867SOL     OW 6499   2.618   2.826   1.285
 1867SOL    HW1 6500   2.702   2.876   1.305
 1867SOL    HW2 6501   2.554   2.836   1.361
 1868SOL     OW 6502   4.755   4.147   5.328
 1868SOL    HW1 6503   4.818   4.079   5.366
 1868SOL    HW2 6504   4.754   4.139   5.228
 1869SOL     OW 6505   5.333   2.841   3.895
 1869SOL    HW1 6506   5.291   2.917   3.944
 1869SOL    HW2 6507   5.412   2.874   3.843
 1870SOL     OW 6508   0.618   3.150   4.540
 1870SOL    HW1 6509   0.708   3.187   4.563
 1870SOL    HW2 6510   0.550   3.223   4.546
 1871SOL     OW 6511   6.827   6.547   0.127
 1871SOL    HW1 6512   6.887   6.556   0.207
 1871SOL    HW2 6513   6.848   6.620   0.062
 1872SOL     OW 6514   3.277   2.709   0.875
 1872SOL    HW1 6515   3.370   2.674   0.863
 1872SOL    HW2 6516   3.214   2.659   0.814
 1873SOL     OW 6517   6.240   0.874   6.779
 1873SOL    HW1 6518   6.159   0.924   6.748
 1873SOL    HW2 6519   6.224   0.776   6.769
 1874SOL     OW 6520   0.892   0.778   6.686
 1874SOL    HW1 6521   0.804   0.752   6.726
 1874SOL    HW2 6522   0.928   0.857   6.736
 1875SOL     OW 6523   6.555   6.024   0.594
 1875SOL    HW1 6524   6.473   6.019   0.536
 1875SOL    HW2 6525   6.602   6.110   0.578
 1876SOL     OW 6526   5.305   6.414   6.091
 1876SOL    HW1 6527   5.214   6.449   6.112
 1876SOL    HW2 6528   5.368   6.490   6.076
 1877SOL     OW 6529   0.042   1.545   2.763
 1877SOL    HW1 6530   0.142   1.547   2.762
 1877SOL    HW2 6531   0.007   1.570   2.673
 1878SOL     OW 6532   7.011   4.413   3.493
 1878SOL    HW1 6533   7.008   4.409   3.593
 1878SOL    HW2 6534   6.961   4.493   3.462
 1879SOL     OW 6535   2.573   4.921   3.963
 1879SOL    HW1 6536   2.587   4.900   4.059
 1879SOL    HW2 6537   2.612   4.848   3.906
 1880SOL     OW 6538   0.677   2.401   3.031
 1880SOL    HW1 6539   0.716   2.491   3.053
 1880SOL    HW2 6540   0.712   2.369   2.944
 1881SOL     OW 6541   0.772   2.307   3.685
 1881SOL    HW1 6542   0.715   2.386   3.665
 1881SOL    HW2 6543   0.787   2.255   3.600
 1882SOL     OW 6544   1.144   5.827   6.988
 1882SOL    HW1 6545   1.211   5.810   6.915
 1882SOL    HW2 6546   1.068   5.881   6.951
 1883SOL     OW 6547   1.371   3.668   2.996
 1883SOL    HW1 6548   1.275   3.657   2.973
 1883SOL    HW2 6549   1.411   3.742   2.942
 1884SOL     OW 6550   5.329   0.754   1.478
 1884SOL    HW1 6551   5.236   0.723   1.458
 1884SOL    HW2 6552   5.391   0.721   1.407
 1885SOL     OW 6553   6.913   1.940   0.855
 1885SOL    HW1 6554   6.877   1.960   0.946
 1885SOL    HW2 6555   6.940   1.843   0.850
 1886SOL     OW 6556   1.777   1.984   0.141
 1886SOL    HW1 6557   1.869   2.013   0.116
 1886SOL    HW2 6558   1.773   1.966   0.239
 1887SOL     OW 6559   0.233   4.422   5.991
 1887SOL    HW1 6560   0.222   4.512   6.032
 1887SOL    HW2 6561   0.210   4.351   6.057
 1888SOL     OW 6562   2.013   1.269   5.782
 1888SOL    HW1 6563   1.956   1.333   5.833
 1888SOL    HW2 6564   2.109   1.285   5.805
 1889SOL     OW 6565   4.237   3.662   0.122
 1889SOL    HW1 6566   4.307   3.682   0.054
 1889SOL    HW2 6567   4.146   3.670   0.080
 1890SOL     OW 6568   1.616   5.756   6.582
 1890SOL    HW1 6569   1.570   5.679   6.624
 1890SOL    HW2 6570   1.579   5.773   6.491
 1891SOL     OW 6571   5.183   2.634   5.605
 1891SOL    HW1 6572   5.161   2.553   5.658
 1891SOL    HW2 6573   5.177   2.613   5.507
 1892SOL     OW 6574   4.092   6.205   1.229
 1892SOL    HW1 6575   4.100   6.261   1.312
 1892SOL    HW2 6576   4.181   6.163   1.209
 1893SOL     OW 6577   3.482   2.022   4.402
 1893SOL    HW1 6578   3.581   2.017   4.413
 1893SOL    HW2 6579   3.442   2.066   4.482
 1894SOL     OW 6580   4.330   3.534   1.707
 1894SOL    HW1 6581   4.249   3.498   1.753
 1894SOL    HW2 6582   4.323   3.634   1.700
 1895SOL     OW 6583   6.062   0.548   2.288
 1895SOL    HW1 6584   6.071   0.464   2.234
 1895SOL    HW2 6585   6.073   0.627   2.228
 1896SOL     OW 6586   6.544   1.183   3.667
 1896SOL    HW1 6587   6.453   1.203   3.629
 1896SOL    HW2 6588   6.612   1.241   3.622
 1897SOL     OW 6589   0.057   5.197   3.711
 1897SOL    HW1 6590   0.045   5.141   3.629
 1897SOL    HW2 6591   0.027   5.146   3.791
 1898SOL     OW 6592   3.695   6.339   1.463
 1898SOL    HW1 6593   3.733   6.425   1.498
 1898SOL    HW2 6594   3.598   6.351   1.441
 1899SOL     OW 6595   0.687   3.972   2.861
 1899SOL    HW1 6596   0.590   3.956   2.875
 1899SOL    HW2 6597   0.728   3.893   2.815
 1900SOL     OW 6598   0.893   0.226   6.246
 1900SOL    HW1 6599   0.975   0.282   6.237
 1900SOL    HW2 6600   0.830   0.268   6.312
 1901SOL     OW 6601   2.165   1.518   0.235
 1901SOL    HW1 6602   2.158   1.477   0.326
 1901SOL    HW2 6603   2.084   1.495   0.181
 1902SOL     OW 6604   1.308   2.720   4.689
 1902SOL    HW1 6605   1.324   2.745   4.593
 1902SOL    HW2 6606   1.240   2.647   4.693
 1903SOL     OW 6607   0.320   3.947   3.255
 1903SOL    HW1 6608   0.248   3.919   3.192
 1903SOL    HW2 6609   0.314   3.893   3.339
 1904SOL     OW 6610   6.757   6.985   4.693
 1904SOL    HW1 6611   6.856   6.999   4.700
 1904SOL    HW2 6612   6.730   6.982   4.597
 1905SOL     OW 6613   0.059   2.777   3.555
 1905SOL    HW1 6614   0.041   2.684   3.520
 1905SOL    HW2 6615   0.147   2.809   3.520
 1906SOL     OW 6616   2.728   6.997   5.529
 1906SOL    HW1 6617   2.808   6.945   5.502
 1906SOL    HW2 6618   2.670   7.012   5.449
 1907SOL     OW 6619   2.892   6.971   3.596
 1907SOL    HW1 6620   2.981   6.934   3.624
 1907SOL    HW2 6621   2.835   6.986   3.677
 1908SOL     OW 6622   4.592   1.064   5.668
 1908SOL    HW1 6623   4.507   1.016   5.647
 1908SOL    HW2 6624   4.590   1.154   5.625
 1909SOL     OW 6625   2.353   4.292   4.586
 1909SOL    HW1 6626   2.276   4.228   4.582
 1909SOL    HW2 6627   2.437   4.244   4.561
 1910SOL     OW 6628   5.541   2.766   6.242
 1910SOL    HW1 6629   5.453   2.727   6.216
 1910SOL    HW2 6630   5.602   2.765   6.163
 1911SOL     OW 6631   6.480   2.016   5.311
 1911SOL    HW1 6632   6.385   2.020   5.279
 1911SOL    HW2 6633   6.511   2.108   5.334
 1912SOL     OW 6634   3.780   5.947   2.374
 1912SOL    HW1 6635   3.827   6.008   2.438
 1912SOL    HW2 6636   3.695   5.990   2.344
 1913SOL     OW 6637   1.952   6.714   5.190
 1913SOL    HW1 6638   1.902   6.729   5.104
 1913SOL    HW2 6639   2.002   6.627   5.184
 1914SOL     OW 6640   2.416   2.205   6.443
 1914SOL    HW1 6641   2.344   2.266   6.410
 1914SOL    HW2 6642   2.489   2.198   6.375
 1915SOL     OW 6643   3.735   1.491   5.827
 1915SOL    HW1 6644   3.653   1.525   5.873
 1915SOL    HW2 6645   3.792   1.568   5.798
 1916SOL     OW 6646   3.938   6.023   1.067
 1916SOL    HW1 6647   4.006   6.086   1.103
 1916SOL    HW2 6648   3.962   5.929   1.092
 1917SOL     OW 6649   3.392   3.259   4.907
 1917SOL    HW1 6650   3.384   3.272   4.808
 1917SOL    HW2 6651   3.344   3.176   4.934
 1918SOL     OW 6652   5.805   6.853   5.817
 1918SOL    HW1 6653   5.901   6.829   5.834
 1918SOL    HW2 6654   5.781   6.934   5.870
 1919SOL     OW 6655   1.600   6.457   1.760
 1919SOL    HW1 6656   1.552   6.372   1.742
 1919SOL    HW2 6657   1.535   6.526   1.792
 1920SOL     OW 6658   0.219   4.379   3.712
 1920SOL    HW1 6659   0.242   4.446   3.783
 1920SOL    HW2 6660   0.172   4.425   3.637
 1921SOL     OW 6661   6.992   5.097   6.906
 1921SOL    HW1 6662   6.913   5.158   6.907
 1921SOL    HW2 6663   0.017   5.107   6.819
 1922SOL     OW 6664   4.194   3.163   1.151
 1922SOL    HW1 6665   4.212   3.069   1.121
 1922SOL    HW2 6666   4.218   3.171   1.248
 1923SOL     OW 6667   3.146   1.196   0.454
 1923SOL    HW1 6668   3.200   1.239   0.381
 1923SOL    HW2 6669   3.148   1.097   0.442
 1924SOL     OW 6670   5.667   4.906   2.204
 1924SOL    HW1 6671   5.599   4.958   2.152
 1924SOL    HW2 6672   5.759   4.934   2.178
 1925SOL     OW 6673   2.798   3.721   1.784
 1925SOL    HW1 6674   2.715   3.775   1.766
 1925SOL    HW2 6675   2.878   3.773   1.755
 1926SOL     OW 6676   1.454   0.051   4.455
 1926SOL    HW1 6677   1.378   0.108   4.422
 1926SOL    HW2 6678   1.418   7.004   4.517
 1927SOL     OW 6679   3.811   5.230   6.247
 1927SOL    HW1 6680   3.814   5.197   6.342
 1927SOL    HW2 6681   3.889   5.193   6.197
 1928SOL     OW 6682   6.788   3.535   6.094
 1928SOL    HW1 6683   6.858   3.465   6.108
 1928SOL    HW2 6684   6.825   3.625   6.121
 1929SOL     OW 6685   0.715   5.386   1.443
 1929SOL    HW1 6686   0.792   5.385   1.507
 1929SOL    HW2 6687   0.687   5.480   1.425
 1930SOL     OW 6688   5.332   4.578   0.100
 1930SOL    HW1 6689   5.328   4.513   0.176
 1930SOL    HW2 6690   5.316   4.529   0.014
 1931SOL     OW 6691   0.223   3.492   3.276
 1931SOL    HW1 6692   0.251   3.506   3.181
 1931SOL    HW2 6693   0.179   3.575   3.310
 1932SOL     OW 6694   5.430   3.673   2.729
 1932SOL    HW1 6695   5.528   3.689   2.716
 1932SOL    HW2 6696   5.415   3.577   2.751
 1933SOL     OW 6697   2.431   4.855   1.437
 1933SOL    HW1 6698   2.405   4.946   1.406
 1933SOL    HW2 6699   2.477   4.861   1.526
 1934SOL     OW 6700   0.450   0.162   5.707
 1934SOL    HW1 6701   0.457   0.148   5.609
 1934SOL    HW2 6702   0.541   0.176   5.746
 1935SOL     OW 6703   3.274   0.338   5.039
 1935SOL    HW1 6704   3.344   0.330   4.968
 1935SOL    HW2 6705   3.315   0.376   5.122
 1936SOL     OW 6706   5.583   4.987   3.994
 1936SOL    HW1 6707   5.591   5.058   4.064
 1936SOL    HW2 6708   5.673   4.967   3.955
 1937SOL     OW 6709   3.905   6.784   1.951
 1937SOL    HW1 6710   3.817   6.825   1.977
 1937SOL    HW2 6711   3.975   6.812   2.016
 1938SOL     OW 6712   4.750   1.449   2.714
 1938SOL    HW1 6713   4.808   1.367   2.711
 1938SOL    HW2 6714   4.792   1.517   2.774
 1939SOL     OW 6715   0.588   6.931   4.076
 1939SOL    HW1 6716   0.587   6.979   4.164
 1939SOL    HW2 6717   0.501   6.883   4.063
 1940SOL     OW 6718   5.022   5.371   6.144
 1940SOL    HW1 6719   5.097   5.306   6.152
 1940SOL    HW2 6720   5.019   5.406   6.050
 1941SOL     OW 6721   0.090   3.742   3.264
 1941SOL    HW1 6722   0.022   3.811   3.290
 1941SOL    HW2 6723   0.097   3.739   3.164
 1942SOL     OW 6724   6.661   6.881   2.435
 1942SOL    HW1 6725   6.716   6.934   2.499
 1942SOL    HW2 6726   6.565   6.886   2.461
 1943SOL     OW 6727   3.112   6.072   2.286
 1943SOL    HW1 6728   3.153   6.118   2.207
 1943SOL    HW2 6729   3.093   6.139   2.358
 1944SOL     OW 6730   4.778   2.277   6.108
 1944SOL    HW1 6731   4.715   2.229   6.047
 1944SOL    HW2 6732   4.739   2.366   6.132
 1945SOL     OW 6733   3.758   5.617   2.812
 1945SOL    HW1 6734   3.856   5.600   2.828
 1945SOL    HW2 6735   3.747   5.705   2.766
 1946SOL     OW 6736   0.104   0.698   0.045
 1946SOL    HW1 6737   0.166   0.736   0.114
 1946SOL    HW2 6738   0.157   0.666   6.989
 1947SOL     OW 6739   5.415   6.440   3.776
 1947SOL    HW1 6740   5.491   6.496   3.809
 1947SOL    HW2 6741   5.347   6.498   3.732
 1948SOL     OW 6742   6.556   5.417   3.621
 1948SOL    HW1 6743   6.529   5.434   3.526
 1948SOL    HW2 6744   6.654   5.401   3.625
 1949SOL     OW 6745   4.486   4.406   5.790
 1949SOL    HW1 6746   4.524   4.456   5.712
 1949SOL    HW2 6747   4.392   4.377   5.769
 1950SOL     OW 6748   3.949   3.955   1.105
 1950SOL    HW1 6749   3.879   3.999   1.160
 1950SOL    HW2 6750   3.906   3.896   1.037
 1951SOL     OW 6751   6.585   3.535   0.403
 1951SOL    HW1 6752   6.601   3.515   0.306
 1951SOL    HW2 6753   6.666   3.507   0.456
 1952SOL     OW 6754   3.584   2.168   6.902
 1952SOL    HW1 6755   3.599   2.167   6.803
 1952SOL    HW2 6756   3.507   2.228   6.923
 1953SOL     OW 6757   6.211   2.335   6.440
 1953SOL    HW1 6758   6.256   2.415   6.480
 1953SOL    HW2 6759   6.269   2.297   6.368
 1954SOL     OW 6760   5.843   1.427   4.319
 1954SOL    HW1 6761   5.913   1.385   4.377
 1954SOL    HW2 6762   5.887   1.474   4.242
 1955SOL     OW 6763   1.242   0.076   2.049
 1955SOL    HW1 6764   1.303   0.024   2.108
 1955SOL    HW2 6765   1.211   0.158   2.097
 1956SOL     OW 6766   5.988   6.657   2.643
 1956SOL    HW1 6767   5.978   6.737   2.701
 1956SOL    HW2 6768   5.943   6.579   2.685
 1957SOL     OW 6769   6.478   4.666   4.742
 1957SOL    HW1 6770   6.507   4.723   4.819
 1957SOL    HW2 6771   6.381   4.645   4.750
 1958SOL     OW 6772   6.236   2.650   4.017
 1958SOL    HW1 6773   6.206   2.736   3.974
 1958SOL    HW2 6774   6.161   2.584   4.014
 1959SOL     OW 6775   7.017   2.055   6.058
 1959SOL    HW1 6776   6.977   2.000   5.985
 1959SOL    HW2 6777   0.072   2.006   6.098
 1960SOL     OW 6778   6.274   4.721   0.834
 1960SOL    HW1 6779   6.216   4.797   0.805
 1960SOL    HW2 6780   6.350   4.756   0.889
 1961SOL     OW 6781   5.529   4.623   4.180
 1961SOL    HW1 6782   5.566   4.541   4.223
 1961SOL    HW2 6783   5.604   4.685   4.156
 1962SOL     OW 6784   2.562   6.303   2.699
 1962SOL    HW1 6785   2.498   6.378   2.682
 1962SOL    HW2 6786   2.625   6.329   2.772
 1963SOL     OW 6787   0.569   0.855   1.265
 1963SOL    HW1 6788   0.536   0.765   1.294
 1963SOL    HW2 6789   0.509   0.892   1.195
 1964SOL     OW 6790   4.731   2.623   1.765
 1964SOL    HW1 6791   4.734   2.636   1.864
 1964SOL    HW2 6792   4.715   2.711   1.720
 1965SOL     OW 6793   1.037   3.296   3.171
 1965SOL    HW1 6794   0.992   3.210   3.198
 1965SOL    HW2 6795   0.980   3.344   3.104
 1966SOL     OW 6796   6.843   5.621   4.788
 1966SOL    HW1 6797   6.829   5.691   4.858
 1966SOL    HW2 6798   6.754   5.587   4.756
 1967SOL     OW 6799   4.568   2.076   5.371
 1967SOL    HW1 6800   4.647   2.018   5.352
 1967SOL    HW2 6801   4.490   2.018   5.395
 1968SOL     OW 6802   2.805   6.117   0.663
 1968SOL    HW1 6803   2.804   6.039   0.724
 1968SOL    HW2 6804   2.720   6.169   0.673
 1969SOL     OW 6805   0.535   1.547   1.363
 1969SOL    HW1 6806   0.478   1.469   1.388
 1969SOL    HW2 6807   0.487   1.632   1.387
 1970SOL     OW 6808   2.438   0.811   6.481
 1970SOL    HW1 6809   2.355   0.844   6.527
 1970SOL    HW2 6810   2.509   0.881   6.485
 1971SOL     OW 6811   5.977   6.528   6.145
 1971SOL    HW1 6812   6.005   6.532   6.049
 1971SOL    HW2 6813   5.879   6.508   6.150
 1972SOL     OW 6814   6.807   2.779   3.290
 1972SOL    HW1 6815   6.735   2.719   3.257
 1972SOL    HW2 6816   6.813   2.771   3.390
 1973SOL     OW 6817   2.824   3.351   1.168
 1973SOL    HW1 6818   2.893   3.403   1.117
 1973SOL    HW2 6819   2.768   3.414   1.222
 1974SOL     OW 6820   6.448   5.876   4.112
 1974SOL    HW1 6821   6.407   5.814   4.179
 1974SOL    HW2 6822   6.395   5.960   4.108
 1975SOL     OW 6823   2.289   1.353   3.400
 1975SOL    HW1 6824   2.272   1.259   3.432
 1975SOL    HW2 6825   2.224   1.415   3.444
 1976SOL     OW 6826   0.597   5.761   6.708
 1976SOL    HW1 6827   0.510   5.760   6.757
 1976SOL    HW2 6828   0.658   5.691   6.745
 1977SOL     OW 6829   1.641   2.746   3.567
 1977SOL    HW1 6830   1.722   2.717   3.515
 1977SOL    HW2 6831   1.634   2.693   3.651
 1978SOL     OW 6832   0.788   0.397   3.869
 1978SOL    HW1 6833   0.816   0.443   3.786
 1978SOL    HW2 6834   0.707   0.341   3.850
 1979SOL     OW 6835   6.762   4.053   4.892
 1979SOL    HW1 6836   6.720   4.103   4.817
 1979SOL    HW2 6837   6.861   4.061   4.887
 1980SOL     OW 6838   3.273   1.194   6.501
 1980SOL    HW1 6839   3.264   1.279   6.450
 1980SOL    HW2 6840   3.213   1.125   6.462
 1981SOL     OW 6841   5.879   2.098   2.806
 1981SOL    HW1 6842   5.931   2.167   2.755
 1981SOL    HW2 6843   5.943   2.039   2.855
 1982SOL     OW 6844   0.089   4.251   5.525
 1982SOL    HW1 6845   0.021   4.184   5.556
 1982SOL    HW2 6846   0.070   4.339   5.566
 1983SOL     OW 6847   1.055   2.065   2.585
 1983SOL    HW1 6848   1.019   2.097   2.672
 1983SOL    HW2 6849   1.003   2.106   2.510
 1984SOL     OW 6850   5.475   0.462   5.020
 1984SOL    HW1 6851   5.506   0.555   5.038
 1984SOL    HW2 6852   5.554   0.400   5.019
 1985SOL     OW 6853   0.882   0.880   2.373
 1985SOL    HW1 6854   0.922   0.942   2.440
 1985SOL    HW2 6855   0.951   0.812   2.346
 1986SOL     OW 6856   1.274   0.452   0.677
 1986SOL    HW1 6857   1.333   0.372   0.689
 1986SOL    HW2 6858   1.320   0.534   0.711
 1987SOL     OW 6859   1.532   3.346   1.959
 1987SOL    HW1 6860   1.483   3.305   1.882
 1987SOL    HW2 6861   1.485   3.324   2.044
 1988SOL     OW 6862   4.460   4.638   0.919
 1988SOL    HW1 6863   4.425   4.652   1.011
 1988SOL    HW2 6864   4.533   4.570   0.921
 1989SOL     OW 6865   2.504   6.414   5.339
 1989SOL    HW1 6866   2.420   6.442   5.386
 1989SOL    HW2 6867   2.480   6.368   5.254
 1990SOL     OW 6868   3.407   6.872   1.122
 1990SOL    HW1 6869   3.498   6.910   1.138
 1990SOL    HW2 6870   3.377   6.897   1.030
 1991SOL     OW 6871   4.123   4.810   6.162
 1991SOL    HW1 6872   4.192   4.739   6.149
 1991SOL    HW2 6873   4.078   4.829   6.075
 1992SOL     OW 6874   1.232   0.063   6.854
 1992SOL    HW1 6875   1.271   7.001   6.888
 1992SOL    HW2 6876   1.239   0.134   6.924
 1993SOL     OW 6877   4.268   3.845   5.282
 1993SOL    HW1 6878   4.251   3.887   5.371
 1993SOL    HW2 6879   4.194   3.782   5.259
 1994SOL     OW 6880   1.617   1.866   0.892
 1994SOL    HW1 6881   1.661   1.777   0.882
 1994SOL    HW2 6882   1.653   1.929   0.823
 1995SOL     OW 6883   6.159   2.487   1.213
 1995SOL    HW1 6884   6.131   2.470   1.308
 1995SOL    HW2 6885   6.212   2.409   1.180
 1996SOL     OW 6886   3.131   3.537   0.730
 1996SOL    HW1 6887   3.107   3.634   0.721
 1996SOL    HW2 6888   3.228   3.525   0.710
 1997SOL     OW 6889   5.176   0.299   5.730
 1997SOL    HW1 6890   5.081   0.328   5.742
 1997SOL    HW2 6891   5.236   0.364   5.775
 1998SOL     OW 6892   3.116   3.632   5.784
 1998SOL    HW1 6893   3.086   3.715   5.832
 1998SOL    HW2 6894   3.111   3.647   5.685
 1999SOL     OW 6895   2.781   6.944   1.844
 1999SOL    HW1 6896   2.775   7.018   1.911
 1999SOL    HW2 6897   2.785   6.982   1.752
 2000SOL     OW 6898   3.745   2.033   5.476
 2000SOL    HW1 6899   3.656   2.059   5.515
 2000SOL    HW2 6900   3.751   2.066   5.382
 2001SOL     OW 6901   3.461   2.135   1.762
 2001SOL    HW1 6902   3.517   2.154   1.843
 2001SOL    HW2 6903   3.431   2.221   1.721
 2002SOL     OW 6904   0.958   5.593   5.991
 2002SOL    HW1 6905   1.028   5.649   6.037
 2002SOL    HW2 6906   0.870   5.639   5.997
 2003SOL     OW 6907   5.655   7.003   3.244
 2003SOL    HW1 6908   5.692   6.913   3.222
 2003SOL    HW2 6909   5.618   0.022   3.161
 2004SOL     OW 6910   5.284   1.446   5.311
 2004SOL    HW1 6911   5.328   1.468   5.398
 2004SOL    HW2 6912   5.243   1.528   5.272
 2005SOL     OW 6913   1.083   5.258   6.702
 2005SOL    HW1 6914   1.127   5.347   6.708
 2005SOL    HW2 6915   1.080   5.229   6.606
 2006SOL     OW 6916   4.990   4.452   3.982
 2006SOL    HW1 6917   4.959   4.367   4.025
 2006SOL    HW2 6918   4.913   4.516   3.976
 2007SOL     OW 6919   4.552   5.820   0.507
 2007SOL    HW1 6920   4.546   5.728   0.469
 2007SOL    HW2 6921   4.574   5.815   0.604
 2008SOL     OW 6922   1.172   5.894   3.050
 2008SOL    HW1 6923   1.153   5.849   2.963
 2008SOL    HW2 6924   1.113   5.975   3.059
 2009SOL     OW 6925   6.630   6.928   1.208
 2009SOL    HW1 6926   6.713   6.982   1.222
 2009SOL    HW2 6927   6.644   6.836   1.243
 2010SOL     OW 6928   1.328   0.914   0.964
 2010SOL    HW1 6929   1.326   0.985   0.893
 2010SOL    HW2 6930   1.423   0.902   0.995
 2011SOL     OW 6931   0.162   1.836   5.062
 2011SOL    HW1 6932   0.102   1.799   4.992
 2011SOL    HW2 6933   0.257   1.818   5.037
 2012SOL     OW 6934   0.666   3.088   1.538
 2012SOL    HW1 6935   0.589   3.035   1.572
 2012SOL    HW2 6936   0.655   3.184   1.565
 2013SOL     OW 6937   5.698   0.313   3.209
 2013SOL    HW1 6938   5.649   0.234   3.170
 2013SOL    HW2 6939   5.695   0.389   3.144
 2014SOL     OW 6940   1.612   5.333   2.747
 2014SOL    HW1 6941   1.682   5.364   2.812
 2014SOL    HW2 6942   1.522   5.344   2.788
 2015SOL     OW 6943   2.525   1.257   6.387
 2015SOL    HW1 6944   2.520   1.302   6.477
 2015SOL    HW2 6945   2.496   1.322   6.316
 2016SOL     OW 6946   0.995   5.296   5.475
 2016SOL    HW1 6947   0.969   5.274   5.381
 2016SOL    HW2 6948   1.095   5.304   5.481
 2017SOL     OW 6949   2.860   6.655   4.770
 2017SOL    HW1 6950   2.824   6.608   4.851
 2017SOL    HW2 6951   2.786   6.669   4.704
 2018SOL     OW 6952   5.733   6.368   6.111
 2018SOL    HW1 6953   5.668   6.375   6.035
 2018SOL    HW2 6954   5.684   6.344   6.195
 2019SOL     OW 6955   4.409   2.374   2.430
 2019SOL    HW1 6956   4.337   2.336   2.489
 2019SOL    HW2 6957   4.372   2.387   2.338
 2020SOL     OW 6958   1.325   5.632   5.388
 2020SOL    HW1 6959   1.385   5.697   5.341
 2020SOL    HW2 6960   1.377   5.582   5.458
 2021SOL     OW 6961   2.273   6.144   3.646
 2021SOL    HW1 6962   2.181   6.174   3.672
 2021SOL    HW2 6963   2.274   6.045   3.633
 2022SOL     OW 6964   2.134   3.618   2.395
 2022SOL    HW1 6965   2.062   3.564   2.438
 2022SOL    HW2 6966   2.218   3.564   2.390
 2023SOL     OW 6967   6.887   1.342   6.921
 2023SOL    HW1 6968   6.964   1.406   6.916
 2023SOL    HW2 6969   6.899   1.282   7.000
 2024SOL     OW 6970   7.006   0.964   2.390
 2024SOL    HW1 6971   7.008   1.038   2.323
 2024SOL    HW2 6972   6.943   0.892   2.359
 2025SOL     OW 6973   2.224   2.683   2.182
 2025SOL    HW1 6974   2.196   2.721   2.093
 2025SOL    HW2 6975   2.221   2.756   2.251
 2026SOL     OW 6976   1.714   2.445   5.882
 2026SOL    HW1 6977   1.656   2.366   5.900
 2026SOL    HW2 6978   1.800   2.414   5.840
 2027SOL     OW 6979   0.952   1.178   1.586
 2027SOL    HW1 6980   0.857   1.153   1.604
 2027SOL    HW2 6981   1.005   1.095   1.565
 2028SOL     OW 6982   3.258   1.464   6.468
 2028SOL    HW1 6983   3.242   1.468   6.567
 2028SOL    HW2 6984   3.255   1.556   6.429
 2029SOL     OW 6985   7.008   0.423   0.553
 2029SOL    HW1 6986   0.027   0.484   0.486
 2029SOL    HW2 6987   6.911   0.445   0.562
 2030SOL     OW 6988   2.762   0.642   3.860
 2030SOL    HW1 6989   2.676   0.650   3.910
 2030SOL    HW2 6990   2.777   0.546   3.834
 2031SOL     OW 6991   5.179   6.238   2.642
 2031SOL    HW1 6992   5.230   6.165   2.687
 2031SOL    HW2 6993   5.097   6.201   2.600
 2032SOL     OW 6994   3.756   6.587   1.829
 2032SOL    HW1 6995   3.678   6.634   1.787
 2032SOL    HW2 6996   3.815   6.654   1.874
 2033SOL     OW 6997   3.411   4.563   7.019
 2033SOL    HW1 6998   3.389   4.660   0.005
 2033SOL    HW2 6999   3.454   4.547   6.931
 2034SOL     OW 7000   3.345   6.912   4.538
 2034SOL    HW1 7001   3.434   6.934   4.498
 2034SOL    HW2 7002   3.314   6.823   4.505
 2035SOL     OW 7003   0.409   0.759   2.515
 2035SOL    HW1 7004   0.503   0.740   2.488
 2035SOL    HW2 7005   0.381   0.849   2.480
 2036SOL     OW 7006   0.618   5.852   3.176
 2036SOL    HW1 7007   0.606   5.931   3.116
 2036SOL    HW2 7008   0.667   5.780   3.127
 2037SOL     OW 7009   0.403   2.218   6.214
 2037SOL    HW1 7010   0.424   2.250   6.122
 2037SOL    HW2 7011   0.312   2.251   6.241
 2038SOL     OW 7012   1.505   1.667   6.461
 2038SOL    HW1 7013   1.422   1.722   6.456
 2038SOL    HW2 7014   1.540   1.669   6.555
 2039SOL     OW 7015   0.071   4.858   2.121
 2039SOL    HW1 7016   0.084   4.940   2.176
 2039SOL    HW2 7017   0.075   4.882   2.024
 2040SOL     OW 7018   3.130   2.824   5.284
 2040SOL    HW1 7019   3.228   2.802   5.276
 2040SOL    HW2 7020   3.119   2.910   5.334
 2041SOL     OW 7021   6.692   6.047   5.635
 2041SOL    HW1 7022   6.686   5.995   5.550
 2041SOL    HW2 7023   6.783   6.089   5.642
 2042SOL     OW 7024   5.351   5.172   6.928
 2042SOL    HW1 7025   5.447   5.190   6.948
 2042SOL    HW2 7026   5.296   5.189   7.010
 2043SOL     OW 7027   6.597   4.197   2.550
 2043SOL    HW1 7028   6.520   4.212   2.612
 2043SOL    HW2 7029   6.570   4.132   2.479
 2044SOL     OW 7030   4.569   0.189   2.178
 2044SOL    HW1 7031   4.550   0.091   2.186
 2044SOL    HW2 7032   4.614   0.222   2.261
 2045SOL     OW 7033   1.735   4.678   5.005
 2045SOL    HW1 7034   1.781   4.757   4.965
 2045SOL    HW2 7035   1.717   4.610   4.933
 2046SOL     OW 7036   6.761   1.202   4.111
 2046SOL    HW1 7037   6.735   1.141   4.186
 2046SOL    HW2 7038   6.852   1.238   4.128
 2047SOL     OW 7039   4.490   2.177   0.384
 2047SOL    HW1 7040   4.504   2.160   0.481
 2047SOL    HW2 7041   4.396   2.206   0.368
 2048SOL     OW 7042   1.833   5.418   0.825
 2048SOL    HW1 7043   1.734   5.423   0.832
 2048SOL    HW2 7044   1.875   5.459   0.906
 2049SOL     OW 7045   4.430   1.493   6.352
 2049SOL    HW1 7046   4.382   1.537   6.427
 2049SOL    HW2 7047   4.529   1.505   6.364
 2050SOL     OW 7048   6.388   2.181   2.996
 2050SOL    HW1 7049   6.339   2.163   2.910
 2050SOL    HW2 7050   6.438   2.098   3.023
 2051SOL     OW 7051   0.055   5.779   0.917
 2051SOL    HW1 7052   0.066   5.729   0.831
 2051SOL    HW2 7053   0.041   5.714   0.991
 2052SOL     OW 7054   0.164   4.203   0.465
 2052SOL    HW1 7055   0.239   4.145   0.499
 2052SOL    HW2 7056   0.094   4.145   0.423
 2053SOL     OW 7057   6.411   0.719   6.015
 2053SOL    HW1 7058   6.321   0.763   6.017
 2053SOL    HW2 7059   6.400   0.622   5.992
 2054SOL     OW 7060   4.595   2.735   1.426
 2054SOL    HW1 7061   4.615   2.644   1.464
 2054SOL    HW2 7062   4.628   2.805   1.489
 2055SOL     OW 7063   6.254   2.951   2.561
 2055SOL    HW1 7064   6.306   3.002   2.493
 2055SOL    HW2 7065   6.315   2.921   2.634
 2056SOL     OW 7066   2.469   0.762   3.154
 2056SOL    HW1 7067   2.466   0.862   3.153
 2056SOL    HW2 7068   2.445   0.729   3.245
 2057SOL     OW 7069   5.546   2.849   3.262
 2057SOL    HW1 7070   5.597   2.843   3.176
 2057SOL    HW2 7071   5.472   2.917   3.252
 2058SOL     OW 7072   1.342   1.700   3.344
 2058SOL    HW1 7073   1.377   1.790   3.369
 2058SOL    HW2 7074   1.364   1.680   3.249
 2059SOL     OW 7075   2.731   6.231   6.974
 2059SOL    HW1 7076   2.812   6.250   6.918
 2059SOL    HW2 7077   2.699   6.138   6.956
 2060SOL     OW 7078   6.154   4.188   0.517
 2060SOL    HW1 7079   6.088   4.250   0.473
 2060SOL    HW2 7080   6.149   4.199   0.616
 2061SOL     OW 7081   0.835   1.606   2.800
 2061SOL    HW1 7082   0.879   1.636   2.885
 2061SOL    HW2 7083   0.883   1.526   2.763
 2062SOL     OW 7084   5.973   0.605   3.510
 2062SOL    HW1 7085   5.964   0.505   3.515
 2062SOL    HW2 7086   6.069   0.629   3.498
 2063SOL     OW 7087   1.914   0.192   6.094
 2063SOL    HW1 7088   1.956   0.240   6.171
 2063SOL    HW2 7089   1.953   0.226   6.008
 2064SOL     OW 7090   1.226   1.934   6.115
 2064SOL    HW1 7091   1.220   1.980   6.026
 2064SOL    HW2 7092   1.298   1.977   6.170
 2065SOL     OW 7093   6.911   3.542   3.328
 2065SOL    HW1 7094   6.991   3.601   3.340
 2065SOL    HW2 7095   6.937   3.459   3.279
 2066SOL     OW 7096   0.417   5.701   3.649
 2066SOL    HW1 7097   0.458   5.737   3.565
 2066SOL    HW2 7098   0.437   5.763   3.725
 2067SOL     OW 7099   6.839   5.665   0.764
 2067SOL    HW1 7100   6.767   5.597   0.747
 2067SOL    HW2 7101   6.819   5.715   0.848
 2068SOL     OW 7102   1.622   1.917   5.126
 2068SOL    HW1 7103   1.678   1.885   5.203
 2068SOL    HW2 7104   1.525   1.913   5.151
 2069SOL     OW 7105   0.741   3.192   3.370
 2069SOL    HW1 7106   0.822   3.134   3.359
 2069SOL    HW2 7107   0.767   3.280   3.408
 2070SOL     OW 7108   1.149   0.576   2.296
 2070SOL    HW1 7109   1.117   0.663   2.258
 2070SOL    HW2 7110   1.235   0.550   2.254
 2071SOL     OW 7111   6.490   6.111   5.170
 2071SOL    HW1 7112   6.443   6.024   5.157
 2071SOL    HW2 7113   6.469   6.172   5.093
 2072SOL     OW 7114   4.376   6.742   2.217
 2072SOL    HW1 7115   4.370   6.817   2.284
 2072SOL    HW2 7116   4.326   6.663   2.252
 2073SOL     OW 7117   4.030   0.137   4.252
 2073SOL    HW1 7118   4.097   0.191   4.303
 2073SOL    HW2 7119   4.073   0.099   4.170
 2074SOL     OW 7120   1.410   3.430   0.558
 2074SOL    HW1 7121   1.416   3.338   0.519
 2074SOL    HW2 7122   1.335   3.434   0.623
 2075SOL     OW 7123   5.181   3.012   1.396
 2075SOL    HW1 7124   5.144   2.925   1.366
 2075SOL    HW2 7125   5.268   3.029   1.349
 2076SOL     OW 7126   4.837   0.114   6.819
 2076SOL    HW1 7127   4.851   0.072   6.729
 2076SOL    HW2 7128   4.768   0.062   6.869
 2077SOL     OW 7129   5.489   2.112   2.674
 2077SOL    HW1 7130   5.550   2.184   2.640
 2077SOL    HW2 7131   5.467   2.050   2.599
 2078SOL     OW 7132   1.672   6.426   6.518
 2078SOL    HW1 7133   1.709   6.382   6.600
 2078SOL    HW2 7134   1.582   6.389   6.498
 2079SOL     OW 7135   5.962   1.611   3.337
 2079SOL    HW1 7136   6.011   1.668   3.403
 2079SOL    HW2 7137   5.865   1.634   3.338
 2080SOL     OW 7138   1.279   0.736   4.525
 2080SOL    HW1 7139   1.274   0.637   4.539
 2080SOL    HW2 7140   1.373   0.766   4.538
 2081SOL     OW 7141   2.121   5.533   4.482
 2081SOL    HW1 7142   2.030   5.491   4.489
 2081SOL    HW2 7143   2.185   5.485   4.543
 2082SOL     OW 7144   6.837   6.973   3.234
 2082SOL    HW1 7145   6.840   0.050   3.240
 2082SOL    HW2 7146   6.743   6.944   3.215
 2083SOL     OW 7147   5.232   4.750   6.264
 2083SOL    HW1 7148   5.187   4.784   6.182
 2083SOL    HW2 7149   5.256   4.826   6.324
 2084SOL     OW 7150   0.277   4.297   4.354
 2084SOL    HW1 7151   0.358   4.351   4.378
 2084SOL    HW2 7152   0.267   4.295   4.254
 2085SOL     OW 7153   4.783   1.090   6.594
 2085SOL    HW1 7154   4.782   1.001   6.639
 2085SOL    HW2 7155   4.820   1.159   6.656
 2086SOL     OW 7156   3.597   6.973   5.851
 2086SOL    HW1 7157   3.547   7.001   5.933
 2086SOL    HW2 7158   3.621   0.031   5.797
 2087SOL     OW 7159   5.219   0.031   1.443
 2087SOL    HW1 7160   5.152   0.066   1.378
 2087SOL    HW2 7161   5.184   6.970   1.485
 2088SOL     OW 7162   2.593   6.146   1.207
 2088SOL    HW1 7163   2.563   6.059   1.247
 2088SOL    HW2 7164   2.548   6.159   1.119
 2089SOL     OW 7165   5.400   2.372   6.411
 2089SOL    HW1 7166   5.330   2.371   6.339
 2089SOL    HW2 7167   5.371   2.431   6.486
 2090SOL     OW 7168   3.432   3.396   5.573
 2090SOL    HW1 7169   3.375   3.429   5.648
 2090SOL    HW2 7170   3.447   3.471   5.508
 2091SOL     OW 7171   6.718   5.397   0.456
 2091SOL    HW1 7172   6.740   5.317   0.401
 2091SOL    HW2 7173   6.792   5.413   0.522
 2092SOL     OW 7174   4.640   4.303   0.173
 2092SOL    HW1 7175   4.670   4.338   0.084
 2092SOL    HW2 7176   4.675   4.361   0.246
 2093SOL     OW 7177   2.692   2.528   1.819
 2093SOL    HW1 7178   2.787   2.525   1.851
 2093SOL    HW2 7179   2.691   2.535   1.719
 2094SOL     OW 7180   5.843   1.337   0.703
 2094SOL    HW1 7181   5.842   1.367   0.608
 2094SOL    HW2 7182   5.908   1.262   0.714
 2095SOL     OW 7183   5.193   0.406   5.032
 2095SOL    HW1 7184   5.286   0.441   5.043
 2095SOL    HW2 7185   5.193   0.307   5.039
 2096SOL     OW 7186   4.752   4.187   2.883
 2096SOL    HW1 7187   4.700   4.261   2.926
 2096SOL    HW2 7188   4.761   4.206   2.785
 2097SOL     OW 7189   2.236   2.987   6.626
 2097SOL    HW1 7190   2.272   3.065   6.677
 2097SOL    HW2 7191   2.305   2.914   6.624
 2098SOL     OW 7192   4.301   5.577   2.976
 2098SOL    HW1 7193   4.214   5.626   2.983
 2098SOL    HW2 7194   4.365   5.614   3.043
 2099SOL     OW 7195   2.617   3.059   5.411
 2099SOL    HW1 7196   2.701   3.089   5.366
 2099SOL    HW2 7197   2.547   3.041   5.342
 2100SOL     OW 7198   4.573   3.166   5.891
 2100SOL    HW1 7199   4.604   3.095   5.827
 2100SOL    HW2 7200   4.580   3.256   5.847
 2101SOL     OW 7201   1.661   6.202   2.616
 2101SOL    HW1 7202   1.758   6.222   2.630
 2101SOL    HW2 7203   1.641   6.110   2.649
 2102SOL     OW 7204   6.123   4.859   1.910
 2102SOL    HW1 7205   6.202   4.817   1.865
 2102SOL    HW2 7206   6.087   4.797   1.980
 2103SOL     OW 7207   3.188   4.062   6.057
 2103SOL    HW1 7208   3.242   4.046   5.974
 2103SOL    HW2 7209   3.125   3.986   6.071
 2104SOL     OW 7210   1.709   2.945   0.885
 2104SOL    HW1 7211   1.677   2.965   0.792
 2104SOL    HW2 7212   1.715   3.030   0.937
 2105SOL     OW 7213   5.083   6.153   4.882
 2105SOL    HW1 7214   5.057   6.219   4.953
 2105SOL    HW2 7215   5.083   6.061   4.920
 2106SOL     OW 7216   4.675   4.089   0.834
 2106SOL    HW1 7217   4.768   4.072   0.800
 2106SOL    HW2 7218   4.615   4.111   0.758
 2107SOL     OW 7219   5.526   2.668   5.628
 2107SOL    HW1 7220   5.599   2.599   5.622
 2107SOL    HW2 7221   5.468   2.648   5.707
 2108SOL     OW 7222   6.758   6.144   5.259
 2108SOL    HW1 7223   6.673   6.128   5.208
 2108SOL    HW2 7224   6.749   6.106   5.351
 2109SOL     OW 7225   4.180   6.384   2.926
 2109SOL    HW1 7226   4.239   6.465   2.928
 2109SOL    HW2 7227   4.119   6.390   2.847
 2110SOL     OW 7228   2.794   2.109   6.520
 2110SOL    HW1 7229   2.866   2.040   6.513
 2110SOL    HW2 7230   2.834   2.196   6.545
 2111SOL     OW 7231   1.108   2.618   0.118
 2111SOL    HW1 7232   1.141   2.551   0.051
 2111SOL    HW2 7233   1.165   2.611   0.200
 2112SOL     OW 7234   5.161   2.845   0.454
 2112SOL    HW1 7235   5.233   2.841   0.384
 2112SOL    HW2 7236   5.193   2.898   0.532
 2113SOL     OW 7237   0.818   1.271   5.181
 2113SOL    HW1 7238   0.839   1.250   5.276
 2113SOL    HW2 7239   0.790   1.187   5.134
 2114SOL     OW 7240   1.175   2.725   0.854
 2114SOL    HW1 7241   1.211   2.686   0.769
 2114SOL    HW2 7242   1.244   2.784   0.896
 2115SOL     OW 7243   2.131   3.249   2.386
 2115SOL    HW1 7244   2.106   3.288   2.297
 2115SOL    HW2 7245   2.217   3.198   2.377
 2116SOL     OW 7246   0.036   5.156   2.925
 2116SOL    HW1 7247   0.074   5.197   3.008
 2116SOL    HW2 7248   0.024   5.057   2.939
 2117SOL     OW 7249   6.342   4.686   1.816
 2117SOL    HW1 7250   6.374   4.640   1.899
 2117SOL    HW2 7251   6.416   4.742   1.778
 2118SOL     OW 7252   6.288   3.264   1.403
 2118SOL    HW1 7253   6.307   3.308   1.315
 2118SOL    HW2 7254   6.349   3.185   1.414
 2119SOL     OW 7255   2.428   5.780   1.052
 2119SOL    HW1 7256   2.364   5.795   0.977
 2119SOL    HW2 7257   2.376   5.762   1.136
 2120SOL     OW 7258   0.247   5.186   4.089
 2120SOL    HW1 7259   0.213   5.258   4.149
 2120SOL    HW2 7260   0.326   5.220   4.037
 2121SOL     OW 7261   1.051   3.889   5.812
 2121SOL    HW1 7262   0.976   3.953   5.824
 2121SOL    HW2 7263   1.138   3.937   5.822
 2122SOL     OW 7264   6.122   4.233   5.707
 2122SOL    HW1 7265   6.137   4.152   5.650
 2122SOL    HW2 7266   6.181   4.308   5.675
 2123SOL     OW 7267   6.379   5.790   1.872
 2123SOL    HW1 7268   6.290   5.744   1.864
 2123SOL    HW2 7269   6.442   5.752   1.804
 2124SOL     OW 7270   2.968   1.685   1.481
 2124SOL    HW1 7271   3.004   1.627   1.408
 2124SOL    HW2 7272   2.891   1.738   1.447
 2125SOL     OW 7273   2.101   0.554   1.479
 2125SOL    HW1 7274   2.058   0.493   1.546
 2125SOL    HW2 7275   2.079   0.523   1.387
 2126SOL     OW 7276   3.726   0.994   6.653
 2126SOL    HW1 7277   3.788   0.961   6.581
 2126SOL    HW2 7278   3.640   1.023   6.612
 2127SOL     OW 7279   6.665   3.272   4.274
 2127SOL    HW1 7280   6.601   3.223   4.333
 2127SOL    HW2 7281   6.759   3.244   4.295
 2128SOL     OW 7282   6.730   3.639   3.483
 2128SOL    HW1 7283   6.802   3.612   3.419
 2128SOL    HW2 7284   6.647   3.587   3.464
 2129SOL     OW 7285   4.273   3.550   5.494
 2129SOL    HW1 7286   4.318   3.578   5.579
 2129SOL    HW2 7287   4.300   3.612   5.420
 2130SOL     OW 7288   3.374   1.109   1.877
 2130SOL    HW1 7289   3.432   1.067   1.948
 2130SOL    HW2 7290   3.405   1.078   1.787
 2131SOL     OW 7291   6.654   0.293   0.170
 2131SOL    HW1 7292   6.669   0.392   0.172
 2131SOL    HW2 7293   6.582   0.269   0.236
 2132SOL     OW 7294   3.721   1.639   1.458
 2132SOL    HW1 7295   3.625   1.619   1.475
 2132SOL    HW2 7296   3.747   1.607   1.367
 2133SOL     OW 7297   2.810   3.519   0.098
 2133SOL    HW1 7298   2.761   3.606   0.094
 2133SOL    HW2 7299   2.898   3.529   0.052
 2134SOL     OW 7300   0.036   2.630   6.840
 2134SOL    HW1 7301   0.085   2.718   6.840
 2134SOL    HW2 7302   6.972   2.641   6.792
 2135SOL     OW 7303   6.957   4.047   4.088
 2135SOL    HW1 7304   6.954   3.948   4.090
 2135SOL    HW2 7305   6.892   4.084   4.155
 2136SOL     OW 7306   1.410   4.148   2.583
 2136SOL    HW1 7307   1.414   4.242   2.550
 2136SOL    HW2 7308   1.364   4.147   2.672
 2137SOL     OW 7309   2.360   5.741   5.513
 2137SOL    HW1 7310   2.360   5.654   5.463
 2137SOL    HW2 7311   2.396   5.727   5.605
 2138SOL     OW 7312   6.624   6.345   2.945
 2138SOL    HW1 7313   6.691   6.291   2.894
 2138SOL    HW2 7314   6.614   6.307   3.037
 2139SOL     OW 7315   4.780   0.849   3.807
 2139SOL    HW1 7316   4.805   0.943   3.832
 2139SOL    HW2 7317   4.681   0.844   3.794
 2140SOL     OW 7318   3.525   0.334   4.010
 2140SOL    HW1 7319   3.457   0.285   4.064
 2140SOL    HW2 7320   3.576   0.268   3.955
 2141SOL     OW 7321   6.584   3.241   2.051
 2141SOL    HW1 7322   6.631   3.241   1.963
 2141SOL    HW2 7323   6.566   3.335   2.080
 2142SOL     OW 7324   1.570   1.436   3.378
 2142SOL    HW1 7325   1.522   1.354   3.348
 2142SOL    HW2 7326   1.506   1.513   3.382
 2143SOL     OW 7327   3.087   4.804   1.383
 2143SOL    HW1 7328   3.142   4.885   1.365
 2143SOL    HW2 7329   3.145   4.722   1.377
 2144SOL     OW 7330   0.849   5.263   4.458
 2144SOL    HW1 7331   0.866   5.206   4.378
 2144SOL    HW2 7332   0.778   5.331   4.436
 2145SOL     OW 7333   4.265   6.656   4.342
 2145SOL    HW1 7334   4.324   6.626   4.267
 2145SOL    HW2 7335   4.209   6.733   4.312
 2146SOL     OW 7336   2.431   3.193   0.782
 2146SOL    HW1 7337   2.364   3.223   0.850
 2146SOL    HW2 7338   2.473   3.107   0.812
 2147SOL     OW 7339   6.256   1.657   5.698
 2147SOL    HW1 7340   6.325   1.690   5.634
 2147SOL    HW2 7341   6.300   1.604   5.770
 2148SOL     OW 7342   5.929   3.565   6.015
 2148SOL    HW1 7343   5.941   3.580   6.113
 2148SOL    HW2 7344   5.831   3.565   5.993
 2149SOL     OW 7345   2.976   1.726   1.036
 2149SOL    HW1 7346   2.966   1.675   0.950
 2149SOL    HW2 7347   3.066   1.708   1.075
 2150SOL     OW 7348   2.548   2.443   2.153
 2150SOL    HW1 7349   2.601   2.411   2.232
 2150SOL    HW2 7350   2.609   2.454   2.074
 2151SOL     OW 7351   2.121   6.835   6.119
 2151SOL    HW1 7352   2.118   6.883   6.206
 2151SOL    HW2 7353   2.079   6.891   6.048
 2152SOL     OW 7354   3.361   5.275   2.271
 2152SOL    HW1 7355   3.372   5.316   2.361
 2152SOL    HW2 7356   3.408   5.331   2.203
 2153SOL     OW 7357   4.947   1.594   2.834
 2153SOL    HW1 7358   4.963   1.683   2.793
 2153SOL    HW2 7359   4.963   1.598   2.932
 2154SOL     OW 7360   5.381   0.712   4.588
 2154SOL    HW1 7361   5.291   0.752   4.568
 2154SOL    HW2 7362   5.401   0.641   4.521
 2155SOL     OW 7363   3.723   6.575   1.256
 2155SOL    HW1 7364   3.722   6.675   1.248
 2155SOL    HW2 7365   3.761   6.549   1.344
 2156SOL     OW 7366   0.795   1.686   4.989
 2156SOL    HW1 7367   0.800   1.626   4.909
 2156SOL    HW2 7368   0.762   1.776   4.961
 2157SOL     OW 7369   5.717   7.006   2.810
 2157SOL    HW1 7370   5.806   6.999   2.855
 2157SOL    HW2 7371   5.709   0.074   2.767
 2158SOL     OW 7372   3.576   5.901   1.041
 2158SOL    HW1 7373   3.664   5.941   1.015
 2158SOL    HW2 7374   3.548   5.835   0.971
 2159SOL     OW 7375   1.385   0.402   5.152
 2159SOL    HW1 7376   1.442   0.375   5.075
 2159SOL    HW2 7377   1.442   0.438   5.225
 2160SOL     OW 7378   4.873   4.138   6.932
 2160SOL    HW1 7379   4.777   4.155   6.911
 2160SOL    HW2 7380   4.900   4.189   7.013
 2161SOL     OW 7381   5.750   4.674   2.580
 2161SOL    HW1 7382   5.834   4.644   2.627
 2161SOL    HW2 7383   5.715   4.599   2.524
 2162SOL     OW 7384   3.429   0.850   2.254
 2162SOL    HW1 7385   3.360   0.819   2.188
 2162SOL    HW2 7386   3.384   0.890   2.334
 2163SOL     OW 7387   1.917   4.323   6.980
 2163SOL    HW1 7388   1.934   4.236   0.002
 2163SOL    HW2 7389   1.891   4.391   0.025
 2164SOL     OW 7390   2.051   2.207   6.364
 2164SOL    HW1 7391   2.139   2.254   6.359
 2164SOL    HW2 7392   2.066   2.109   6.361
 2165SOL     OW 7393   6.944   2.539   3.469
 2165SOL    HW1 7394   7.002   2.470   3.512
 2165SOL    HW2 7395   6.867   2.494   3.424
 2166SOL     OW 7396   1.706   2.443   4.617
 2166SOL    HW1 7397   1.645   2.452   4.538
 2166SOL    HW2 7398   1.711   2.347   4.645
 2167SOL     OW 7399   1.677   1.816   3.316
 2167SOL    HW1 7400   1.596   1.870   3.340
 2167SOL    HW2 7401   1.759   1.864   3.347
 2168SOL     OW 7402   0.662   1.741   3.727
 2168SOL    HW1 7403   0.576   1.775   3.766
 2168SOL    HW2 7404   0.646   1.704   3.636
 2169SOL     OW 7405   5.859   2.272   6.630
 2169SOL    HW1 7406   5.909   2.201   6.579
 2169SOL    HW2 7407   5.857   2.356   6.576
 2170SOL     OW 7408   0.041   3.973   4.893
 2170SOL    HW1 7409   0.021   3.987   4.796
 2170SOL    HW2 7410   0.104   4.044   4.925
 2171SOL     OW 7411   0.207   5.245   1.201
 2171SOL    HW1 7412   0.118   5.283   1.225
 2171SOL    HW2 7413   0.198   5.188   1.119
 2172SOL     OW 7414   2.006   1.674   6.497
 2172SOL    HW1 7415   2.061   1.603   6.542
 2172SOL    HW2 7416   1.909   1.656   6.513
 2173SOL     OW 7417   4.242   0.553   5.272
 2173SOL    HW1 7418   4.210   0.476   5.217
 2173SOL    HW2 7419   4.341   0.560   5.265
 2174SOL     OW 7420   6.668   5.904   4.610
 2174SOL    HW1 7421   6.601   5.976   4.629
 2174SOL    HW2 7422   6.625   5.814   4.619
 2175SOL     OW 7423   1.806   2.252   4.367
 2175SOL    HW1 7424   1.879   2.228   4.431
 2175SOL    HW2 7425   1.843   2.310   4.294
 2176SOL     OW 7426   5.742   2.129   0.057
 2176SOL    HW1 7427   5.733   2.210   7.022
 2176SOL    HW2 7428   5.658   2.075   0.053
 2177SOL     OW 7429   6.997   1.603   3.241
 2177SOL    HW1 7430   0.027   1.624   3.323
 2177SOL    HW2 7431   6.930   1.675   3.224
 2178SOL     OW 7432   1.890   1.771   2.045
 2178SOL    HW1 7433   1.872   1.750   2.141
 2178SOL    HW2 7434   1.915   1.868   2.036
 2179SOL     OW 7435   1.997   5.114   5.553
 2179SOL    HW1 7436   2.030   5.122   5.459
 2179SOL    HW2 7437   1.926   5.183   5.569
 2180SOL     OW 7438   1.790   2.495   1.994
 2180SOL    HW1 7439   1.833   2.584   2.014
 2180SOL    HW2 7440   1.758   2.454   2.080
 2181SOL     OW 7441   4.702   4.935   4.592
 2181SOL    HW1 7442   4.708   4.888   4.503
 2181SOL    HW2 7443   4.778   4.999   4.601
 2182SOL     OW 7444   1.628   3.920   3.400
 2182SOL    HW1 7445   1.633   3.853   3.326
 2182SOL    HW2 7446   1.719   3.933   3.439
 2183SOL     OW 7447   1.923   4.737   6.425
 2183SOL    HW1 7448   1.917   4.826   6.469
 2183SOL    HW2 7449   1.861   4.673   6.470
 2184SOL     OW 7450   4.424   0.796   5.734
 2184SOL    HW1 7451   4.371   0.874   5.702
 2184SOL    HW2 7452   4.464   0.748   5.656
 2185SOL     OW 7453   0.431   0.336   1.081
 2185SOL    HW1 7454   0.387   0.365   0.996
 2185SOL    HW2 7455   0.418   0.237   1.093
 2186SOL     OW 7456   6.930   5.414   0.645
 2186SOL    HW1 7457   6.954   5.339   0.707
 2186SOL    HW2 7458   6.931   5.500   0.695
 2187SOL     OW 7459   6.661   5.972   2.626
 2187SOL    HW1 7460   6.604   6.004   2.551
 2187SOL    HW2 7461   6.625   5.886   2.661
 2188SOL     OW 7462   0.057   5.480   4.871
 2188SOL    HW1 7463   6.999   5.514   4.822
 2188SOL    HW2 7464   0.115   5.557   4.897
 2189SOL     OW 7465   2.371   0.223   1.292
 2189SOL    HW1 7466   2.309   0.242   1.216
 2189SOL    HW2 7467   2.457   0.271   1.278
 2190SOL     OW 7468   0.341   3.119   2.049
 2190SOL    HW1 7469   0.437   3.146   2.061
 2190SOL    HW2 7470   0.282   3.195   2.075
 2191SOL     OW 7471   2.614   1.699   6.655
 2191SOL    HW1 7472   2.657   1.671   6.569
 2191SOL    HW2 7473   2.625   1.797   6.668
 2192SOL     OW 7474   5.061   1.117   2.348
 2192SOL    HW1 7475   5.128   1.157   2.410
 2192SOL    HW2 7476   4.983   1.179   2.337
 2193SOL     OW 7477   5.518   6.540   6.773
 2193SOL    HW1 7478   5.617   6.540   6.753
 2193SOL    HW2 7479   5.471   6.594   6.704
 2194SOL     OW 7480   2.124   4.614   6.045
 2194SOL    HW1 7481   2.198   4.654   5.990
 2194SOL    HW2 7482   2.057   4.571   5.985
 2195SOL     OW 7483   0.107   6.970   5.171
 2195SOL    HW1 7484   0.014   6.955   5.136
 2195SOL    HW2 7485   0.109   0.029   5.228
 2196SOL     OW 7486   4.101   0.446   4.697
 2196SOL    HW1 7487   4.055   0.534   4.690
 2196SOL    HW2 7488   4.185   0.457   4.751
 2197SOL     OW 7489   2.855   3.296   0.239
 2197SOL    HW1 7490   2.885   3.223   0.177
 2197SOL    HW2 7491   2.841   3.380   0.186
 2198SOL     OW 7492   5.572   0.132   0.918
 2198SOL    HW1 7493   5.649   0.166   0.973
 2198SOL    HW2 7494   5.606   0.100   0.830
 2199SOL     OW 7495   5.421   6.768   3.497
 2199SOL    HW1 7496   5.414   6.728   3.588
 2199SOL    HW2 7497   5.329   6.785   3.461
 2200SOL     OW 7498   2.486   2.079   3.986
 2200SOL    HW1 7499   2.473   2.025   4.069
 2200SOL    HW2 7500   2.424   2.158   3.988
 2201SOL     OW 7501   6.309   2.752   3.401
 2201SOL    HW1 7502   6.261   2.828   3.445
 2201SOL    HW2 7503   6.407   2.767   3.406
 2202SOL     OW 7504   3.322   5.653   2.238
 2202SOL    HW1 7505   3.329   5.746   2.200
 2202SOL    HW2 7506   3.240   5.646   2.294
 2203SOL     OW 7507   1.965   2.738   0.785
 2203SOL    HW1 7508   2.056   2.738   0.826
 2203SOL    HW2 7509   1.918   2.823   0.809
 2204SOL     OW 7510   4.828   1.820   1.126
 2204SOL    HW1 7511   4.813   1.721   1.119
 2204SOL    HW2 7512   4.791   1.854   1.212
 2205SOL     OW 7513   0.500   6.485   6.289
 2205SOL    HW1 7514   0.531   6.560   6.346
 2205SOL    HW2 7515   0.578   6.437   6.250
 2206SOL     OW 7516   3.677   5.432   5.921
 2206SOL    HW1 7517   3.707   5.440   6.016
 2206SOL    HW2 7518   3.707   5.345   5.882
 2207SOL     OW 7519   2.785   5.393   6.590
 2207SOL    HW1 7520   2.884   5.380   6.603
 2207SOL    HW2 7521   2.760   5.366   6.497
 2208SOL     OW 7522   1.401   5.287   2.946
 2208SOL    HW1 7523   1.323   5.338   2.912
 2208SOL    HW2 7524   1.439   5.333   3.026
 2209SOL     OW 7525   1.446   0.274   5.715
 2209SOL    HW1 7526   1.499   0.262   5.630
 2209SOL    HW2 7527   1.350   0.252   5.697
 2210SOL     OW 7528   6.976   4.586   4.232
 2210SOL    HW1 7529   0.038   4.547   4.197
 2210SOL    HW2 7530   6.898   4.541   4.189
 2211SOL     OW 7531   6.694   0.243   0.455
 2211SOL    HW1 7532   6.619   0.181   0.433
 2211SOL    HW2 7533   6.674   0.334   0.419
 2212SOL     OW 7534   2.447   5.781   0.641
 2212SOL    HW1 7535   2.527   5.795   0.582
 2212SOL    HW2 7536   2.421   5.685   0.639
 2213SOL     OW 7537   3.091   1.549   4.981
 2213SOL    HW1 7538   3.092   1.458   4.940
 2213SOL    HW2 7539   3.028   1.608   4.930
 2214SOL     OW 7540   3.490   4.002   5.064
 2214SOL    HW1 7541   3.407   3.970   5.019
 2214SOL    HW2 7542   3.524   4.084   5.018
 2215SOL     OW 7543   5.835   1.566   6.935
 2215SOL    HW1 7544   5.908   1.510   6.975
 2215SOL    HW2 7545   5.789   1.618   7.008
 2216SOL     OW 7546   1.314   1.015   6.563
 2216SOL    HW1 7547   1.239   0.954   6.541
 2216SOL    HW2 7548   1.291   1.067   6.646
 2217SOL     OW 7549   3.851   6.809   2.298
 2217SOL    HW1 7550   3.895   6.887   2.342
 2217SOL    HW2 7551   3.783   6.841   2.232
 2218SOL     OW 7552   6.336   5.055   6.722
 2218SOL    HW1 7553   6.285   5.138   6.698
 2218SOL    HW2 7554   6.286   5.006   6.794
 2219SOL     OW 7555   5.384   1.692   0.692
 2219SOL    HW1 7556   5.374   1.773   0.635
 2219SOL    HW2 7557   5.335   1.706   0.778
 2220SOL     OW 7558   2.149   6.859   4.913
 2220SOL    HW1 7559   2.134   6.831   5.008
 2220SOL    HW2 7560   2.247   6.856   4.892
 2221SOL     OW 7561   6.089   1.562   5.484
 2221SOL    HW1 7562   6.099   1.632   5.413
 2221SOL    HW2 7563   6.150   1.583   5.560
 2222SOL     OW 7564   5.489   0.674   0.378
 2222SOL    HW1 7565   5.464   0.662   0.474
 2222SOL    HW2 7566   5.448   0.600   0.324
 2223SOL     OW 7567   5.753   1.346   5.211
 2223SOL    HW1 7568   5.771   1.327   5.114
 2223SOL    HW2 7569   5.823   1.301   5.267
 2224SOL     OW 7570   6.882   3.263   1.017
 2224SOL    HW1 7571   6.857   3.353   1.053
 2224SOL    HW2 7572   6.971   3.269   0.971
 2225SOL     OW 7573   6.188   6.939   3.616
 2225SOL    HW1 7574   6.163   6.931   3.713
 2225SOL    HW2 7575   6.276   6.985   3.608
 2226SOL     OW 7576   3.912   5.062   0.835
 2226SOL    HW1 7577   3.988   5.063   0.770
 2226SOL    HW2 7578   3.826   5.050   0.786
 2227SOL     OW 7579   5.626   3.154   0.054
 2227SOL    HW1 7580   5.659   3.194   0.140
 2227SOL    HW2 7581   5.526   3.162   0.050
 2228SOL     OW 7582   3.932   5.314   1.266
 2228SOL    HW1 7583   3.908   5.322   1.363
 2228SOL    HW2 7584   4.031   5.300   1.257
 2229SOL     OW 7585   4.338   2.545   5.451
 2229SOL    HW1 7586   4.278   2.622   5.431
 2229SOL    HW2 7587   4.336   2.525   5.549
 2230SOL     OW 7588   5.931   6.488   0.437
 2230SOL    HW1 7589   5.947   6.555   0.364
 2230SOL    HW2 7590   6.008   6.424   0.440
 2231SOL     OW 7591   0.373   0.892   1.536
 2231SOL    HW1 7592   0.327   0.950   1.603
 2231SOL    HW2 7593   0.445   0.839   1.581
 2232SOL     OW 7594   1.181   2.502   4.827
 2232SOL    HW1 7595   1.120   2.458   4.761
 2232SOL    HW2 7596   1.137   2.503   4.917
 2233SOL     OW 7597   1.876   2.987   0.151
 2233SOL    HW1 7598   1.964   2.999   0.106
 2233SOL    HW2 7599   1.809   2.953   0.084
 2234SOL     OW 7600   4.242   1.596   1.871
 2234SOL    HW1 7601   4.280   1.635   1.787
 2234SOL    HW2 7602   4.193   1.667   1.922
 2235SOL     OW 7603   3.019   0.185   1.439
 2235SOL    HW1 7604   3.037   0.100   1.390
 2235SOL    HW2 7605   3.059   0.261   1.389
 2236SOL     OW 7606   2.405   4.203   6.388
 2236SOL    HW1 7607   2.334   4.165   6.329
 2236SOL    HW2 7608   2.495   4.188   6.346
 2237SOL     OW 7609   6.007   4.637   3.770
 2237SOL    HW1 7610   5.958   4.585   3.700
 2237SOL    HW2 7611   6.036   4.725   3.732
 2238SOL     OW 7612   4.690   4.670   1.644
 2238SOL    HW1 7613   4.602   4.717   1.637
 2238SOL    HW2 7614   4.674   4.574   1.667
 2239SOL     OW 7615   3.779   5.001   4.312
 2239SOL    HW1 7616   3.687   5.012   4.274
 2239SOL    HW2 7617   3.774   4.953   4.399
 2240SOL     OW 7618   3.909   5.802   3.520
 2240SOL    HW1 7619   3.917   5.901   3.516
 2240SOL    HW2 7620   3.883   5.774   3.612
 2241SOL     OW 7621   0.930   5.591   3.334
 2241SOL    HW1 7622   0.962   5.663   3.396
 2241SOL    HW2 7623   0.911   5.631   3.245
 2242SOL     OW 7624   5.745   3.375   2.529
 2242SOL    HW1 7625   5.715   3.282   2.509
 2242SOL    HW2 7626   5.677   3.440   2.493
 2243SOL     OW 7627   1.383   6.637   5.936
 2243SOL    HW1 7628   1.328   6.697   5.877
 2243SOL    HW2 7629   1.326   6.561   5.968
 2244SOL     OW 7630   2.136   6.225   1.664
 2244SOL    HW1 7631   2.136   6.136   1.709
 2244SOL    HW2 7632   2.190   6.290   1.718
 2245SOL     OW 7633   0.733   1.960   1.108
 2245SOL    HW1 7634   0.698   1.868   1.127
 2245SOL    HW2 7635   0.833   1.957   1.105
 2246SOL     OW 7636   1.563   1.009   4.657
 2246SOL    HW1 7637   1.642   1.061   4.688
 2246SOL    HW2 7638   1.507   1.065   4.596
 2247SOL     OW 7639   3.383   2.909   3.981
 2247SOL    HW1 7640   3.461   2.873   4.032
 2247SOL    HW2 7641   3.413   2.934   3.889
 2248SOL     OW 7642   6.530   3.859   5.463
 2248SOL    HW1 7643   6.444   3.840   5.510
 2248SOL    HW2 7644   6.563   3.950   5.488
 2249SOL     OW 7645   5.640   6.558   3.807
 2249SOL    HW1 7646   5.710   6.625   3.830
 2249SOL    HW2 7647   5.674   6.499   3.733
 2250SOL     OW 7648   3.451   3.691   5.555
 2250SOL    HW1 7649   3.390   3.767   5.575
 2250SOL    HW2 7650   3.416   3.640   5.476
 2251SOL     OW 7651   5.045   0.518   6.408
 2251SOL    HW1 7652   5.121   0.550   6.351
 2251SOL    HW2 7653   5.060   0.422   6.432
 2252SOL     OW 7654   4.816   2.531   2.349
 2252SOL    HW1 7655   4.831   2.471   2.270
 2252SOL    HW2 7656   4.882   2.509   2.421
 2253SOL     OW 7657   0.245   3.933   6.763
 2253SOL    HW1 7658   0.313   3.874   6.720
 2253SOL    HW2 7659   0.204   3.886   6.841
 2254SOL     OW 7660   3.642   2.841   5.086
 2254SOL    HW1 7661   3.565   2.883   5.134
 2254SOL    HW2 7662   3.608   2.781   5.014
 2255SOL     OW 7663   4.273   3.335   6.006
 2255SOL    HW1 7664   4.196   3.277   6.030
 2255SOL    HW2 7665   4.337   3.340   6.083
 2256SOL     OW 7666   4.584   5.983   2.107
 2256SOL    HW1 7667   4.589   6.081   2.089
 2256SOL    HW2 7668   4.521   5.941   2.042
 2257SOL     OW 7669   0.370   2.702   4.217
 2257SOL    HW1 7670   0.443   2.655   4.168
 2257SOL    HW2 7671   0.339   2.645   4.293
 2258SOL     OW 7672   1.611   5.197   4.657
 2258SOL    HW1 7673   1.543   5.226   4.725
 2258SOL    HW2 7674   1.584   5.231   4.567
 2259SOL     OW 7675   5.214   3.656   6.295
 2259SOL    HW1 7676   5.205   3.716   6.374
 2259SOL    HW2 7677   5.215   3.560   6.325
 2260SOL     OW 7678   0.190   4.138   1.362
 2260SOL    HW1 7679   0.210   4.202   1.436
 2260SOL    HW2 7680   0.195   4.045   1.397
 2261SOL     OW 7681   5.889   5.051   0.110
 2261SOL    HW1 7682   5.906   5.023   0.205
 2261SOL    HW2 7683   5.806   5.006   0.077
 2262SOL     OW 7684   5.718   0.909   3.487
 2262SOL    HW1 7685   5.750   0.849   3.414
 2262SOL    HW2 7686   5.698   0.855   3.569
 2263SOL     OW 7687   3.062   6.270   6.689
 2263SOL    HW1 7688   2.976   6.314   6.713
 2263SOL    HW2 7689   3.097   6.309   6.604
 2264SOL     OW 7690   2.641   4.843   0.314
 2264SOL    HW1 7691   2.658   4.917   0.249
 2264SOL    HW2 7692   2.727   4.817   0.358
 2265SOL     OW 7693   1.244   0.716   4.199
 2265SOL    HW1 7694   1.318   0.783   4.214
 2265SOL    HW2 7695   1.254   0.676   4.109
 2266SOL     OW 7696   5.054   1.885   0.022
 2266SOL    HW1 7697   5.101   1.805   0.058
 2266SOL    HW2 7698   5.020   1.941   0.098
 2267SOL     OW 7699   4.808   1.999   5.077
 2267SOL    HW1 7700   4.713   1.987   5.049
 2267SOL    HW2 7701   4.829   2.097   5.084
 2268SOL     OW 7702   6.318   4.145   0.300
 2268SOL    HW1 7703   6.267   4.146   0.386
 2268SOL    HW2 7704   6.410   4.181   0.316
 2269SOL     OW 7705   6.480   4.747   5.455
 2269SOL    HW1 7706   6.530   4.832   5.473
 2269SOL    HW2 7707   6.385   4.769   5.430
 2270SOL     OW 7708   2.951   3.007   6.025
 2270SOL    HW1 7709   2.958   3.075   6.099
 2270SOL    HW2 7710   2.949   2.915   6.064
 2271SOL     OW 7711   5.392   4.040   0.385
 2271SOL    HW1 7712   5.346   4.062   0.470
 2271SOL    HW2 7713   5.450   4.116   0.356
 2272SOL     OW 7714   6.330   2.806   6.307
 2272SOL    HW1 7715   6.423   2.782   6.336
 2272SOL    HW2 7716   6.278   2.723   6.289
 2273SOL     OW 7717   1.734   1.761   2.270
 2273SOL    HW1 7718   1.644   1.773   2.312
 2273SOL    HW2 7719   1.795   1.713   2.333
 2274SOL     OW 7720   0.194   2.527   6.375
 2274SOL    HW1 7721   0.244   2.513   6.461
 2274SOL    HW2 7722   0.099   2.552   6.395
 2275SOL     OW 7723   6.636   0.133   4.233
 2275SOL    HW1 7724   6.731   0.135   4.264
 2275SOL    HW2 7725   6.575   0.138   4.312
 2276SOL     OW 7726   1.974   5.510   1.100
 2276SOL    HW1 7727   1.881   5.520   1.137
 2276SOL    HW2 7728   1.995   5.412   1.091
 2277SOL     OW 7729   3.821   3.604   4.357
 2277SOL    HW1 7730   3.745   3.644   4.409
 2277SOL    HW2 7731   3.785   3.540   4.289
 2278SOL     OW 7732   6.465   4.613   4.362
 2278SOL    HW1 7733   6.395   4.680   4.386
 2278SOL    HW2 7734   6.438   4.565   4.278
 2279SOL     OW 7735   5.808   6.646   5.619
 2279SOL    HW1 7736   5.720   6.633   5.575
 2279SOL    HW2 7737   5.801   6.717   5.689
 2280SOL     OW 7738   6.849   6.996   4.385
 2280SOL    HW1 7739   6.945   6.998   4.358
 2280SOL    HW2 7740   6.820   6.902   4.400
 2281SOL     OW 7741   3.301   1.577   2.265
 2281SOL    HW1 7742   3.261   1.640   2.331
 2281SOL    HW2 7743   3.379   1.621   2.220
 2282SOL     OW 7744   5.400   0.511   5.331
 2282SOL    HW1 7745   5.362   0.604   5.327
 2282SOL    HW2 7746   5.402   0.471   5.240
 2283SOL     OW 7747   0.678   5.153   1.274
 2283SOL    HW1 7748   0.751   5.116   1.332
 2283SOL    HW2 7749   0.671   5.252   1.288
 2284SOL     OW 7750   1.252   2.874   6.696
 2284SOL    HW1 7751   1.294   2.835   6.778
 2284SOL    HW2 7752   1.320   2.878   6.623
 2285SOL     OW 7753   2.080   2.164   1.100
 2285SOL    HW1 7754   2.080   2.241   1.164
 2285SOL    HW2 7755   1.991   2.119   1.102
 2286SOL     OW 7756   6.709   0.211   3.530
 2286SOL    HW1 7757   6.772   0.158   3.587
 2286SOL    HW2 7758   6.761   0.263   3.462
 2287SOL     OW 7759   2.028   0.738   3.310
 2287SOL    HW1 7760   2.111   0.683   3.317
 2287SOL    HW2 7761   2.026   0.783   3.221
 2288SOL     OW 7762   6.227   4.816   4.348
 2288SOL    HW1 7763   6.211   4.853   4.439
 2288SOL    HW2 7764   6.224   4.890   4.280
 2289SOL     OW 7765   0.992   4.835   1.759
 2289SOL    HW1 7766   1.038   4.922   1.746
 2289SOL    HW2 7767   0.903   4.836   1.713
 2290SOL     OW 7768   0.647   4.245   0.374
 2290SOL    HW1 7769   0.740   4.209   0.374
 2290SOL    HW2 7770   0.628   4.288   0.463
 2291SOL     OW 7771   2.651   2.665   5.817
 2291SOL    HW1 7772   2.653   2.583   5.761
 2291SOL    HW2 7773   2.651   2.746   5.758
 2292SOL     OW 7774   6.967   2.248   4.805
 2292SOL    HW1 7775   6.994   2.336   4.768
 2292SOL    HW2 7776   6.884   2.216   4.760
 2293SOL     OW 7777   4.649   6.276   1.424
 2293SOL    HW1 7778   4.741   6.238   1.422
 2293SOL    HW2 7779   4.582   6.202   1.420
 2294SOL     OW 7780   3.382   0.236   6.981
 2294SOL    HW1 7781   3.458   0.302   6.988
 2294SOL    HW2 7782   3.296   0.282   7.003
 2295SOL     OW 7783   0.911   2.119   2.822
 2295SOL    HW1 7784   0.880   2.032   2.863
 2295SOL    HW2 7785   0.831   2.178   2.808
 2296SOL     OW 7786   4.385   5.094   1.042
 2296SOL    HW1 7787   4.355   5.015   1.094
 2296SOL    HW2 7788   4.474   5.125   1.077
 2297SOL     OW 7789   4.070   4.247   5.586
 2297SOL    HW1 7790   3.997   4.245   5.518
 2297SOL    HW2 7791   4.034   4.212   5.673
 2298SOL     OW 7792   4.031   3.097   1.565
 2298SOL    HW1 7793   3.990   3.182   1.597
 2298SOL    HW2 7794   4.117   3.117   1.518
 2299SOL     OW 7795   4.410   5.935   5.341
 2299SOL    HW1 7796   4.428   5.923   5.244
 2299SOL    HW2 7797   4.414   6.033   5.363
 2300SOL     OW 7798   2.500   5.897   1.823
 2300SOL    HW1 7799   2.438   5.863   1.752
 2300SOL    HW2 7800   2.581   5.839   1.827
 2301SOL     OW 7801   3.139   2.982   3.006
 2301SOL    HW1 7802   3.075   3.053   3.036
 2301SOL    HW2 7803   3.192   3.016   2.929
 2302SOL     OW 7804   3.613   0.085   1.107
 2302SOL    HW1 7805   3.608   0.133   1.019
 2302SOL    HW2 7806   3.671   0.137   1.170
 2303SOL     OW 7807   2.768   2.864   6.428
 2303SOL    HW1 7808   2.769   2.849   6.527
 2303SOL    HW2 7809   2.682   2.828   6.390
 2304SOL     OW 7810   4.788   0.185   3.708
 2304SOL    HW1 7811   4.695   0.207   3.679
 2304SOL    HW2 7812   4.811   0.236   3.791
 2305SOL     OW 7813   2.521   6.587   3.269
 2305SOL    HW1 7814   2.435   6.545   3.237
 2305SOL    HW2 7815   2.509   6.623   3.361
 2306SOL     OW 7816   3.136   5.243   2.616
 2306SOL    HW1 7817   3.102   5.153   2.589
 2306SOL    HW2 7818   3.150   5.299   2.535
 2307SOL     OW 7819   6.606   3.860   2.558
 2307SOL    HW1 7820   6.564   3.930   2.500
 2307SOL    HW2 7821   6.580   3.770   2.524
 2308SOL     OW 7822   1.026   5.474   0.911
 2308SOL    HW1 7823   1.020   5.414   0.832
 2308SOL    HW2 7824   0.987   5.428   0.991
 2309SOL     OW 7825   1.250   0.452   6.606
 2309SOL    HW1 7826   1.280   0.469   6.512
 2309SOL    HW2 7827   1.235   0.354   6.619
 2310SOL     OW 7828   5.018   6.529   1.356
 2310SOL    HW1 7829   4.949   6.509   1.426
 2310SOL    HW2 7830   4.977   6.521   1.265
 2311SOL     OW 7831   2.262   5.902   2.049
 2311SOL    HW1 7832   2.361   5.912   2.057
 2311SOL    HW2 7833   2.218   5.985   2.085
 2312SOL     OW 7834   3.778   6.610   4.157
 2312SOL    HW1 7835   3.691   6.640   4.197
 2312SOL    HW2 7836   3.782   6.641   4.062
 2313SOL     OW 7837   5.251   5.492   1.455
 2313SOL    HW1 7838   5.271   5.401   1.492
 2313SOL    HW2 7839   5.153   5.512   1.466
 2314SOL     OW 7840   6.014   0.094   4.648
 2314SOL    HW1 7841   6.083   0.123   4.715
 2314SOL    HW2 7842   5.966   0.175   4.614
 2315SOL     OW 7843   4.823   3.124   5.407
 2315SOL    HW1 7844   4.879   3.064   5.349
 2315SOL    HW2 7845   4.858   3.122   5.501
 2316SOL     OW 7846   3.330   0.560   4.547
 2316SOL    HW1 7847   3.278   0.626   4.601
 2316SOL    HW2 7848   3.304   0.467   4.574
 2317SOL     OW 7849   0.611   6.151   3.734
 2317SOL    HW1 7850   0.642   6.134   3.641
 2317SOL    HW2 7851   0.682   6.198   3.785
 2318SOL     OW 7852   1.901   2.969   4.674
 2318SOL    HW1 7853   1.985   3.008   4.711
 2318SOL    HW2 7854   1.860   2.908   4.741
 2319SOL     OW 7855   2.110   4.987   4.419
 2319SOL    HW1 7856   2.093   4.888   4.416
 2319SOL    HW2 7857   2.088   5.022   4.510
 2320SOL     OW 7858   0.550   2.908   4.806
 2320SOL    HW1 7859   0.450   2.911   4.811
 2320SOL    HW2 7860   0.577   2.870   4.718
 2321SOL     OW 7861   2.316   6.358   7.017
 2321SOL    HW1 7862   2.329   6.284   0.061
 2321SOL    HW2 7863   2.289   6.441   0.042
 2322SOL     OW 7864   1.943   2.365   3.735
 2322SOL    HW1 7865   1.851   2.394   3.709
 2322SOL    HW2 7866   1.982   2.310   3.662
 2323SOL     OW 7867   3.066   5.123   1.993
 2323SOL    HW1 7868   3.161   5.141   1.969
 2323SOL    HW2 7869   3.053   5.025   2.008
 2324SOL     OW 7870   6.688   6.670   0.942
 2324SOL    HW1 7871   6.606   6.711   0.981
 2324SOL    HW2 7872   6.757   6.660   1.014
 2325SOL     OW 7873   0.724   4.755   1.177
 2325SOL    HW1 7874   0.700   4.675   1.122
 2325SOL    HW2 7875   0.642   4.792   1.220
 2326SOL     OW 7876   4.149   5.196   6.284
 2326SOL    HW1 7877   4.185   5.106   6.311
 2326SOL    HW2 7878   4.141   5.200   6.185
 2327SOL     OW 7879   6.734   2.490   3.844
 2327SOL    HW1 7880   6.653   2.544   3.867
 2327SOL    HW2 7881   6.710   2.393   3.839
 2328SOL     OW 7882   2.428   1.793   3.008
 2328SOL    HW1 7883   2.480   1.708   3.005
 2328SOL    HW2 7884   2.485   1.865   3.047
 2329SOL     OW 7885   1.941   4.339   4.761
 2329SOL    HW1 7886   1.953   4.337   4.662
 2329SOL    HW2 7887   2.027   4.365   4.805
 2330SOL     OW 7888   0.858   3.838   1.141
 2330SOL    HW1 7889   0.830   3.873   1.051
 2330SOL    HW2 7890   0.781   3.791   1.184
 2331SOL     OW 7891   4.077   5.553   6.724
 2331SOL    HW1 7892   4.067   5.519   6.630
 2331SOL    HW2 7893   4.026   5.494   6.787
 2332SOL     OW 7894   4.747   1.642   5.253
 2332SOL    HW1 7895   4.736   1.725   5.309
 2332SOL    HW2 7896   4.804   1.663   5.174
 2333SOL     OW 7897   0.386   4.689   2.966
 2333SOL    HW1 7898   0.295   4.666   2.931
 2333SOL    HW2 7899   0.454   4.671   2.895
 2334SOL     OW 7900   2.203   0.598   0.386
 2334SOL    HW1 7901   2.200   0.514   0.440
 2334SOL    HW2 7902   2.281   0.594   0.323
 2335SOL     OW 7903   6.663   0.507   2.577
 2335SOL    HW1 7904   6.597   0.433   2.590
 2335SOL    HW2 7905   6.684   0.516   2.480
 2336SOL     OW 7906   4.695   2.552   4.971
 2336SOL    HW1 7907   4.648   2.476   4.927
 2336SOL    HW2 7908   4.629   2.608   5.020
 2337SOL     OW 7909   4.695   1.147   2.144
 2337SOL    HW1 7910   4.744   1.196   2.071
 2337SOL    HW2 7911   4.687   1.050   2.119
 2338SOL     OW 7912   1.688   2.249   5.436
 2338SOL    HW1 7913   1.761   2.316   5.448
 2338SOL    HW2 7914   1.714   2.163   5.479
 2339SOL     OW 7915   3.523   3.870   4.667
 2339SOL    HW1 7916   3.610   3.856   4.715
 2339SOL    HW2 7917   3.488   3.961   4.688
 2340SOL     OW 7918   5.784   4.568   0.217
 2340SOL    HW1 7919   5.741   4.484   0.183
 2340SOL    HW2 7920   5.833   4.612   0.142
 2341SOL     OW 7921   4.543   4.893   1.305
 2341SOL    HW1 7922   4.475   4.922   1.238
 2341SOL    HW2 7923   4.539   4.954   1.384
 2342SOL     OW 7924   7.018   6.913   5.478
 2342SOL    HW1 7925   7.002   6.814   5.482
 2342SOL    HW2 7926   7.002   6.953   5.568
 2343SOL     OW 7927   2.478   5.472   2.475
 2343SOL    HW1 7928   2.413   5.548   2.480
 2343SOL    HW2 7929   2.451   5.409   2.403
 2344SOL     OW 7930   1.970   6.897   0.479
 2344SOL    HW1 7931   2.009   6.808   0.458
 2344SOL    HW2 7932   1.927   6.895   0.570
 2345SOL     OW 7933   2.928   5.075   4.534
 2345SOL    HW1 7934   2.870   5.109   4.460
 2345SOL    HW2 7935   2.950   5.151   4.596
 2346SOL     OW 7936   4.592   2.876   5.133
 2346SOL    HW1 7937   4.664   2.881   5.063
 2346SOL    HW2 7938   4.579   2.966   5.174
 2347SOL     OW 7939   2.600   3.385   1.727
 2347SOL    HW1 7940   2.641   3.462   1.677
 2347SOL    HW2 7941   2.516   3.415   1.772
 2348SOL     OW 7942   3.735   6.703   3.871
 2348SOL    HW1 7943   3.795   6.668   3.800
 2348SOL    HW2 7944   3.653   6.646   3.877
 2349SOL     OW 7945   0.946   4.285   6.016
 2349SOL    HW1 7946   1.037   4.313   5.983
 2349SOL    HW2 7947   0.948   4.277   6.115
 2350SOL     OW 7948   4.706   6.219   6.378
 2350SOL    HW1 7949   4.720   6.260   6.469
 2350SOL    HW2 7950   4.609   6.221   6.355
 2351SOL     OW 7951   3.101   4.897   3.323
 2351SOL    HW1 7952   3.108   4.876   3.420
 2351SOL    HW2 7953   3.191   4.925   3.289
 2352SOL     OW 7954   0.532   4.961   1.624
 2352SOL    HW1 7955   0.570   5.002   1.706
 2352SOL    HW2 7956   0.520   5.032   1.554
 2353SOL     OW 7957   3.363   4.603   5.343
 2353SOL    HW1 7958   3.282   4.545   5.341
 2353SOL    HW2 7959   3.359   4.669   5.268
 2354SOL     OW 7960   2.372   1.118   5.632
 2354SOL    HW1 7961   2.307   1.149   5.702
 2354SOL    HW2 7962   2.378   1.187   5.560
 2355SOL     OW 7963   1.960   5.899   0.407
 2355SOL    HW1 7964   2.054   5.880   0.378
 2355SOL    HW2 7965   1.946   5.864   0.499
 2356SOL     OW 7966   1.779   4.100   0.314
 2356SOL    HW1 7967   1.825   4.154   0.384
 2356SOL    HW2 7968   1.709   4.042   0.357
 2357SOL     OW 7969   4.481   6.328   3.770
 2357SOL    HW1 7970   4.448   6.254   3.829
 2357SOL    HW2 7971   4.421   6.336   3.690
 2358SOL     OW 7972   4.024   5.146   5.247
 2358SOL    HW1 7973   4.104   5.104   5.204
 2358SOL    HW2 7974   3.942   5.120   5.197
 2359SOL     OW 7975   0.200   0.703   6.039
 2359SOL    HW1 7976   0.192   0.615   6.086
 2359SOL    HW2 7977   0.146   0.772   6.088
 2360SOL     OW 7978   5.651   5.070   6.505
 2360SOL    HW1 7979   5.717   5.039   6.437
 2360SOL    HW2 7980   5.641   5.169   6.498
 2361SOL     OW 7981   2.658   0.946   4.959
 2361SOL    HW1 7982   2.608   0.937   4.873
 2361SOL    HW2 7983   2.594   0.959   5.034
 2362SOL     OW 7984   2.547   0.585   5.262
 2362SOL    HW1 7985   2.587   0.619   5.177
 2362SOL    HW2 7986   2.561   0.486   5.269
 2363SOL     OW 7987   4.254   2.244   5.386
 2363SOL    HW1 7988   4.253   2.144   5.378
 2363SOL    HW2 7989   4.203   2.272   5.467
 2364SOL     OW 7990   0.698   1.907   2.452
 2364SOL    HW1 7991   0.727   1.998   2.483
 2364SOL    HW2 7992   0.676   1.910   2.355
 2365SOL     OW 7993   5.857   2.848   6.777
 2365SOL    HW1 7994   5.768   2.860   6.821
 2365SOL    HW2 7995   5.843   2.834   6.678
 2366SOL     OW 7996   1.525   4.649   6.252
 2366SOL    HW1 7997   1.459   4.690   6.315
 2366SOL    HW2 7998   1.533   4.705   6.170
 2367SOL     OW 7999   3.298   4.458   0.846
 2367SOL    HW1 8000   3.256   4.374   0.812
 2367SOL    HW2 8001   3.242   4.496   0.920
 2368SOL     OW 8002   4.699   6.853   2.713
 2368SOL    HW1 8003   4.724   6.761   2.743
 2368SOL    HW2 8004   4.771   6.917   2.739
 2369SOL     OW 8005   1.032   2.973   5.831
 2369SOL    HW1 8006   1.072   2.882   5.824
 2369SOL    HW2 8007   0.980   2.993   5.748
 2370SOL     OW 8008   4.650   4.235   6.850
 2370SOL    HW1 8009   4.559   4.274   6.837
 2370SOL    HW2 8010   4.692   4.218   6.760
 2371SOL     OW 8011   0.634   6.455   2.398
 2371SOL    HW1 8012   0.681   6.531   2.353
 2371SOL    HW2 8013   0.563   6.420   2.337
 2372SOL     OW 8014   6.601   2.220   1.327
 2372SOL    HW1 8015   6.636   2.275   1.403
 2372SOL    HW2 8016   6.675   2.166   1.288
 2373SOL     OW 8017   0.384   0.766   0.265
 2373SOL    HW1 8018   0.414   0.684   0.216
 2373SOL    HW2 8019   0.308   0.742   0.326
 2374SOL     OW 8020   6.255   1.019   3.744
 2374SOL    HW1 8021   6.247   1.064   3.832
 2374SOL    HW2 8022   6.295   0.928   3.757
 2375SOL     OW 8023   2.293   6.943   4.196
 2375SOL    HW1 8024   2.232   7.021   4.210
 2375SOL    HW2 8025   2.326   6.910   4.284
 2376SOL     OW 8026   6.344   2.642   4.664
 2376SOL    HW1 8027   6.271   2.581   4.632
 2376SOL    HW2 8028   6.430   2.616   4.621
 2377SOL     OW 8029   3.207   4.111   2.968
 2377SOL    HW1 8030   3.123   4.165   2.964
 2377SOL    HW2 8031   3.198   4.030   2.910
 2378SOL     OW 8032   4.979   2.943   0.195
 2378SOL    HW1 8033   4.974   2.898   0.284
 2378SOL    HW2 8034   4.923   3.026   0.197
 2379SOL     OW 8035   5.669   2.371   6.302
 2379SOL    HW1 8036   5.589   2.384   6.360
 2379SOL    HW2 8037   5.743   2.431   6.335
 2380SOL     OW 8038   0.212   0.081   5.860
 2380SOL    HW1 8039   0.291   0.088   5.799
 2380SOL    HW2 8040   0.220   7.022   5.916
 2381SOL     OW 8041   2.154   3.826   4.517
 2381SOL    HW1 8042   2.071   3.873   4.488
 2381SOL    HW2 8043   2.234   3.882   4.495
 2382SOL     OW 8044   2.188   4.293   3.709
 2382SOL    HW1 8045   2.261   4.308   3.775
 2382SOL    HW2 8046   2.181   4.195   3.689
 2383SOL     OW 8047   5.767   6.494   1.003
 2383SOL    HW1 8048   5.755   6.591   0.982
 2383SOL    HW2 8049   5.683   6.444   0.982
 2384SOL     OW 8050   6.619   6.631   2.104
 2384SOL    HW1 8051   6.537   6.646   2.160
 2384SOL    HW2 8052   6.596   6.569   2.029
 2385SOL     OW 8053   0.042   6.413   1.088
 2385SOL    HW1 8054   0.018   6.398   0.993
 2385SOL    HW2 8055   0.133   6.454   1.094
 2386SOL     OW 8056   5.289   5.574   4.289
 2386SOL    HW1 8057   5.282   5.666   4.326
 2386SOL    HW2 8058   5.262   5.574   4.193
 2387SOL     OW 8059   1.076   1.369   3.918
 2387SOL    HW1 8060   1.029   1.428   3.853
 2387SOL    HW2 8061   1.139   1.424   3.973
 2388SOL     OW 8062   1.897   2.014   2.783
 2388SOL    HW1 8063   1.857   1.978   2.868
 2388SOL    HW2 8064   1.877   1.951   2.708
 2389SOL     OW 8065   5.410   3.696   3.302
 2389SOL    HW1 8066   5.355   3.621   3.339
 2389SOL    HW2 8067   5.398   3.701   3.203
 2390SOL     OW 8068   3.713   3.640   3.197
 2390SOL    HW1 8069   3.689   3.703   3.271
 2390SOL    HW2 8070   3.694   3.546   3.226
 2391SOL     OW 8071   5.121   5.184   5.824
 2391SOL    HW1 8072   5.084   5.094   5.801
 2391SOL    HW2 8073   5.089   5.251   5.758
 2392SOL     OW 8074   3.573   0.188   5.328
 2392SOL    HW1 8075   3.519   0.115   5.369
 2392SOL    HW2 8076   3.657   0.202   5.381
 2393SOL     OW 8077   4.300   4.600   6.166
 2393SOL    HW1 8078   4.359   4.610   6.246
 2393SOL    HW2 8079   4.222   4.541   6.189
 2394SOL     OW 8080   2.075   3.674   4.758
 2394SOL    HW1 8081   2.131   3.718   4.688
 2394SOL    HW2 8082   1.996   3.630   4.715
 2395SOL     OW 8083   5.942   2.454   6.371
 2395SOL    HW1 8084   5.965   2.530   6.310
 2395SOL    HW2 8085   6.021   2.393   6.380
 2396SOL     OW 8086   3.962   5.424   1.701
 2396SOL    HW1 8087   3.979   5.520   1.677
 2396SOL    HW2 8088   3.876   5.395   1.660
 2397SOL     OW 8089   0.399   4.146   6.822
 2397SOL    HW1 8090   0.349   4.067   6.787
 2397SOL    HW2 8091   0.340   4.197   6.885
 2398SOL     OW 8092   3.050   3.995   6.477
 2398SOL    HW1 8093   3.094   3.905   6.480
 2398SOL    HW2 8094   3.113   4.062   6.438
 2399SOL     OW 8095   4.848   1.305   2.313
 2399SOL    HW1 8096   4.785   1.342   2.380
 2399SOL    HW2 8097   4.800   1.241   2.252
 2400SOL     OW 8098   3.989   5.307   0.639
 2400SOL    HW1 8099   3.890   5.318   0.642
 2400SOL    HW2 8100   4.023   5.283   0.730
 2401SOL     OW 8101   4.454   6.723   6.365
 2401SOL    HW1 8102   4.407   6.652   6.417
 2401SOL    HW2 8103   4.482   6.796   6.428
 2402SOL     OW 8104   0.662   1.059   4.230
 2402SOL    HW1 8105   0.632   1.149   4.198
 2402SOL    HW2 8106   0.641   0.991   4.161
 2403SOL     OW 8107   2.328   2.294   0.878
 2403SOL    HW1 8108   2.423   2.291   0.847
 2403SOL    HW2 8109   2.320   2.248   0.966
 2404SOL     OW 8110   5.405   0.620   1.255
 2404SOL    HW1 8111   5.387   0.710   1.216
 2404SOL    HW2 8112   5.327   0.559   1.235
 2405SOL     OW 8113   3.564   3.532   2.985
 2405SOL    HW1 8114   3.634   3.482   2.934
 2405SOL    HW2 8115   3.607   3.601   3.042
 2406SOL     OW 8116   2.112   0.463   3.108
 2406SOL    HW1 8117   2.030   0.420   3.147
 2406SOL    HW2 8118   2.193   0.429   3.157
 2407SOL     OW 8119   5.325   2.685   3.118
 2407SOL    HW1 8120   5.256   2.619   3.087
 2407SOL    HW2 8121   5.405   2.635   3.150
 2408SOL     OW 8122   4.260   4.764   3.556
 2408SOL    HW1 8123   4.217   4.804   3.637
 2408SOL    HW2 8124   4.295   4.673   3.578
 2409SOL     OW 8125   1.347   3.283   1.705
 2409SOL    HW1 8126   1.278   3.234   1.651
 2409SOL    HW2 8127   1.387   3.355   1.650
 2410SOL     OW 8128   4.692   2.564   6.603
 2410SOL    HW1 8129   4.679   2.620   6.522
 2410SOL    HW2 8130   4.777   2.592   6.650
 2411SOL     OW 8131   4.702   5.329   5.820
 2411SOL    HW1 8132   4.788   5.366   5.857
 2411SOL    HW2 8133   4.693   5.358   5.724
 2412SOL     OW 8134   4.312   4.859   1.162
 2412SOL    HW1 8135   4.287   4.821   1.074
 2412SOL    HW2 8136   4.275   4.801   1.235
 2413SOL     OW 8137   6.534   2.173   0.327
 2413SOL    HW1 8138   6.618   2.126   0.355
 2413SOL    HW2 8139   6.503   2.135   0.240
 2414SOL     OW 8140   5.022   3.815   2.263
 2414SOL    HW1 8141   4.963   3.744   2.302
 2414SOL    HW2 8142   5.065   3.781   2.179
 2415SOL     OW 8143   0.589   0.137   1.988
 2415SOL    HW1 8144   0.609   0.054   2.040
 2415SOL    HW2 8145   0.600   0.118   1.891
 2416SOL     OW 8146   3.379   2.082   4.638
 2416SOL    HW1 8147   3.443   2.082   4.714
 2416SOL    HW2 8148   3.295   2.128   4.665
 2417SOL     OW 8149   4.088   3.095   5.631
 2417SOL    HW1 8150   4.064   2.999   5.642
 2417SOL    HW2 8151   4.157   3.120   5.700
 2418SOL     OW 8152   3.638   4.123   4.089
 2418SOL    HW1 8153   3.541   4.146   4.096
 2418SOL    HW2 8154   3.659   4.096   3.995
 2419SOL     OW 8155   1.165   6.016   4.105
 2419SOL    HW1 8156   1.247   5.960   4.104
 2419SOL    HW2 8157   1.126   6.016   4.197
 2420SOL     OW 8158   3.882   1.950   1.178
 2420SOL    HW1 8159   3.946   1.926   1.250
 2420SOL    HW2 8160   3.807   2.004   1.216
 2421SOL     OW 8161   2.568   1.629   5.146
 2421SOL    HW1 8162   2.500   1.593   5.082
 2421SOL    HW2 8163   2.640   1.676   5.095
 2422SOL     OW 8164   6.028   6.847   1.592
 2422SOL    HW1 8165   5.941   6.869   1.636
 2422SOL    HW2 8166   6.011   6.805   1.503
 2423SOL     OW 8167   1.442   6.417   3.785
 2423SOL    HW1 8168   1.534   6.401   3.750
 2423SOL    HW2 8169   1.375   6.398   3.712
 2424SOL     OW 8170   6.395   6.354   6.014
 2424SOL    HW1 8171   6.358   6.354   6.107
 2424SOL    HW2 8172   6.448   6.437   5.999
 2425SOL     OW 8173   6.402   0.331   4.115
 2425SOL    HW1 8174   6.454   0.279   4.047
 2425SOL    HW2 8175   6.382   0.273   4.194
 2426SOL     OW 8176   1.144   5.255   5.002
 2426SOL    HW1 8177   1.122   5.329   4.939
 2426SOL    HW2 8178   1.188   5.180   4.952
 2427SOL     OW 8179   5.523   5.597   6.438
 2427SOL    HW1 8180   5.544   5.695   6.435
 2427SOL    HW2 8181   5.428   5.583   6.409
 2428SOL     OW 8182   6.429   0.068   3.543
 2428SOL    HW1 8183   6.490   0.095   3.617
 2428SOL    HW2 8184   6.375   0.147   3.513
 2429SOL     OW 8185   6.310   5.648   4.224
 2429SOL    HW1 8186   6.223   5.697   4.224
 2429SOL    HW2 8187   6.293   5.550   4.237
 2430SOL     OW 8188   6.127   1.340   0.590
 2430SOL    HW1 8189   6.068   1.335   0.510
 2430SOL    HW2 8190   6.125   1.252   0.638
 2431SOL     OW 8191   3.879   0.140   2.110
 2431SOL    HW1 8192   3.779   0.145   2.112
 2431SOL    HW2 8193   3.911   0.152   2.016
 2432SOL     OW 8194   3.449   6.974   3.098
 2432SOL    HW1 8195   3.482   6.940   3.011
 2432SOL    HW2 8196   3.386   0.027   3.083
 2433SOL     OW 8197   3.227   0.080   1.178
 2433SOL    HW1 8198   3.170   0.025   1.239
 2433SOL    HW2 8199   3.312   0.031   1.158
 2434SOL     OW 8200   4.550   1.133   4.320
 2434SOL    HW1 8201   4.451   1.146   4.319
 2434SOL    HW2 8202   4.578   1.097   4.409
 2435SOL     OW 8203   4.326   5.266   5.859
 2435SOL    HW1 8204   4.398   5.221   5.912
 2435SOL    HW2 8205   4.300   5.351   5.904
 2436SOL     OW 8206   1.792   6.611   1.915
 2436SOL    HW1 8207   1.763   6.554   1.838
 2436SOL    HW2 8208   1.713   6.633   1.972
 2437SOL     OW 8209   3.950   6.161   0.833
 2437SOL    HW1 8210   3.964   6.128   0.739
 2437SOL    HW2 8211   3.933   6.083   0.893
 2438SOL     OW 8212   3.503   1.648   5.957
 2438SOL    HW1 8213   3.475   1.737   5.922
 2438SOL    HW2 8214   3.450   1.626   6.038
 2439SOL     OW 8215   0.835   4.167   6.765
 2439SOL    HW1 8216   0.757   4.164   6.703
 2439SOL    HW2 8217   0.895   4.089   6.747
 2440SOL     OW 8218   5.090   6.147   5.282
 2440SOL    HW1 8219   5.057   6.227   5.233
 2440SOL    HW2 8220   5.090   6.165   5.381
 2441SOL     OW 8221   6.801   0.041   0.166
 2441SOL    HW1 8222   6.845   0.043   0.076
 2441SOL    HW2 8223   6.766   0.132   0.188
 2442SOL     OW 8224   6.664   5.049   4.787
 2442SOL    HW1 8225   6.701   4.993   4.861
 2442SOL    HW2 8226   6.729   5.052   4.712
 2443SOL     OW 8227   3.691   6.634   5.297
 2443SOL    HW1 8228   3.660   6.661   5.205
 2443SOL    HW2 8229   3.760   6.699   5.329
 2444SOL     OW 8230   3.365   4.576   5.810
 2444SOL    HW1 8231   3.323   4.596   5.722
 2444SOL    HW2 8232   3.460   4.547   5.796
 2445SOL     OW 8233   0.361   0.799   1.924
 2445SOL    HW1 8234   0.340   0.701   1.922
 2445SOL    HW2 8235   0.427   0.819   1.851
 2446SOL     OW 8236   0.588   3.936   3.680
 2446SOL    HW1 8237   0.504   3.983   3.708
 2446SOL    HW2 8238   0.568   3.839   3.663
 2447SOL     OW 8239   2.836   1.861   0.662
 2447SOL    HW1 8240   2.784   1.863   0.576
 2447SOL    HW2 8241   2.929   1.831   0.643
 2448SOL     OW 8242   0.512   0.672   5.385
 2448SOL    HW1 8243   0.415   0.672   5.360
 2448SOL    HW2 8244   0.520   0.673   5.485
 2449SOL     OW 8245   0.200   4.746   1.498
 2449SOL    HW1 8246   0.220   4.832   1.452
 2449SOL    HW2 8247   0.272   4.727   1.564
 2450SOL     OW 8248   2.804   4.834   4.538
 2450SOL    HW1 8249   2.850   4.923   4.533
 2450SOL    HW2 8250   2.819   4.794   4.628
 2451SOL     OW 8251   0.664   0.115   3.301
 2451SOL    HW1 8252   0.578   0.156   3.331
 2451SOL    HW2 8253   0.705   0.172   3.230
 2452SOL     OW 8254   2.070   2.459   2.946
 2452SOL    HW1 8255   2.108   2.494   3.032
 2452SOL    HW2 8256   2.056   2.534   2.882
 2453SOL     OW 8257   6.236   3.650   1.124
 2453SOL    HW1 8258   6.144   3.679   1.150
 2453SOL    HW2 8259   6.249   3.554   1.149
 2454SOL     OW 8260   3.511   1.064   0.683
 2454SOL    HW1 8261   3.609   1.049   0.693
 2454SOL    HW2 8262   3.481   1.037   0.592
 2455SOL     OW 8263   5.598   6.736   0.788
 2455SOL    HW1 8264   5.677   6.763   0.843
 2455SOL    HW2 8265   5.534   6.682   0.843
 2456SOL     OW 8266   6.079   0.153   0.459
 2456SOL    HW1 8267   6.148   0.175   0.528
 2456SOL    HW2 8268   6.046   0.238   0.417
 2457SOL     OW 8269   6.977   6.336   0.459
 2457SOL    HW1 8270   6.949   6.254   0.408
 2457SOL    HW2 8271   6.994   6.411   0.395
 2458SOL     OW 8272   2.958   6.028   3.712
 2458SOL    HW1 8273   2.909   5.949   3.674
 2458SOL    HW2 8274   3.016   5.997   3.788
 2459SOL     OW 8275   2.505   6.860   0.517
 2459SOL    HW1 8276   2.559   6.834   0.597
 2459SOL    HW2 8277   2.410   6.878   0.544
 2460SOL     OW 8278   2.130   0.581   1.140
 2460SOL    HW1 8279   2.108   0.673   1.174
 2460SOL    HW2 8280   2.206   0.586   1.076
 2461SOL     OW 8281   4.944   0.747   2.714
 2461SOL    HW1 8282   4.972   0.688   2.638
 2461SOL    HW2 8283   4.849   0.728   2.737
 2462SOL     OW 8284   2.242   5.527   0.110
 2462SOL    HW1 8285   2.211   5.491   0.022
 2462SOL    HW2 8286   2.189   5.484   0.184
 2463SOL     OW 8287   5.767   2.428   4.127
 2463SOL    HW1 8288   5.696   2.413   4.058
 2463SOL    HW2 8289   5.808   2.519   4.114
 2464SOL     OW 8290   1.446   4.690   1.724
 2464SOL    HW1 8291   1.535   4.680   1.679
 2464SOL    HW2 8292   1.374   4.671   1.657
 2465SOL     OW 8293   6.432   5.777   1.244
 2465SOL    HW1 8294   6.409   5.843   1.172
 2465SOL    HW2 8295   6.429   5.823   1.333
 2466SOL     OW 8296   3.086   0.946   1.451
 2466SOL    HW1 8297   3.091   0.855   1.410
 2466SOL    HW2 8298   3.175   0.991   1.446
 2467SOL     OW 8299   5.450   1.937   5.756
 2467SOL    HW1 8300   5.508   1.984   5.688
 2467SOL    HW2 8301   5.387   1.876   5.709
 2468SOL     OW 8302   6.256   6.211   2.089
 2468SOL    HW1 8303   6.203   6.135   2.051
 2468SOL    HW2 8304   6.343   6.177   2.125
 2469SOL     OW 8305   3.637   5.217   5.229
 2469SOL    HW1 8306   3.543   5.239   5.201
 2469SOL    HW2 8307   3.670   5.286   5.293
 2470SOL     OW 8308   3.175   4.422   6.206
 2470SOL    HW1 8309   3.208   4.383   6.120
 2470SOL    HW2 8310   3.218   4.510   6.221
 2471SOL     OW 8311   2.151   6.530   1.956
 2471SOL    HW1 8312   2.128   6.620   1.920
 2471SOL    HW2 8313   2.195   6.476   1.885
 2472SOL     OW 8314   6.041   1.261   4.494
 2472SOL    HW1 8315   6.058   1.178   4.547
 2472SOL    HW2 8316   6.104   1.333   4.523
 2473SOL     OW 8317   1.663   3.891   4.744
 2473SOL    HW1 8318   1.596   3.948   4.697
 2473SOL    HW2 8319   1.734   3.948   4.783
 2474SOL     OW 8320   0.384   5.645   0.121
 2474SOL    HW1 8321   0.318   5.581   0.082
 2474SOL    HW2 8322   0.454   5.594   0.171
 2475SOL     OW 8323   4.807   1.550   1.102
 2475SOL    HW1 8324   4.757   1.501   1.174
 2475SOL    HW2 8325   4.904   1.523   1.105
 2476SOL     OW 8326   0.477   2.550   3.390
 2476SOL    HW1 8327   0.480   2.593   3.300
 2476SOL    HW2 8328   0.383   2.548   3.423
 2477SOL     OW 8329   6.230   0.401   1.977
 2477SOL    HW1 8330   6.186   0.363   2.058
 2477SOL    HW2 8331   6.269   0.328   1.922
 2478SOL     OW 8332   5.612   6.765   2.311
 2478SOL    HW1 8333   5.701   6.772   2.268
 2478SOL    HW2 8334   5.623   6.763   2.411
 2479SOL     OW 8335   0.813   3.648   1.520
 2479SOL    HW1 8336   0.727   3.669   1.567
 2479SOL    HW2 8337   0.807   3.678   1.425
 2480SOL     OW 8338   5.916   3.429   0.913
 2480SOL    HW1 8339   5.928   3.514   0.861
 2480SOL    HW2 8340   5.822   3.424   0.947
 2481SOL     OW 8341   3.115   6.711   0.402
 2481SOL    HW1 8342   3.104   6.668   0.312
 2481SOL    HW2 8343   3.190   6.666   0.452
 2482SOL     OW 8344   4.830   3.059   5.738
 2482SOL    HW1 8345   4.917   3.017   5.712
 2482SOL    HW2 8346   4.760   2.989   5.749
 2483SOL     OW 8347   2.580   1.647   0.413
 2483SOL    HW1 8348   2.492   1.672   0.371
 2483SOL    HW2 8349   2.643   1.724   0.404
 2484SOL     OW 8350   2.044   0.764   0.254
 2484SOL    HW1 8351   1.982   0.706   0.202
 2484SOL    HW2 8352   2.112   0.707   0.301
 2485SOL     OW 8353   4.528   5.240   2.086
 2485SOL    HW1 8354   4.627   5.233   2.099
 2485SOL    HW2 8355   4.484   5.253   2.175
 2486SOL     OW 8356   2.755   5.973   3.081
 2486SOL    HW1 8357   2.720   5.893   3.130
 2486SOL    HW2 8358   2.708   5.982   2.994
 2487SOL     OW 8359   3.691   5.676   6.884
 2487SOL    HW1 8360   3.663   5.730   6.963
 2487SOL    HW2 8361   3.777   5.711   6.848
 2488SOL     OW 8362   2.428   4.457   1.880
 2488SOL    HW1 8363   2.434   4.359   1.903
 2488SOL    HW2 8364   2.435   4.511   1.964
 2489SOL     OW 8365   2.303   4.790   4.136
 2489SOL    HW1 8366   2.300   4.882   4.176
 2489SOL    HW2 8367   2.257   4.790   4.048
 2490SOL     OW 8368   6.491   5.319   0.906
 2490SOL    HW1 8369   6.569   5.257   0.897
 2490SOL    HW2 8370   6.439   5.296   0.988
 2491SOL     OW 8371   2.172   5.443   3.056
 2491SOL    HW1 8372   2.152   5.537   3.028
 2491SOL    HW2 8373   2.270   5.427   3.053
 2492SOL     OW 8374   3.841   3.106   6.610
 2492SOL    HW1 8375   3.799   3.080   6.523
 2492SOL    HW2 8376   3.929   3.059   6.620
 2493SOL     OW 8377   5.956   0.053   3.027
 2493SOL    HW1 8378   6.029   7.021   2.987
 2493SOL    HW2 8379   5.942   0.025   3.122
 2494SOL     OW 8380   5.334   3.023   2.643
 2494SOL    HW1 8381   5.390   2.984   2.716
 2494SOL    HW2 8382   5.365   2.989   2.555
 2495SOL     OW 8383   5.089   0.513   5.411
 2495SOL    HW1 8384   5.051   0.537   5.500
 2495SOL    HW2 8385   5.086   0.593   5.351
 2496SOL     OW 8386   0.495   5.270   6.993
 2496SOL    HW1 8387   0.465   5.336   6.924
 2496SOL    HW2 8388   0.445   5.285   0.055
 2497SOL     OW 8389   0.176   2.018   6.949
 2497SOL    HW1 8390   0.093   2.072   6.942
 2497SOL    HW2 8391   0.188   1.988   0.021
 2498SOL     OW 8392   2.351   2.302   3.768
 2498SOL    HW1 8393   2.330   2.385   3.716
 2498SOL    HW2 8394   2.299   2.225   3.731
 2499SOL     OW 8395   5.852   0.862   4.769
 2499SOL    HW1 8396   5.757   0.889   4.754
 2499SOL    HW2 8397   5.858   0.762   4.769
 2500SOL     OW 8398   4.523   3.914   5.487
 2500SOL    HW1 8399   4.601   3.934   5.428
 2500SOL    HW2 8400   4.491   3.820   5.470
 2501SOL     OW 8401   6.258   4.668   6.932
 2501SOL    HW1 8402   6.216   4.756   6.909
 2501SOL    HW2 8403   6.215   4.595   6.878
 2502SOL     OW 8404   2.972   6.487   3.332
 2502SOL    HW1 8405   2.944   6.404   3.284
 2502SOL    HW2 8406   2.890   6.540   3.357
 2503SOL     OW 8407   3.868   5.864   5.582
 2503SOL    HW1 8408   3.922   5.888   5.501
 2503SOL    HW2 8409   3.912   5.903   5.663
 2504SOL     OW 8410   2.344   5.423   5.008
 2504SOL    HW1 8411   2.411   5.482   4.963
 2504SOL    HW2 8412   2.357   5.329   4.979
 2505SOL     OW 8413   3.371   6.242   4.436
 2505SOL    HW1 8414   3.297   6.177   4.449
 2505SOL    HW2 8415   3.454   6.208   4.480
 2506SOL     OW 8416   0.420   3.713   6.101
 2506SOL    HW1 8417   0.420   3.616   6.079
 2506SOL    HW2 8418   0.348   3.732   6.168
 2507SOL     OW 8419   6.125   4.951   6.961
 2507SOL    HW1 8420   6.080   4.927   6.875
 2507SOL    HW2 8421   6.068   5.017   7.010
 2508SOL     OW 8422   2.878   1.748   1.843
 2508SOL    HW1 8423   2.904   1.679   1.910
 2508SOL    HW2 8424   2.956   1.767   1.783
 2509SOL     OW 8425   5.443   1.892   2.490
 2509SOL    HW1 8426   5.381   1.917   2.416
 2509SOL    HW2 8427   5.407   1.812   2.538
 2510SOL     OW 8428   2.429   4.336   0.529
 2510SOL    HW1 8429   2.451   4.254   0.477
 2510SOL    HW2 8430   2.425   4.415   0.468
 2511SOL     OW 8431   1.297   1.539   4.767
 2511SOL    HW1 8432   1.351   1.538   4.683
 2511SOL    HW2 8433   1.313   1.455   4.818
 2512SOL     OW 8434   5.753   4.284   4.875
 2512SOL    HW1 8435   5.747   4.346   4.796
 2512SOL    HW2 8436   5.846   4.289   4.913
 2513SOL     OW 8437   1.340   2.406   6.162
 2513SOL    HW1 8438   1.305   2.485   6.113
 2513SOL    HW2 8439   1.426   2.430   6.207
 2514SOL     OW 8440   0.401   2.858   3.785
 2514SOL    HW1 8441   0.352   2.944   3.794
 2514SOL    HW2 8442   0.345   2.791   3.737
 2515SOL     OW 8443   1.502   6.343   1.237
 2515SOL    HW1 8444   1.528   6.377   1.327
 2515SOL    HW2 8445   1.473   6.419   1.179
 2516SOL     OW 8446   5.978   5.391   3.327
 2516SOL    HW1 8447   5.901   5.455   3.332
 2516SOL    HW2 8448   6.035   5.400   3.408
 2517SOL     OW 8449   2.490   5.503   6.165
 2517SOL    HW1 8450   2.404   5.479   6.119
 2517SOL    HW2 8451   2.526   5.423   6.212
 2518SOL     OW 8452   2.175   3.136   0.085
 2518SOL    HW1 8453   2.178   3.108   0.181
 2518SOL    HW2 8454   2.252   3.097   0.036
 2519SOL     OW 8455   4.783   4.902   4.324
 2519SOL    HW1 8456   4.814   4.845   4.248
 2519SOL    HW2 8457   4.813   4.997   4.310
 2520SOL     OW 8458   1.493   2.512   1.080
 2520SOL    HW1 8459   1.523   2.424   1.042
 2520SOL    HW2 8460   1.561   2.582   1.058
 2521SOL     OW 8461   0.896   0.044   5.618
 2521SOL    HW1 8462   0.852   6.994   5.670
 2521SOL    HW2 8463   0.916   0.012   5.525
 2522SOL     OW 8464   0.803   3.387   4.722
 2522SOL    HW1 8465   0.804   3.470   4.666
 2522SOL    HW2 8466   0.873   3.324   4.689
 2523SOL     OW 8467   6.770   2.947   0.737
 2523SOL    HW1 8468   6.761   2.850   0.714
 2523SOL    HW2 8469   6.689   2.976   0.789
 2524SOL     OW 8470   0.151   6.528   4.580
 2524SOL    HW1 8471   0.165   6.573   4.492
 2524SOL    HW2 8472   0.201   6.442   4.581
 2525SOL     OW 8473   1.684   3.277   4.214
 2525SOL    HW1 8474   1.594   3.281   4.170
 2525SOL    HW2 8475   1.753   3.257   4.145
 2526SOL     OW 8476   0.490   2.987   5.336
 2526SOL    HW1 8477   0.561   3.029   5.279
 2526SOL    HW2 8478   0.404   3.036   5.324
 2527SOL     OW 8479   6.188   0.130   5.328
 2527SOL    HW1 8480   6.089   0.116   5.319
 2527SOL    HW2 8481   6.209   0.166   5.418
 2528SOL     OW 8482   5.761   4.648   1.481
 2528SOL    HW1 8483   5.681   4.608   1.436
 2528SOL    HW2 8484   5.809   4.708   1.416
 2529SOL     OW 8485   5.521   4.996   5.933
 2529SOL    HW1 8486   5.499   5.003   5.836
 2529SOL    HW2 8487   5.464   4.925   5.975
 2530SOL     OW 8488   1.124   6.213   4.524
 2530SOL    HW1 8489   1.164   6.305   4.527
 2530SOL    HW2 8490   1.051   6.207   4.592
 2531SOL     OW 8491   5.745   6.960   4.815
 2531SOL    HW1 8492   5.725   6.862   4.808
 2531SOL    HW2 8493   5.703   7.008   4.738
 2532SOL     OW 8494   0.610   5.490   0.220
 2532SOL    HW1 8495   0.547   5.413   0.229
 2532SOL    HW2 8496   0.670   5.493   0.299
 2533SOL     OW 8497   5.466   6.522   5.033
 2533SOL    HW1 8498   5.527   6.496   5.108
 2533SOL    HW2 8499   5.415   6.442   5.002
 2534SOL     OW 8500   2.416   0.636   3.434
 2534SOL    HW1 8501   2.373   0.555   3.393
 2534SOL    HW2 8502   2.362   0.667   3.512
 2535SOL     OW 8503   2.095   1.932   6.394
 2535SOL    HW1 8504   2.006   1.886   6.402
 2535SOL    HW2 8505   2.168   1.864   6.398
 2536SOL     OW 8506   0.310   1.643   3.308
 2536SOL    HW1 8507   0.237   1.686   3.361
 2536SOL    HW2 8508   0.386   1.708   3.298
 2537SOL     OW 8509   4.807   6.377   0.403
 2537SOL    HW1 8510   4.791   6.346   0.497
 2537SOL    HW2 8511   4.801   6.477   0.400
 2538SOL     OW 8512   1.551   4.296   5.312
 2538SOL    HW1 8513   1.475   4.243   5.349
 2538SOL    HW2 8514   1.539   4.393   5.335
 2539SOL     OW 8515   4.224   6.951   5.400
 2539SOL    HW1 8516   4.247   6.897   5.480
 2539SOL    HW2 8517   4.240   0.025   5.420
 2540SOL     OW 8518   5.296   1.189   1.239
 2540SOL    HW1 8519   5.367   1.166   1.173
 2540SOL    HW2 8520   5.253   1.106   1.273
 2541SOL     OW 8521   1.642   0.695   5.612
 2541SOL    HW1 8522   1.686   0.772   5.564
 2541SOL    HW2 8523   1.601   0.728   5.697
 2542SOL     OW 8524   4.005   2.168   4.485
 2542SOL    HW1 8525   4.045   2.220   4.409
 2542SOL    HW2 8526   3.927   2.115   4.450
 2543SOL     OW 8527   1.993   0.851   3.075
 2543SOL    HW1 8528   1.908   0.904   3.073
 2543SOL    HW2 8529   1.990   0.782   3.003
 2544SOL     OW 8530   0.529   5.055   2.080
 2544SOL    HW1 8531   0.595   5.017   2.145
 2544SOL    HW2 8532   0.473   4.981   2.042
 2545SOL     OW 8533   1.255   1.463   1.195
 2545SOL    HW1 8534   1.278   1.368   1.175
 2545SOL    HW2 8535   1.197   1.467   1.276
 2546SOL     OW 8536   6.800   3.415   0.773
 2546SOL    HW1 8537   6.881   3.383   0.822
 2546SOL    HW2 8538   6.721   3.358   0.798
 2547SOL     OW 8539   5.767   5.602   0.762
 2547SOL    HW1 8540   5.670   5.576   0.757
 2547SOL    HW2 8541   5.774   5.700   0.778
 2548SOL     OW 8542   2.510   0.559   4.714
 2548SOL    HW1 8543   2.525   0.461   4.701
 2548SOL    HW2 8544   2.436   0.573   4.779
 2549SOL     OW 8545   2.171   2.505   1.567
 2549SOL    HW1 8546   2.270   2.517   1.572
 2549SOL    HW2 8547   2.141   2.439   1.636
 2550SOL     OW 8548   5.354   0.737   6.813
 2550SOL    HW1 8549   5.321   0.800   6.883
 2550SOL    HW2 8550   5.284   0.726   6.742
 2551SOL     OW 8551   3.612   5.407   6.883
 2551SOL    HW1 8552   3.516   5.400   6.909
 2551SOL    HW2 8553   3.641   5.502   6.885
 2552SOL     OW 8554   2.334   5.286   6.810
 2552SOL    HW1 8555   2.339   5.188   6.793
 2552SOL    HW2 8556   2.372   5.336   6.732
 2553SOL     OW 8557   3.481   2.835   6.141
 2553SOL    HW1 8558   3.561   2.888   6.114
 2553SOL    HW2 8559   3.420   2.826   6.062
 2554SOL     OW 8560   1.625   5.807   6.862
 2554SOL    HW1 8561   1.623   5.809   6.762
 2554SOL    HW2 8562   1.675   5.727   6.893
 2555SOL     OW 8563   6.179   6.167   6.813
 2555SOL    HW1 8564   6.082   6.181   6.832
 2555SOL    HW2 8565   6.234   6.194   6.892
 2556SOL     OW 8566   4.371   0.312   1.236
 2556SOL    HW1 8567   4.324   0.224   1.237
 2556SOL    HW2 8568   4.394   0.338   1.330
 2557SOL     OW 8569   2.891   0.485   6.806
 2557SOL    HW1 8570   2.877   0.577   6.771
 2557SOL    HW2 8571   2.805   0.450   6.844
 2558SOL     OW 8572   4.551   4.101   5.719
 2558SOL    HW1 8573   4.466   4.141   5.754
 2558SOL    HW2 8574   4.532   4.053   5.634
 2559SOL     OW 8575   6.805   3.242   3.801
 2559SOL    HW1 8576   6.834   3.149   3.823
 2559SOL    HW2 8577   6.860   3.307   3.853
 2560SOL     OW 8578   5.274   3.787   3.683
 2560SOL    HW1 8579   5.307   3.823   3.595
 2560SOL    HW2 8580   5.180   3.818   3.698
 2561SOL     OW 8581   3.629   1.430   3.217
 2561SOL    HW1 8582   3.687   1.486   3.158
 2561SOL    HW2 8583   3.555   1.487   3.254
 2562SOL     OW 8584   3.085   5.754   3.464
 2562SOL    HW1 8585   3.059   5.717   3.375
 2562SOL    HW2 8586   3.004   5.767   3.521
 2563SOL     OW 8587   3.019   1.630   6.396
 2563SOL    HW1 8588   3.087   1.695   6.429
 2563SOL    HW2 8589   3.020   1.630   6.296
 2564SOL     OW 8590   1.829   6.925   0.210
 2564SOL    HW1 8591   1.866   6.904   0.301
 2564SOL    HW2 8592   1.765   6.853   0.184
 2565SOL     OW 8593   0.356   0.902   7.016
 2565SOL    HW1 8594   0.386   0.877   0.085
 2565SOL    HW2 8595   0.270   0.953   7.022
 2566SOL     OW 8596   2.585   6.483   1.746
 2566SOL    HW1 8597   2.538   6.527   1.670
 2566SOL    HW2 8598   2.644   6.550   1.792
 2567SOL     OW 8599   1.617   1.334   1.037
 2567SOL    HW1 8600   1.667   1.415   1.067
 2567SOL    HW2 8601   1.612   1.332   0.937
 2568SOL     OW 8602   2.746   6.946   0.666
 2568SOL    HW1 8603   2.687   7.019   0.701
 2568SOL    HW2 8604   2.827   6.939   0.724
 2569SOL     OW 8605   2.759   2.070   1.904
 2569SOL    HW1 8606   2.800   1.979   1.906
 2569SOL    HW2 8607   2.824   2.137   1.943
 2570SOL     OW 8608   4.813   5.980   6.403
 2570SOL    HW1 8609   4.900   5.964   6.356
 2570SOL    HW2 8610   4.775   6.068   6.373
 2571SOL     OW 8611   3.846   3.011   4.642
 2571SOL    HW1 8612   3.806   3.098   4.613
 2571SOL    HW2 8613   3.922   3.029   4.705
 2572SOL     OW 8614   2.205   6.264   1.260
 2572SOL    HW1 8615   2.204   6.178   1.209
 2572SOL    HW2 8616   2.284   6.266   1.321
 2573SOL     OW 8617   6.506   1.910   3.043
 2573SOL    HW1 8618   6.455   1.863   3.115
 2573SOL    HW2 8619   6.527   1.845   2.970
 2574SOL     OW 8620   6.262   3.284   0.741
 2574SOL    HW1 8621   6.238   3.253   0.833
 2574SOL    HW2 8622   6.208   3.364   0.717
 2575SOL     OW 8623   5.154   3.375   1.508
 2575SOL    HW1 8624   5.120   3.332   1.592
 2575SOL    HW2 8625   5.141   3.474   1.514
 2576SOL     OW 8626   3.663   0.141   3.862
 2576SOL    HW1 8627   3.624   0.066   3.916
 2576SOL    HW2 8628   3.750   0.170   3.903
 2577SOL     OW 8629   4.866   0.426   3.602
 2577SOL    HW1 8630   4.839   0.450   3.509
 2577SOL    HW2 8631   4.846   0.330   3.619
 2578SOL     OW 8632   4.712   2.581   5.334
 2578SOL    HW1 8633   4.784   2.609   5.270
 2578SOL    HW2 8634   4.623   2.603   5.295
 2579SOL     OW 8635   1.248   1.693   5.397
 2579SOL    HW1 8636   1.204   1.707   5.308
 2579SOL    HW2 8637   1.257   1.781   5.443
 2580SOL     OW 8638   1.943   2.713   6.027
 2580SOL    HW1 8639   1.958   2.679   5.934
 2580SOL    HW2 8640   1.923   2.811   6.025
 2581SOL     OW 8641   5.747   4.510   1.906
 2581SOL    HW1 8642   5.711   4.426   1.949
 2581SOL    HW2 8643   5.677   4.581   1.910
 2582SOL     OW 8644   1.990   4.918   2.917
 2582SOL    HW1 8645   2.004   4.848   2.987
 2582SOL    HW2 8646   2.033   5.003   2.946
 2583SOL     OW 8647   1.386   0.690   0.739
 2583SOL    HW1 8648   1.365   0.761   0.806
 2583SOL    HW2 8649   1.480   0.701   0.707
 2584SOL     OW 8650   4.444   6.096   0.861
 2584SOL    HW1 8651   4.436   6.004   0.899
 2584SOL    HW2 8652   4.513   6.096   0.789
 2585SOL     OW 8653   3.096   0.428   0.537
 2585SOL    HW1 8654   3.183   0.470   0.564
 2585SOL    HW2 8655   3.029   0.500   0.517
 2586SOL     OW 8656   5.366   1.637   4.658
 2586SOL    HW1 8657   5.328   1.556   4.613
 2586SOL    HW2 8658   5.445   1.611   4.713
 2587SOL     OW 8659   6.889   0.355   4.652
 2587SOL    HW1 8660   6.804   0.347   4.704
 2587SOL    HW2 8661   6.869   0.351   4.554
 2588SOL     OW 8662   4.799   6.978   0.564
 2588SOL    HW1 8663   4.844   6.938   0.644
 2588SOL    HW2 8664   4.705   6.943   0.557
 2589SOL     OW 8665   0.631   7.003   5.467
 2589SOL    HW1 8666   0.697   0.021   5.404
 2589SOL    HW2 8667   0.543   0.025   5.456
 2590SOL     OW 8668   3.883   7.019   2.654
 2590SOL    HW1 8669   3.884   0.057   2.733
 2590SOL    HW2 8670   3.860   6.926   2.683
 2591SOL     OW 8671   5.317   5.870   2.606
 2591SOL    HW1 8672   5.276   5.797   2.660
 2591SOL    HW2 8673   5.351   5.941   2.667
 2592SOL     OW 8674   2.732   6.379   1.537
 2592SOL    HW1 8675   2.667   6.314   1.498
 2592SOL    HW2 8676   2.703   6.403   1.630
 2593SOL     OW 8677   3.848   6.514   2.122
 2593SOL    HW1 8678   3.890   6.602   2.145
 2593SOL    HW2 8679   3.749   6.524   2.118
 2594SOL     OW 8680   0.280   6.445   6.142
 2594SOL    HW1 8681   0.250   6.523   6.086
 2594SOL    HW2 8682   0.359   6.471   6.197
 2595SOL     OW 8683   6.903   2.158   5.711
 2595SOL    HW1 8684   6.919   2.088   5.641
 2595SOL    HW2 8685   6.989   2.185   5.753
 2596SOL     OW 8686   3.964   2.294   1.769
 2596SOL    HW1 8687   3.871   2.331   1.776
 2596SOL    HW2 8688   4.006   2.324   1.684
 2597SOL     OW 8689   1.821   3.744   0.738
 2597SOL    HW1 8690   1.827   3.671   0.805
 2597SOL    HW2 8691   1.857   3.829   0.777
 2598SOL     OW 8692   5.875   2.678   4.524
 2598SOL    HW1 8693   5.814   2.602   4.502
 2598SOL    HW2 8694   5.828   2.765   4.505
 2599SOL     OW 8695   3.881   5.826   6.779
 2599SOL    HW1 8696   3.847   5.918   6.799
 2599SOL    HW2 8697   3.945   5.830   6.702
 2600SOL     OW 8698   4.860   3.629   4.356
 2600SOL    HW1 8699   4.871   3.541   4.310
 2600SOL    HW2 8700   4.864   3.616   4.455
 2601SOL     OW 8701   3.591   2.210   6.623
 2601SOL    HW1 8702   3.512   2.246   6.575
 2601SOL    HW2 8703   3.654   2.285   6.644
 2602SOL     OW 8704   6.879   4.734   3.594
 2602SOL    HW1 8705   6.978   4.728   3.579
 2602SOL    HW2 8706   6.861   4.788   3.676
 2603SOL     OW 8707   2.878   2.226   1.418
 2603SOL    HW1 8708   2.798   2.280   1.393
 2603SOL    HW2 8709   2.879   2.212   1.517
 2604SOL     OW 8710   4.894   1.287   1.533
 2604SOL    HW1 8711   4.854   1.259   1.620
 2604SOL    HW2 8712   4.992   1.301   1.546
 2605SOL     OW 8713   3.987   5.277   3.400
 2605SOL    HW1 8714   4.003   5.376   3.399
 2605SOL    HW2 8715   4.032   5.235   3.322
 2606SOL     OW 8716   6.392   4.697   0.558
 2606SOL    HW1 8717   6.463   4.719   0.625
 2606SOL    HW2 8718   6.322   4.641   0.602
 2607SOL     OW 8719   0.264   1.875   5.851
 2607SOL    HW1 8720   0.240   1.927   5.769
 2607SOL    HW2 8721   0.208   1.907   5.928
 2608SOL     OW 8722   4.366   6.165   2.907
 2608SOL    HW1 8723   4.411   6.166   2.817
 2608SOL    HW2 8724   4.306   6.245   2.914
 2609SOL     OW 8725   0.882   2.716   1.173
 2609SOL    HW1 8726   0.824   2.793   1.199
 2609SOL    HW2 8727   0.948   2.697   1.247
 2610SOL     OW 8728   6.580   5.473   3.980
 2610SOL    HW1 8729   6.629   5.390   3.952
 2610SOL    HW2 8730   6.497   5.482   3.924
 2611SOL     OW 8731   6.415   6.690   1.048
 2611SOL    HW1 8732   6.402   6.717   0.953
 2611SOL    HW2 8733   6.345   6.733   1.105
 2612SOL     OW 8734   6.531   6.643   5.494
 2612SOL    HW1 8735   6.560   6.563   5.548
 2612SOL    HW2 8736   6.555   6.628   5.398
 2613SOL     OW 8737   2.785   6.176   1.827
 2613SOL    HW1 8738   2.746   6.237   1.896
 2613SOL    HW2 8739   2.733   6.184   1.742
 2614SOL     OW 8740   6.510   6.632   5.777
 2614SOL    HW1 8741   6.456   6.568   5.722
 2614SOL    HW2 8742   6.471   6.638   5.869
 2615SOL     OW 8743   5.641   4.858   3.321
 2615SOL    HW1 8744   5.665   4.853   3.224
 2615SOL    HW2 8745   5.546   4.888   3.331
 2616SOL     OW 8746   3.726   3.626   3.853
 2616SOL    HW1 8747   3.690   3.572   3.777
 2616SOL    HW2 8748   3.812   3.668   3.826
 2617SOL     OW 8749   3.128   6.494   1.541
 2617SOL    HW1 8750   3.084   6.433   1.607
 2617SOL    HW2 8751   3.073   6.495   1.457
 2618SOL     OW 8752   0.496   6.454   3.819
 2618SOL    HW1 8753   0.483   6.417   3.727
 2618SOL    HW2 8754   0.572   6.407   3.863
 2619SOL     OW 8755   3.305   1.108   3.242
 2619SOL    HW1 8756   3.338   1.149   3.157
 2619SOL    HW2 8757   3.208   1.127   3.254
 2620SOL     OW 8758   0.890   5.796   3.674
 2620SOL    HW1 8759   0.928   5.804   3.582
 2620SOL    HW2 8760   0.963   5.771   3.738
 2621SOL     OW 8761   1.909   5.739   3.638
 2621SOL    HW1 8762   1.889   5.668   3.705
 2621SOL    HW2 8763   1.829   5.752   3.578
 2622SOL     OW 8764   2.246   2.397   6.335
 2622SOL    HW1 8765   2.249   2.424   6.238
 2622SOL    HW2 8766   2.268   2.477   6.391
 2623SOL     OW 8767   3.437   1.827   4.870
 2623SOL    HW1 8768   3.403   1.920   4.883
 2623SOL    HW2 8769   3.403   1.768   4.944
 2624SOL     OW 8770   6.602   3.273   4.008
 2624SOL    HW1 8771   6.662   3.200   3.978
 2624SOL    HW2 8772   6.605   3.280   4.108
 2625SOL     OW 8773   2.420   2.799   5.319
 2625SOL    HW1 8774   2.415   2.882   5.262
 2625SOL    HW2 8775   2.516   2.779   5.339
 2626SOL     OW 8776   0.300   6.820   4.048
 2626SOL    HW1 8777   0.254   6.765   4.116
 2626SOL    HW2 8778   0.250   6.906   4.034
 2627SOL     OW 8779   0.298   1.201   3.979
 2627SOL    HW1 8780   0.395   1.197   4.004
 2627SOL    HW2 8781   0.247   1.135   4.035
 2628SOL     OW 8782   3.575   5.439   6.442
 2628SOL    HW1 8783   3.599   5.513   6.504
 2628SOL    HW2 8784   3.628   5.448   6.358
 2629SOL     OW 8785   3.600   3.911   2.337
 2629SOL    HW1 8786   3.572   4.005   2.319
 2629SOL    HW2 8787   3.635   3.904   2.430
 2630SOL     OW 8788   3.677   1.891   2.926
 2630SOL    HW1 8789   3.656   1.952   2.850
 2630SOL    HW2 8790   3.710   1.944   3.004
 2631SOL     OW 8791   4.945   6.894   3.999
 2631SOL    HW1 8792   5.000   6.971   3.967
 2631SOL    HW2 8793   4.852   6.924   4.018
 2632SOL     OW 8794   2.638   1.742   5.771
 2632SOL    HW1 8795   2.720   1.711   5.723
 2632SOL    HW2 8796   2.663   1.816   5.834
 2633SOL     OW 8797   6.246   2.349   5.943
 2633SOL    HW1 8798   6.335   2.352   5.898
 2633SOL    HW2 8799   6.252   2.394   6.032
 2634SOL     OW 8800   2.179   3.834   3.350
 2634SOL    HW1 8801   2.096   3.878   3.384
 2634SOL    HW2 8802   2.180   3.738   3.379
 2635SOL     OW 8803   5.954   5.692   4.608
 2635SOL    HW1 8804   5.862   5.691   4.647
 2635SOL    HW2 8805   5.954   5.750   4.526
 2636SOL     OW 8806   5.050   0.722   5.940
 2636SOL    HW1 8807   5.054   0.762   5.848
 2636SOL    HW2 8808   4.956   0.724   5.973
 2637SOL     OW 8809   5.807   1.267   3.768
 2637SOL    HW1 8810   5.899   1.303   3.788
 2637SOL    HW2 8811   5.776   1.212   3.846
 2638SOL     OW 8812   6.940   6.598   3.057
 2638SOL    HW1 8813   6.989   6.613   2.971
 2638SOL    HW2 8814   6.960   6.673   3.120
 2639SOL     OW 8815   0.137   7.010   2.019
 2639SOL    HW1 8816   0.086   7.021   2.105
 2639SOL    HW2 8817   0.137   6.914   1.992
 2640SOL     OW 8818   6.950   6.135   5.614
 2640SOL    HW1 8819   6.964   6.082   5.530
 2640SOL    HW2 8820   0.004   6.197   5.628
 2641SOL     OW 8821   5.104   2.746   1.817
 2641SOL    HW1 8822   5.013   2.785   1.811
 2641SOL    HW2 8823   5.100   2.647   1.801
 2642SOL     OW 8824   5.375   0.100   4.784
 2642SOL    HW1 8825   5.338   0.179   4.734
 2642SOL    HW2 8826   5.463   0.074   4.744
 2643SOL     OW 8827   1.345   5.059   3.506
 2643SOL    HW1 8828   1.303   5.150   3.508
 2643SOL    HW2 8829   1.275   4.990   3.490
 2644SOL     OW 8830   0.081   4.452   5.297
 2644SOL    HW1 8831   0.131   4.374   5.334
 2644SOL    HW2 8832   7.006   4.429   5.290
 2645SOL     OW 8833   4.961   6.530   4.892
 2645SOL    HW1 8834   4.896   6.515   4.817
 2645SOL    HW2 8835   4.976   6.628   4.903
 2646SOL     OW 8836   6.014   6.609   6.411
 2646SOL    HW1 8837   6.109   6.613   6.440
 2646SOL    HW2 8838   6.007   6.561   6.324
 2647SOL     OW 8839   5.445   0.744   0.784
 2647SOL    HW1 8840   5.449   0.651   0.820
 2647SOL    HW2 8841   5.538   0.777   0.768
 2648SOL     OW 8842   6.814   0.396   3.871
 2648SOL    HW1 8843   6.743   0.328   3.889
 2648SOL    HW2 8844   6.771   0.483   3.849
 2649SOL     OW 8845   4.458   2.228   6.268
 2649SOL    HW1 8846   4.536   2.263   6.320
 2649SOL    HW2 8847   4.480   2.137   6.233
 2650SOL     OW 8848   0.791   4.076   3.757
 2650SOL    HW1 8849   0.734   4.029   3.690
 2650SOL    HW2 8850   0.851   4.140   3.711
 2651SOL     OW 8851   1.100   1.529   0.494
 2651SOL    HW1 8852   1.025   1.516   0.559
 2651SOL    HW2 8853   1.154   1.445   0.487
 2652SOL     OW 8854   3.252   4.044   3.479
 2652SOL    HW1 8855   3.300   3.985   3.543
 2652SOL    HW2 8856   3.164   4.071   3.518
 2653SOL     OW 8857   5.023   0.057   4.808
 2653SOL    HW1 8858   5.069   0.048   4.719
 2653SOL    HW2 8859   5.090   0.081   4.878
 2654SOL     OW 8860   4.677   3.522   0.580
 2654SOL    HW1 8861   4.715   3.599   0.529
 2654SOL    HW2 8862   4.581   3.541   0.603
 2655SOL     OW 8863   4.799   4.719   4.121
 2655SOL    HW1 8864   4.788   4.743   4.025
 2655SOL    HW2 8865   4.746   4.637   4.141
 2656SOL     OW 8866   4.126   4.953   4.430
 2656SOL    HW1 8867   4.055   5.022   4.413
 2656SOL    HW2 8868   4.173   4.974   4.516
 2657SOL     OW 8869   2.644   4.517   6.578
 2657SOL    HW1 8870   2.575   4.460   6.624
 2657SOL    HW2 8871   2.679   4.468   6.498
 2658SOL     OW 8872   5.301   3.891   0.845
 2658SOL    HW1 8873   5.376   3.857   0.901
 2658SOL    HW2 8874   5.241   3.815   0.820
 2659SOL     OW 8875   6.348   2.295   4.472
 2659SOL    HW1 8876   6.258   2.305   4.430
 2659SOL    HW2 8877   6.406   2.372   4.445
 2660SOL     OW 8878   0.821   1.493   1.398
 2660SOL    HW1 8879   0.725   1.499   1.371
 2660SOL    HW2 8880   0.826   1.487   1.498
 2661SOL     OW 8881   2.550   6.059   2.371
 2661SOL    HW1 8882   2.545   5.986   2.303
 2661SOL    HW2 8883   2.561   6.147   2.325
 2662SOL     OW 8884   4.805   0.034   5.337
 2662SOL    HW1 8885   4.755   0.006   5.419
 2662SOL    HW2 8886   4.849   0.122   5.354
 2663SOL     OW 8887   3.024   4.369   1.276
 2663SOL    HW1 8888   2.934   4.401   1.307
 2663SOL    HW2 8889   3.022   4.270   1.266
 2664SOL     OW 8890   3.979   3.709   3.855
 2664SOL    HW1 8891   3.988   3.613   3.883
 2664SOL    HW2 8892   3.993   3.768   3.934
 2665SOL     OW 8893   2.735   1.980   4.561
 2665SOL    HW1 8894   2.818   1.959   4.613
 2665SOL    HW2 8895   2.663   2.008   4.625
 2666SOL     OW 8896   4.336   3.814   1.688
 2666SOL    HW1 8897   4.435   3.808   1.705
 2666SOL    HW2 8898   4.311   3.909   1.673
 2667SOL     OW 8899   1.764   5.672   4.308
 2667SOL    HW1 8900   1.813   5.754   4.279
 2667SOL    HW2 8901   1.666   5.686   4.295
 2668SOL     OW 8902   6.703   3.220   3.420
 2668SOL    HW1 8903   6.728   3.142   3.478
 2668SOL    HW2 8904   6.782   3.248   3.366
 2669SOL     OW 8905   3.077   4.836   4.990
 2669SOL    HW1 8906   3.032   4.922   5.015
 2669SOL    HW2 8907   3.011   4.762   4.995
 2670SOL     OW 8908   5.896   1.198   6.336
 2670SOL    HW1 8909   5.990   1.234   6.336
 2670SOL    HW2 8910   5.833   1.271   6.363
 2671SOL     OW 8911   3.353   5.147   0.559
 2671SOL    HW1 8912   3.262   5.154   0.519
 2671SOL    HW2 8913   3.359   5.208   0.639
 2672SOL     OW 8914   0.016   5.521   6.623
 2672SOL    HW1 8915   0.106   5.511   6.580
 2672SOL    HW2 8916   6.972   5.468   6.571
 2673SOL     OW 8917   5.646   2.601   3.660
 2673SOL    HW1 8918   5.583   2.528   3.633
 2673SOL    HW2 8919   5.721   2.562   3.713
 2674SOL     OW 8920   2.143   4.103   4.621
 2674SOL    HW1 8921   2.066   4.166   4.633
 2674SOL    HW2 8922   2.151   4.045   4.701
 2675SOL     OW 8923   0.611   4.749   4.767
 2675SOL    HW1 8924   0.583   4.841   4.739
 2675SOL    HW2 8925   0.541   4.683   4.742
 2676SOL     OW 8926   4.319   0.752   2.881
 2676SOL    HW1 8927   4.228   0.794   2.888
 2676SOL    HW2 8928   4.342   0.737   2.785
 2677SOL     OW 8929   3.069   5.161   0.446
 2677SOL    HW1 8930   3.106   5.116   0.365
 2677SOL    HW2 8931   3.070   5.261   0.433
 2678SOL     OW 8932   6.876   3.773   1.229
 2678SOL    HW1 8933   6.869   3.835   1.307
 2678SOL    HW2 8934   6.831   3.814   1.150
 2679SOL     OW 8935   4.201   5.291   1.194
 2679SOL    HW1 8936   4.228   5.260   1.285
 2679SOL    HW2 8937   4.269   5.261   1.127
 2680SOL     OW 8938   1.702   1.616   0.785
 2680SOL    HW1 8939   1.624   1.649   0.732
 2680SOL    HW2 8940   1.785   1.625   0.731
 2681SOL     OW 8941   1.334   1.977   4.479
 2681SOL    HW1 8942   1.432   1.957   4.472
 2681SOL    HW2 8943   1.293   1.915   4.546
 2682SOL     OW 8944   5.538   3.553   2.417
 2682SOL    HW1 8945   5.450   3.598   2.431
 2682SOL    HW2 8946   5.536   3.503   2.330
 2683SOL     OW 8947   1.457   3.400   0.269
 2683SOL    HW1 8948   1.547   3.418   0.310
 2683SOL    HW2 8949   1.429   3.479   0.214
 2684SOL     OW 8950   4.416   5.310   2.910
 2684SOL    HW1 8951   4.421   5.253   2.992
 2684SOL    HW2 8952   4.366   5.395   2.931
 2685SOL     OW 8953   0.308   6.887   6.022
 2685SOL    HW1 8954   0.266   6.911   6.110
 2685SOL    HW2 8955   0.264   6.805   5.986
 2686SOL     OW 8956   1.746   1.968   5.505
 2686SOL    HW1 8957   1.767   1.888   5.449
 2686SOL    HW2 8958   1.766   1.948   5.601
 2687SOL     OW 8959   4.303   4.656   3.132
 2687SOL    HW1 8960   4.306   4.712   3.215
 2687SOL    HW2 8961   4.269   4.565   3.154
 2688SOL     OW 8962   4.750   5.557   6.608
 2688SOL    HW1 8963   4.793   5.479   6.562
 2688SOL    HW2 8964   4.796   5.573   6.696
 2689SOL     OW 8965   2.272   1.786   2.756
 2689SOL    HW1 8966   2.287   1.876   2.717
 2689SOL    HW2 8967   2.334   1.772   2.833
 2690SOL     OW 8968   3.345   4.139   3.854
 2690SOL    HW1 8969   3.257   4.114   3.814
 2690SOL    HW2 8970   3.407   4.171   3.782
 2691SOL     OW 8971   1.343   5.582   2.316
 2691SOL    HW1 8972   1.266   5.519   2.328
 2691SOL    HW2 8973   1.357   5.633   2.401
 2692SOL     OW 8974   4.682   5.364   4.122
 2692SOL    HW1 8975   4.709   5.393   4.030
 2692SOL    HW2 8976   4.683   5.443   4.183
 2693SOL     OW 8977   1.870   3.976   2.774
 2693SOL    HW1 8978   1.894   4.061   2.728
 2693SOL    HW2 8979   1.856   3.904   2.706
 2694SOL     OW 8980   3.953   0.697   2.909
 2694SOL    HW1 8981   3.958   0.635   2.831
 2694SOL    HW2 8982   4.031   0.681   2.969
 2695SOL     OW 8983   5.595   1.331   2.638
 2695SOL    HW1 8984   5.662   1.330   2.712
 2695SOL    HW2 8985   5.640   1.307   2.552
 2696SOL     OW 8986   3.409   3.194   5.386
 2696SOL    HW1 8987   3.490   3.234   5.341
 2696SOL    HW2 8988   3.406   3.225   5.481
 2697SOL     OW 8989   3.992   1.681   3.286
 2697SOL    HW1 8990   4.084   1.689   3.326
 2697SOL    HW2 8991   3.926   1.661   3.358
 2698SOL     OW 8992   1.595   5.133   1.018
 2698SOL    HW1 8993   1.610   5.221   0.974
 2698SOL    HW2 8994   1.662   5.120   1.091
 2699SOL     OW 8995   3.327   5.596   0.313
 2699SOL    HW1 8996   3.327   5.684   0.360
 2699SOL    HW2 8997   3.410   5.588   0.257
 2700SOL     OW 8998   2.116   3.373   1.360
 2700SOL    HW1 8999   2.189   3.349   1.425
 2700SOL    HW2 9000   2.107   3.472   1.354
 2701SOL     OW 9001   3.933   6.942   6.429
 2701SOL    HW1 9002   3.876   7.020   6.455
 2701SOL    HW2 9003   3.895   6.899   6.346
 2702SOL     OW 9004   0.325   1.970   3.570
 2702SOL    HW1 9005   0.345   1.921   3.655
 2702SOL    HW2 9006   0.285   2.059   3.592
 2703SOL     OW 9007   2.167   0.815   2.767
 2703SOL    HW1 9008   2.194   0.750   2.838
 2703SOL    HW2 9009   2.182   0.774   2.677
 2704SOL     OW 9010   0.648   5.135   1.000
 2704SOL    HW1 9011   0.671   5.134   1.097
 2704SOL    HW2 9012   0.643   5.230   0.969
 2705SOL     OW 9013   1.498   5.405   4.416
 2705SOL    HW1 9014   1.407   5.438   4.442
 2705SOL    HW2 9015   1.549   5.480   4.374
 2706SOL     OW 9016   0.477   0.613   1.347
 2706SOL    HW1 9017   0.436   0.645   1.433
 2706SOL    HW2 9018   0.480   0.513   1.347
 2707SOL     OW 9019   2.273   0.473   5.323
 2707SOL    HW1 9020   2.370   0.463   5.346
 2707SOL    HW2 9021   2.246   0.569   5.335
 2708SOL     OW 9022   1.766   2.201   1.631
 2708SOL    HW1 9023   1.797   2.221   1.539
 2708SOL    HW2 9024   1.788   2.106   1.654
 2709SOL     OW 9025   5.408   6.814   1.202
 2709SOL    HW1 9026   5.431   6.911   1.211
 2709SOL    HW2 9027   5.311   6.802   1.223
 2710SOL     OW 9028   6.789   2.932   2.690
 2710SOL    HW1 9029   6.851   2.913   2.765
 2710SOL    HW2 9030   6.752   3.025   2.698
 2711SOL     OW 9031   2.997   0.871   3.307
 2711SOL    HW1 9032   2.898   0.881   3.293
 2711SOL    HW2 9033   3.037   0.823   3.229
 2712SOL     OW 9034   3.297   5.374   1.342
 2712SOL    HW1 9035   3.373   5.426   1.302
 2712SOL    HW2 9036   3.268   5.418   1.427
 2713SOL     OW 9037   1.414   2.160   4.896
 2713SOL    HW1 9038   1.414   2.260   4.892
 2713SOL    HW2 9039   1.396   2.130   4.990
 2714SOL     OW 9040   4.718   2.061   6.750
 2714SOL    HW1 9041   4.663   2.142   6.770
 2714SOL    HW2 9042   4.739   2.058   6.652
 2715SOL     OW 9043   5.808   0.133   0.083
 2715SOL    HW1 9044   5.841   0.223   0.111
 2715SOL    HW2 9045   5.826   0.119   7.008
 2716SOL     OW 9046   5.793   5.298   1.992
 2716SOL    HW1 9047   5.826   5.224   2.051
 2716SOL    HW2 9048   5.856   5.376   1.999
 2717SOL     OW 9049   0.873   5.030   1.474
 2717SOL    HW1 9050   0.969   5.020   1.446
 2717SOL    HW2 9051   0.821   4.950   1.446
 2718SOL     OW 9052   2.109   3.940   4.856
 2718SOL    HW1 9053   2.111   3.841   4.843
 2718SOL    HW2 9054   2.185   3.968   4.914
 2719SOL     OW 9055   5.411   4.922   1.715
 2719SOL    HW1 9056   5.495   4.890   1.671
 2719SOL    HW2 9057   5.338   4.925   1.647
 2720SOL     OW 9058   2.060   6.346   3.422
 2720SOL    HW1 9059   2.155   6.348   3.389
 2720SOL    HW2 9060   2.050   6.408   3.499
 2721SOL     OW 9061   3.222   0.315   4.604
 2721SOL    HW1 9062   3.311   0.271   4.610
 2721SOL    HW2 9063   3.155   0.251   4.567
 2722SOL     OW 9064   6.407   5.392   3.130
 2722SOL    HW1 9065   6.409   5.397   3.031
 2722SOL    HW2 9066   6.464   5.465   3.169
 2723SOL     OW 9067   1.564   6.937   5.891
 2723SOL    HW1 9068   1.468   6.927   5.862
 2723SOL    HW2 9069   1.624   6.921   5.813
 2724SOL     OW 9070   3.049   6.211   5.868
 2724SOL    HW1 9071   2.999   6.126   5.852
 2724SOL    HW2 9072   2.983   6.286   5.881
 2725SOL     OW 9073   6.271   5.023   3.147
 2725SOL    HW1 9074   6.311   5.076   3.222
 2725SOL    HW2 9075   6.254   5.084   3.069
 2726SOL     OW 9076   6.490   4.380   0.964
 2726SOL    HW1 9077   6.566   4.360   0.903
 2726SOL    HW2 9078   6.418   4.311   0.951
 2727SOL     OW 9079   0.152   4.665   2.764
 2727SOL    HW1 9080   0.062   4.645   2.726
 2727SOL    HW2 9081   0.219   4.670   2.690
 2728SOL     OW 9082   3.802   0.231   5.463
 2728SOL    HW1 9083   3.855   0.299   5.512
 2728SOL    HW2 9084   3.863   0.175   5.407
 2729SOL     OW 9085   6.420   6.056   1.856
 2729SOL    HW1 9086   6.340   6.095   1.810
 2729SOL    HW2 9087   6.409   5.957   1.865
 2730SOL     OW 9088   1.859   6.020   1.321
 2730SOL    HW1 9089   1.878   5.924   1.303
 2730SOL    HW2 9090   1.888   6.044   1.414
 2731SOL     OW 9091   4.064   3.873   2.196
 2731SOL    HW1 9092   4.017   3.786   2.207
 2731SOL    HW2 9093   4.120   3.891   2.277
 2732SOL     OW 9094   6.156   2.927   1.495
 2732SOL    HW1 9095   6.105   2.940   1.579
 2732SOL    HW2 9096   6.239   2.982   1.497
 2733SOL     OW 9097   0.368   0.118   5.441
 2733SOL    HW1 9098   0.302   0.062   5.392
 2733SOL    HW2 9099   0.395   0.196   5.385
 2734SOL     OW 9100   2.296   5.316   2.332
 2734SOL    HW1 9101   2.333   5.253   2.400
 2734SOL    HW2 9102   2.197   5.322   2.342
 2735SOL     OW 9103   0.552   3.813   3.224
 2735SOL    HW1 9104   0.568   3.805   3.322
 2735SOL    HW2 9105   0.466   3.862   3.208
 2736SOL     OW 9106   5.310   0.203   4.317
 2736SOL    HW1 9107   5.322   0.117   4.365
 2736SOL    HW2 9108   5.398   0.234   4.281
 2737SOL     OW 9109   3.143   3.067   5.403
 2737SOL    HW1 9110   3.201   3.141   5.369
 2737SOL    HW2 9111   3.138   3.072   5.502
 2738SOL     OW 9112   5.220   5.426   4.512
 2738SOL    HW1 9113   5.235   5.496   4.442
 2738SOL    HW2 9114   5.307   5.399   4.551
 2739SOL     OW 9115   5.834   4.988   0.403
 2739SOL    HW1 9116   5.803   5.076   0.438
 2739SOL    HW2 9117   5.755   4.931   0.379
 2740SOL     OW 9118   6.089   2.938   2.352
 2740SOL    HW1 9119   6.150   2.959   2.428
 2740SOL    HW2 9120   6.143   2.928   2.268
 2741SOL     OW 9121   6.806   1.368   5.786
 2741SOL    HW1 9122   6.734   1.411   5.731
 2741SOL    HW2 9123   6.774   1.354   5.879
 2742SOL     OW 9124   1.872   5.355   6.712
 2742SOL    HW1 9125   1.921   5.363   6.625
 2742SOL    HW2 9126   1.875   5.260   6.743
 2743SOL     OW 9127   6.257   5.290   2.159
 2743SOL    HW1 9128   6.232   5.218   2.094
 2743SOL    HW2 9129   6.179   5.310   2.219
 2744SOL     OW 9130   4.077   2.312   6.704
 2744SOL    HW1 9131   4.008   2.245   6.676
 2744SOL    HW2 9132   4.083   2.386   6.637
 2745SOL     OW 9133   1.045   6.857   0.086
 2745SOL    HW1 9134   1.024   6.770   0.132
 2745SOL    HW2 9135   0.960   6.907   0.070
 2746SOL     OW 9136   1.886   1.830   4.426
 2746SOL    HW1 9137   1.822   1.870   4.492
 2746SOL    HW2 9138   1.968   1.798   4.474
 2747SOL     OW 9139   5.471   3.496   5.768
 2747SOL    HW1 9140   5.514   3.586   5.766
 2747SOL    HW2 9141   5.529   3.433   5.820
 2748SOL     OW 9142   3.825   1.247   1.186
 2748SOL    HW1 9143   3.811   1.298   1.102
 2748SOL    HW2 9144   3.922   1.245   1.208
 2749SOL     OW 9145   6.098   4.378   3.909
 2749SOL    HW1 9146   6.133   4.462   3.868
 2749SOL    HW2 9147   6.165   4.343   3.975
 2750SOL     OW 9148   0.233   5.254   1.962
 2750SOL    HW1 9149   0.308   5.310   1.927
 2750SOL    HW2 9150   0.190   5.205   1.886
 2751SOL     OW 9151   1.604   6.707   0.760
 2751SOL    HW1 9152   1.532   6.641   0.781
 2751SOL    HW2 9153   1.597   6.735   0.665
 2752SOL     OW 9154   5.274   5.361   5.054
 2752SOL    HW1 9155   5.224   5.406   5.128
 2752SOL    HW2 9156   5.315   5.277   5.088
 2753SOL     OW 9157   1.710   0.069   6.307
 2753SOL    HW1 9158   1.809   0.086   6.311
 2753SOL    HW2 9159   1.690   0.011   6.228
 2754SOL     OW 9160   6.590   1.114   4.333
 2754SOL    HW1 9161   6.548   1.204   4.349
 2754SOL    HW2 9162   6.518   1.045   4.321
 2755SOL     OW 9163   3.447   6.823   3.347
 2755SOL    HW1 9164   3.431   6.725   3.332
 2755SOL    HW2 9165   3.438   6.872   3.260
 2756SOL     OW 9166   6.325   3.735   4.608
 2756SOL    HW1 9167   6.281   3.730   4.518
 2756SOL    HW2 9168   6.346   3.643   4.640
 2757SOL     OW 9169   2.650   1.263   6.720
 2757SOL    HW1 9170   2.743   1.283   6.688
 2757SOL    HW2 9171   2.646   1.169   6.755
 2758SOL     OW 9172   5.388   6.174   3.708
 2758SOL    HW1 9173   5.297   6.143   3.734
 2758SOL    HW2 9174   5.401   6.269   3.738
 2759SOL     OW 9175   3.861   5.511   5.147
 2759SOL    HW1 9176   3.834   5.540   5.055
 2759SOL    HW2 9177   3.782   5.515   5.208
 2760SOL     OW 9178   6.849   5.259   2.566
 2760SOL    HW1 9179   6.861   5.347   2.612
 2760SOL    HW2 9180   6.924   5.198   2.593
 2761SOL     OW 9181   1.693   4.348   3.551
 2761SOL    HW1 9182   1.709   4.417   3.623
 2761SOL    HW2 9183   1.594   4.340   3.535
 2762SOL     OW 9184   1.557   2.155   0.090
 2762SOL    HW1 9185   1.614   2.083   0.129
 2762SOL    HW2 9186   1.615   2.221   0.042
 2763SOL     OW 9187   4.886   2.285   5.633
 2763SOL    HW1 9188   4.888   2.344   5.714
 2763SOL    HW2 9189   4.813   2.314   5.572
 2764SOL     OW 9190   0.341   5.604   2.270
 2764SOL    HW1 9191   0.400   5.577   2.347
 2764SOL    HW2 9192   0.246   5.605   2.299
 2765SOL     OW 9193   0.143   0.103   0.842
 2765SOL    HW1 9194   0.145   0.033   0.770
 2765SOL    HW2 9195   0.069   0.167   0.825
 2766SOL     OW 9196   3.749   1.172   6.377
 2766SOL    HW1 9197   3.819   1.139   6.440
 2766SOL    HW2 9198   3.729   1.268   6.396
 2767SOL     OW 9199   6.050   5.820   6.485
 2767SOL    HW1 9200   5.983   5.810   6.559
 2767SOL    HW2 9201   6.139   5.845   6.524
 2768SOL     OW 9202   4.318   1.366   6.900
 2768SOL    HW1 9203   4.251   1.384   6.972
 2768SOL    HW2 9204   4.390   1.436   6.902
 2769SOL     OW 9205   2.647   4.760   6.370
 2769SOL    HW1 9206   2.556   4.740   6.333
 2769SOL    HW2 9207   2.669   4.696   6.443
 2770SOL     OW 9208   4.325   6.258   6.051
 2770SOL    HW1 9209   4.337   6.200   6.132
 2770SOL    HW2 9210   4.347   6.353   6.075
 2771SOL     OW 9211   5.762   0.360   4.810
 2771SOL    HW1 9212   5.707   0.299   4.752
 2771SOL    HW2 9213   5.753   0.331   4.905
 2772SOL     OW 9214   2.910   1.538   2.034
 2772SOL    HW1 9215   2.866   1.483   2.105
 2772SOL    HW2 9216   2.941   1.479   1.959
 2773SOL     OW 9217   6.969   3.057   3.947
 2773SOL    HW1 9218   0.038   3.021   3.963
 2773SOL    HW2 9219   6.900   2.991   3.978
 2774SOL     OW 9220   5.201   3.132   2.897
 2774SOL    HW1 9221   5.258   3.177   2.828
 2774SOL    HW2 9222   5.174   3.199   2.966
 2775SOL     OW 9223   6.157   3.942   3.509
 2775SOL    HW1 9224   6.179   3.845   3.495
 2775SOL    HW2 9225   6.237   3.998   3.488
 2776SOL     OW 9226   5.434   4.376   5.545
 2776SOL    HW1 9227   5.446   4.330   5.458
 2776SOL    HW2 9228   5.345   4.421   5.547
 2777SOL     OW 9229   2.178   1.514   6.647
 2777SOL    HW1 9230   2.239   1.442   6.615
 2777SOL    HW2 9231   2.203   1.540   6.740
 2778SOL     OW 9232   1.781   6.068   6.492
 2778SOL    HW1 9233   1.824   5.982   6.520
 2778SOL    HW2 9234   1.752   6.119   6.573
 2779SOL     OW 9235   5.416   6.823   1.957
 2779SOL    HW1 9236   5.426   6.916   1.992
 2779SOL    HW2 9237   5.384   6.764   2.031
 2780SOL     OW 9238   6.541   0.300   6.003
 2780SOL    HW1 9239   6.499   0.211   5.984
 2780SOL    HW2 9240   6.471   0.371   6.000
 2781SOL     OW 9241   5.967   0.355   3.227
 2781SOL    HW1 9242   5.983   0.435   3.169
 2781SOL    HW2 9243   5.878   0.316   3.204
 2782SOL     OW 9244   4.227   1.481   5.192
 2782SOL    HW1 9245   4.318   1.522   5.183
 2782SOL    HW2 9246   4.192   1.458   5.102
 2783SOL     OW 9247   6.780   3.907   1.475
 2783SOL    HW1 9248   6.742   3.998   1.456
 2783SOL    HW2 9249   6.708   3.838   1.467
 2784SOL     OW 9250   3.442   1.605   1.817
 2784SOL    HW1 9251   3.467   1.678   1.881
 2784SOL    HW2 9252   3.350   1.573   1.837
 2785SOL     OW 9253   5.446   1.936   0.553
 2785SOL    HW1 9254   5.487   2.002   0.490
 2785SOL    HW2 9255   5.427   1.981   0.640
 2786SOL     OW 9256   6.476   6.386   1.350
 2786SOL    HW1 9257   6.477   6.351   1.444
 2786SOL    HW2 9258   6.569   6.386   1.313
 2787SOL     OW 9259   6.703   5.874   5.417
 2787SOL    HW1 9260   6.624   5.815   5.432
 2787SOL    HW2 9261   6.747   5.849   5.331
 2788SOL     OW 9262   2.759   6.295   6.436
 2788SOL    HW1 9263   2.827   6.257   6.374
 2788SOL    HW2 9264   2.697   6.222   6.466
 2789SOL     OW 9265   1.842   1.980   3.429
 2789SOL    HW1 9266   1.830   2.007   3.524
 2789SOL    HW2 9267   1.917   2.034   3.388
 2790SOL     OW 9268   3.385   5.293   0.785
 2790SOL    HW1 9269   3.347   5.354   0.855
 2790SOL    HW2 9270   3.429   5.215   0.830
 2791SOL     OW 9271   0.299   4.443   2.328
 2791SOL    HW1 9272   0.228   4.465   2.261
 2791SOL    HW2 9273   0.287   4.500   2.409
 2792SOL     OW 9274   2.881   1.488   4.356
 2792SOL    HW1 9275   2.906   1.530   4.269
 2792SOL    HW2 9276   2.902   1.391   4.353
 2793SOL     OW 9277   5.181   3.705   2.041
 2793SOL    HW1 9278   5.189   3.741   1.948
 2793SOL    HW2 9279   5.223   3.614   2.045
 2794SOL     OW 9280   6.443   2.049   5.949
 2794SOL    HW1 9281   6.414   2.048   5.853
 2794SOL    HW2 9282   6.379   1.994   6.004
 2795SOL     OW 9283   0.328   4.477   1.075
 2795SOL    HW1 9284   0.389   4.538   1.024
 2795SOL    HW2 9285   0.292   4.525   1.154
 2796SOL     OW 9286   0.990   5.471   4.242
 2796SOL    HW1 9287   0.951   5.477   4.335
 2796SOL    HW2 9288   0.938   5.405   4.189
 2797SOL     OW 9289   5.335   5.537   5.871
 2797SOL    HW1 9290   5.272   5.470   5.908
 2797SOL    HW2 9291   5.421   5.534   5.922
 2798SOL     OW 9292   6.039   5.763   2.621
 2798SOL    HW1 9293   5.945   5.795   2.612
 2798SOL    HW2 9294   6.088   5.822   2.686
 2799SOL     OW 9295   4.733   5.849   5.400
 2799SOL    HW1 9296   4.689   5.796   5.473
 2799SOL    HW2 9297   4.691   5.826   5.313
 2800SOL     OW 9298   6.160   0.818   6.018
 2800SOL    HW1 9299   6.132   0.869   5.937
 2800SOL    HW2 9300   6.081   0.802   6.077
 2801SOL     OW 9301   1.385   5.698   5.802
 2801SOL    HW1 9302   1.422   5.739   5.885
 2801SOL    HW2 9303   1.285   5.697   5.806
 2802SOL     OW 9304   6.796   6.536   5.673
 2802SOL    HW1 9305   6.711   6.586   5.689
 2802SOL    HW2 9306   6.785   6.441   5.704
 2803SOL     OW 9307   3.494   4.234   5.920
 2803SOL    HW1 9308   3.543   4.189   5.994
 2803SOL    HW2 9309   3.539   4.320   5.897
 2804SOL     OW 9310   0.193   3.669   4.611
 2804SOL    HW1 9311   0.228   3.762   4.608
 2804SOL    HW2 9312   0.170   3.638   4.519
 2805SOL     OW 9313   6.288   3.880   2.608
 2805SOL    HW1 9314   6.287   3.813   2.533
 2805SOL    HW2 9315   6.203   3.931   2.608
 2806SOL     OW 9316   1.688   4.318   6.742
 2806SOL    HW1 9317   1.763   4.291   6.802
 2806SOL    HW2 9318   1.649   4.237   6.697
 2807SOL     OW 9319   4.142   0.581   3.059
 2807SOL    HW1 9320   4.229   0.605   3.017
 2807SOL    HW2 9321   4.139   0.483   3.075
 2808SOL     OW 9322   6.138   6.114   0.957
 2808SOL    HW1 9323   6.048   6.144   0.989
 2808SOL    HW2 9324   6.178   6.184   0.898
 2809SOL     OW 9325   5.906   2.509   1.398
 2809SOL    HW1 9326   5.905   2.556   1.486
 2809SOL    HW2 9327   5.929   2.413   1.411
 2810SOL     OW 9328   2.504   5.167   2.947
 2810SOL    HW1 9329   2.528   5.144   2.853
 2810SOL    HW2 9330   2.484   5.082   2.997
 2811SOL     OW 9331   0.561   1.385   2.163
 2811SOL    HW1 9332   0.658   1.361   2.159
 2811SOL    HW2 9333   0.520   1.344   2.244
 2812SOL     OW 9334   6.338   3.080   0.532
 2812SOL    HW1 9335   6.314   3.138   0.610
 2812SOL    HW2 9336   6.407   3.125   0.476
 2813SOL     OW 9337   0.525   1.529   0.531
 2813SOL    HW1 9338   0.483   1.618   0.520
 2813SOL    HW2 9339   0.599   1.519   0.464
 2814SOL     OW 9340   3.132   4.278   5.568
 2814SOL    HW1 9341   3.231   4.266   5.575
 2814SOL    HW2 9342   3.097   4.311   5.656
 2815SOL     OW 9343   7.010   5.765   6.030
 2815SOL    HW1 9344   6.941   5.712   5.982
 2815SOL    HW2 9345   6.985   5.862   6.028
 2816SOL     OW 9346   0.020   5.661   4.615
 2816SOL    HW1 9347   6.965   5.646   4.677
 2816SOL    HW2 9348   7.010   5.657   4.521
 2817SOL     OW 9349   3.540   1.454   2.465
 2817SOL    HW1 9350   3.538   1.554   2.465
 2817SOL    HW2 9351   3.525   1.422   2.371
 2818SOL     OW 9352   6.659   1.150   1.874
 2818SOL    HW1 9353   6.685   1.169   1.968
 2818SOL    HW2 9354   6.738   1.118   1.823
 2819SOL     OW 9355   1.457   0.260   1.247
 2819SOL    HW1 9356   1.373   0.234   1.200
 2819SOL    HW2 9357   1.445   0.349   1.290
 2820SOL     OW 9358   0.567   2.365   2.397
 2820SOL    HW1 9359   0.569   2.344   2.299
 2820SOL    HW2 9360   0.637   2.433   2.418
 2821SOL     OW 9361   3.125   5.192   5.971
 2821SOL    HW1 9362   3.158   5.257   6.040
 2821SOL    HW2 9363   3.043   5.228   5.928
 2822SOL     OW 9364   4.215   2.610   0.139
 2822SOL    HW1 9365   4.243   2.665   0.217
 2822SOL    HW2 9366   4.268   2.525   0.137
 2823SOL     OW 9367   5.773   0.877   6.824
 2823SOL    HW1 9368   5.799   0.793   6.776
 2823SOL    HW2 9369   5.674   0.887   6.821
 2824SOL     OW 9370   1.804   3.610   5.771
 2824SOL    HW1 9371   1.898   3.610   5.736
 2824SOL    HW2 9372   1.749   3.544   5.719
 2825SOL     OW 9373   5.783   0.306   6.641
 2825SOL    HW1 9374   5.762   0.404   6.632
 2825SOL    HW2 9375   5.709   0.253   6.600
 2826SOL     OW 9376   2.541   2.748   6.310
 2826SOL    HW1 9377   2.468   2.687   6.343
 2826SOL    HW2 9378   2.543   2.746   6.210
 2827SOL     OW 9379   0.382   0.876   6.369
 2827SOL    HW1 9380   0.477   0.844   6.368
 2827SOL    HW2 9381   0.359   0.910   6.461
 2828SOL     OW 9382   1.520   3.727   1.445
 2828SOL    HW1 9383   1.606   3.762   1.480
 2828SOL    HW2 9384   1.449   3.798   1.454
 2829SOL     OW 9385   3.406   3.202   3.059
 2829SOL    HW1 9386   3.505   3.189   3.052
 2829SOL    HW2 9387   3.359   3.115   3.044
 2830SOL     OW 9388   3.532   4.407   5.243
 2830SOL    HW1 9389   3.456   4.470   5.261
 2830SOL    HW2 9390   3.495   4.320   5.211
 2831SOL     OW 9391   0.485   2.182   2.936
 2831SOL    HW1 9392   0.532   2.270   2.926
 2831SOL    HW2 9393   0.406   2.180   2.874
 2832SOL     OW 9394   0.920   3.461   1.674
 2832SOL    HW1 9395   0.988   3.403   1.630
 2832SOL    HW2 9396   0.877   3.520   1.606
 2833SOL     OW 9397   2.633   1.644   2.044
 2833SOL    HW1 9398   2.611   1.549   2.022
 2833SOL    HW2 9399   2.732   1.656   2.046
 2834SOL     OW 9400   4.816   6.320   5.047
 2834SOL    HW1 9401   4.908   6.336   5.013
 2834SOL    HW2 9402   4.758   6.287   4.973
 2835SOL     OW 9403   1.133   6.519   0.584
 2835SOL    HW1 9404   1.187   6.554   0.507
 2835SOL    HW2 9405   1.157   6.571   0.666
 2836SOL     OW 9406   2.581   6.170   3.250
 2836SOL    HW1 9407   2.619   6.102   3.312
 2836SOL    HW2 9408   2.532   6.125   3.176
 2837SOL     OW 9409   5.595   4.478   2.404
 2837SOL    HW1 9410   5.574   4.381   2.411
 2837SOL    HW2 9411   5.534   4.520   2.336
 2838SOL     OW 9412   4.973   3.946   0.328
 2838SOL    HW1 9413   5.007   3.965   0.236
 2838SOL    HW2 9414   4.882   3.987   0.338
 2839SOL     OW 9415   0.088   2.570   3.004
 2839SOL    HW1 9416   0.114   2.634   2.932
 2839SOL    HW2 9417   0.082   2.617   3.091
 2840SOL     OW 9418   1.445   5.631   2.791
 2840SOL    HW1 9419   1.492   5.685   2.861
 2840SOL    HW2 9420   1.383   5.566   2.835
 2841SOL     OW 9421   6.378   2.191   0.079
 2841SOL    HW1 9422   6.324   2.256   0.133
 2841SOL    HW2 9423   6.442   2.241   0.021
 2842SOL     OW 9424   1.609   6.052   4.908
 2842SOL    HW1 9425   1.591   6.127   4.972
 2842SOL    HW2 9426   1.553   6.065   4.826
 2843SOL     OW 9427   2.537   2.237   3.013
 2843SOL    HW1 9428   2.625   2.255   2.969
 2843SOL    HW2 9429   2.463   2.265   2.951
 2844SOL     OW 9430   5.198   4.492   1.397
 2844SOL    HW1 9431   5.132   4.417   1.392
 2844SOL    HW2 9432   5.157   4.569   1.446
 2845SOL     OW 9433   5.088   2.850   3.255
 2845SOL    HW1 9434   5.023   2.782   3.289
 2845SOL    HW2 9435   5.083   2.854   3.155
 2846SOL     OW 9436   3.393   1.009   0.122
 2846SOL    HW1 9437   3.340   0.995   0.037
 2846SOL    HW2 9438   3.487   0.978   0.107
 2847SOL     OW 9439   4.887   4.014   2.407
 2847SOL    HW1 9440   4.957   3.957   2.364
 2847SOL    HW2 9441   4.797   3.973   2.394
 2848SOL     OW 9442   1.748   2.648   5.319
 2848SOL    HW1 9443   1.682   2.723   5.315
 2848SOL    HW2 9444   1.712   2.569   5.269
 2849SOL     OW 9445   3.655   1.125   1.509
 2849SOL    HW1 9446   3.658   1.164   1.601
 2849SOL    HW2 9447   3.641   1.199   1.442
 2850SOL     OW 9448   1.774   6.979   3.582
 2850SOL    HW1 9449   1.750   6.930   3.499
 2850SOL    HW2 9450   1.809   0.047   3.558
 2851SOL     OW 9451   4.344   3.731   6.500
 2851SOL    HW1 9452   4.410   3.670   6.543
 2851SOL    HW2 9453   4.307   3.794   6.568
 2852SOL     OW 9454   6.685   4.261   6.956
 2852SOL    HW1 9455   6.731   4.288   0.017
 2852SOL    HW2 9456   6.598   4.311   6.948
 2853SOL     OW 9457   0.458   3.379   0.186
 2853SOL    HW1 9458   0.397   3.313   0.230
 2853SOL    HW2 9459   0.424   3.472   0.201
 2854SOL     OW 9460   3.610   0.988   6.265
 2854SOL    HW1 9461   3.668   1.066   6.288
 2854SOL    HW2 9462   3.662   0.903   6.277
 2855SOL     OW 9463   1.091   2.550   4.394
 2855SOL    HW1 9464   1.013   2.612   4.386
 2855SOL    HW2 9465   1.175   2.603   4.400
 2856SOL     OW 9466   1.603   2.458   3.190
 2856SOL    HW1 9467   1.582   2.498   3.280
 2856SOL    HW2 9468   1.644   2.368   3.203
 2857SOL     OW 9469   0.138   3.126   0.981
 2857SOL    HW1 9470   0.206   3.158   1.047
 2857SOL    HW2 9471   0.146   3.026   0.971
 2858SOL     OW 9472   5.297   6.422   2.442
 2858SOL    HW1 9473   5.304   6.346   2.507
 2858SOL    HW2 9474   5.210   6.417   2.393
 2859SOL     OW 9475   5.378   5.735   0.587
 2859SOL    HW1 9476   5.474   5.763   0.591
 2859SOL    HW2 9477   5.363   5.680   0.505
 2860SOL     OW 9478   2.000   6.730   2.243
 2860SOL    HW1 9479   1.978   6.636   2.220
 2860SOL    HW2 9480   1.926   6.790   2.215
 2861SOL     OW 9481   2.915   5.449   5.492
 2861SOL    HW1 9482   2.928   5.351   5.506
 2861SOL    HW2 9483   2.988   5.485   5.435
 2862SOL     OW 9484   4.463   2.446   2.039
 2862SOL    HW1 9485   4.536   2.385   2.008
 2862SOL    HW2 9486   4.393   2.393   2.087
 2863SOL     OW 9487   5.219   1.603   6.821
 2863SOL    HW1 9488   5.174   1.692   6.816
 2863SOL    HW2 9489   5.301   1.604   6.763
 2864SOL     OW 9490   4.528   3.253   0.995
 2864SOL    HW1 9491   4.506   3.155   0.995
 2864SOL    HW2 9492   4.536   3.285   1.089
 2865SOL     OW 9493   4.425   6.900   4.140
 2865SOL    HW1 9494   4.455   6.845   4.062
 2865SOL    HW2 9495   4.325   6.898   4.144
 2866SOL     OW 9496   5.771   3.871   0.576
 2866SOL    HW1 9497   5.850   3.862   0.514
 2866SOL    HW2 9498   5.692   3.826   0.535
 2867SOL     OW 9499   6.507   6.185   2.475
 2867SOL    HW1 9500   6.510   6.171   2.376
 2867SOL    HW2 9501   6.511   6.283   2.495
 2868SOL     OW 9502   0.913   0.871   5.096
 2868SOL    HW1 9503   0.898   0.842   5.001
 2868SOL    HW2 9504   0.994   0.930   5.099
 2869SOL     OW 9505   6.137   0.493   3.778
 2869SOL    HW1 9506   6.209   0.546   3.733
 2869SOL    HW2 9507   6.158   0.485   3.876
 2870SOL     OW 9508   0.867   1.777   6.742
 2870SOL    HW1 9509   0.902   1.807   6.831
 2870SOL    HW2 9510   0.835   1.856   6.691
 2871SOL     OW 9511   6.223   0.606   6.850
 2871SOL    HW1 9512   6.130   0.576   6.869
 2871SOL    HW2 9513   6.261   0.553   6.774
 2872SOL     OW 9514   2.685   1.585   0.851
 2872SOL    HW1 9515   2.664   1.534   0.934
 2872SOL    HW2 9516   2.604   1.588   0.793
 2873SOL     OW 9517   6.549   5.894   1.556
 2873SOL    HW1 9518   6.608   5.855   1.626
 2873SOL    HW2 9519   6.605   5.931   1.482
 2874SOL     OW 9520   4.395   6.943   2.743
 2874SOL    HW1 9521   4.472   6.939   2.680
 2874SOL    HW2 9522   4.313   6.971   2.694
 2875SOL     OW 9523   3.596   6.872   2.845
 2875SOL    HW1 9524   3.530   6.899   2.775
 2875SOL    HW2 9525   3.677   6.835   2.801
 2876SOL     OW 9526   1.404   6.310   2.100
 2876SOL    HW1 9527   1.372   6.223   2.137
 2876SOL    HW2 9528   1.433   6.297   2.006
 2877SOL     OW 9529   2.204   0.687   6.908
 2877SOL    HW1 9530   2.251   0.764   6.864
 2877SOL    HW2 9531   2.269   0.612   6.920
 2878SOL     OW 9532   3.111   3.966   4.150
 2878SOL    HW1 9533   3.194   3.913   4.169
 2878SOL    HW2 9534   3.045   3.952   4.223
 2879SOL     OW 9535   4.242   5.525   5.945
 2879SOL    HW1 9536   4.150   5.527   5.984
 2879SOL    HW2 9537   4.296   5.599   5.986
 2880SOL     OW 9538   0.407   1.785   3.803
 2880SOL    HW1 9539   0.322   1.768   3.754
 2880SOL    HW2 9540   0.430   1.706   3.860
 2881SOL     OW 9541   3.622   5.828   0.086
 2881SOL    HW1 9542   3.522   5.822   0.092
 2881SOL    HW2 9543   3.659   5.868   0.170
 2882SOL     OW 9544   5.837   6.026   1.243
 2882SOL    HW1 9545   5.803   5.933   1.233
 2882SOL    HW2 9546   5.878   6.056   1.157
 2883SOL     OW 9547   5.818   6.507   3.570
 2883SOL    HW1 9548   5.903   6.557   3.586
 2883SOL    HW2 9549   5.837   6.409   3.575
 2884SOL     OW 9550   6.605   5.695   2.089
 2884SOL    HW1 9551   6.528   5.723   2.030
 2884SOL    HW2 9552   6.690   5.734   2.054
 2885SOL     OW 9553   1.379   2.228   4.317
 2885SOL    HW1 9554   1.318   2.306   4.307
 2885SOL    HW2 9555   1.337   2.159   4.377
 2886SOL     OW 9556   2.801   4.478   6.873
 2886SOL    HW1 9557   2.813   4.517   6.781
 2886SOL    HW2 9558   2.809   4.379   6.869
 2887SOL     OW 9559   6.909   6.556   4.295
 2887SOL    HW1 9560   6.948   6.487   4.356
 2887SOL    HW2 9561   6.868   6.511   4.216
 2888SOL     OW 9562   0.098   5.024   0.123
 2888SOL    HW1 9563   0.059   5.026   0.031
 2888SOL    HW2 9564   0.098   5.116   0.162
 2889SOL     OW 9565   3.136   6.789   2.926
 2889SOL    HW1 9566   3.115   6.731   2.847
 2889SOL    HW2 9567   3.091   6.878   2.915
 2890SOL     OW 9568   1.768   4.886   0.871
 2890SOL    HW1 9569   1.686   4.911   0.818
 2890SOL    HW2 9570   1.838   4.956   0.859
 2891SOL     OW 9571   1.281   3.253   3.291
 2891SOL    HW1 9572   1.197   3.264   3.238
 2891SOL    HW2 9573   1.258   3.235   3.387
 2892SOL     OW 9574   5.759   2.709   1.094
 2892SOL    HW1 9575   5.793   2.702   1.000
 2892SOL    HW2 9576   5.835   2.728   1.156
 2893SOL     OW 9577   1.786   5.607   4.713
 2893SOL    HW1 9578   1.813   5.562   4.628
 2893SOL    HW2 9579   1.828   5.560   4.791
 2894SOL     OW 9580   1.490   3.790   1.779
 2894SOL    HW1 9581   1.536   3.703   1.793
 2894SOL    HW2 9582   1.409   3.777   1.722
 2895SOL     OW 9583   4.185   0.804   6.301
 2895SOL    HW1 9584   4.143   0.719   6.334
 2895SOL    HW2 9585   4.249   0.783   6.227
 2896SOL     OW 9586   5.170   0.179   6.160
 2896SOL    HW1 9587   5.145   0.130   6.077
 2896SOL    HW2 9588   5.233   0.253   6.138
 2897SOL     OW 9589   4.297   4.868   2.969
 2897SOL    HW1 9590   4.295   4.781   3.018
 2897SOL    HW2 9591   4.346   4.936   3.023
 2898SOL     OW 9592   5.241   3.756   4.065
 2898SOL    HW1 9593   5.143   3.737   4.067
 2898SOL    HW2 9594   5.261   3.837   4.121
 2899SOL     OW 9595   6.645   1.674   0.620
 2899SOL    HW1 9596   6.580   1.646   0.549
 2899SOL    HW2 9597   6.676   1.768   0.602
 2900SOL     OW 9598   4.315   5.056   0.071
 2900SOL    HW1 9599   4.263   5.003   0.004
 2900SOL    HW2 9600   4.300   5.017   0.162
 2901SOL     OW 9601   1.772   5.196   3.303
 2901SOL    HW1 9602   1.693   5.138   3.322
 2901SOL    HW2 9603   1.824   5.211   3.387
 2902SOL     OW 9604   0.191   5.405   3.816
 2902SOL    HW1 9605   0.184   5.466   3.737
 2902SOL    HW2 9606   0.139   5.321   3.798
 2903SOL     OW 9607   4.499   6.291   1.151
 2903SOL    HW1 9608   4.581   6.311   1.096
 2903SOL    HW2 9609   4.508   6.333   1.241
 2904SOL     OW 9610   3.211   4.925   4.756
 2904SOL    HW1 9611   3.176   4.882   4.840
 2904SOL    HW2 9612   3.309   4.940   4.765
 2905SOL     OW 9613   1.659   4.096   3.682
 2905SOL    HW1 9614   1.570   4.127   3.716
 2905SOL    HW2 9615   1.684   4.149   3.601
 2906SOL     OW 9616   5.576   5.980   2.502
 2906SOL    HW1 9617   5.559   6.072   2.536
 2906SOL    HW2 9618   5.489   5.935   2.481
 2907SOL     OW 9619   0.675   1.718   4.362
 2907SOL    HW1 9620   0.728   1.652   4.309
 2907SOL    HW2 9621   0.577   1.696   4.353
 2908SOL     OW 9622   5.672   6.860   4.157
 2908SOL    HW1 9623   5.622   6.774   4.149
 2908SOL    HW2 9624   5.668   6.909   4.070
 2909SOL     OW 9625   1.505   6.660   3.254
 2909SOL    HW1 9626   1.435   6.730   3.270
 2909SOL    HW2 9627   1.565   6.656   3.334
 2910SOL     OW 9628   6.839   0.876   3.607
 2910SOL    HW1 9629   6.862   0.834   3.694
 2910SOL    HW2 9630   6.837   0.976   3.617
 2911SOL     OW 9631   1.558   4.679   3.746
 2911SOL    HW1 9632   1.484   4.627   3.703
 2911SOL    HW2 9633   1.557   4.773   3.712
 2912SOL     OW 9634   6.569   6.302   6.668
 2912SOL    HW1 9635   6.602   6.395   6.679
 2912SOL    HW2 9636   6.572   6.255   6.756
 2913SOL     OW 9637   2.889   4.875   2.648
 2913SOL    HW1 9638   2.919   4.949   2.709
 2913SOL    HW2 9639   2.968   4.837   2.601
 2914SOL     OW 9640   5.454   5.439   1.283
 2914SOL    HW1 9641   5.383   5.446   1.353
 2914SOL    HW2 9642   5.538   5.482   1.316
 2915SOL     OW 9643   3.065   1.873   3.765
 2915SOL    HW1 9644   3.138   1.864   3.698
 2915SOL    HW2 9645   3.044   1.970   3.778
 2916SOL     OW 9646   2.146   5.417   0.356
 2916SOL    HW1 9647   2.088   5.365   0.419
 2916SOL    HW2 9648   2.233   5.369   0.344
 2917SOL     OW 9649   3.127   0.484   4.072
 2917SOL    HW1 9650   3.168   0.536   3.997
 2917SOL    HW2 9651   3.091   0.398   4.037
 2918SOL     OW 9652   5.706   3.842   6.927
 2918SOL    HW1 9653   5.787   3.797   6.965
 2918SOL    HW2 9654   5.646   3.773   6.886
 2919SOL     OW 9655   6.272   6.373   3.443
 2919SOL    HW1 9656   6.268   6.333   3.351
 2919SOL    HW2 9657   6.241   6.305   3.510
 2920SOL     OW 9658   2.975   0.395   2.017
 2920SOL    HW1 9659   2.957   0.399   1.919
 2920SOL    HW2 9660   2.896   0.357   2.065
 2921SOL     OW 9661   0.294   0.300   5.999
 2921SOL    HW1 9662   0.374   0.327   5.946
 2921SOL    HW2 9663   0.257   0.214   5.964
 2922SOL     OW 9664   4.046   6.361   2.005
 2922SOL    HW1 9665   3.960   6.410   2.021
 2922SOL    HW2 9666   4.119   6.404   2.058
 2923SOL     OW 9667   6.437   5.079   4.596
 2923SOL    HW1 9668   6.519   5.062   4.650
 2923SOL    HW2 9669   6.459   5.136   4.518
 2924SOL     OW 9670   6.864   1.552   4.645
 2924SOL    HW1 9671   6.825   1.464   4.674
 2924SOL    HW2 9672   6.893   1.604   4.725
 2925SOL     OW 9673   5.639   2.108   6.740
 2925SOL    HW1 9674   5.716   2.166   6.713
 2925SOL    HW2 9675   5.615   2.048   6.664
 2926SOL     OW 9676   6.495   2.467   6.262
 2926SOL    HW1 9677   6.409   2.504   6.225
 2926SOL    HW2 9678   6.552   2.435   6.186
 2927SOL     OW 9679   1.614   3.064   0.548
 2927SOL    HW1 9680   1.611   3.099   0.642
 2927SOL    HW2 9681   1.544   3.109   0.493
 2928SOL     OW 9682   6.674   1.182   6.788
 2928SOL    HW1 9683   6.720   1.251   6.844
 2928SOL    HW2 9684   6.577   1.205   6.780
 2929SOL     OW 9685   1.543   2.736   5.018
 2929SOL    HW1 9686   1.631   2.722   5.063
 2929SOL    HW2 9687   1.557   2.776   4.928
 2930SOL     OW 9688   5.478   6.259   5.220
 2930SOL    HW1 9689   5.379   6.247   5.210
 2930SOL    HW2 9690   5.496   6.327   5.291
 2931SOL     OW 9691   4.322   4.859   0.326
 2931SOL    HW1 9692   4.335   4.780   0.266
 2931SOL    HW2 9693   4.247   4.841   0.390
 2932SOL     OW 9694   0.024   5.447   1.432
 2932SOL    HW1 9695   6.975   5.516   1.429
 2932SOL    HW2 9696   7.016   5.365   1.383
 2933SOL     OW 9697   0.620   6.907   2.081
 2933SOL    HW1 9698   0.683   6.844   2.127
 2933SOL    HW2 9699   0.551   6.855   2.031
 2934SOL     OW 9700   4.831   2.804   1.199
 2934SOL    HW1 9701   4.790   2.873   1.139
 2934SOL    HW2 9702   4.855   2.845   1.286
 2935SOL     OW 9703   0.586   2.506   6.402
 2935SOL    HW1 9704   0.540   2.429   6.446
 2935SOL    HW2 9705   0.591   2.490   6.303
 2936SOL     OW 9706   3.883   6.417   0.912
 2936SOL    HW1 9707   3.916   6.329   0.880
 2936SOL    HW2 9708   3.790   6.407   0.947
 2937SOL     OW 9709   4.787   5.259   0.829
 2937SOL    HW1 9710   4.710   5.278   0.768
 2937SOL    HW2 9711   4.873   5.271   0.780
 2938SOL     OW 9712   6.522   5.258   0.156
 2938SOL    HW1 9713   6.464   5.337   0.136
 2938SOL    HW2 9714   6.491   5.180   0.103
 2939SOL     OW 9715   1.493   0.124   1.813
 2939SOL    HW1 9716   1.433   0.202   1.832
 2939SOL    HW2 9717   1.587   0.156   1.800
 2940SOL     OW 9718   6.266   5.637   4.791
 2940SOL    HW1 9719   6.207   5.566   4.753
 2940SOL    HW2 9720   6.282   5.619   4.888
 2941SOL     OW 9721   2.433   2.338   3.271
 2941SOL    HW1 9722   2.513   2.360   3.328
 2941SOL    HW2 9723   2.462   2.329   3.176
 2942SOL     OW 9724   3.576   2.642   0.415
 2942SOL    HW1 9725   3.596   2.557   0.366
 2942SOL    HW2 9726   3.502   2.690   0.368
 2943SOL     OW 9727   6.059   5.167   3.884
 2943SOL    HW1 9728   6.057   5.072   3.851
 2943SOL    HW2 9729   6.012   5.226   3.818
 2944SOL     OW 9730   2.578   6.073   3.558
 2944SOL    HW1 9731   2.603   6.167   3.581
 2944SOL    HW2 9732   2.564   6.021   3.642
 2945SOL     OW 9733   5.192   2.987   1.923
 2945SOL    HW1 9734   5.130   3.020   1.994
 2945SOL    HW2 9735   5.157   2.902   1.884
 2946SOL     OW 9736   2.014   4.217   5.663
 2946SOL    HW1 9737   2.052   4.303   5.629
 2946SOL    HW2 9738   2.068   4.140   5.628
 2947SOL     OW 9739   0.179   5.305   0.341
 2947SOL    HW1 9740   0.133   5.351   0.265
 2947SOL    HW2 9741   0.197   5.371   0.413
 2948SOL     OW 9742   6.819   4.594   3.380
 2948SOL    HW1 9743   6.729   4.552   3.370
 2948SOL    HW2 9744   6.824   4.641   3.469
 2949SOL     OW 9745   0.310   5.744   6.312
 2949SOL    HW1 9746   0.269   5.828   6.346
 2949SOL    HW2 9747   0.409   5.751   6.316
 2950SOL     OW 9748   5.852   5.827   3.782
 2950SOL    HW1 9749   5.920   5.754   3.773
 2950SOL    HW2 9750   5.770   5.791   3.826
 2951SOL     OW 9751   5.473   1.275   2.198
 2951SOL    HW1 9752   5.410   1.244   2.127
 2951SOL    HW2 9753   5.552   1.320   2.156
 2952SOL     OW 9754   6.866   6.884   5.041
 2952SOL    HW1 9755   6.832   6.821   5.111
 2952SOL    HW2 9756   6.872   6.836   4.954
 2953SOL     OW 9757   0.401   4.403   3.347
 2953SOL    HW1 9758   0.496   4.430   3.333
 2953SOL    HW2 9759   0.379   4.326   3.287
 2954SOL     OW 9760   6.884   4.744   6.570
 2954SOL    HW1 9761   6.961   4.786   6.618
 2954SOL    HW2 9762   6.860   4.799   6.490
 2955SOL     OW 9763   0.884   4.214   0.686
 2955SOL    HW1 9764   0.983   4.223   0.695
 2955SOL    HW2 9765   0.840   4.299   0.716
 2956SOL     OW 9766   0.291   5.582   4.052
 2956SOL    HW1 9767   0.214   5.646   4.056
 2956SOL    HW2 9768   0.261   5.495   4.013
 2957SOL     OW 9769   4.247   4.988   1.569
 2957SOL    HW1 9770   4.214   4.911   1.513
 2957SOL    HW2 9771   4.222   4.973   1.664
 2958SOL     OW 9772   2.229   4.859   3.385
 2958SOL    HW1 9773   2.263   4.953   3.394
 2958SOL    HW2 9774   2.129   4.859   3.386
 2959SOL     OW 9775   5.176   2.793   2.748
 2959SOL    HW1 9776   5.216   2.884   2.745
 2959SOL    HW2 9777   5.097   2.789   2.687
 2960SOL     OW 9778   3.769   0.101   6.589
 2960SOL    HW1 9779   3.856   0.106   6.637
 2960SOL    HW2 9780   3.695   0.091   6.656
 2961SOL     OW 9781   6.631   4.903   3.070
 2961SOL    HW1 9782   6.534   4.901   3.049
 2961SOL    HW2 9783   6.645   4.873   3.165
 2962SOL     OW 9784   4.912   6.554   3.445
 2962SOL    HW1 9785   4.870   6.611   3.374
 2962SOL    HW2 9786   4.993   6.509   3.407
 2963SOL     OW 9787   0.958   0.511   6.625
 2963SOL    HW1 9788   0.950   0.600   6.671
 2963SOL    HW2 9789   1.041   0.466   6.656
 2964SOL     OW 9790   0.024   2.392   6.659
 2964SOL    HW1 9791   7.005   2.404   6.749
 2964SOL    HW2 9792   6.975   2.379   6.590
 2965SOL     OW 9793   1.197   0.493   4.633
 2965SOL    HW1 9794   1.197   0.549   4.716
 2965SOL    HW2 9795   1.120   0.430   4.635
 2966SOL     OW 9796   4.831   5.729   3.818
 2966SOL    HW1 9797   4.783   5.816   3.830
 2966SOL    HW2 9798   4.929   5.746   3.814
 2967SOL     OW 9799   6.174   1.203   5.609
 2967SOL    HW1 9800   6.146   1.254   5.691
 2967SOL    HW2 9801   6.093   1.166   5.564
 2968SOL     OW 9802   1.372   2.420   0.698
 2968SOL    HW1 9803   1.342   2.332   0.734
 2968SOL    HW2 9804   1.294   2.469   0.658
 2969SOL     OW 9805   4.917   3.463   4.840
 2969SOL    HW1 9806   4.864   3.493   4.919
 2969SOL    HW2 9807   5.008   3.434   4.870
 2970SOL     OW 9808   2.700   2.746   5.364
 2970SOL    HW1 9809   2.707   2.780   5.458
 2970SOL    HW2 9810   2.712   2.823   5.301
 2971SOL     OW 9811   5.711   4.307   0.124
 2971SOL    HW1 9812   5.803   4.269   0.132
 2971SOL    HW2 9813   5.658   4.252   0.059
 2972SOL     OW 9814   5.339   4.904   6.993
 2972SOL    HW1 9815   5.411   4.836   6.977
 2972SOL    HW2 9816   5.364   4.990   6.947
 2973SOL     OW 9817   4.820   6.679   2.287
 2973SOL    HW1 9818   4.812   6.664   2.385
 2973SOL    HW2 9819   4.916   6.693   2.262
 2974SOL     OW 9820   6.459   4.040   3.479
 2974SOL    HW1 9821   6.556   4.063   3.469
 2974SOL    HW2 9822   6.434   4.047   3.576
 2975SOL     OW 9823   4.993   4.701   4.318
 2975SOL    HW1 9824   5.080   4.666   4.283
 2975SOL    HW2 9825   4.921   4.684   4.251
 2976SOL     OW 9826   5.314   1.926   2.855
 2976SOL    HW1 9827   5.375   1.979   2.796
 2976SOL    HW2 9828   5.254   1.988   2.905
 2977SOL     OW 9829   0.669   0.713   2.425
 2977SOL    HW1 9830   0.746   0.771   2.396
 2977SOL    HW2 9831   0.678   0.623   2.383
 2978SOL     OW 9832   3.774   4.106   0.196
 2978SOL    HW1 9833   3.777   4.086   0.098
 2978SOL    HW2 9834   3.693   4.160   0.217
 2979SOL     OW 9835   3.327   1.549   4.175
 2979SOL    HW1 9836   3.317   1.623   4.109
 2979SOL    HW2 9837   3.271   1.569   4.256
 2980SOL     OW 9838   2.444   5.377   6.552
 2980SOL    HW1 9839   2.440   5.342   6.458
 2980SOL    HW2 9840   2.511   5.325   6.604
 2981SOL     OW 9841   2.367   1.719   0.215
 2981SOL    HW1 9842   2.313   1.795   0.180
 2981SOL    HW2 9843   2.313   1.635   0.213
 2982SOL     OW 9844   1.926   6.030   2.370
 2982SOL    HW1 9845   1.874   5.946   2.360
 2982SOL    HW2 9846   1.948   6.045   2.467
 2983SOL     OW 9847   0.180   2.309   0.915
 2983SOL    HW1 9848   0.203   2.392   0.966
 2983SOL    HW2 9849   0.134   2.334   0.830
 2984SOL     OW 9850   5.856   5.047   6.306
 2984SOL    HW1 9851   5.789   5.025   6.236
 2984SOL    HW2 9852   5.925   5.109   6.269
 2985SOL     OW 9853   0.652   1.359   4.796
 2985SOL    HW1 9854   0.707   1.292   4.745
 2985SOL    HW2 9855   0.563   1.319   4.818
 2986SOL     OW 9856   3.535   4.168   2.323
 2986SOL    HW1 9857   3.576   4.145   2.412
 2986SOL    HW2 9858   3.513   4.266   2.322
 2987SOL     OW 9859   1.483   1.163   4.128
 2987SOL    HW1 9860   1.486   1.191   4.032
 2987SOL    HW2 9861   1.528   1.073   4.137
 2988SOL     OW 9862   1.713   0.047   1.506
 2988SOL    HW1 9863   1.768   6.999   1.549
 2988SOL    HW2 9864   1.774   0.118   1.469
 2989SOL     OW 9865   5.149   3.677   5.157
 2989SOL    HW1 9866   5.085   3.754   5.147
 2989SOL    HW2 9867   5.175   3.668   5.253
 2990SOL     OW 9868   5.139   2.192   4.716
 2990SOL    HW1 9869   5.087   2.133   4.655
 2990SOL    HW2 9870   5.237   2.182   4.697
 2991SOL     OW 9871   6.104   3.121   6.174
 2991SOL    HW1 9872   6.171   3.151   6.106
 2991SOL    HW2 9873   6.116   3.174   6.258
 2992SOL     OW 9874   1.490   4.746   4.813
 2992SOL    HW1 9875   1.471   4.839   4.846
 2992SOL    HW2 9876   1.514   4.688   4.891
 2993SOL     OW 9877   0.147   5.027   0.517
 2993SOL    HW1 9878   0.161   5.125   0.500
 2993SOL    HW2 9879   0.063   4.997   0.471
 2994SOL     OW 9880   3.977   5.785   0.145
 2994SOL    HW1 9881   4.018   5.864   0.190
 2994SOL    HW2 9882   3.920   5.734   0.210
 2995SOL     OW 9883   4.255   0.120   0.002
 2995SOL    HW1 9884   4.160   0.110   0.031
 2995SOL    HW2 9885   4.315   0.075   0.068
 2996SOL     OW 9886   0.767   2.000   4.748
 2996SOL    HW1 9887   0.807   1.969   4.661
 2996SOL    HW2 9888   0.840   2.029   4.809
 2997SOL     OW 9889   4.780   0.032   3.096
 2997SOL    HW1 9890   4.839   0.093   3.042
 2997SOL    HW2 9891   4.709   7.016   3.036
 2998SOL     OW 9892   4.032   6.927   3.492
 2998SOL    HW1 9893   4.107   6.921   3.426
 2998SOL    HW2 9894   4.037   7.016   3.539
 2999SOL     OW 9895   3.209   4.968   5.887
 2999SOL    HW1 9896   3.173   5.049   5.934
 2999SOL    HW2 9897   3.174   4.966   5.793
 3000SOL     OW 9898   2.781   4.246   6.599
 3000SOL    HW1 9899   2.692   4.217   6.633
 3000SOL    HW2 9900   2.770   4.299   6.515
 3001SOL     OW 9901   6.380   1.892   0.575
 3001SOL    HW1 9902   6.414   1.859   0.487
 3001SOL    HW2 9903   6.378   1.817   0.641
 3002SOL     OW 9904   3.206   2.017   0.598
 3002SOL    HW1 9905   3.154   1.936   0.574
 3002SOL    HW2 9906   3.302   2.004   0.573
 3003SOL     OW 9907   0.755   6.580   1.460
 3003SOL    HW1 9908   0.839   6.595   1.408
 3003SOL    HW2 9909   0.698   6.512   1.414
 3004SOL     OW 9910   1.742   4.651   3.168
 3004SOL    HW1 9911   1.720   4.566   3.216
 3004SOL    HW2 9912   1.818   4.696   3.216
 3005SOL     OW 9913   1.332   3.222   6.359
 3005SOL    HW1 9914   1.404   3.213   6.290
 3005SOL    HW2 9915   1.251   3.173   6.329
 3006SOL     OW 9916   5.459   1.371   5.134
 3006SOL    HW1 9917   5.532   1.355   5.200
 3006SOL    HW2 9918   5.381   1.416   5.180
 3007SOL     OW 9919   4.893   5.223   0.049
 3007SOL    HW1 9920   4.899   5.239   6.974
 3007SOL    HW2 9921   4.935   5.134   0.071
 3008SOL     OW 9922   3.472   2.512   6.242
 3008SOL    HW1 9923   3.431   2.493   6.153
 3008SOL    HW2 9924   3.434   2.597   6.279
 3009SOL     OW 9925   0.082   2.770   2.797
 3009SOL    HW1 9926   0.150   2.787   2.726
 3009SOL    HW2 9927   0.072   2.851   2.854
 3010SOL     OW 9928   2.873   5.642   4.601
 3010SOL    HW1 9929   2.878   5.662   4.698
 3010SOL    HW2 9930   2.828   5.554   4.587
 3011SOL     OW 9931   6.171   0.067   1.615
 3011SOL    HW1 9932   6.121   7.003   1.611
 3011SOL    HW2 9933   6.219   0.075   1.702
 3012SOL     OW 9934   2.385   3.540   0.232
 3012SOL    HW1 9935   2.405   3.618   0.290
 3012SOL    HW2 9936   2.445   3.464   0.257
 3013SOL     OW 9937   6.519   4.554   3.186
 3013SOL    HW1 9938   6.556   4.638   3.146
 3013SOL    HW2 9939   6.573   4.476   3.155
 3014SOL     OW 9940   4.649   1.854   6.923
 3014SOL    HW1 9941   4.692   1.933   6.879
 3014SOL    HW2 9942   4.708   1.774   6.912
 3015SOL     OW 9943   2.029   1.793   0.167
 3015SOL    HW1 9944   1.965   1.792   0.244
 3015SOL    HW2 9945   2.097   1.722   0.180
 3016SOL     OW 9946   3.503   6.705   4.330
 3016SOL    HW1 9947   3.504   6.649   4.413
 3016SOL    HW2 9948   3.537   6.797   4.351
 3017SOL     OW 9949   5.287   4.873   2.403
 3017SOL    HW1 9950   5.282   4.911   2.495
 3017SOL    HW2 9951   5.359   4.920   2.352
 3018SOL     OW 9952   3.612   6.813   6.878
 3018SOL    HW1 9953   3.586   6.894   6.824
 3018SOL    HW2 9954   3.557   6.735   6.849
 3019SOL     OW 9955   0.828   6.884   0.659
 3019SOL    HW1 9956   0.731   6.905   0.671
 3019SOL    HW2 9957   0.853   6.896   0.563
 3020SOL     OW 9958   4.158   3.251   0.594
 3020SOL    HW1 9959   4.068   3.225   0.629
 3020SOL    HW2 9960   4.229   3.202   0.644
 3021SOL     OW 9961   2.386   6.815   4.408
 3021SOL    HW1 9962   2.300   6.764   4.411
 3021SOL    HW2 9963   2.390   6.879   4.484
 3022SOL     OW 9964   4.250   5.567   4.385
 3022SOL    HW1 9965   4.256   5.474   4.421
 3022SOL    HW2 9966   4.339   5.612   4.394
 3023SOL     OW 9967   3.824   6.785   2.748
 3023SOL    HW1 9968   3.901   6.748   2.800
 3023SOL    HW2 9969   3.815   6.735   2.662
 3024SOL     OW 9970   6.088   6.310   5.406
 3024SOL    HW1 9971   6.082   6.210   5.400
 3024SOL    HW2 9972   6.182   6.339   5.386
 3025SOL     OW 9973   3.912   6.122   1.777
 3025SOL    HW1 9974   3.868   6.194   1.830
 3025SOL    HW2 9975   3.863   6.110   1.690
 3026SOL     OW 9976   0.632   1.408   6.381
 3026SOL    HW1 9977   0.611   1.354   6.299
 3026SOL    HW2 9978   0.726   1.392   6.409
 3027SOL     OW 9979   3.824   1.205   2.208
 3027SOL    HW1 9980   3.745   1.258   2.238
 3027SOL    HW2 9981   3.891   1.266   2.165
 3028SOL     OW 9982   1.894   3.935   6.422
 3028SOL    HW1 9983   1.985   3.894   6.421
 3028SOL    HW2 9984   1.840   3.897   6.346
 3029SOL     OW 9985   1.152   2.531   3.581
 3029SOL    HW1 9986   1.128   2.468   3.507
 3029SOL    HW2 9987   1.152   2.482   3.668
 3030SOL     OW 9988   1.194   4.302   0.706
 3030SOL    HW1 9989   1.220   4.389   0.663
 3030SOL    HW2 9990   1.259   4.231   0.678
 3031SOL     OW 9991   1.341   4.617   0.701
 3031SOL    HW1 9992   1.322   4.715   0.699
 3031SOL    HW2 9993   1.440   4.602   0.694
 3032SOL     OW 9994   2.153   5.477   2.103
 3032SOL    HW1 9995   2.200   5.523   2.027
 3032SOL    HW2 9996   2.200   5.500   2.189
 3033SOL     OW 9997   6.485   1.807   2.695
 3033SOL    HW1 9998   6.391   1.793   2.664
 3033SOL    HW2 9999   6.518   1.725   2.741
 3034SOL     OW10000   1.143   5.986   3.810
 3034SOL    HW110001   1.150   5.969   3.908
 3034SOL    HW210002   1.172   5.905   3.760
 3035SOL     OW10003   1.126   3.085   6.277
 3035SOL    HW110004   1.104   2.987   6.271
 3035SOL    HW210005   1.160   3.117   6.189
 3036SOL     OW10006   1.167   2.246   5.269
 3036SOL    HW110007   1.112   2.162   5.272
 3036SOL    HW210008   1.108   2.324   5.246
 3037SOL     OW10009   6.235   5.052   5.364
 3037SOL    HW110010   6.207   5.123   5.300
 3037SOL    HW210011   6.200   5.073   5.455
 3038SOL     OW10012   5.115   4.253   5.844
 3038SOL    HW110013   5.113   4.287   5.750
 3038SOL    HW210014   5.199   4.201   5.858
 3039SOL     OW10015   0.136   3.131   6.843
 3039SOL    HW110016   0.141   3.031   6.836
 3039SOL    HW210017   0.047   3.162   6.810
 3040SOL     OW10018   3.136   4.884   5.645
 3040SOL    HW110019   3.070   4.821   5.605
 3040SOL    HW210020   3.227   4.843   5.643
 3041SOL     OW10021   0.846   4.611   6.094
 3041SOL    HW110022   0.824   4.701   6.131
 3041SOL    HW210023   0.946   4.599   6.090
 3042SOL     OW10024   5.829   5.941   2.605
 3042SOL    HW110025   5.746   5.941   2.550
 3042SOL    HW210026   5.808   5.909   2.698
 3043SOL     OW10027   3.139   3.789   0.988
 3043SOL    HW110028   3.189   3.703   0.997
 3043SOL    HW210029   3.098   3.813   1.076
 3044SOL     OW10030   2.843   4.955   5.308
 3044SOL    HW110031   2.922   4.901   5.337
 3044SOL    HW210032   2.837   5.038   5.363
 3045SOL     OW10033   4.904   6.779   3.053
 3045SOL    HW110034   4.928   6.682   3.050
 3045SOL    HW210035   4.805   6.790   3.048
 3046SOL     OW10036   3.482   6.499   0.195
 3046SOL    HW110037   3.452   6.444   0.273
 3046SOL    HW210038   3.477   6.596   0.218
 3047SOL     OW10039   6.884   0.000   0.510
 3047SOL    HW110040   6.832   6.998   0.591
 3047SOL    HW210041   6.868   0.097   0.488
 3048SOL     OW10042   4.624   2.598   0.780
 3048SOL    HW110043   4.676   2.620   0.862
 3048SOL    HW210044   4.573   2.513   0.794
 3049SOL     OW10045   0.965   0.745   4.169
 3049SOL    HW110046   1.058   0.713   4.190
 3049SOL    HW210047   0.950   0.744   4.070
 3050SOL     OW10048   2.362   2.866   1.470
 3050SOL    HW110049   2.364   2.782   1.524
 3050SOL    HW210050   2.341   2.943   1.530
 3051SOL     OW10051   2.879   6.675   6.486
 3051SOL    HW110052   2.818   6.753   6.498
 3051SOL    HW210053   2.922   6.652   6.573
 3052SOL     OW10054   5.269   5.212   2.291
 3052SOL    HW110055   5.293   5.284   2.225
 3052SOL    HW210056   5.175   5.225   2.322
 3053SOL     OW10057   0.366   3.701   1.190
 3053SOL    HW110058   0.349   3.800   1.185
 3053SOL    HW210059   0.388   3.667   1.099
 3054SOL     OW10060   5.596   0.647   2.320
 3054SOL    HW110061   5.606   0.738   2.281
 3054SOL    HW210062   5.617   0.578   2.250
 3055SOL     OW10063   5.658   6.929   5.556
 3055SOL    HW110064   5.755   6.944   5.571
 3055SOL    HW210065   5.620   6.872   5.628
 3056SOL     OW10066   6.006   1.762   5.794
 3056SOL    HW110067   6.019   1.861   5.789
 3056SOL    HW210068   6.090   1.716   5.763
 3057SOL     OW10069   5.282   6.469   4.094
 3057SOL    HW110070   5.349   6.395   4.083
 3057SOL    HW210071   5.264   6.483   4.191
 3058SOL     OW10072   6.071   3.929   1.017
 3058SOL    HW110073   6.150   3.972   1.060
 3058SOL    HW210074   6.093   3.905   0.922
 3059SOL     OW10075   2.452   1.868   4.191
 3059SOL    HW110076   2.354   1.853   4.192
 3059SOL    HW210077   2.492   1.834   4.277
 3060SOL     OW10078   2.278   5.037   6.729
 3060SOL    HW110079   2.199   5.012   6.786
 3060SOL    HW210080   2.353   4.974   6.747
 3061SOL     OW10081   5.805   5.756   5.868
 3061SOL    HW110082   5.829   5.820   5.794
 3061SOL    HW210083   5.762   5.807   5.942
 3062SOL     OW10084   3.040   5.532   1.157
 3062SOL    HW110085   2.995   5.468   1.095
 3062SOL    HW210086   3.077   5.483   1.236
 3063SOL     OW10087   0.575   4.250   1.031
 3063SOL    HW110088   0.633   4.312   0.978
 3063SOL    HW210089   0.482   4.287   1.036
 3064SOL     OW10090   4.212   3.255   6.973
 3064SOL    HW110091   4.272   3.314   0.004
 3064SOL    HW210092   4.252   3.163   6.968
 3065SOL     OW10093   1.279   1.801   6.418
 3065SOL    HW110094   1.236   1.739   6.352
 3065SOL    HW210095   1.214   1.873   6.444
 3066SOL     OW10096   5.262   5.182   6.239
 3066SOL    HW110097   5.215   5.162   6.324
 3066SOL    HW210098   5.360   5.162   6.249
 3067SOL     OW10099   2.946   1.579   0.814
 3067SOL    HW110100   2.847   1.596   0.815
 3067SOL    HW210101   2.972   1.542   0.725
 3068SOL     OW10102   0.018   0.287   1.708
 3068SOL    HW110103   0.062   0.371   1.675
 3068SOL    HW210104   0.035   0.277   1.806
 3069SOL     OW10105   6.047   6.154   3.279
 3069SOL    HW110106   6.146   6.152   3.264
 3069SOL    HW210107   6.001   6.178   3.194
 3070SOL     OW10108   2.645   1.015   6.469
 3070SOL    HW110109   2.728   1.048   6.513
 3070SOL    HW210110   2.589   1.093   6.439
 3071SOL     OW10111   6.459   5.073   3.966
 3071SOL    HW110112   6.472   5.115   3.877
 3071SOL    HW210113   6.395   5.128   4.020
 3072SOL     OW10114   1.928   6.160   0.051
 3072SOL    HW110115   1.950   6.212   6.991
 3072SOL    HW210116   1.834   6.179   0.078
 3073SOL     OW10117   0.050   4.199   1.722
 3073SOL    HW110118   7.005   4.256   1.768
 3073SOL    HW210119   0.005   4.119   1.681
 3074SOL     OW10120   1.072   4.214   0.941
 3074SOL    HW110121   1.049   4.307   0.969
 3074SOL    HW210122   1.127   4.217   0.857
 3075SOL     OW10123   2.460   5.350   3.924
 3075SOL    HW110124   2.460   5.251   3.909
 3075SOL    HW210125   2.379   5.376   3.978
 3076SOL     OW10126   6.505   1.354   4.427
 3076SOL    HW110127   6.499   1.397   4.517
 3076SOL    HW210128   6.440   1.398   4.365
 3077SOL     OW10129   6.016   3.303   1.824
 3077SOL    HW110130   6.008   3.249   1.740
 3077SOL    HW210131   6.079   3.379   1.809
 3078SOL     OW10132   6.521   3.501   2.075
 3078SOL    HW110133   6.439   3.530   2.124
 3078SOL    HW210134   6.506   3.509   1.977
 3079SOL     OW10135   3.274   2.129   3.668
 3079SOL    HW110136   3.364   2.093   3.693
 3079SOL    HW210137   3.272   2.149   3.570
 3080SOL     OW10138   4.867   4.150   2.156
 3080SOL    HW110139   4.932   4.165   2.229
 3080SOL    HW210140   4.802   4.226   2.151
 3081SOL     OW10141   0.505   4.603   5.968
 3081SOL    HW110142   0.489   4.520   5.914
 3081SOL    HW210143   0.496   4.582   6.065
 3082SOL     OW10144   2.741   5.974   4.001
 3082SOL    HW110145   2.753   6.027   4.085
 3082SOL    HW210146   2.831   5.956   3.960
 3083SOL     OW10147   3.204   6.313   2.774
 3083SOL    HW110148   3.231   6.231   2.723
 3083SOL    HW210149   3.151   6.285   2.855
 3084SOL     OW10150   6.877   3.885   2.764
 3084SOL    HW110151   6.809   3.853   2.698
 3084SOL    HW210152   6.883   3.985   2.760
 3085SOL     OW10153   5.534   4.367   0.746
 3085SOL    HW110154   5.615   4.375   0.689
 3085SOL    HW210155   5.514   4.270   0.761
 3086SOL     OW10156   4.464   0.848   7.020
 3086SOL    HW110157   4.457   0.934   6.971
 3086SOL    HW210158   4.545   0.798   6.991
 3087SOL     OW10159   2.746   6.371   2.880
 3087SOL    HW110160   2.722   6.448   2.938
 3087SOL    HW210161   2.835   6.334   2.907
 3088SOL     OW10162   1.507   3.214   5.722
 3088SOL    HW110163   1.421   3.203   5.672
 3088SOL    HW210164   1.565   3.280   5.674
 3089SOL     OW10165   4.412   2.267   4.601
 3089SOL    HW110166   4.408   2.172   4.570
 3089SOL    HW210167   4.336   2.285   4.664
 3090SOL     OW10168   1.981   1.093   2.256
 3090SOL    HW110169   2.071   1.058   2.284
 3090SOL    HW210170   1.988   1.190   2.235
 3091SOL     OW10171   1.409   1.127   0.759
 3091SOL    HW110172   1.486   1.188   0.780
 3091SOL    HW210173   1.409   1.105   0.662
 3092SOL     OW10174   5.321   6.394   1.154
 3092SOL    HW110175   5.234   6.417   1.111
 3092SOL    HW210176   5.314   6.406   1.253
 3093SOL     OW10177   5.564   6.353   5.466
 3093SOL    HW110178   5.651   6.368   5.419
 3093SOL    HW210179   5.538   6.436   5.516
 3094SOL     OW10180   2.932   0.402   4.308
 3094SOL    HW110181   2.863   0.474   4.297
 3094SOL    HW210182   2.993   0.403   4.229
 3095SOL     OW10183   2.153   3.901   5.979
 3095SOL    HW110184   2.238   3.930   6.023
 3095SOL    HW210185   2.175   3.838   5.904
 3096SOL     OW10186   0.796   4.052   4.995
 3096SOL    HW110187   0.843   3.990   4.932
 3096SOL    HW210188   0.785   4.141   4.951
 3097SOL     OW10189   5.590   2.947   6.900
 3097SOL    HW110190   5.609   2.880   6.972
 3097SOL    HW210191   5.578   3.037   6.941
 3098SOL     OW10192   1.797   3.228   1.785
 3098SOL    HW110193   1.716   3.239   1.727
 3098SOL    HW210194   1.832   3.318   1.811
 3099SOL     OW10195   1.043   6.284   4.026
 3099SOL    HW110196   1.075   6.192   4.049
 3099SOL    HW210197   1.074   6.306   3.933
 3100SOL     OW10198   6.861   6.193   2.348
 3100SOL    HW110199   6.876   6.291   2.338
 3100SOL    HW210200   6.893   6.163   2.438
 3101SOL     OW10201   4.478   6.453   5.686
 3101SOL    HW110202   4.415   6.431   5.612
 3101SOL    HW210203   4.569   6.473   5.648
 3102SOL     OW10204   6.802   5.844   1.338
 3102SOL    HW110205   6.774   5.897   1.257
 3102SOL    HW210206   6.867   5.896   1.392
 3103SOL     OW10207   5.089   0.660   1.363
 3103SOL    HW110208   5.054   0.597   1.433
 3103SOL    HW210209   5.080   0.617   1.273
 3104SOL     OW10210   3.722   0.261   6.385
 3104SOL    HW110211   3.739   0.186   6.450
 3104SOL    HW210212   3.736   0.228   6.292
 3105SOL     OW10213   4.524   3.690   1.406
 3105SOL    HW110214   4.444   3.699   1.465
 3105SOL    HW210215   4.590   3.762   1.428
 3106SOL     OW10216   5.452   6.801   5.048
 3106SOL    HW110217   5.413   6.847   4.968
 3106SOL    HW210218   5.428   6.704   5.046
 3107SOL     OW10219   4.247   1.490   4.138
 3107SOL    HW110220   4.201   1.402   4.128
 3107SOL    HW210221   4.322   1.482   4.202
 3108SOL     OW10222   1.918   5.454   4.905
 3108SOL    HW110223   1.990   5.430   4.841
 3108SOL    HW210224   1.956   5.510   4.979
 3109SOL     OW10225   6.377   0.566   4.596
 3109SOL    HW110226   6.343   0.551   4.688
 3109SOL    HW210227   6.430   0.651   4.593
 3110SOL     OW10228   2.311   4.180   3.432
 3110SOL    HW110229   2.300   4.144   3.340
 3110SOL    HW210230   2.356   4.269   3.428
 3111SOL     OW10231   0.318   4.665   3.372
 3111SOL    HW110232   0.351   4.573   3.351
 3111SOL    HW210233   0.396   4.727   3.381
 3112SOL     OW10234   3.097   3.509   0.318
 3112SOL    HW110235   3.006   3.542   0.341
 3112SOL    HW210236   3.123   3.437   0.382
 3113SOL     OW10237   3.101   6.609   2.700
 3113SOL    HW110238   3.192   6.617   2.662
 3113SOL    HW210239   3.082   6.513   2.723
 3114SOL     OW10240   3.898   1.369   0.197
 3114SOL    HW110241   3.927   1.338   0.288
 3114SOL    HW210242   3.916   1.467   0.188
 3115SOL     OW10243   3.767   4.529   5.291
 3115SOL    HW110244   3.694   4.471   5.254
 3115SOL    HW210245   3.848   4.472   5.310
 3116SOL     OW10246   0.296   1.721   0.295
 3116SOL    HW110247   0.341   1.651   0.239
 3116SOL    HW210248   0.235   1.677   0.361
 3117SOL     OW10249   4.535   2.863   5.422
 3117SOL    HW110250   4.540   2.788   5.355
 3117SOL    HW210251   4.537   2.950   5.373
 3118SOL     OW10252   1.181   6.783   2.045
 3118SOL    HW110253   1.223   6.859   2.096
 3118SOL    HW210254   1.191   6.699   2.097
 3119SOL     OW10255   2.818   2.408   5.950
 3119SOL    HW110256   2.802   2.354   5.867
 3119SOL    HW210257   2.826   2.504   5.926
 3120SOL     OW10258   3.418   1.060   5.977
 3120SOL    HW110259   3.417   1.018   6.067
 3120SOL    HW210260   3.347   1.018   5.920
 3121SOL     OW10261   5.744   2.085   3.993
 3121SOL    HW110262   5.691   2.009   3.954
 3121SOL    HW210263   5.817   2.111   3.929
 3122SOL     OW10264   4.460   4.792   5.284
 3122SOL    HW110265   4.363   4.817   5.291
 3122SOL    HW210266   4.511   4.867   5.242
 3123SOL     OW10267   1.346   1.017   3.442
 3123SOL    HW110268   1.331   0.925   3.405
 3123SOL    HW210269   1.400   1.070   3.377
 3124SOL     OW10270   5.438   7.004   3.762
 3124SOL    HW110271   5.356   6.948   3.774
 3124SOL    HW210272   5.471   6.996   3.668
 3125SOL     OW10273   1.202   3.011   5.316
 3125SOL    HW110274   1.234   3.058   5.398
 3125SOL    HW210275   1.227   3.065   5.235
 3126SOL     OW10276   5.191   4.521   5.557
 3126SOL    HW110277   5.100   4.482   5.571
 3126SOL    HW210278   5.208   4.592   5.626
 3127SOL     OW10279   1.825   2.666   5.009
 3127SOL    HW110280   1.798   2.611   4.929
 3127SOL    HW210281   1.844   2.759   4.979
 3128SOL     OW10282   3.641   0.568   0.374
 3128SOL    HW110283   3.710   0.539   0.308
 3128SOL    HW210284   3.685   0.597   0.458
 3129SOL     OW10285   4.909   3.625   1.245
 3129SOL    HW110286   4.933   3.719   1.269
 3129SOL    HW210287   4.876   3.621   1.151
 3130SOL     OW10288   1.384   4.409   1.095
 3130SOL    HW110289   1.378   4.487   1.033
 3130SOL    HW210290   1.476   4.370   1.093
 3131SOL     OW10291   0.324   3.461   2.335
 3131SOL    HW110292   0.372   3.394   2.391
 3131SOL    HW210293   0.231   3.472   2.370
 3132SOL     OW10294   4.620   4.998   6.522
 3132SOL    HW110295   4.646   5.061   6.595
 3132SOL    HW210296   4.670   5.021   6.438
 3133SOL     OW10297   3.601   0.730   2.828
 3133SOL    HW110298   3.573   0.825   2.838
 3133SOL    HW210299   3.697   0.725   2.801
 3134SOL     OW10300   4.191   5.308   1.764
 3134SOL    HW110301   4.100   5.347   1.777
 3134SOL    HW210302   4.196   5.220   1.810
 3135SOL     OW10303   4.892   6.711   6.278
 3135SOL    HW110304   4.808   6.714   6.223
 3135SOL    HW210305   4.971   6.704   6.217
 3136SOL     OW10306   5.416   0.453   1.873
 3136SOL    HW110307   5.428   0.545   1.910
 3136SOL    HW210308   5.352   0.402   1.931
 3137SOL     OW10309   6.523   6.616   3.227
 3137SOL    HW110310   6.454   6.616   3.299
 3137SOL    HW210311   6.479   6.619   3.137
 3138SOL     OW10312   6.075   5.499   3.577
 3138SOL    HW110313   6.065   5.586   3.528
 3138SOL    HW210314   6.038   5.509   3.670
 3139SOL     OW10315   3.659   4.856   1.424
 3139SOL    HW110316   3.631   4.773   1.472
 3139SOL    HW210317   3.616   4.935   1.468
 3140SOL     OW10318   6.336   6.363   5.340
 3140SOL    HW110319   6.376   6.424   5.272
 3140SOL    HW210320   6.358   6.268   5.317
 3141SOL     OW10321   0.565   6.915   6.755
 3141SOL    HW110322   0.631   6.980   6.719
 3141SOL    HW210323   0.524   6.864   6.680
 3142SOL     OW10324   3.397   1.084   3.490
 3142SOL    HW110325   3.423   0.989   3.507
 3142SOL    HW210326   3.353   1.090   3.400
 3143SOL     OW10327   6.316   1.783   6.691
 3143SOL    HW110328   6.350   1.693   6.667
 3143SOL    HW210329   6.351   1.809   6.781
 3144SOL     OW10330   4.430   3.605   0.642
 3144SOL    HW110331   4.399   3.653   0.561
 3144SOL    HW210332   4.352   3.559   0.685
 3145SOL     OW10333   2.064   6.431   2.417
 3145SOL    HW110334   2.123   6.512   2.423
 3145SOL    HW210335   2.086   6.368   2.491
 3146SOL     OW10336   0.556   0.979   4.732
 3146SOL    HW110337   0.521   0.965   4.639
 3146SOL    HW210338   0.621   0.906   4.754
 3147SOL     OW10339   3.076   5.129   6.789
 3147SOL    HW110340   2.979   5.117   6.811
 3147SOL    HW210341   3.115   5.042   6.758
 3148SOL     OW10342   0.156   0.579   4.148
 3148SOL    HW110343   0.060   0.605   4.152
 3148SOL    HW210344   0.171   0.497   4.203
 3149SOL     OW10345   3.176   1.265   6.829
 3149SOL    HW110346   3.095   1.322   6.817
 3149SOL    HW210347   3.211   1.237   6.739
 3150SOL     OW10348   6.850   6.084   4.841
 3150SOL    HW110349   6.892   6.008   4.791
 3150SOL    HW210350   6.888   6.089   4.933
 3151SOL     OW10351   7.017   1.817   5.882
 3151SOL    HW110352   0.024   1.816   5.787
 3151SOL    HW210353   6.932   1.765   5.891
 3152SOL     OW10354   0.596   4.030   7.016
 3152SOL    HW110355   0.655   4.107   0.016
 3152SOL    HW210356   0.531   4.057   6.945
 3153SOL     OW10357   6.488   4.967   0.111
 3153SOL    HW110358   6.490   4.911   0.195
 3153SOL    HW210359   6.579   4.969   0.071
 3154SOL     OW10360   6.211   1.141   0.904
 3154SOL    HW110361   6.189   1.081   0.981
 3154SOL    HW210362   6.179   1.233   0.923
 3155SOL     OW10363   6.222   4.854   0.226
 3155SOL    HW110364   6.191   4.759   0.228
 3155SOL    HW210365   6.255   4.877   0.134
 3156SOL     OW10366   3.300   4.025   2.195
 3156SOL    HW110367   3.234   4.005   2.267
 3156SOL    HW210368   3.392   4.027   2.234
 3157SOL     OW10369   1.670   1.410   4.908
 3157SOL    HW110370   1.678   1.478   4.835
 3157SOL    HW210371   1.761   1.391   4.946
 3158SOL     OW10372   2.573   1.226   4.653
 3158SOL    HW110373   2.639   1.295   4.683
 3158SOL    HW210374   2.621   1.151   4.608
 3159SOL     OW10375   5.576   0.132   6.533
 3159SOL    HW110376   5.581   0.039   6.568
 3159SOL    HW210377   5.615   0.135   6.441
 3160SOL     OW10378   1.145   6.586   5.694
 3160SOL    HW110379   1.191   6.500   5.714
 3160SOL    HW210380   1.110   6.626   5.778
 3161SOL     OW10381   2.757   2.294   2.860
 3161SOL    HW110382   2.847   2.278   2.819
 3161SOL    HW210383   2.709   2.363   2.806
 3162SOL     OW10384   1.177   5.684   0.830
 3162SOL    HW110385   1.116   5.616   0.870
 3162SOL    HW210386   1.203   5.655   0.738
 3163SOL     OW10387   3.767   3.904   6.934
 3163SOL    HW110388   3.839   3.973   6.945
 3163SOL    HW210389   3.809   3.814   6.921
 3164SOL     OW10390   3.608   5.578   2.269
 3164SOL    HW110391   3.523   5.621   2.301
 3164SOL    HW210392   3.645   5.630   2.192
 3165SOL     OW10393   0.619   5.638   1.402
 3165SOL    HW110394   0.677   5.709   1.440
 3165SOL    HW210395   0.602   5.656   1.305
 3166SOL     OW10396   4.748   1.751   4.106
 3166SOL    HW110397   4.846   1.760   4.122
 3166SOL    HW210398   4.698   1.801   4.177
 3167SOL     OW10399   5.737   4.342   0.556
 3167SOL    HW110400   5.800   4.373   0.485
 3167SOL    HW210401   5.790   4.313   0.637
 3168SOL     OW10402   5.719   2.793   0.136
 3168SOL    HW110403   5.758   2.702   0.123
 3168SOL    HW210404   5.788   2.863   0.114
 3169SOL     OW10405   1.962   3.841   3.712
 3169SOL    HW110406   1.882   3.864   3.768
 3169SOL    HW210407   2.004   3.757   3.746
 3170SOL     OW10408   4.292   5.548   2.381
 3170SOL    HW110409   4.363   5.487   2.419
 3170SOL    HW210410   4.209   5.540   2.437
 3171SOL     OW10411   5.969   2.251   1.431
 3171SOL    HW110412   5.995   2.249   1.528
 3171SOL    HW210413   6.034   2.196   1.378
 3172SOL     OW10414   0.503   5.311   6.562
 3172SOL    HW110415   0.573   5.340   6.627
 3172SOL    HW210416   0.487   5.213   6.572
 3173SOL     OW10417   3.200   2.130   6.747
 3173SOL    HW110418   3.255   2.051   6.775
 3173SOL    HW210419   3.261   2.207   6.726
 3174SOL     OW10420   3.125   3.125   6.795
 3174SOL    HW110421   3.099   3.173   6.711
 3174SOL    HW210422   3.088   3.174   6.874
 3175SOL     OW10423   5.906   1.400   1.480
 3175SOL    HW110424   6.005   1.393   1.479
 3175SOL    HW210425   5.869   1.364   1.394
 3176SOL     OW10426   0.854   3.061   5.618
 3176SOL    HW110427   0.853   3.068   5.519
 3176SOL    HW210428   0.872   3.151   5.658
 3177SOL     OW10429   5.244   4.286   3.807
 3177SOL    HW110430   5.295   4.337   3.877
 3177SOL    HW210431   5.278   4.193   3.801
 3178SOL     OW10432   6.267   2.203   6.671
 3178SOL    HW110433   6.309   2.271   6.731
 3178SOL    HW210434   6.244   2.246   6.583
 3179SOL     OW10435   1.155   1.901   1.901
 3179SOL    HW110436   1.183   1.997   1.901
 3179SOL    HW210437   1.228   1.846   1.942
 3180SOL     OW10438   6.232   6.942   0.723
 3180SOL    HW110439   6.296   6.896   0.661
 3180SOL    HW210440   6.265   0.012   0.741
 3181SOL     OW10441   6.541   2.646   3.932
 3181SOL    HW110442   6.459   2.599   3.900
 3181SOL    HW210443   6.526   2.681   4.025
 3182SOL     OW10444   2.551   0.188   0.318
 3182SOL    HW110445   2.462   0.228   0.296
 3182SOL    HW210446   2.547   0.089   0.306
 3183SOL     OW10447   4.320   4.740   2.581
 3183SOL    HW110448   4.247   4.709   2.641
 3183SOL    HW210449   4.374   4.810   2.628
 3184SOL     OW10450   0.716   2.034   3.220
 3184SOL    HW110451   0.626   2.024   3.262
 3184SOL    HW210452   0.710   2.017   3.122
 3185SOL     OW10453   4.789   6.679   6.789
 3185SOL    HW110454   4.793   6.646   6.884
 3185SOL    HW210455   4.714   6.633   6.741
 3186SOL     OW10456   3.089   1.945   0.235
 3186SOL    HW110457   3.113   2.011   0.164
 3186SOL    HW210458   3.165   1.881   0.248
 3187SOL     OW10459   3.773   5.365   1.927
 3187SOL    HW110460   3.825   5.306   1.989
 3187SOL    HW210461   3.815   5.363   1.836
 3188SOL     OW10462   1.472   6.854   4.913
 3188SOL    HW110463   1.473   6.882   4.817
 3188SOL    HW210464   1.448   6.757   4.920
 3189SOL     OW10465   1.108   1.681   0.995
 3189SOL    HW110466   1.082   1.603   1.052
 3189SOL    HW210467   1.172   1.650   0.924
 3190SOL     OW10468   6.910   5.706   0.017
 3190SOL    HW110469   6.828   5.704   0.073
 3190SOL    HW210470   6.907   5.632   6.973
 3191SOL     OW10471   4.711   4.938   1.653
 3191SOL    HW110472   4.794   4.985   1.624
 3191SOL    HW210473   4.709   4.846   1.614
 3192SOL     OW10474   0.548   3.289   0.944
 3192SOL    HW110475   0.596   3.320   0.863
 3192SOL    HW210476   0.492   3.210   0.921
 3193SOL     OW10477   3.800   1.520   4.945
 3193SOL    HW110478   3.715   1.488   4.902
 3193SOL    HW210479   3.864   1.444   4.953
 3194SOL     OW10480   1.351   2.233   5.731
 3194SOL    HW110481   1.373   2.229   5.634
 3194SOL    HW210482   1.307   2.148   5.759
 3195SOL     OW10483   0.763   1.467   1.673
 3195SOL    HW110484   0.729   1.374   1.658
 3195SOL    HW210485   0.839   1.466   1.738
 3196SOL     OW10486   7.008   0.440   6.592
 3196SOL    HW110487   0.001   0.447   6.493
 3196SOL    HW210488   0.035   0.361   6.628
 3197SOL     OW10489   2.633   6.783   4.905
 3197SOL    HW110490   2.670   6.704   4.953
 3197SOL    HW210491   2.704   6.824   4.848
 3198SOL     OW10492   6.689   3.133   3.017
 3198SOL    HW110493   6.633   3.072   2.960
 3198SOL    HW210494   6.733   3.202   2.960
 3199SOL     OW10495   5.284   4.302   2.898
 3199SOL    HW110496   5.361   4.327   2.838
 3199SOL    HW210497   5.202   4.289   2.842
 3200SOL     OW10498   5.900   3.131   2.272
 3200SOL    HW110499   5.823   3.075   2.241
 3200SOL    HW210500   5.973   3.072   2.306
 3201SOL     OW10501   6.783   4.474   2.873
 3201SOL    HW110502   6.689   4.439   2.877
 3201SOL    HW210503   6.783   4.572   2.892
 3202SOL     OW10504   1.140   5.004   0.471
 3202SOL    HW110505   1.076   5.007   0.548
 3202SOL    HW210506   1.202   4.927   0.483
 3203SOL     OW10507   5.747   1.444   0.434
 3203SOL    HW110508   5.839   1.409   0.416
 3203SOL    HW210509   5.703   1.466   0.347
 3204SOL     OW10510   3.927   0.101   3.220
 3204SOL    HW110511   3.900   0.150   3.303
 3204SOL    HW210512   3.855   0.111   3.151
 3205SOL     OW10513   4.987   2.916   6.071
 3205SOL    HW110514   4.957   2.885   5.980
 3205SOL    HW210515   5.075   2.962   6.063
 3206SOL     OW10516   1.702   4.162   0.950
 3206SOL    HW110517   1.666   4.071   0.970
 3206SOL    HW210518   1.635   4.213   0.896
 3207SOL     OW10519   1.157   1.215   6.967
 3207SOL    HW110520   1.222   1.227   6.893
 3207SOL    HW210521   1.089   1.289   6.964
 3208SOL     OW10522   5.509   5.884   6.457
 3208SOL    HW110523   5.419   5.925   6.447
 3208SOL    HW210524   5.579   5.950   6.429
 3209SOL     OW10525   2.790   5.124   4.326
 3209SOL    HW110526   2.717   5.063   4.296
 3209SOL    HW210527   2.786   5.209   4.274
 3210SOL     OW10528   1.399   4.650   0.991
 3210SOL    HW110529   1.454   4.715   1.043
 3210SOL    HW210530   1.384   4.686   0.898
 3211SOL     OW10531   1.579   3.873   0.673
 3211SOL    HW110532   1.555   3.899   0.767
 3211SOL    HW210533   1.664   3.821   0.673
 3212SOL     OW10534   3.153   6.993   2.613
 3212SOL    HW110535   3.107   0.020   2.687
 3212SOL    HW210536   3.129   6.896   2.618
 3213SOL     OW10537   0.986   0.236   0.086
 3213SOL    HW110538   1.079   0.214   0.056
 3213SOL    HW210539   0.963   0.328   0.056
 3214SOL     OW10540   4.830   5.750   2.235
 3214SOL    HW110541   4.764   5.825   2.243
 3214SOL    HW210542   4.868   5.749   2.143
 3215SOL     OW10543   0.388   4.077   0.520
 3215SOL    HW110544   0.426   4.104   0.431
 3215SOL    HW210545   0.456   4.024   0.570
 3216SOL     OW10546   6.110   5.367   0.944
 3216SOL    HW110547   6.187   5.411   0.899
 3216SOL    HW210548   6.071   5.298   0.883
 3217SOL     OW10549   0.499   5.514   2.479
 3217SOL    HW110550   0.562   5.541   2.552
 3217SOL    HW210551   0.465   5.421   2.496
 3218SOL     OW10552   5.880   2.576   3.142
 3218SOL    HW110553   5.931   2.641   3.199
 3218SOL    HW210554   5.873   2.488   3.189
 3219SOL     OW10555   6.986   0.949   4.078
 3219SOL    HW110556   6.985   1.045   4.053
 3219SOL    HW210557   0.057   0.921   4.099
 3220SOL     OW10558   0.146   5.716   5.639
 3220SOL    HW110559   0.051   5.732   5.610
 3220SOL    HW210560   0.200   5.799   5.622
 3221SOL     OW10561   3.561   7.004   2.352
 3221SOL    HW110562   3.471   7.020   2.393
 3221SOL    HW210563   3.630   0.030   2.405
 3222SOL     OW10564   2.861   1.423   2.786
 3222SOL    HW110565   2.958   1.422   2.762
 3222SOL    HW210566   2.806   1.405   2.705
 3223SOL     OW10567   2.603   6.348   0.192
 3223SOL    HW110568   2.557   6.428   0.154
 3223SOL    HW210569   2.630   6.287   0.117
 3224SOL     OW10570   4.799   2.911   4.955
 3224SOL    HW110571   4.840   3.002   4.963
 3224SOL    HW210572   4.810   2.878   4.861
 3225SOL     OW10573   4.630   2.037   5.783
 3225SOL    HW110574   4.595   2.101   5.851
 3225SOL    HW210575   4.634   2.082   5.694
 3226SOL     OW10576   2.523   0.981   2.267
 3226SOL    HW110577   2.447   1.008   2.209
 3226SOL    HW210578   2.584   0.920   2.216
 3227SOL     OW10579   3.823   4.037   6.641
 3227SOL    HW110580   3.752   3.998   6.701
 3227SOL    HW210581   3.789   4.122   6.601
 3228SOL     OW10582   6.497   3.769   1.172
 3228SOL    HW110583   6.478   3.842   1.237
 3228SOL    HW210584   6.415   3.715   1.157
 3229SOL     OW10585   3.609   1.101   5.573
 3229SOL    HW110586   3.525   1.118   5.521
 3229SOL    HW210587   3.617   1.004   5.593
 3230SOL     OW10588   2.149   5.004   5.973
 3230SOL    HW110589   2.235   5.054   5.983
 3230SOL    HW210590   2.127   4.960   6.060
 3231SOL     OW10591   2.667   0.497   2.367
 3231SOL    HW110592   2.701   0.561   2.435
 3231SOL    HW210593   2.588   0.536   2.320
 3232SOL     OW10594   4.380   6.250   4.704
 3232SOL    HW110595   4.282   6.263   4.718
 3232SOL    HW210596   4.411   6.309   4.630
 3233SOL     OW10597   6.723   2.300   0.762
 3233SOL    HW110598   6.683   2.370   0.701
 3233SOL    HW210599   6.727   2.335   0.855
 3234SOL     OW10600   0.535   2.715   0.333
 3234SOL    HW110601   0.589   2.631   0.322
 3234SOL    HW210602   0.451   2.707   0.279
 3235SOL     OW10603   0.082   7.013   1.647
 3235SOL    HW110604   0.069   6.980   1.553
 3235SOL    HW210605   0.052   0.086   1.652
 3236SOL     OW10606   0.707   4.468   0.241
 3236SOL    HW110607   0.798   4.471   0.199
 3236SOL    HW210608   0.693   4.380   0.285
 3237SOL     OW10609   6.231   1.825   2.008
 3237SOL    HW110610   6.147   1.866   1.972
 3237SOL    HW210611   6.210   1.736   2.048
 3238SOL     OW10612   6.149   5.376   6.973
 3238SOL    HW110613   6.051   5.362   6.990
 3238SOL    HW210614   6.196   5.393   0.036
 3239SOL     OW10615   0.361   1.459   2.711
 3239SOL    HW110616   0.307   1.542   2.700
 3239SOL    HW210617   0.457   1.483   2.725
 3240SOL     OW10618   0.014   0.022   6.573
 3240SOL    HW110619   0.028   0.047   6.477
 3240SOL    HW210620   0.032   0.100   6.632
 3241SOL     OW10621   4.988   1.234   5.788
 3241SOL    HW110622   4.985   1.154   5.847
 3241SOL    HW210623   4.943   1.311   5.833
 3242SOL     OW10624   4.208   4.547   6.495
 3242SOL    HW110625   4.303   4.561   6.465
 3242SOL    HW210626   4.163   4.483   6.433
 3243SOL     OW10627   4.808   5.093   0.527
 3243SOL    HW110628   4.828   5.069   0.432
 3243SOL    HW210629   4.775   5.187   0.532
 3244SOL     OW10630   5.025   6.489   0.108
 3244SOL    HW110631   5.117   6.528   0.113
 3244SOL    HW210632   4.960   6.560   0.082
 3245SOL     OW10633   5.173   2.396   3.902
 3245SOL    HW110634   5.222   2.470   3.948
 3245SOL    HW210635   5.181   2.312   3.956
 3246SOL     OW10636   6.670   6.846   3.016
 3246SOL    HW110637   6.721   6.769   3.055
 3246SOL    HW210638   6.685   6.850   2.918
 3247SOL     OW10639   5.720   4.096   2.190
 3247SOL    HW110640   5.787   4.090   2.264
 3247SOL    HW210641   5.702   4.004   2.154
 3248SOL     OW10642   5.483   2.701   2.259
 3248SOL    HW110643   5.505   2.624   2.320
 3248SOL    HW210644   5.449   2.665   2.172
 3249SOL     OW10645   3.458   4.174   3.084
 3249SOL    HW110646   3.379   4.148   3.030
 3249SOL    HW210647   3.482   4.269   3.064
 3250SOL     OW10648   6.033   6.858   2.393
 3250SOL    HW110649   5.997   6.773   2.433
 3250SOL    HW210650   6.010   6.861   2.296
 3251SOL     OW10651   3.762   0.586   3.732
 3251SOL    HW110652   3.710   0.587   3.817
 3251SOL    HW210653   3.782   0.681   3.705
 3252SOL     OW10654   2.746   0.998   2.436
 3252SOL    HW110655   2.708   1.004   2.528
 3252SOL    HW210656   2.676   1.022   2.368
 3253SOL     OW10657   4.605   3.512   0.883
 3253SOL    HW110658   4.543   3.547   0.812
 3253SOL    HW210659   4.555   3.451   0.944
 3254SOL     OW10660   4.861   6.231   0.006
 3254SOL    HW110661   4.856   6.169   0.085
 3254SOL    HW210662   4.882   6.324   0.038
 3255SOL     OW10663   4.107   6.793   1.457
 3255SOL    HW110664   4.019   6.839   1.470
 3255SOL    HW210665   4.132   6.796   1.360
 3256SOL     OW10666   3.636   1.036   1.205
 3256SOL    HW110667   3.550   1.079   1.233
 3256SOL    HW210668   3.694   1.104   1.161
 3257SOL     OW10669   1.356   1.901   1.626
 3257SOL    HW110670   1.335   1.999   1.630
 3257SOL    HW210671   1.398   1.872   1.712
 3258SOL     OW10672   4.517   5.744   2.554
 3258SOL    HW110673   4.617   5.745   2.547
 3258SOL    HW210674   4.490   5.744   2.650
 3259SOL     OW10675   4.791   4.418   4.812
 3259SOL    HW110676   4.845   4.472   4.748
 3259SOL    HW210677   4.765   4.474   4.891
 3260SOL     OW10678   1.777   2.525   1.600
 3260SOL    HW110679   1.836   2.446   1.619
 3260SOL    HW210680   1.707   2.531   1.672
 3261SOL     OW10681   5.618   0.879   1.032
 3261SOL    HW110682   5.657   0.816   0.965
 3261SOL    HW210683   5.661   0.863   1.121
 3262SOL     OW10684   3.662   1.991   2.324
 3262SOL    HW110685   3.629   2.017   2.415
 3262SOL    HW210686   3.756   2.021   2.313
 3263SOL     OW10687   2.804   1.229   3.164
 3263SOL    HW110688   2.828   1.161   3.095
 3263SOL    HW210689   2.787   1.317   3.119
 3264SOL     OW10690   1.974   5.231   1.118
 3264SOL    HW110691   2.065   5.218   1.158
 3264SOL    HW210692   1.908   5.171   1.164
 3265SOL     OW10693   5.052   0.148   6.395
 3265SOL    HW110694   4.958   0.118   6.379
 3265SOL    HW210695   5.101   0.153   6.308
 3266SOL     OW10696   3.082   4.527   0.016
 3266SOL    HW110697   2.983   4.529   0.003
 3266SOL    HW210698   3.115   4.433   0.002
 3267SOL     OW10699   2.992   5.962   1.789
 3267SOL    HW110700   2.968   5.925   1.699
 3267SOL    HW210701   2.953   6.054   1.798
 3268SOL     OW10702   2.319   4.044   1.476
 3268SOL    HW110703   2.220   4.043   1.495
 3268SOL    HW210704   2.369   4.051   1.562
 3269SOL     OW10705   5.943   5.953   2.222
 3269SOL    HW110706   5.975   5.862   2.250
 3269SOL    HW210707   5.944   6.015   2.301
 3270SOL     OW10708   1.783   4.001   6.705
 3270SOL    HW110709   1.826   3.935   6.766
 3270SOL    HW210710   1.845   4.022   6.629
 3271SOL     OW10711   6.557   2.815   1.139
 3271SOL    HW110712   6.466   2.781   1.162
 3271SOL    HW210713   6.578   2.792   1.044
 3272SOL     OW10714   2.922   4.500   6.177
 3272SOL    HW110715   3.012   4.494   6.221
 3272SOL    HW210716   2.907   4.594   6.145
 3273SOL     OW10717   6.578   4.634   6.938
 3273SOL    HW110718   6.485   4.669   6.953
 3273SOL    HW210719   6.610   4.587   7.020
 3274SOL     OW10720   6.035   0.419   0.359
 3274SOL    HW110721   5.978   0.410   0.277
 3274SOL    HW210722   6.015   0.506   0.404
 3275SOL     OW10723   5.281   0.938   6.978
 3275SOL    HW110724   5.307   0.899   0.044
 3275SOL    HW210725   5.275   1.037   6.986
 3276SOL     OW10726   4.185   6.017   6.750
 3276SOL    HW110727   4.280   6.012   6.719
 3276SOL    HW210728   4.131   5.947   6.703
 3277SOL     OW10729   3.392   0.782   1.011
 3277SOL    HW110730   3.371   0.872   0.974
 3277SOL    HW210731   3.479   0.785   1.059
 3278SOL     OW10732   1.292   1.080   5.736
 3278SOL    HW110733   1.228   1.151   5.706
 3278SOL    HW210734   1.370   1.122   5.783
 3279SOL     OW10735   5.410   6.681   0.292
 3279SOL    HW110736   5.331   6.645   0.341
 3279SOL    HW210737   5.475   6.719   0.358
 3280SOL     OW10738   4.889   4.642   4.646
 3280SOL    HW110739   4.864   4.735   4.671
 3280SOL    HW210740   4.947   4.644   4.565
 3281SOL     OW10741   0.991   4.805   1.092
 3281SOL    HW110742   1.040   4.868   1.152
 3281SOL    HW210743   0.912   4.769   1.140
 3282SOL     OW10744   6.649   5.348   4.860
 3282SOL    HW110745   6.603   5.419   4.807
 3282SOL    HW210746   6.619   5.258   4.829
 3283SOL     OW10747   3.227   1.331   1.175
 3283SOL    HW110748   3.207   1.421   1.136
 3283SOL    HW210749   3.145   1.273   1.171
 3284SOL     OW10750   1.246   6.075   6.469
 3284SOL    HW110751   1.207   5.983   6.464
 3284SOL    HW210752   1.207   6.132   6.397
 3285SOL     OW10753   4.566   2.099   4.232
 3285SOL    HW110754   4.556   2.001   4.213
 3285SOL    HW210755   4.621   2.111   4.315
 3286SOL     OW10756   4.054   3.124   2.075
 3286SOL    HW110757   4.020   3.182   2.149
 3286SOL    HW210758   4.062   3.029   2.107
 3287SOL     OW10759   0.528   0.319   0.221
 3287SOL    HW110760   0.569   0.307   0.311
 3287SOL    HW210761   0.509   0.229   0.181
 3288SOL     OW10762   1.991   6.358   0.296
 3288SOL    HW110763   1.951   6.408   0.219
 3288SOL    HW210764   1.920   6.303   0.341
 3289SOL     OW10765   3.002   1.209   6.229
 3289SOL    HW110766   2.929   1.276   6.240
 3289SOL    HW210767   3.091   1.254   6.238
 3290SOL     OW10768   6.823   4.610   1.216
 3290SOL    HW110769   6.877   4.668   1.278
 3290SOL    HW210770   6.865   4.519   1.212
 3291SOL     OW10771   2.260   0.520   6.164
 3291SOL    HW110772   2.326   0.537   6.238
 3291SOL    HW210773   2.309   0.505   6.078
 3292SOL     OW10774   6.842   0.916   0.665
 3292SOL    HW110775   6.846   0.976   0.744
 3292SOL    HW210776   6.774   0.844   0.680
 3293SOL     OW10777   6.131   4.550   1.728
 3293SOL    HW110778   6.058   4.618   1.733
 3293SOL    HW210779   6.219   4.594   1.744
 3294SOL     OW10780   5.380   3.226   6.211
 3294SOL    HW110781   5.436   3.166   6.267
 3294SOL    HW210782   5.440   3.287   6.158
 3295SOL     OW10783   0.989   2.995   2.232
 3295SOL    HW110784   1.012   3.089   2.256
 3295SOL    HW210785   1.054   2.961   2.164
 3296SOL     OW10786   1.103   0.584   2.821
 3296SOL    HW110787   1.011   0.608   2.849
 3296SOL    HW210788   1.136   0.650   2.753
 3297SOL     OW10789   2.885   1.719   5.233
 3297SOL    HW110790   2.810   1.774   5.268
 3297SOL    HW210791   2.938   1.774   5.167
 3298SOL     OW10792   5.790   2.228   5.717
 3298SOL    HW110793   5.708   2.199   5.766
 3298SOL    HW210794   5.869   2.225   5.778
 3299SOL     OW10795   3.647   5.822   2.675
 3299SOL    HW110796   3.592   5.820   2.592
 3299SOL    HW210797   3.594   5.862   2.750
 3300SOL     OW10798   0.658   0.875   5.911
 3300SOL    HW110799   0.559   0.886   5.901
 3300SOL    HW210800   0.677   0.795   5.968
 3301SOL     OW10801   2.036   3.226   3.273
 3301SOL    HW110802   2.051   3.308   3.218
 3301SOL    HW210803   1.994   3.250   3.360
 3302SOL     OW10804   0.480   4.672   5.062
 3302SOL    HW110805   0.495   4.737   5.137
 3302SOL    HW210806   0.420   4.598   5.094
 3303SOL     OW10807   3.342   3.645   0.530
 3303SOL    HW110808   3.414   3.711   0.511
 3303SOL    HW210809   3.253   3.684   0.503
 3304SOL     OW10810   1.699   5.474   5.927
 3304SOL    HW110811   1.689   5.552   5.989
 3304SOL    HW210812   1.762   5.497   5.853
 3305SOL     OW10813   2.339   1.611   2.557
 3305SOL    HW110814   2.337   1.690   2.618
 3305SOL    HW210815   2.306   1.637   2.467
 3306SOL     OW10816   2.023   5.271   5.085
 3306SOL    HW110817   2.069   5.360   5.088
 3306SOL    HW210818   1.958   5.270   5.009
 3307SOL     OW10819   0.747   6.404   6.126
 3307SOL    HW110820   0.787   6.344   6.196
 3307SOL    HW210821   0.692   6.350   6.063
 3308SOL     OW10822   2.851   5.605   1.636
 3308SOL    HW110823   2.770   5.590   1.580
 3308SOL    HW210824   2.905   5.680   1.597
 3309SOL     OW10825   6.343   5.483   3.798
 3309SOL    HW110826   6.402   5.466   3.718
 3309SOL    HW210827   6.286   5.563   3.781
 3310SOL     OW10828   0.000   4.158   5.276
 3310SOL    HW110829   0.030   4.170   5.371
 3310SOL    HW210830   6.983   4.067   5.265
 3311SOL     OW10831   3.636   4.529   0.474
 3311SOL    HW110832   3.628   4.562   0.568
 3311SOL    HW210833   3.546   4.499   0.441
 3312SOL     OW10834   4.030   4.161   6.132
 3312SOL    HW110835   3.954   4.110   6.173
 3312SOL    HW210836   4.020   4.160   6.032
 3313SOL     OW10837   0.902   6.464   4.181
 3313SOL    HW110838   0.822   6.423   4.226
 3313SOL    HW210839   0.951   6.395   4.128
 3314SOL     OW10840   2.293   1.533   2.272
 3314SOL    HW110841   2.234   1.456   2.297
 3314SOL    HW210842   2.243   1.595   2.211
 3315SOL     OW10843   0.312   4.280   4.710
 3315SOL    HW110844   0.268   4.192   4.697
 3315SOL    HW210845   0.263   4.333   4.779
 3316SOL     OW10846   4.869   0.863   5.045
 3316SOL    HW110847   4.848   0.930   5.117
 3316SOL    HW210848   4.784   0.818   5.016
 3317SOL     OW10849   4.961   2.678   2.055
 3317SOL    HW110850   5.008   2.716   1.975
 3317SOL    HW210851   4.868   2.715   2.059
 3318SOL     OW10852   1.998   1.387   1.202
 3318SOL    HW110853   2.081   1.371   1.255
 3318SOL    HW210854   1.964   1.479   1.220
 3319SOL     OW10855   5.710   1.454   3.599
 3319SOL    HW110856   5.696   1.418   3.507
 3319SOL    HW210857   5.757   1.386   3.655
 3320SOL     OW10858   6.214   1.008   6.303
 3320SOL    HW110859   6.141   0.967   6.357
 3320SOL    HW210860   6.218   1.106   6.322
 3321SOL     OW10861   5.182   2.030   0.319
 3321SOL    HW110862   5.086   2.015   0.298
 3321SOL    HW210863   5.236   2.023   0.235
 3322SOL     OW10864   6.686   2.355   1.090
 3322SOL    HW110865   6.712   2.444   1.052
 3322SOL    HW210866   6.673   2.363   1.189
 3323SOL     OW10867   2.964   3.083   0.097
 3323SOL    HW110868   3.063   3.094   0.107
 3323SOL    HW210869   2.939   2.988   0.114
 3324SOL     OW10870   3.772   4.730   6.740
 3324SOL    HW110871   3.856   4.675   6.736
 3324SOL    HW210872   3.794   4.822   6.770
 3325SOL     OW10873   6.901   3.876   6.914
 3325SOL    HW110874   6.866   3.922   6.832
 3325SOL    HW210875   6.863   3.920   6.996
 3326SOL     OW10876   5.061   1.894   1.587
 3326SOL    HW110877   5.073   1.841   1.672
 3326SOL    HW210878   5.096   1.841   1.510
 3327SOL     OW10879   3.047   5.448   2.171
 3327SOL    HW110880   3.115   5.489   2.110
 3327SOL    HW210881   2.989   5.386   2.119
 3328SOL     OW10882   4.390   1.881   0.718
 3328SOL    HW110883   4.327   1.806   0.736
 3328SOL    HW210884   4.425   1.917   0.805
 3329SOL     OW10885   5.930   0.077   5.293
 3329SOL    HW110886   5.898   0.171   5.300
 3329SOL    HW210887   5.872   0.028   5.227
 3330SOL     OW10888   6.556   3.927   1.684
 3330SOL    HW110889   6.474   3.878   1.654
 3330SOL    HW210890   6.556   4.019   1.644
 3331SOL     OW10891   2.101   2.958   1.608
 3331SOL    HW110892   2.191   2.991   1.635
 3331SOL    HW210893   2.087   2.866   1.643
 3332SOL     OW10894   5.665   5.792   0.081
 3332SOL    HW110895   5.759   5.825   0.086
 3332SOL    HW210896   5.659   5.719   0.012
 3333SOL     OW10897   4.358   5.444   6.647
 3333SOL    HW110898   4.269   5.482   6.674
 3333SOL    HW210899   4.419   5.444   6.725
 3334SOL     OW10900   3.044   3.848   1.255
 3334SOL    HW110901   3.040   3.948   1.260
 3334SOL    HW210902   2.954   3.812   1.231
 3335SOL     OW10903   4.903   5.744   5.819
 3335SOL    HW110904   4.810   5.744   5.781
 3335SOL    HW210905   4.968   5.768   5.747
 3336SOL     OW10906   2.791   5.224   4.914
 3336SOL    HW110907   2.695   5.195   4.909
 3336SOL    HW210908   2.798   5.307   4.968
 3337SOL     OW10909   3.048   3.754   2.124
 3337SOL    HW110910   3.010   3.683   2.064
 3337SOL    HW210911   3.062   3.838   2.072
 3338SOL     OW10912   5.611   2.601   1.331
 3338SOL    HW110913   5.701   2.558   1.328
 3338SOL    HW210914   5.619   2.695   1.297
 3339SOL     OW10915   6.711   6.885   6.779
 3339SOL    HW110916   6.629   6.831   6.797
 3339SOL    HW210917   6.692   6.953   6.709
 3340SOL     OW10918   3.572   0.378   1.762
 3340SOL    HW110919   3.590   0.442   1.688
 3340SOL    HW210920   3.646   0.383   1.829
 3341SOL     OW10921   0.903   6.105   3.763
 3341SOL    HW110922   0.987   6.050   3.761
 3341SOL    HW210923   0.843   6.072   3.836
 3342SOL     OW10924   2.868   6.561   4.129
 3342SOL    HW110925   2.805   6.511   4.070
 3342SOL    HW210926   2.825   6.647   4.157
 3343SOL     OW10927   4.563   3.063   0.791
 3343SOL    HW110928   4.484   3.036   0.736
 3343SOL    HW210929   4.613   3.136   0.744
 3344SOL     OW10930   6.144   3.158   4.714
 3344SOL    HW110931   6.135   3.059   4.703
 3344SOL    HW210932   6.131   3.182   4.810
 3345SOL     OW10933   1.533   3.780   5.523
 3345SOL    HW110934   1.608   3.802   5.460
 3345SOL    HW210935   1.507   3.863   5.573
 3346SOL     OW10936   1.816   0.876   0.884
 3346SOL    HW110937   1.814   0.936   0.804
 3346SOL    HW210938   1.900   0.892   0.935
 3347SOL     OW10939   0.488   4.365   4.104
 3347SOL    HW110940   0.512   4.381   4.008
 3347SOL    HW210941   0.481   4.267   4.121
 3348SOL     OW10942   2.999   3.214   3.766
 3348SOL    HW110943   3.038   3.137   3.816
 3348SOL    HW210944   2.942   3.269   3.828
 3349SOL     OW10945   0.834   5.312   4.075
 3349SOL    HW110946   0.849   5.291   3.978
 3349SOL    HW210947   0.836   5.227   4.128
 3350SOL     OW10948   1.207   2.482   5.676
 3350SOL    HW110949   1.260   2.397   5.683
 3350SOL    HW210950   1.247   2.541   5.605
 3351SOL     OW10951   5.251   0.504   3.029
 3351SOL    HW110952   5.189   0.445   2.978
 3351SOL    HW210953   5.233   0.495   3.127
 3352SOL     OW10954   0.305   2.503   0.271
 3352SOL    HW110955   0.372   2.492   0.198
 3352SOL    HW210956   0.333   2.448   0.350
 3353SOL     OW10957   1.634   6.519   2.180
 3353SOL    HW110958   1.547   6.470   2.170
 3353SOL    HW210959   1.687   6.476   2.253
 3354SOL     OW10960   5.023   2.679   4.494
 3354SOL    HW110961   5.082   2.673   4.574
 3354SOL    HW210962   4.970   2.764   4.498
 3355SOL     OW10963   1.491   1.350   7.011
 3355SOL    HW110964   1.558   1.321   0.057
 3355SOL    HW210965   1.487   1.450   7.009
 3356SOL     OW10966   2.339   3.807   6.462
 3356SOL    HW110967   2.371   3.759   6.380
 3356SOL    HW210968   2.290   3.890   6.435
 3357SOL     OW10969   2.679   4.567   1.701
 3357SOL    HW110970   2.739   4.554   1.780
 3357SOL    HW210971   2.584   4.565   1.732
 3358SOL     OW10972   4.964   0.333   1.445
 3358SOL    HW110973   4.868   0.310   1.459
 3358SOL    HW210974   5.000   0.376   1.528
 3359SOL     OW10975   6.642   0.487   3.553
 3359SOL    HW110976   6.621   0.390   3.565
 3359SOL    HW210977   6.708   0.516   3.622
 3360SOL     OW10978   0.432   1.076   6.757
 3360SOL    HW110979   0.413   1.012   6.831
 3360SOL    HW210980   0.531   1.085   6.746
 3361SOL     OW10981   0.410   4.116   2.690
 3361SOL    HW110982   0.326   4.161   2.659
 3361SOL    HW210983   0.401   4.094   2.787
 3362SOL     OW10984   3.892   1.289   3.952
 3362SOL    HW110985   3.927   1.223   3.885
 3362SOL    HW210986   3.930   1.269   4.042
 3363SOL     OW10987   0.449   0.003   0.168
 3363SOL    HW110988   0.352   0.022   0.182
 3363SOL    HW210989   0.481   6.963   0.239
 3364SOL     OW10990   0.866   4.299   4.457
 3364SOL    HW110991   0.924   4.323   4.534
 3364SOL    HW210992   0.904   4.337   4.373
 3365SOL     OW10993   0.529   2.153   5.585
 3365SOL    HW110994   0.480   2.112   5.508
 3365SOL    HW210995   0.515   2.097   5.667
 3366SOL     OW10996   5.827   0.524   6.290
 3366SOL    HW110997   5.925   0.542   6.293
 3366SOL    HW210998   5.787   0.566   6.209
 3367SOL     OW10999   3.014   2.667   1.246
 3367SOL    HW111000   3.027   2.735   1.317
 3367SOL    HW211001   3.096   2.610   1.238
 3368SOL     OW11002   0.720   5.775   5.970
 3368SOL    HW111003   0.739   5.824   5.885
 3368SOL    HW211004   0.622   5.760   5.978
 3369SOL     OW11005   3.450   2.564   5.764
 3369SOL    HW111006   3.440   2.476   5.810
 3369SOL    HW211007   3.495   2.552   5.676
 3370SOL     OW11008   6.801   6.278   6.079
 3370SOL    HW111009   6.754   6.250   6.163
 3370SOL    HW211010   6.831   6.373   6.086
 3371SOL     OW11011   1.249   3.927   2.515
 3371SOL    HW111012   1.308   4.007   2.509
 3371SOL    HW211013   1.244   3.883   2.425
 3372SOL     OW11014   0.529   1.103   1.469
 3372SOL    HW111015   0.473   1.022   1.484
 3372SOL    HW211016   0.600   1.082   1.402
 3373SOL     OW11017   6.593   1.457   3.051
 3373SOL    HW111018   6.551   1.412   3.129
 3373SOL    HW211019   6.688   1.428   3.042
 3374SOL     OW11020   2.199   5.912   4.701
 3374SOL    HW111021   2.213   6.010   4.715
 3374SOL    HW211022   2.138   5.898   4.623
 3375SOL     OW11023   4.999   5.008   6.142
 3375SOL    HW111024   5.017   5.091   6.194
 3375SOL    HW211025   4.932   5.027   6.070
 3376SOL     OW11026   3.652   3.387   3.277
 3376SOL    HW111027   3.554   3.388   3.300
 3376SOL    HW211028   3.702   3.338   3.348
 3377SOL     OW11029   0.357   6.831   4.648
 3377SOL    HW111030   0.415   6.913   4.638
 3377SOL    HW211031   0.278   6.853   4.705
 3378SOL     OW11032   6.552   0.495   0.428
 3378SOL    HW111033   6.477   0.460   0.371
 3378SOL    HW211034   6.555   0.594   0.423
 3379SOL     OW11035   6.976   5.307   6.206
 3379SOL    HW111036   7.013   5.341   6.119
 3379SOL    HW211037   0.025   5.309   6.275
 3380SOL     OW11038   5.452   6.653   6.128
 3380SOL    HW111039   5.538   6.646   6.179
 3380SOL    HW211040   5.450   6.740   6.079
 3381SOL     OW11041   1.108   2.915   1.489
 3381SOL    HW111042   1.193   2.904   1.541
 3381SOL    HW211043   1.131   2.923   1.391
 3382SOL     OW11044   0.678   0.468   0.695
 3382SOL    HW111045   0.775   0.459   0.673
 3382SOL    HW211046   0.667   0.499   0.789
 3383SOL     OW11047   4.445   5.750   2.806
 3383SOL    HW111048   4.377   5.823   2.818
 3383SOL    HW211049   4.426   5.676   2.871
 3384SOL     OW11050   2.525   3.411   5.347
 3384SOL    HW111051   2.449   3.353   5.317
 3384SOL    HW211052   2.551   3.386   5.440
 3385SOL     OW11053   0.336   4.061   3.791
 3385SOL    HW111054   0.360   4.136   3.729
 3385SOL    HW211055   0.246   4.025   3.764
 3386SOL     OW11056   6.478   3.562   6.099
 3386SOL    HW111057   6.534   3.510   6.163
 3386SOL    HW211058   6.537   3.619   6.041
 3387SOL     OW11059   3.059   1.287   3.565
 3387SOL    HW111060   2.997   1.248   3.632
 3387SOL    HW211061   3.041   1.249   3.475
 3388SOL     OW11062   5.552   3.368   1.811
 3388SOL    HW111063   5.461   3.346   1.848
 3388SOL    HW211064   5.551   3.462   1.776
 3389SOL     OW11065   4.981   5.314   4.467
 3389SOL    HW111066   5.062   5.357   4.507
 3389SOL    HW211067   4.934   5.380   4.408
 3390SOL     OW11068   5.303   4.822   5.498
 3390SOL    HW111069   5.226   4.829   5.435
 3390SOL    HW211070   5.272   4.782   5.584
 3391SOL     OW11071   5.355   2.890   5.056
 3391SOL    HW111072   5.407   2.841   5.125
 3391SOL    HW211073   5.316   2.973   5.095
 3392SOL     OW11074   2.696   7.005   3.788
 3392SOL    HW111075   2.668   0.070   3.826
 3392SOL    HW211076   2.737   6.949   3.860
 3393SOL     OW11077   0.216   6.265   6.803
 3393SOL    HW111078   0.235   6.195   6.734
 3393SOL    HW211079   0.250   6.235   6.892
 3394SOL     OW11080   5.792   2.743   0.763
 3394SOL    HW111081   5.709   2.762   0.710
 3394SOL    HW211082   5.842   2.667   0.721
 3395SOL     OW11083   5.967   3.613   3.518
 3395SOL    HW111084   5.879   3.605   3.472
 3395SOL    HW211085   6.030   3.666   3.461
 3396SOL     OW11086   5.919   2.164   3.446
 3396SOL    HW111087   5.853   2.156   3.522
 3396SOL    HW211088   6.010   2.181   3.483
 3397SOL     OW11089   2.602   1.275   5.430
 3397SOL    HW111090   2.515   1.285   5.381
 3397SOL    HW211091   2.678   1.278   5.364
 3398SOL     OW11092   1.224   6.710   4.099
 3398SOL    HW111093   1.204   6.639   4.166
 3398SOL    HW211094   1.174   6.793   4.123
 3399SOL     OW11095   5.497   4.249   4.997
 3399SOL    HW111096   5.585   4.223   4.958
 3399SOL    HW211097   5.509   4.328   5.057
 3400SOL     OW11098   4.485   1.803   5.955
 3400SOL    HW111099   4.467   1.873   5.886
 3400SOL    HW211100   4.400   1.757   5.979
 3401SOL     OW11101   6.811   3.425   0.499
 3401SOL    HW111102   6.901   3.395   0.467
 3401SOL    HW211103   6.797   3.394   0.594
 3402SOL     OW11104   3.836   6.178   0.250
 3402SOL    HW111105   3.930   6.179   0.286
 3402SOL    HW211106   3.816   6.266   0.207
 3403SOL     OW11107   4.524   6.914   4.971
 3403SOL    HW111108   4.547   6.822   5.001
 3403SOL    HW211109   4.427   6.919   4.948
 3404SOL     OW11110   5.471   1.661   6.683
 3404SOL    HW111111   5.454   1.743   6.738
 3404SOL    HW211112   5.568   1.639   6.686
 3405SOL     OW11113   6.517   4.300   4.439
 3405SOL    HW111114   6.430   4.349   4.428
 3405SOL    HW211115   6.508   4.208   4.401
 3406SOL     OW11116   0.785   4.323   2.538
 3406SOL    HW111117   0.835   4.356   2.458
 3406SOL    HW211118   0.850   4.303   2.612
 3407SOL     OW11119   1.719   5.376   0.153
 3407SOL    HW111120   1.644   5.357   0.089
 3407SOL    HW211121   1.761   5.464   0.132
 3408SOL     OW11122   5.057   3.934   5.230
 3408SOL    HW111123   5.072   4.021   5.182
 3408SOL    HW211124   5.075   3.946   5.327
 3409SOL     OW11125   3.748   6.110   6.402
 3409SOL    HW111126   3.785   6.177   6.467
 3409SOL    HW211127   3.655   6.135   6.378
 3410SOL     OW11128   6.581   5.583   7.011
 3410SOL    HW111129   6.503   5.640   0.014
 3410SOL    HW211130   6.641   5.572   0.067
 3411SOL     OW11131   0.285   2.550   1.755
 3411SOL    HW111132   0.250   2.457   1.767
 3411SOL    HW211133   0.265   2.582   1.662
 3412SOL     OW11134   4.661   2.786   6.454
 3412SOL    HW111135   4.598   2.835   6.513
 3412SOL    HW211136   4.736   2.846   6.427
 3413SOL     OW11137   5.345   0.488   2.274
 3413SOL    HW111138   5.428   0.540   2.294
 3413SOL    HW211139   5.328   0.423   2.348
 3414SOL     OW11140   1.803   1.048   5.789
 3414SOL    HW111141   1.862   1.124   5.763
 3414SOL    HW211142   1.755   1.013   5.709
 3415SOL     OW11143   1.451   4.091   4.541
 3415SOL    HW111144   1.426   3.995   4.528
 3415SOL    HW211145   1.369   4.147   4.538
 3416SOL     OW11146   6.960   5.989   0.778
 3416SOL    HW111147   6.926   5.955   0.689
 3416SOL    HW211148   7.014   5.917   0.822
 3417SOL     OW11149   0.622   5.880   3.739
 3417SOL    HW111150   0.718   5.861   3.720
 3417SOL    HW211151   0.606   5.979   3.735
 3418SOL     OW11152   4.006   0.130   4.925
 3418SOL    HW111153   3.945   0.056   4.952
 3418SOL    HW211154   3.981   0.161   4.832
 3419SOL     OW11155   4.121   5.404   4.937
 3419SOL    HW111156   4.158   5.469   4.870
 3419SOL    HW211157   4.037   5.440   4.976
 3420SOL     OW11158   5.301   3.364   3.753
 3420SOL    HW111159   5.370   3.309   3.708
 3420SOL    HW211160   5.315   3.461   3.730
 3421SOL     OW11161   5.677   0.548   6.507
 3421SOL    HW111162   5.578   0.556   6.495
 3421SOL    HW211163   5.722   0.550   6.418
 3422SOL     OW11164   1.805   6.767   1.496
 3422SOL    HW111165   1.898   6.790   1.524
 3422SOL    HW211166   1.802   6.673   1.462
 3423SOL     OW11167   2.351   6.522   0.636
 3423SOL    HW111168   2.278   6.537   0.703
 3423SOL    HW211169   2.424   6.467   0.678
 3424SOL     OW11170   2.939   0.154   2.439
 3424SOL    HW111171   2.872   0.084   2.464
 3424SOL    HW211172   2.990   0.123   2.359
 3425SOL     OW11173   5.552   4.208   2.419
 3425SOL    HW111174   5.597   4.168   2.340
 3425SOL    HW211175   5.591   4.171   2.503
 3426SOL     OW11176   3.360   3.072   0.117
 3426SOL    HW111177   3.442   3.115   0.079
 3426SOL    HW211178   3.387   3.001   0.182
 3427SOL     OW11179   6.586   6.671   0.156
 3427SOL    HW111180   6.665   6.610   0.166
 3427SOL    HW211181   6.521   6.632   0.091
 3428SOL     OW11182   2.897   4.900   1.161
 3428SOL    HW111183   2.922   4.858   1.249
 3428SOL    HW211184   2.940   4.990   1.154
 3429SOL     OW11185   0.939   1.823   0.019
 3429SOL    HW111186   1.014   1.789   0.077
 3429SOL    HW211187   0.852   1.792   0.056
 3430SOL     OW11188   6.890   6.398   5.264
 3430SOL    HW111189   6.923   6.437   5.178
 3430SOL    HW211190   6.845   6.311   5.246
 3431SOL     OW11191   2.076   6.896   1.444
 3431SOL    HW111192   2.066   6.797   1.430
 3431SOL    HW211193   2.168   6.924   1.418
 3432SOL     OW11194   2.569   2.797   0.008
 3432SOL    HW111195   2.648   2.832   0.058
 3432SOL    HW211196   2.562   2.698   0.022
 3433SOL     OW11197   1.206   6.800   6.858
 3433SOL    HW111198   1.186   6.794   6.956
 3433SOL    HW211199   1.122   6.821   6.808
 3434SOL     OW11200   4.543   2.122   0.664
 3434SOL    HW111201   4.462   2.079   0.703
 3434SOL    HW211202   4.567   2.204   0.717
 3435SOL     OW11203   1.484   1.620   1.231
 3435SOL    HW111204   1.550   1.614   1.157
 3435SOL    HW211205   1.412   1.552   1.218
 3436SOL     OW11206   3.333   6.725   5.855
 3436SOL    HW111207   3.262   6.741   5.923
 3436SOL    HW211208   3.423   6.726   5.899
 3437SOL     OW11209   3.370   0.852   6.206
 3437SOL    HW111210   3.449   0.907   6.234
 3437SOL    HW211211   3.401   0.768   6.163
 3438SOL     OW11212   1.251   2.163   0.524
 3438SOL    HW111213   1.192   2.214   0.461
 3438SOL    HW211214   1.199   2.135   0.605
 3439SOL     OW11215   1.931   6.332   5.503
 3439SOL    HW111216   2.018   6.290   5.476
 3439SOL    HW211217   1.943   6.430   5.516
 3440SOL     OW11218   4.038   3.476   1.787
 3440SOL    HW111219   4.032   3.576   1.786
 3440SOL    HW211220   4.012   3.442   1.877
 3441SOL     OW11221   5.079   0.120   3.912
 3441SOL    HW111222   5.146   0.081   3.849
 3441SOL    HW211223   5.018   0.181   3.862
 3442SOL     OW11224   2.934   5.060   2.858
 3442SOL    HW111225   2.876   5.139   2.877
 3442SOL    HW211226   3.012   5.061   2.921
 3443SOL     OW11227   5.736   0.118   1.727
 3443SOL    HW111228   5.652   0.071   1.701
 3443SOL    HW211229   5.804   0.108   1.654
 3444SOL     OW11230   5.345   5.569   0.368
 3444SOL    HW111231   5.400   5.486   0.358
 3444SOL    HW211232   5.332   5.611   0.278
 3445SOL     OW11233   6.142   5.489   4.586
 3445SOL    HW111234   6.163   5.466   4.491
 3445SOL    HW211235   6.076   5.564   4.589
 3446SOL     OW11236   5.936   0.428   2.489
 3446SOL    HW111237   5.850   0.394   2.451
 3446SOL    HW211238   5.981   0.488   2.423
 3447SOL     OW11239   5.018   5.587   1.232
 3447SOL    HW111240   4.927   5.575   1.273
 3447SOL    HW211241   5.087   5.587   1.304
 3448SOL     OW11242   3.336   0.537   0.592
 3448SOL    HW111243   3.302   0.582   0.675
 3448SOL    HW211244   3.379   0.604   0.532
 3449SOL     OW11245   6.074   6.654   3.660
 3449SOL    HW111246   6.096   6.723   3.591
 3449SOL    HW211247   6.157   6.604   3.685
 3450SOL     OW11248   0.283   2.422   6.643
 3450SOL    HW111249   0.318   2.506   6.683
 3450SOL    HW211250   0.185   2.415   6.660
 3451SOL     OW11251   1.623   6.083   3.003
 3451SOL    HW111252   1.609   6.147   2.927
 3451SOL    HW211253   1.593   5.992   2.976
 3452SOL     OW11254   6.176   1.485   6.466
 3452SOL    HW111255   6.254   1.526   6.513
 3452SOL    HW211256   6.102   1.469   6.531
 3453SOL     OW11257   6.754   5.928   6.380
 3453SOL    HW111258   6.766   5.834   6.348
 3453SOL    HW211259   6.684   5.930   6.451
 3454SOL     OW11260   1.284   1.600   6.698
 3454SOL    HW111261   1.354   1.529   6.705
 3454SOL    HW211262   1.323   1.688   6.724
 3455SOL     OW11263   2.263   2.856   4.090
 3455SOL    HW111264   2.194   2.787   4.068
 3455SOL    HW211265   2.278   2.859   4.188
 3456SOL     OW11266   5.553   5.552   2.367
 3456SOL    HW111267   5.536   5.572   2.464
 3456SOL    HW211268   5.603   5.628   2.326
 3457SOL     OW11269   2.827   5.808   3.671
 3457SOL    HW111270   2.821   5.754   3.754
 3457SOL    HW211271   2.739   5.805   3.623
 3458SOL     OW11272   4.387   0.192   0.547
 3458SOL    HW111273   4.448   0.244   0.487
 3458SOL    HW211274   4.349   0.253   0.617
 3459SOL     OW11275   6.497   3.819   2.782
 3459SOL    HW111276   6.407   3.858   2.759
 3459SOL    HW211277   6.559   3.832   2.705
 3460SOL     OW11278   2.360   2.999   6.967
 3460SOL    HW111279   2.445   2.989   7.019
 3460SOL    HW211280   2.375   3.063   6.891
 3461SOL     OW11281   4.652   6.191   4.826
 3461SOL    HW111282   4.554   6.211   4.818
 3461SOL    HW211283   4.670   6.100   4.789
 3462SOL     OW11284   0.472   3.644   2.186
 3462SOL    HW111285   0.428   3.642   2.096
 3462SOL    HW211286   0.425   3.581   2.248
 3463SOL     OW11287   1.271   3.456   3.677
 3463SOL    HW111288   1.327   3.447   3.759
 3463SOL    HW211289   1.324   3.428   3.597
 3464SOL     OW11290   6.710   3.012   6.910
 3464SOL    HW111291   6.629   3.027   6.854
 3464SOL    HW211292   6.731   2.914   6.914
 3465SOL     OW11293   1.101   2.930   1.988
 3465SOL    HW111294   1.077   3.018   1.945
 3465SOL    HW211295   1.165   2.881   1.929
 3466SOL     OW11296   6.739   4.825   6.779
 3466SOL    HW111297   6.679   4.759   6.824
 3466SOL    HW211298   6.793   4.778   6.708
 3467SOL     OW11299   2.141   1.984   0.913
 3467SOL    HW111300   2.136   2.071   0.963
 3467SOL    HW211301   2.233   1.946   0.921
 3468SOL     OW11302   6.058   0.931   2.607
 3468SOL    HW111303   6.040   0.869   2.684
 3468SOL    HW211304   6.017   0.893   2.524
 3469SOL     OW11305   4.509   0.693   4.239
 3469SOL    HW111306   4.508   0.611   4.181
 3469SOL    HW211307   4.575   0.759   4.203
 3470SOL     OW11308   0.071   2.321   1.758
 3470SOL    HW111309   0.105   2.230   1.781
 3470SOL    HW211310   7.001   2.315   1.721
 3471SOL     OW11311   4.610   4.485   4.560
 3471SOL    HW111312   4.536   4.508   4.623
 3471SOL    HW211313   4.697   4.515   4.599
 3472SOL     OW11314   2.720   1.464   3.034
 3472SOL    HW111315   2.623   1.485   3.031
 3472SOL    HW211316   2.751   1.437   2.943
 3473SOL     OW11317   6.998   2.592   1.802
 3473SOL    HW111318   0.008   2.498   1.816
 3473SOL    HW211319   0.033   2.638   1.735
 3474SOL     OW11320   0.554   4.629   3.177
 3474SOL    HW111321   0.598   4.543   3.154
 3474SOL    HW211322   0.483   4.649   3.110
 3475SOL     OW11323   1.311   4.157   3.665
 3475SOL    HW111324   1.291   4.075   3.611
 3475SOL    HW211325   1.233   4.178   3.723
 3476SOL     OW11326   2.353   1.953   2.524
 3476SOL    HW111327   2.285   2.024   2.506
 3476SOL    HW211328   2.367   1.899   2.442
 3477SOL     OW11329   1.989   4.738   0.948
 3477SOL    HW111330   1.911   4.799   0.936
 3477SOL    HW211331   2.068   4.775   0.898
 3478SOL     OW11332   2.355   5.381   5.889
 3478SOL    HW111333   2.296   5.390   5.810
 3478SOL    HW211334   2.304   5.340   5.965
 3479SOL     OW11335   0.856   0.650   2.918
 3479SOL    HW111336   0.855   0.721   2.848
 3479SOL    HW211337   0.824   0.688   3.004
 3480SOL     OW11338   6.969   5.918   4.649
 3480SOL    HW111339   7.006   5.826   4.642
 3480SOL    HW211340   6.879   5.921   4.606
 3481SOL     OW11341   5.199   0.543   0.510
 3481SOL    HW111342   5.222   0.484   0.587
 3481SOL    HW211343   5.163   0.630   0.544
 3482SOL     OW11344   6.015   1.232   1.743
 3482SOL    HW111345   6.101   1.283   1.754
 3482SOL    HW211346   5.939   1.297   1.733
 3483SOL     OW11347   4.935   2.122   1.751
 3483SOL    HW111348   4.990   2.070   1.685
 3483SOL    HW211349   4.965   2.218   1.751
 3484SOL     OW11350   0.528   2.870   0.713
 3484SOL    HW111351   0.597   2.805   0.744
 3484SOL    HW211352   0.561   2.914   0.629
 3485SOL     OW11353   1.609   2.066   4.298
 3485SOL    HW111354   1.685   2.118   4.337
 3485SOL    HW211355   1.537   2.130   4.268
 3486SOL     OW11356   2.579   0.332   3.583
 3486SOL    HW111357   2.574   0.239   3.619
 3486SOL    HW211358   2.534   0.395   3.645
 3487SOL     OW11359   6.548   1.810   0.318
 3487SOL    HW111360   6.535   1.852   0.228
 3487SOL    HW211361   6.633   1.845   0.358
 3488SOL     OW11362   6.626   0.305   4.806
 3488SOL    HW111363   6.579   0.229   4.762
 3488SOL    HW211364   6.559   0.369   4.845
 3489SOL     OW11365   3.418   0.588   1.817
 3489SOL    HW111366   3.514   0.589   1.845
 3489SOL    HW211367   3.395   0.497   1.780
 3490SOL     OW11368   3.584   4.014   1.135
 3490SOL    HW111369   3.563   4.111   1.146
 3490SOL    HW211370   3.667   3.992   1.186
 3491SOL     OW11371   4.499   2.683   5.871
 3491SOL    HW111372   4.536   2.609   5.815
 3491SOL    HW211373   4.572   2.722   5.927
 3492SOL     OW11374   6.543   4.564   1.183
 3492SOL    HW111375   6.639   4.589   1.189
 3492SOL    HW211376   6.533   4.490   1.115
 3493SOL     OW11377   4.851   3.918   4.746
 3493SOL    HW111378   4.792   3.996   4.766
 3493SOL    HW211379   4.883   3.877   4.832
 3494SOL     OW11380   3.124   1.230   2.001
 3494SOL    HW111381   3.085   1.210   2.090
 3494SOL    HW211382   3.177   1.152   1.968
 3495SOL     OW11383   5.877   4.700   1.737
 3495SOL    HW111384   5.826   4.695   1.650
 3495SOL    HW211385   5.843   4.630   1.799
 3496SOL     OW11386   6.086   5.162   1.115
 3496SOL    HW111387   6.087   5.241   1.054
 3496SOL    HW211388   6.176   5.118   1.115
 3497SOL     OW11389   2.475   1.151   4.008
 3497SOL    HW111390   2.545   1.151   4.079
 3497SOL    HW211391   2.414   1.229   4.020
 3498SOL     OW11392   3.041   1.946   0.915
 3498SOL    HW111393   3.002   2.022   0.967
 3498SOL    HW211394   3.013   1.859   0.956
 3499SOL     OW11395   5.756   4.070   4.311
 3499SOL    HW111396   5.840   4.120   4.333
 3499SOL    HW211397   5.777   3.995   4.248
 3500SOL     OW11398   2.086   3.591   5.035
 3500SOL    HW111399   2.080   3.615   4.938
 3500SOL    HW211400   2.100   3.674   5.089
 3501SOL     OW11401   2.198   5.895   5.695
 3501SOL    HW111402   2.242   5.837   5.627
 3501SOL    HW211403   2.236   5.988   5.689
 3502SOL     OW11404   6.718   2.685   1.781
 3502SOL    HW111405   6.815   2.687   1.806
 3502SOL    HW211406   6.666   2.741   1.846
 3503SOL     OW11407   5.994   6.098   4.726
 3503SOL    HW111408   5.947   6.016   4.761
 3503SOL    HW211409   5.930   6.175   4.725
 3504SOL     OW11410   2.351   1.131   2.008
 3504SOL    HW111411   2.399   1.115   1.921
 3504SOL    HW211412   2.289   1.209   1.998
 3505SOL     OW11413   5.733   4.443   5.487
 3505SOL    HW111414   5.792   4.383   5.432
 3505SOL    HW211415   5.644   4.399   5.500
 3506SOL     OW11416   4.845   5.141   5.549
 3506SOL    HW111417   4.916   5.110   5.612
 3506SOL    HW211418   4.756   5.112   5.583
 3507SOL     OW11419   2.542   0.596   1.180
 3507SOL    HW111420   2.616   0.650   1.140
 3507SOL    HW211421   2.571   0.501   1.191
 3508SOL     OW11422   2.354   1.707   5.955
 3508SOL    HW111423   2.400   1.793   5.977
 3508SOL    HW211424   2.368   1.685   5.859
 3509SOL     OW11425   4.861   0.858   6.732
 3509SOL    HW111426   4.912   0.789   6.681
 3509SOL    HW211427   4.919   0.894   6.806
 3510SOL     OW11428   1.108   1.558   2.075
 3510SOL    HW111429   1.163   1.625   2.126
 3510SOL    HW211430   1.150   1.468   2.082
 3511SOL     OW11431   2.273   4.958   1.143
 3511SOL    HW111432   2.304   4.971   1.049
 3511SOL    HW211433   2.240   4.865   1.154
 3512SOL     OW11434   0.224   4.623   0.772
 3512SOL    HW111435   0.260   4.572   0.851
 3512SOL    HW211436   0.222   4.563   0.692
 3513SOL     OW11437   5.693   2.604   6.607
 3513SOL    HW111438   5.613   2.608   6.548
 3513SOL    HW211439   5.666   2.626   6.701
 3514SOL     OW11440   0.175   1.777   2.002
 3514SOL    HW111441   0.263   1.730   2.013
 3514SOL    HW211442   0.183   1.870   2.038
 3515SOL     OW11443   4.566   5.863   3.516
 3515SOL    HW111444   4.589   5.766   3.523
 3515SOL    HW211445   4.604   5.900   3.432
 3516SOL     OW11446   5.126   6.851   1.255
 3516SOL    HW111447   5.070   6.790   1.199
 3516SOL    HW211448   5.088   6.944   1.251
 3517SOL     OW11449   1.299   2.153   1.595
 3517SOL    HW111450   1.229   2.225   1.596
 3517SOL    HW211451   1.384   2.189   1.633
 3518SOL     OW11452   5.416   2.849   4.274
 3518SOL    HW111453   5.461   2.784   4.336
 3518SOL    HW211454   5.324   2.816   4.253
 3519SOL     OW11455   1.253   0.658   6.217
 3519SOL    HW111456   1.334   0.605   6.241
 3519SOL    HW211457   1.175   0.626   6.270
 3520SOL     OW11458   3.070   5.300   6.570
 3520SOL    HW111459   3.128   5.376   6.600
 3520SOL    HW211460   3.064   5.232   6.644
 3521SOL     OW11461   5.553   2.426   0.065
 3521SOL    HW111462   5.488   2.489   0.108
 3521SOL    HW211463   5.639   2.427   0.115
 3522SOL     OW11464   6.948   4.765   1.441
 3522SOL    HW111465   0.020   4.745   1.465
 3522SOL    HW211466   6.890   4.757   1.522
 3523SOL     OW11467   1.375   4.578   5.890
 3523SOL    HW111468   1.331   4.526   5.964
 3523SOL    HW211469   1.406   4.666   5.926
 3524SOL     OW11470   4.593   1.558   1.988
 3524SOL    HW111471   4.516   1.509   1.945
 3524SOL    HW211472   4.666   1.570   1.921
 3525SOL     OW11473   0.692   4.673   2.881
 3525SOL    HW111474   0.747   4.661   2.964
 3525SOL    HW211475   0.729   4.616   2.808
 3526SOL     OW11476   2.578   6.464   4.049
 3526SOL    HW111477   2.507   6.441   4.115
 3526SOL    HW211478   2.585   6.390   3.981
 3527SOL     OW11479   5.585   3.503   6.368
 3527SOL    HW111480   5.581   3.449   6.284
 3527SOL    HW211481   5.588   3.442   6.447
 3528SOL     OW11482   1.334   6.054   5.088
 3528SOL    HW111483   1.365   6.145   5.116
 3528SOL    HW211484   1.287   6.010   5.164
 3529SOL     OW11485   3.701   0.447   6.075
 3529SOL    HW111486   3.793   0.426   6.107
 3529SOL    HW211487   3.702   0.460   5.976
 3530SOL     OW11488   6.980   4.710   2.292
 3530SOL    HW111489   0.006   4.770   2.229
 3530SOL    HW211490   6.973   4.618   2.253
 3531SOL     OW11491   4.773   3.133   0.212
 3531SOL    HW111492   4.810   3.215   0.256
 3531SOL    HW211493   4.721   3.159   0.130
 3532SOL     OW11494   2.666   0.456   1.684
 3532SOL    HW111495   2.710   0.386   1.741
 3532SOL    HW211496   2.664   0.543   1.733
 3533SOL     OW11497   1.687   1.665   2.909
 3533SOL    HW111498   1.772   1.702   2.946
 3533SOL    HW211499   1.646   1.733   2.847
 3534SOL     OW11500   6.821   1.627   0.376
 3534SOL    HW111501   6.806   1.620   0.277
 3534SOL    HW211502   6.823   1.535   0.416
 3535SOL     OW11503   1.706   5.924   0.974
 3535SOL    HW111504   1.648   5.913   0.893
 3535SOL    HW211505   1.703   6.019   1.004
 3536SOL     OW11506   2.888   2.097   2.986
 3536SOL    HW111507   2.831   2.025   2.947
 3536SOL    HW211508   2.838   2.184   2.985
 3537SOL     OW11509   3.357   6.030   1.790
 3537SOL    HW111510   3.332   6.010   1.885
 3537SOL    HW211511   3.324   6.122   1.766
 3538SOL     OW11512   1.493   0.212   6.407
 3538SOL    HW111513   1.423   0.151   6.442
 3538SOL    HW211514   1.576   0.160   6.385
 3539SOL     OW11515   4.710   3.354   6.216
 3539SOL    HW111516   4.755   3.345   6.127
 3539SOL    HW211517   4.661   3.440   6.220
 3540SOL     OW11518   2.228   1.982   5.333
 3540SOL    HW111519   2.315   1.933   5.332
 3540SOL    HW211520   2.244   2.079   5.312
 3541SOL     OW11521   1.947   2.242   6.129
 3541SOL    HW111522   1.984   2.223   6.220
 3541SOL    HW211523   1.970   2.335   6.102
 3542SOL     OW11524   1.797   5.519   2.945
 3542SOL    HW111525   1.798   5.445   3.012
 3542SOL    HW211526   1.776   5.606   2.990
 3543SOL     OW11527   1.044   2.390   4.612
 3543SOL    HW111528   1.070   2.436   4.527
 3543SOL    HW211529   1.045   2.291   4.597
 3544SOL     OW11530   2.767   4.379   6.377
 3544SOL    HW111531   2.731   4.301   6.326
 3544SOL    HW211532   2.835   4.427   6.321
 3545SOL     OW11533   4.190   5.189   0.834
 3545SOL    HW111534   4.231   5.171   0.924
 3545SOL    HW211535   4.245   5.147   0.763
 3546SOL     OW11536   1.445   4.480   4.184
 3546SOL    HW111537   1.433   4.444   4.277
 3546SOL    HW211538   1.538   4.464   4.153
 3547SOL     OW11539   6.573   5.193   4.398
 3547SOL    HW111540   6.593   5.286   4.368
 3547SOL    HW211541   6.651   5.134   4.376
 3548SOL     OW11542   5.649   1.609   6.056
 3548SOL    HW111543   5.746   1.626   6.077
 3548SOL    HW211544   5.642   1.561   5.968
 3549SOL     OW11545   6.508   5.477   5.791
 3549SOL    HW111546   6.483   5.448   5.883
 3549SOL    HW211547   6.576   5.413   5.754
 3550SOL     OW11548   6.384   2.812   2.752
 3550SOL    HW111549   6.467   2.792   2.698
 3550SOL    HW211550   6.404   2.799   2.849
 3551SOL     OW11551   3.804   0.792   2.116
 3551SOL    HW111552   3.893   0.759   2.084
 3551SOL    HW211553   3.734   0.722   2.098
 3552SOL     OW11554   5.589   6.443   2.369
 3552SOL    HW111555   5.490   6.445   2.386
 3552SOL    HW211556   5.613   6.516   2.306
 3553SOL     OW11557   4.796   4.632   1.031
 3553SOL    HW111558   4.842   4.715   1.000
 3553SOL    HW211559   4.856   4.583   1.095
 3554SOL     OW11560   4.891   2.169   1.301
 3554SOL    HW111561   4.822   2.098   1.310
 3554SOL    HW211562   4.945   2.152   1.218
 3555SOL     OW11563   1.192   4.423   4.091
 3555SOL    HW111564   1.284   4.458   4.113
 3555SOL    HW211565   1.163   4.457   4.002
 3556SOL     OW11566   4.255   1.416   3.719
 3556SOL    HW111567   4.191   1.491   3.734
 3556SOL    HW211568   4.300   1.392   3.805
 3557SOL     OW11569   0.834   0.787   4.391
 3557SOL    HW111570   0.854   0.758   4.297
 3557SOL    HW211571   0.741   0.825   4.395
 3558SOL     OW11572   1.803   6.006   1.630
 3558SOL    HW111573   1.816   6.086   1.689
 3558SOL    HW211574   1.705   5.991   1.617
 3559SOL     OW11575   0.588   6.242   5.610
 3559SOL    HW111576   0.600   6.321   5.549
 3559SOL    HW211577   0.618   6.159   5.562
 3560SOL     OW11578   0.220   5.618   1.478
 3560SOL    HW111579   0.284   5.587   1.548
 3560SOL    HW211580   0.146   5.550   1.468
 3561SOL     OW11581   4.203   4.803   5.053
 3561SOL    HW111582   4.108   4.784   5.078
 3561SOL    HW211583   4.252   4.717   5.043
 3562SOL     OW11584   4.896   1.043   3.382
 3562SOL    HW111585   4.914   1.106   3.457
 3562SOL    HW211586   4.980   1.030   3.328
 3563SOL     OW11587   5.866   1.790   0.082
 3563SOL    HW111588   5.954   1.798   0.128
 3563SOL    HW211589   5.877   1.815   7.008
 3564SOL     OW11590   1.800   4.537   3.726
 3564SOL    HW111591   1.807   4.469   3.799
 3564SOL    HW211592   1.721   4.596   3.743
 3565SOL     OW11593   2.711   5.556   5.269
 3565SOL    HW111594   2.673   5.647   5.253
 3565SOL    HW211595   2.725   5.541   5.367
 3566SOL     OW11596   6.684   3.551   5.831
 3566SOL    HW111597   6.598   3.500   5.836
 3566SOL    HW211598   6.731   3.547   5.919
 3567SOL     OW11599   0.315   3.168   0.327
 3567SOL    HW111600   0.219   3.177   0.355
 3567SOL    HW211601   0.343   3.072   0.335
 3568SOL     OW11602   4.954   5.610   4.334
 3568SOL    HW111603   4.859   5.617   4.305
 3568SOL    HW211604   5.003   5.548   4.273
 3569SOL     OW11605   2.405   1.798   5.617
 3569SOL    HW111606   2.484   1.789   5.678
 3569SOL    HW211607   2.426   1.864   5.545
 3570SOL     OW11608   5.084   0.579   4.863
 3570SOL    HW111609   5.127   0.515   4.926
 3570SOL    HW211610   5.147   0.654   4.843
 3571SOL     OW11611   1.211   6.719   5.312
 3571SOL    HW111612   1.256   6.796   5.357
 3571SOL    HW211613   1.188   6.745   5.218
 3572SOL     OW11614   5.468   2.925   2.876
 3572SOL    HW111615   5.565   2.901   2.880
 3572SOL    HW211616   5.415   2.863   2.934
 3573SOL     OW11617   6.729   4.144   3.431
 3573SOL    HW111618   6.725   4.117   3.334
 3573SOL    HW211619   6.819   4.123   3.468
 3574SOL     OW11620   0.492   2.908   1.100
 3574SOL    HW111621   0.448   2.954   1.023
 3574SOL    HW211622   0.591   2.908   1.086
 3575SOL     OW11623   5.314   6.075   2.805
 3575SOL    HW111624   5.410   6.053   2.821
 3575SOL    HW211625   5.258   6.025   2.871
 3576SOL     OW11626   0.938   2.615   6.899
 3576SOL    HW111627   1.017   2.562   6.930
 3576SOL    HW211628   0.922   2.691   6.962
 3577SOL     OW11629   1.634   2.822   6.678
 3577SOL    HW111630   1.668   2.860   6.592
 3577SOL    HW211631   1.635   2.894   6.748
 3578SOL     OW11632   4.438   1.328   0.739
 3578SOL    HW111633   4.537   1.321   0.750
 3578SOL    HW211634   4.403   1.245   0.697
 3579SOL     OW11635   6.669   2.617   3.131
 3579SOL    HW111636   6.643   2.548   3.198
 3579SOL    HW211637   6.653   2.581   3.039
 3580SOL     OW11638   5.964   2.893   0.942
 3580SOL    HW111639   6.059   2.863   0.930
 3580SOL    HW211640   5.907   2.855   0.869
 3581SOL     OW11641   0.777   4.949   3.098
 3581SOL    HW111642   0.782   5.049   3.107
 3581SOL    HW211643   0.682   4.922   3.079
 3582SOL     OW11644   1.291   3.691   6.372
 3582SOL    HW111645   1.195   3.718   6.385
 3582SOL    HW211646   1.349   3.745   6.432
 3583SOL     OW11647   1.509   4.517   6.800
 3583SOL    HW111648   1.542   4.600   6.845
 3583SOL    HW211649   1.586   4.457   6.780
 3584SOL     OW11650   5.826   4.504   5.865
 3584SOL    HW111651   5.879   4.511   5.780
 3584SOL    HW211652   5.729   4.517   5.844
 3585SOL     OW11653   2.838   2.266   4.621
 3585SOL    HW111654   2.797   2.252   4.711
 3585SOL    HW211655   2.771   2.307   4.560
 3586SOL     OW11656   6.043   1.491   4.836
 3586SOL    HW111657   5.981   1.413   4.834
 3586SOL    HW211658   6.138   1.458   4.835
 3587SOL     OW11659   1.965   4.962   5.784
 3587SOL    HW111660   2.047   4.976   5.840
 3587SOL    HW211661   1.972   5.017   5.701
 3588SOL     OW11662   0.187   3.101   4.994
 3588SOL    HW111663   0.267   3.146   5.034
 3588SOL    HW211664   0.124   3.169   4.957
 3589SOL     OW11665   5.765   0.853   5.714
 3589SOL    HW111666   5.790   0.835   5.810
 3589SOL    HW211667   5.716   0.775   5.677
 3590SOL     OW11668   0.088   3.461   0.473
 3590SOL    HW111669   0.047   3.543   0.514
 3590SOL    HW211670   0.138   3.487   0.391
 3591SOL     OW11671   5.673   3.531   0.199
 3591SOL    HW111672   5.687   3.440   0.238
 3591SOL    HW211673   5.669   3.524   0.100
 3592SOL     OW11674   0.685   6.002   2.282
 3592SOL    HW111675   0.606   5.966   2.233
 3592SOL    HW211676   0.719   6.084   2.236
 3593SOL     OW11677   0.926   4.672   5.655
 3593SOL    HW111678   1.008   4.709   5.698
 3593SOL    HW211679   0.857   4.654   5.726
 3594SOL     OW11680   4.803   6.942   3.339
 3594SOL    HW111681   4.792   6.988   3.251
 3594SOL    HW211682   4.844   7.006   3.405
 3595SOL     OW11683   4.850   6.086   6.656
 3595SOL    HW111684   4.829   6.024   6.581
 3595SOL    HW211685   4.765   6.112   6.703
 3596SOL     OW11686   4.870   3.287   2.810
 3596SOL    HW111687   4.910   3.283   2.718
 3596SOL    HW211688   4.836   3.197   2.835
 3597SOL     OW11689   1.931   2.315   5.783
 3597SOL    HW111690   1.973   2.314   5.874
 3597SOL    HW211691   1.920   2.221   5.750
 3598SOL     OW11692   1.610   6.502   5.878
 3598SOL    HW111693   1.532   6.565   5.877
 3598SOL    HW211694   1.581   6.414   5.916
 3599SOL     OW11695   4.882   1.940   0.341
 3599SOL    HW111696   4.885   2.036   0.315
 3599SOL    HW211697   4.787   1.908   0.339
 3600SOL     OW11698   0.894   2.859   2.480
 3600SOL    HW111699   0.929   2.927   2.416
 3600SOL    HW211700   0.880   2.901   2.570
 3601SOL     OW11701   5.262   2.770   6.144
 3601SOL    HW111702   5.208   2.775   6.228
 3601SOL    HW211703   5.241   2.849   6.086
 3602SOL     OW11704   1.429   4.120   0.623
 3602SOL    HW111705   1.364   4.084   0.556
 3602SOL    HW211706   1.472   4.045   0.672
 3603SOL     OW11707   3.826   0.955   4.266
 3603SOL    HW111708   3.775   1.025   4.316
 3603SOL    HW211709   3.770   0.920   4.192
 3604SOL     OW11710   6.914   6.467   3.702
 3604SOL    HW111711   6.951   6.495   3.613
 3604SOL    HW211712   6.833   6.522   3.723
 3605SOL     OW11713   0.925   4.650   3.827
 3605SOL    HW111714   0.941   4.683   3.920
 3605SOL    HW211715   0.890   4.556   3.830
 3606SOL     OW11716   0.649   6.981   4.370
 3606SOL    HW111717   0.635   6.917   4.445
 3606SOL    HW211718   0.746   7.005   4.364
 3607SOL     OW11719   5.421   5.046   2.133
 3607SOL    HW111720   5.377   5.104   2.202
 3607SOL    HW211721   5.358   5.031   2.057
 3608SOL     OW11722   4.720   2.174   4.460
 3608SOL    HW111723   4.748   2.267   4.485
 3608SOL    HW211724   4.797   2.112   4.472
 3609SOL     OW11725   1.710   0.007   4.344
 3609SOL    HW111726   1.751   0.092   4.309
 3609SOL    HW211727   1.627   0.028   4.395
 3610SOL     OW11728   1.465   0.452   6.270
 3610SOL    HW111729   1.558   0.472   6.237
 3610SOL    HW211730   1.468   0.370   6.327
 3611SOL     OW11731   4.744   5.197   4.343
 3611SOL    HW111732   4.730   5.242   4.255
 3611SOL    HW211733   4.841   5.201   4.368
 3612SOL     OW11734   0.326   0.638   6.903
 3612SOL    HW111735   0.332   0.611   6.807
 3612SOL    HW211736   0.358   0.733   6.912
 3613SOL     OW11737   4.931   4.452   2.284
 3613SOL    HW111738   4.848   4.451   2.228
 3613SOL    HW211739   4.967   4.360   2.293
 3614SOL     OW11740   3.545   3.740   0.791
 3614SOL    HW111741   3.609   3.732   0.867
 3614SOL    HW211742   3.466   3.793   0.820
 3615SOL     OW11743   5.234   3.049   6.065
 3615SOL    HW111744   5.184   3.104   5.999
 3615SOL    HW211745   5.274   3.108   6.135
 3616SOL     OW11746   0.707   1.031   6.180
 3616SOL    HW111747   0.675   0.973   6.105
 3616SOL    HW211748   0.788   1.082   6.150
 3617SOL     OW11749   4.226   0.921   6.531
 3617SOL    HW111750   4.322   0.934   6.554
 3617SOL    HW211751   4.219   0.869   6.445
 3618SOL     OW11752   2.308   3.195   5.320
 3618SOL    HW111753   2.356   3.134   5.256
 3618SOL    HW211754   2.351   3.188   5.410
 3619SOL     OW11755   5.961   2.680   5.655
 3619SOL    HW111756   5.895   2.620   5.610
 3619SOL    HW211757   5.959   2.770   5.613
 3620SOL     OW11758   5.822   5.375   5.625
 3620SOL    HW111759   5.810   5.344   5.719
 3620SOL    HW211760   5.793   5.471   5.618
 3621SOL     OW11761   2.992   3.337   4.853
 3621SOL    HW111762   2.966   3.266   4.788
 3621SOL    HW211763   3.080   3.375   4.827
 3622SOL     OW11764   1.427   1.055   0.098
 3622SOL    HW111765   1.487   1.008   0.162
 3622SOL    HW211766   1.460   1.148   0.084
 3623SOL     OW11767   6.829   6.416   4.081
 3623SOL    HW111768   6.908   6.456   4.034
 3623SOL    HW211769   6.856   6.328   4.121
 3624SOL     OW11770   1.594   0.172   2.546
 3624SOL    HW111771   1.666   0.118   2.590
 3624SOL    HW211772   1.558   0.121   2.468
 3625SOL     OW11773   0.676   3.600   6.263
 3625SOL    HW111774   0.597   3.567   6.212
 3625SOL    HW211775   0.755   3.542   6.245
 3626SOL     OW11776   0.666   2.844   5.586
 3626SOL    HW111777   0.640   2.875   5.494
 3626SOL    HW211778   0.738   2.903   5.622
 3627SOL     OW11779   4.276   3.124   1.423
 3627SOL    HW111780   4.353   3.141   1.484
 3627SOL    HW211781   4.269   3.026   1.403
 3628SOL     OW11782   0.716   1.759   1.909
 3628SOL    HW111783   0.802   1.800   1.876
 3628SOL    HW211784   0.682   1.694   1.841
 3629SOL     OW11785   0.599   0.495   5.192
 3629SOL    HW111786   0.612   0.561   5.265
 3629SOL    HW211787   0.566   0.541   5.110
 3630SOL     OW11788   5.645   2.828   3.528
 3630SOL    HW111789   5.630   2.813   3.431
 3630SOL    HW211790   5.625   2.744   3.578
 3631SOL     OW11791   1.923   0.348   2.815
 3631SOL    HW111792   1.931   0.358   2.716
 3631SOL    HW211793   1.882   0.259   2.836
 3632SOL     OW11794   5.497   4.870   1.218
 3632SOL    HW111795   5.433   4.796   1.199
 3632SOL    HW211796   5.518   4.919   1.133
 3633SOL     OW11797   4.059   2.538   5.991
 3633SOL    HW111798   4.123   2.571   5.921
 3633SOL    HW211799   4.014   2.455   5.958
 3634SOL     OW11800   2.150   5.606   6.252
 3634SOL    HW111801   2.221   5.661   6.295
 3634SOL    HW211802   2.148   5.624   6.154
 3635SOL     OW11803   2.740   0.776   1.131
 3635SOL    HW111804   2.724   0.835   1.210
 3635SOL    HW211805   2.803   0.702   1.156
 3636SOL     OW11806   6.630   5.488   0.706
 3636SOL    HW111807   6.629   5.448   0.614
 3636SOL    HW211808   6.586   5.426   0.770
 3637SOL     OW11809   0.186   2.077   1.798
 3637SOL    HW111810   0.197   2.025   1.883
 3637SOL    HW211811   0.240   2.035   1.725
 3638SOL     OW11812   6.848   4.142   2.671
 3638SOL    HW111813   6.857   4.232   2.630
 3638SOL    HW211814   6.805   4.080   2.605
 3639SOL     OW11815   4.859   5.031   0.270
 3639SOL    HW111816   4.896   4.953   0.219
 3639SOL    HW211817   4.816   5.095   0.207
 3640SOL     OW11818   4.922   1.411   0.254
 3640SOL    HW111819   5.021   1.403   0.245
 3640SOL    HW211820   4.886   1.468   0.180
 3641SOL     OW11821   6.181   3.531   1.852
 3641SOL    HW111822   6.107   3.596   1.832
 3641SOL    HW211823   6.205   3.537   1.949
 3642SOL     OW11824   4.618   2.249   0.152
 3642SOL    HW111825   4.604   2.220   0.247
 3642SOL    HW211826   4.530   2.276   0.113
 3643SOL     OW11827   3.543   5.816   5.168
 3643SOL    HW111828   3.637   5.845   5.152
 3643SOL    HW211829   3.487   5.838   5.089
 3644SOL     OW11830   2.374   1.738   1.895
 3644SOL    HW111831   2.397   1.834   1.904
 3644SOL    HW211832   2.418   1.685   1.967
 3645SOL     OW11833   1.821   2.847   4.040
 3645SOL    HW111834   1.742   2.906   4.061
 3645SOL    HW211835   1.848   2.860   3.944
 3646SOL     OW11836   1.276   4.037   5.824
 3646SOL    HW111837   1.344   4.019   5.753
 3646SOL    HW211838   1.287   4.131   5.857
 3647SOL     OW11839   2.456   5.734   6.947
 3647SOL    HW111840   2.460   5.642   6.909
 3647SOL    HW211841   2.438   5.729   0.023
 3648SOL     OW11842   4.831   6.000   3.662
 3648SOL    HW111843   4.799   6.064   3.592
 3648SOL    HW211844   4.930   5.986   3.652
 3649SOL     OW11845   6.159   3.081   0.195
 3649SOL    HW111846   6.249   3.073   0.237
 3649SOL    HW211847   6.168   3.125   0.105
 3650SOL     OW11848   5.849   5.345   1.688
 3650SOL    HW111849   5.825   5.352   1.591
 3650SOL    HW211850   5.774   5.301   1.737
 3651SOL     OW11851   1.986   0.619   4.598
 3651SOL    HW111852   2.013   0.673   4.678
 3651SOL    HW211853   2.048   0.640   4.522
 3652SOL     OW11854   6.126   6.744   3.298
 3652SOL    HW111855   6.193   6.729   3.371
 3652SOL    HW211856   6.160   6.703   3.213
 3653SOL     OW11857   1.474   1.386   2.715
 3653SOL    HW111858   1.435   1.462   2.663
 3653SOL    HW211859   1.573   1.401   2.725
 3654SOL     OW11860   4.558   5.283   0.670
 3654SOL    HW111861   4.589   5.325   0.585
 3654SOL    HW211862   4.481   5.223   0.650
 3655SOL     OW11863   3.433   0.703   4.071
 3655SOL    HW111864   3.382   0.680   4.155
 3655SOL    HW211865   3.374   0.689   3.992
 3656SOL     OW11866   0.478   5.203   1.458
 3656SOL    HW111867   0.421   5.274   1.417
 3656SOL    HW211868   0.565   5.243   1.486
 3657SOL     OW11869   4.905   5.470   4.690
 3657SOL    HW111870   4.977   5.415   4.730
 3657SOL    HW211871   4.886   5.549   4.750
 3658SOL     OW11872   2.540   5.044   6.498
 3658SOL    HW111873   2.595   4.970   6.459
 3658SOL    HW211874   2.546   5.042   6.598
 3659SOL     OW11875   1.551   2.516   5.679
 3659SOL    HW111876   1.585   2.513   5.773
 3659SOL    HW211877   1.479   2.448   5.667
 3660SOL     OW11878   6.199   6.037   4.534
 3660SOL    HW111879   6.136   6.067   4.605
 3660SOL    HW211880   6.219   5.940   4.546
 3661SOL     OW11881   0.245   0.605   5.030
 3661SOL    HW111882   0.200   0.682   4.986
 3661SOL    HW211883   0.244   0.526   4.968
 3662SOL     OW11884   4.334   0.673   4.651
 3662SOL    HW111885   4.240   0.696   4.678
 3662SOL    HW211886   4.368   0.598   4.709
 3663SOL     OW11887   1.674   2.900   6.979
 3663SOL    HW111888   1.640   2.992   6.961
 3663SOL    HW211889   1.632   2.863   0.039
 3664SOL     OW11890   4.683   2.340   1.923
 3664SOL    HW111891   4.677   2.331   1.824
 3664SOL    HW211892   4.712   2.253   1.963
 3665SOL     OW11893   0.560   6.135   5.207
 3665SOL    HW111894   0.618   6.053   5.214
 3665SOL    HW211895   0.615   6.216   5.227
 3666SOL     OW11896   1.011   3.792   3.189
 3666SOL    HW111897   1.001   3.736   3.271
 3666SOL    HW211898   0.927   3.844   3.174
 3667SOL     OW11899   0.115   0.952   3.334
 3667SOL    HW111900   0.041   0.891   3.361
 3667SOL    HW211901   0.111   0.967   3.235
 3668SOL     OW11902   1.041   0.457   1.522
 3668SOL    HW111903   0.989   0.471   1.437
 3668SOL    HW211904   0.989   0.497   1.598
 3669SOL     OW11905   5.739   1.744   3.649
 3669SOL    HW111906   5.744   1.782   3.557
 3669SOL    HW211907   5.707   1.649   3.645
 3670SOL     OW11908   2.607   5.107   0.211
 3670SOL    HW111909   2.560   5.135   0.295
 3670SOL    HW211910   2.696   5.153   0.207
 3671SOL     OW11911   0.072   2.160   3.905
 3671SOL    HW111912   0.146   2.226   3.918
 3671SOL    HW211913   0.071   2.096   3.981
 3672SOL     OW11914   4.653   2.295   2.782
 3672SOL    HW111915   4.640   2.232   2.858
 3672SOL    HW211916   4.748   2.327   2.780
 3673SOL     OW11917   4.062   5.817   6.593
 3673SOL    HW111918   4.108   5.824   6.504
 3673SOL    HW211919   4.070   5.724   6.628
 3674SOL     OW11920   1.484   6.004   5.768
 3674SOL    HW111921   1.512   6.091   5.728
 3674SOL    HW211922   1.443   6.020   5.858
 3675SOL     OW11923   1.390   2.613   4.011
 3675SOL    HW111924   1.439   2.616   4.099
 3675SOL    HW211925   1.420   2.690   3.954
 3676SOL     OW11926   5.561   3.475   2.146
 3676SOL    HW111927   5.544   3.567   2.109
 3676SOL    HW211928   5.632   3.430   2.092
 3677SOL     OW11929   3.199   0.042   4.299
 3677SOL    HW111930   3.241   7.000   4.362
 3677SOL    HW211931   3.139   0.104   4.350
 3678SOL     OW11932   1.705   0.472   4.152
 3678SOL    HW111933   1.784   0.529   4.130
 3678SOL    HW211934   1.635   0.485   4.082
 3679SOL     OW11935   6.844   0.472   2.901
 3679SOL    HW111936   6.886   0.474   2.991
 3679SOL    HW211937   6.754   0.516   2.904
 3680SOL     OW11938   4.681   2.735   4.749
 3680SOL    HW111939   4.618   2.689   4.686
 3680SOL    HW211940   4.693   2.679   4.831
 3681SOL     OW11941   1.030   1.473   6.924
 3681SOL    HW111942   1.031   1.498   6.827
 3681SOL    HW211943   1.091   1.533   6.975
 3682SOL     OW11944   6.043   2.512   0.288
 3682SOL    HW111945   5.956   2.561   0.297
 3682SOL    HW211946   6.067   2.472   0.376
 3683SOL     OW11947   0.061   0.335   3.757
 3683SOL    HW111948   6.988   0.356   3.776
 3683SOL    HW211949   0.119   0.402   3.802
 3684SOL     OW11950   1.051   5.330   6.990
 3684SOL    HW111951   1.054   5.427   7.014
 3684SOL    HW211952   1.087   5.318   6.897
 3685SOL     OW11953   2.166   5.944   6.015
 3685SOL    HW111954   2.189   5.958   5.919
 3685SOL    HW211955   2.173   5.847   6.037
 3686SOL     OW11956   6.224   5.389   4.231
 3686SOL    HW111957   6.239   5.339   4.146
 3686SOL    HW211958   6.217   5.325   4.307
 3687SOL     OW11959   4.966   6.601   3.833
 3687SOL    HW111960   4.904   6.625   3.758
 3687SOL    HW211961   4.928   6.632   3.920
 3688SOL     OW11962   6.321   3.247   0.040
 3688SOL    HW111963   6.293   3.235   6.968
 3688SOL    HW211964   6.289   3.336   0.073
 3689SOL     OW11965   2.000   1.344   5.359
 3689SOL    HW111966   1.932   1.316   5.427
 3689SOL    HW211967   2.020   1.442   5.371
 3690SOL     OW11968   4.311   5.971   0.538
 3690SOL    HW111969   4.370   6.042   0.576
 3690SOL    HW211970   4.361   5.918   0.470
 3691SOL     OW11971   2.444   1.839   6.933
 3691SOL    HW111972   2.517   1.790   6.980
 3691SOL    HW211973   2.405   1.907   6.994
 3692SOL     OW11974   6.573   5.170   5.717
 3692SOL    HW111975   6.597   5.082   5.677
 3692SOL    HW211976   6.653   5.209   5.762
 3693SOL     OW11977   1.984   1.729   2.646
 3693SOL    HW111978   1.979   1.718   2.745
 3693SOL    HW211979   2.033   1.814   2.624
 3694SOL     OW11980   1.479   6.726   2.325
 3694SOL    HW111981   1.510   6.633   2.309
 3694SOL    HW211982   1.467   6.741   2.423
 3695SOL     OW11983   5.394   1.330   1.513
 3695SOL    HW111984   5.395   1.277   1.428
 3695SOL    HW211985   5.444   1.416   1.500
 3696SOL     OW11986   4.243   7.001   4.869
 3696SOL    HW111987   4.251   6.972   4.774
 3696SOL    HW211988   4.173   0.050   4.877
 3697SOL     OW11989   6.790   6.147   2.830
 3697SOL    HW111990   6.740   6.086   2.768
 3697SOL    HW211991   6.860   6.096   2.879
 3698SOL     OW11992   2.246   0.697   3.638
 3698SOL    HW111993   2.149   0.693   3.664
 3698SOL    HW211994   2.270   0.792   3.617
 3699SOL     OW11995   1.747   1.273   3.519
 3699SOL    HW111996   1.835   1.272   3.472
 3699SOL    HW211997   1.683   1.331   3.468
 3700SOL     OW11998   1.443   5.011   4.977
 3700SOL    HW111999   1.378   4.956   5.029
 3700SOL    HW212000   1.508   5.054   5.040
 3701SOL     OW12001   1.176   6.485   3.059
 3701SOL    HW112002   1.119   6.470   3.140
 3701SOL    HW212003   1.137   6.435   2.982
 3702SOL     OW12004   5.183   6.472   3.335
 3702SOL    HW112005   5.267   6.527   3.334
 3702SOL    HW212006   5.176   6.423   3.422
 3703SOL     OW12007   0.534   0.482   6.570
 3703SOL    HW112008   0.500   0.526   6.486
 3703SOL    HW212009   0.457   0.453   6.627
 3704SOL     OW12010   4.990   2.353   1.488
 3704SOL    HW112011   4.951   2.293   1.418
 3704SOL    HW212012   5.076   2.314   1.521
 3705SOL     OW12013   5.276   4.570   4.269
 3705SOL    HW112014   5.367   4.586   4.230
 3705SOL    HW212015   5.259   4.472   4.274
 3706SOL     OW12016   0.610   4.223   6.619
 3706SOL    HW112017   0.529   4.232   6.677
 3706SOL    HW212018   0.594   4.150   6.553
 3707SOL     OW12019   4.735   6.271   4.041
 3707SOL    HW112020   4.709   6.360   4.077
 3707SOL    HW212021   4.680   6.250   3.960
 3708SOL     OW12022   4.428   6.682   1.230
 3708SOL    HW112023   4.440   6.630   1.315
 3708SOL    HW212024   4.333   6.711   1.222
 3709SOL     OW12025   2.798   0.260   1.829
 3709SOL    HW112026   2.760   0.193   1.893
 3709SOL    HW212027   2.884   0.226   1.792
 3710SOL     OW12028   0.158   5.369   4.528
 3710SOL    HW112029   0.217   5.410   4.598
 3710SOL    HW212030   0.063   5.386   4.551
 3711SOL     OW12031   1.165   5.504   5.179
 3711SOL    HW112032   1.132   5.411   5.198
 3711SOL    HW212033   1.235   5.529   5.245
 3712SOL     OW12034   1.519   5.937   0.048
 3712SOL    HW112035   1.572   5.892   0.121
 3712SOL    HW212036   1.540   5.894   6.984
 3713SOL     OW12037   0.383   0.150   5.046
 3713SOL    HW112038   0.392   0.197   5.133
 3713SOL    HW212039   0.294   0.170   5.006
 3714SOL     OW12040   5.784   5.332   6.774
 3714SOL    HW112041   5.687   5.357   6.771
 3714SOL    HW212042   5.822   5.356   6.864
 3715SOL     OW12043   1.216   4.850   2.007
 3715SOL    HW112044   1.173   4.831   1.918
 3715SOL    HW212045   1.303   4.800   2.013
 3716SOL     OW12046   6.025   5.785   4.873
 3716SOL    HW112047   5.972   5.777   4.789
 3716SOL    HW212048   6.112   5.737   4.863
 3717SOL     OW12049   5.310   1.102   0.428
 3717SOL    HW112050   5.214   1.109   0.455
 3717SOL    HW212051   5.368   1.133   0.503
 3718SOL     OW12052   0.055   6.925   0.034
 3718SOL    HW112053   0.048   6.955   6.961
 3718SOL    HW212054   0.139   6.874   0.047
 3719SOL     OW12055   4.062   2.968   6.680
 3719SOL    HW112056   4.071   2.929   6.771
 3719SOL    HW212057   4.127   2.924   6.618
 3720SOL     OW12058   5.656   3.416   0.957
 3720SOL    HW112059   5.621   3.450   0.870
 3720SOL    HW212060   5.590   3.351   0.996
 3721SOL     OW12061   0.198   4.765   0.539
 3721SOL    HW112062   0.163   4.859   0.534
 3721SOL    HW212063   0.218   4.742   0.634
 3722SOL     OW12064   5.523   6.218   1.490
 3722SOL    HW112065   5.433   6.251   1.462
 3722SOL    HW212066   5.588   6.295   1.491
 3723SOL     OW12067   4.764   4.890   0.732
 3723SOL    HW112068   4.783   4.947   0.652
 3723SOL    HW212069   4.677   4.918   0.772
 3724SOL     OW12070   1.492   4.157   5.996
 3724SOL    HW112071   1.581   4.154   6.040
 3724SOL    HW212072   1.421   4.139   6.064
 3725SOL     OW12073   0.570   5.771   6.427
 3725SOL    HW112074   0.628   5.837   6.381
 3725SOL    HW212075   0.573   5.786   6.526
 3726SOL     OW12076   5.236   3.792   6.040
 3726SOL    HW112077   5.257   3.722   6.109
 3726SOL    HW212078   5.148   3.834   6.061
 3727SOL     OW12079   6.845   2.918   5.589
 3727SOL    HW112080   6.918   2.868   5.542
 3727SOL    HW212081   6.767   2.858   5.603
 3728SOL     OW12082   2.267   3.375   6.346
 3728SOL    HW112083   2.284   3.393   6.250
 3728SOL    HW212084   2.314   3.291   6.373
 3729SOL     OW12085   1.396   1.718   4.317
 3729SOL    HW112086   1.419   1.804   4.271
 3729SOL    HW212087   1.445   1.643   4.274
 3730SOL     OW12088   3.746   6.314   5.659
 3730SOL    HW112089   3.844   6.304   5.679
 3730SOL    HW212090   3.715   6.236   5.605
 3731SOL     OW12091   0.392   1.305   0.199
 3731SOL    HW112092   0.385   1.386   0.141
 3731SOL    HW212093   0.337   1.318   0.282
 3732SOL     OW12094   2.545   2.244   0.436
 3732SOL    HW112095   2.612   2.254   0.509
 3732SOL    HW212096   2.524   2.334   0.397
 3733SOL     OW12097   2.228   1.861   3.184
 3733SOL    HW112098   2.276   1.827   3.103
 3733SOL    HW212099   2.294   1.896   3.249
 3734SOL     OW12100   4.320   0.894   1.624
 3734SOL    HW112101   4.226   0.920   1.602
 3734SOL    HW212102   4.347   0.937   1.711
 3735SOL     OW12103   3.376   0.643   2.667
 3735SOL    HW112104   3.313   0.711   2.630
 3735SOL    HW212105   3.465   0.684   2.681
 3736SOL     OW12106   6.716   1.243   0.996
 3736SOL    HW112107   6.694   1.328   0.946
 3736SOL    HW212108   6.804   1.208   0.963
 3737SOL     OW12109   5.991   1.395   3.519
 3737SOL    HW112110   5.909   1.406   3.463
 3737SOL    HW212111   6.067   1.444   3.478
 3738SOL     OW12112   6.326   0.041   1.370
 3738SOL    HW112113   6.394   0.115   1.369
 3738SOL    HW212114   6.263   0.055   1.447
 3739SOL     OW12115   2.379   4.595   1.669
 3739SOL    HW112116   2.400   4.544   1.753
 3739SOL    HW212117   2.410   4.542   1.590
 3740SOL     OW12118   6.427   5.402   0.437
 3740SOL    HW112119   6.388   5.455   0.512
 3740SOL    HW212120   6.526   5.395   0.449
 3741SOL     OW12121   4.911   2.837   6.798
 3741SOL    HW112122   4.958   2.809   6.714
 3741SOL    HW212123   4.886   2.934   6.791
 3742SOL     OW12124   3.968   6.935   0.257
 3742SOL    HW112125   3.988   6.993   0.178
 3742SOL    HW212126   4.053   6.898   0.294
 3743SOL     OW12127   5.386   3.346   1.367
 3743SOL    HW112128   5.304   3.347   1.425
 3743SOL    HW212129   5.461   3.302   1.415
 3744SOL     OW12130   1.623   6.001   2.048
 3744SOL    HW112131   1.623   5.958   2.138
 3744SOL    HW212132   1.681   6.082   2.050
 3745SOL     OW12133   5.639   4.049   2.913
 3745SOL    HW112134   5.564   3.985   2.931
 3745SOL    HW212135   5.617   4.139   2.950
 3746SOL     OW12136   6.188   0.493   4.047
 3746SOL    HW112137   6.117   0.430   4.080
 3746SOL    HW212138   6.278   0.453   4.061
 3747SOL     OW12139   4.437   6.209   5.301
 3747SOL    HW112140   4.413   6.227   5.206
 3747SOL    HW212141   4.527   6.249   5.321
 3748SOL     OW12142   5.124   0.845   1.915
 3748SOL    HW112143   5.051   0.801   1.863
 3748SOL    HW212144   5.151   0.787   1.991
 3749SOL     OW12145   2.323   4.725   3.146
 3749SOL    HW112146   2.290   4.717   3.240
 3749SOL    HW212147   2.247   4.714   3.083
 3750SOL     OW12148   6.193   4.245   0.799
 3750SOL    HW112149   6.267   4.178   0.793
 3750SOL    HW212150   6.108   4.199   0.827
 3751SOL     OW12151   6.566   3.304   0.830
 3751SOL    HW112152   6.466   3.309   0.821
 3751SOL    HW212153   6.591   3.222   0.880
 3752SOL     OW12154   0.863   7.004   0.888
 3752SOL    HW112155   0.841   6.963   0.799
 3752SOL    HW212156   0.959   6.986   0.910
 3753SOL     OW12157   6.636   1.065   3.897
 3753SOL    HW112158   6.624   1.119   3.814
 3753SOL    HW212159   6.647   1.126   3.976
 3754SOL     OW12160   4.014   6.422   1.419
 3754SOL    HW112161   4.059   6.384   1.500
 3754SOL    HW212162   4.051   6.512   1.399
 3755SOL     OW12163   5.527   5.872   4.403
 3755SOL    HW112164   5.588   5.793   4.393
 3755SOL    HW212165   5.507   5.911   4.313
 3756SOL     OW12166   2.075   6.377   6.171
 3756SOL    HW112167   2.126   6.463   6.177
 3756SOL    HW212168   1.985   6.394   6.131
 3757SOL     OW12169   3.789   6.457   6.841
 3757SOL    HW112170   3.698   6.439   6.878
 3757SOL    HW212171   3.858   6.427   6.906
 3758SOL     OW12172   1.862   1.237   4.267
 3758SOL    HW112173   1.842   1.271   4.175
 3758SOL    HW212174   1.960   1.221   4.277
 3759SOL     OW12175   4.731   5.033   6.272
 3759SOL    HW112176   4.670   4.974   6.219
 3759SOL    HW212177   4.713   5.129   6.249
 3760SOL     OW12178   1.397   2.889   4.239
 3760SOL    HW112179   1.317   2.941   4.211
 3760SOL    HW212180   1.446   2.857   4.158
 3761SOL     OW12181   0.395   0.328   5.265
 3761SOL    HW112182   0.484   0.374   5.268
 3761SOL    HW212183   0.324   0.390   5.298
 3762SOL     OW12184   0.336   5.538   6.828
 3762SOL    HW112185   0.320   5.517   6.732
 3762SOL    HW212186   0.299   5.629   6.848
 3763SOL     OW12187   6.845   4.692   0.029
 3763SOL    HW112188   6.777   4.623   0.053
 3763SOL    HW212189   6.799   4.777   0.003
 3764SOL     OW12190   1.639   0.408   3.595
 3764SOL    HW112191   1.610   0.374   3.506
 3764SOL    HW212192   1.655   0.506   3.590
 3765SOL     OW12193   4.962   1.351   0.897
 3765SOL    HW112194   4.938   1.266   0.943
 3765SOL    HW212195   5.049   1.385   0.933
 3766SOL     OW12196   1.235   0.980   3.853
 3766SOL    HW112197   1.333   1.003   3.849
 3766SOL    HW212198   1.206   0.974   3.948
 3767SOL     OW12199   2.424   5.068   0.012
 3767SOL    HW112200   2.501   5.048   0.073
 3767SOL    HW212201   2.370   4.984   7.021
 3768SOL     OW12202   2.333   6.001   5.403
 3768SOL    HW112203   2.315   5.903   5.398
 3768SOL    HW212204   2.425   6.020   5.367
 3769SOL     OW12205   5.555   5.496   5.126
 3769SOL    HW112206   5.463   5.459   5.140
 3769SOL    HW212207   5.567   5.520   5.030
 3770SOL     OW12208   2.075   0.017   6.932
 3770SOL    HW112209   2.048   6.944   6.935
 3770SOL    HW212210   2.124   0.036   6.847
 3771SOL     OW12211   6.472   2.597   6.861
 3771SOL    HW112212   6.400   2.667   6.859
 3771SOL    HW212213   6.561   2.640   6.846
 3772SOL     OW12214   6.983   1.203   0.107
 3772SOL    HW112215   6.905   1.141   0.115
 3772SOL    HW212216   0.042   1.150   0.083
 3773SOL     OW12217   6.443   3.086   6.226
 3773SOL    HW112218   6.372   3.015   6.226
 3773SOL    HW212219   6.436   3.139   6.141
 3774SOL     OW12220   0.332   5.813   6.827
 3774SOL    HW112221   0.376   5.854   6.908
 3774SOL    HW212222   0.244   5.857   6.811
 3775SOL     OW12223   5.079   4.657   2.102
 3775SOL    HW112224   5.167   4.667   2.149
 3775SOL    HW212225   5.018   4.602   2.159
 3776SOL     OW12226   3.991   1.035   0.452
 3776SOL    HW112227   4.013   1.132   0.455
 3776SOL    HW212228   4.059   0.987   0.397
 3777SOL     OW12229   3.152   4.911   4.490
 3777SOL    HW112230   3.183   4.899   4.584
 3777SOL    HW212231   3.059   4.947   4.489
 3778SOL     OW12232   2.778   5.210   3.033
 3778SOL    HW112233   2.776   5.289   3.094
 3778SOL    HW212234   2.695   5.208   2.977
 3779SOL     OW12235   1.833   4.627   1.148
 3779SOL    HW112236   1.873   4.551   1.199
 3779SOL    HW212237   1.897   4.655   1.076
 3780SOL     OW12238   4.546   5.190   6.026
 3780SOL    HW112239   4.626   5.231   5.981
 3780SOL    HW212240   4.525   5.241   6.110
 3781SOL     OW12241   1.784   6.921   4.571
 3781SOL    HW112242   1.765   6.984   4.496
 3781SOL    HW212243   1.865   6.951   4.621
 3782SOL     OW12244   2.435   1.525   4.327
 3782SOL    HW112245   2.468   1.495   4.237
 3782SOL    HW212246   2.490   1.602   4.359
 3783SOL     OW12247   5.804   6.323   4.787
 3783SOL    HW112248   5.722   6.316   4.843
 3783SOL    HW212249   5.781   6.359   4.697
 3784SOL     OW12250   5.078   2.452   3.491
 3784SOL    HW112251   5.109   2.358   3.473
 3784SOL    HW212252   5.145   2.517   3.456
 3785SOL     OW12253   0.998   1.063   6.760
 3785SOL    HW112254   1.033   1.129   6.692
 3785SOL    HW212255   1.023   1.094   6.851
 3786SOL     OW12256   2.068   6.963   2.807
 3786SOL    HW112257   2.048   6.866   2.795
 3786SOL    HW212258   2.113   6.998   2.726
 3787SOL     OW12259   5.979   6.559   2.989
 3787SOL    HW112260   6.061   6.607   3.019
 3787SOL    HW212261   5.926   6.531   3.070
 3788SOL     OW12262   0.649   3.437   4.205
 3788SOL    HW112263   0.579   3.498   4.241
 3788SOL    HW212264   0.655   3.355   4.262
 3789SOL     OW12265   0.556   3.403   4.466
 3789SOL    HW112266   0.617   3.462   4.414
 3789SOL    HW212267   0.531   3.448   4.552
 3790SOL     OW12268   2.113   3.974   5.572
 3790SOL    HW112269   2.157   3.938   5.489
 3790SOL    HW212270   2.098   3.899   5.637
 3791SOL     OW12271   6.454   0.154   0.341
 3791SOL    HW112272   6.406   0.071   0.313
 3791SOL    HW212273   6.397   0.234   0.321
 3792SOL     OW12274   6.767   0.847   3.989
 3792SOL    HW112275   6.849   0.890   4.028
 3792SOL    HW212276   6.704   0.918   3.958
 3793SOL     OW12277   3.719   0.494   2.499
 3793SOL    HW112278   3.641   0.446   2.540
 3793SOL    HW212279   3.687   0.574   2.449
 3794SOL     OW12280   2.370   4.007   0.996
 3794SOL    HW112281   2.394   4.033   0.902
 3794SOL    HW212282   2.353   4.089   1.050
 3795SOL     OW12283   3.487   6.565   6.844
 3795SOL    HW112284   3.395   6.557   6.804
 3795SOL    HW212285   3.500   6.494   6.913
 3796SOL     OW12286   2.711   1.836   1.064
 3796SOL    HW112287   2.656   1.781   1.126
 3796SOL    HW212288   2.792   1.784   1.036
 3797SOL     OW12289   6.629   4.184   2.869
 3797SOL    HW112290   6.703   4.170   2.803
 3797SOL    HW212291   6.574   4.100   2.876
 3798SOL     OW12292   3.838   5.998   2.801
 3798SOL    HW112293   3.788   5.961   2.722
 3798SOL    HW212294   3.830   6.098   2.801
 3799SOL     OW12295   0.060   2.733   3.859
 3799SOL    HW112296   7.000   2.739   3.915
 3799SOL    HW212297   0.034   2.740   3.762
 3800SOL     OW12298   5.306   3.250   4.512
 3800SOL    HW112299   5.356   3.336   4.499
 3800SOL    HW212300   5.317   3.220   4.607
 3801SOL     OW12301   6.617   6.188   3.148
 3801SOL    HW112302   6.662   6.248   3.215
 3801SOL    HW212303   6.586   6.105   3.194
 3802SOL     OW12304   0.698   2.633   3.547
 3802SOL    HW112305   0.610   2.607   3.508
 3802SOL    HW212306   0.687   2.652   3.644
 3803SOL     OW12307   3.876   2.176   0.988
 3803SOL    HW112308   3.825   2.148   0.907
 3803SOL    HW212309   3.859   2.113   1.063
 3804SOL     OW12310   4.994   1.947   3.605
 3804SOL    HW112311   4.981   1.996   3.691
 3804SOL    HW212312   4.919   1.969   3.542
 3805SOL     OW12313   2.778   3.535   1.569
 3805SOL    HW112314   2.783   3.613   1.631
 3805SOL    HW212315   2.868   3.517   1.530
 3806SOL     OW12316   3.113   4.060   6.722
 3806SOL    HW112317   3.090   4.031   6.629
 3806SOL    HW212318   3.190   4.123   6.720
 3807SOL     OW12319   2.493   6.726   3.996
 3807SOL    HW112320   2.400   6.738   4.031
 3807SOL    HW212321   2.534   6.645   4.037
 3808SOL     OW12322   4.012   0.293   1.130
 3808SOL    HW112323   3.959   0.279   1.046
 3808SOL    HW212324   4.086   0.358   1.112
 3809SOL     OW12325   6.047   2.786   0.467
 3809SOL    HW112326   5.998   2.713   0.514
 3809SOL    HW212327   6.016   2.875   0.500
 3810SOL     OW12328   4.542   2.284   5.213
 3810SOL    HW112329   4.628   2.301   5.166
 3810SOL    HW212330   4.548   2.199   5.265
 3811SOL     OW12331   1.105   4.158   3.940
 3811SOL    HW112332   1.138   4.228   4.004
 3811SOL    HW212333   1.133   4.068   3.973
 3812SOL     OW12334   5.295   0.769   5.294
 3812SOL    HW112335   5.207   0.777   5.247
 3812SOL    HW212336   5.366   0.812   5.238
 3813SOL     OW12337   4.206   4.382   0.321
 3813SOL    HW112338   4.117   4.343   0.299
 3813SOL    HW212339   4.277   4.334   0.269
 3814SOL     OW12340   0.428   6.635   1.364
 3814SOL    HW112341   0.452   6.726   1.396
 3814SOL    HW212342   0.503   6.572   1.384
 3815SOL     OW12343   4.763   2.933   0.418
 3815SOL    HW112344   4.692   2.863   0.423
 3815SOL    HW212345   4.761   2.977   0.328
 3816SOL     OW12346   0.333   5.923   0.227
 3816SOL    HW112347   0.330   5.829   0.193
 3816SOL    HW212348   0.380   5.926   0.315
 3817SOL     OW12349   5.460   3.879   3.478
 3817SOL    HW112350   5.433   3.803   3.419
 3817SOL    HW212351   5.560   3.886   3.480
 3818SOL     OW12352   4.958   0.446   0.405
 3818SOL    HW112353   5.041   0.484   0.447
 3818SOL    HW212354   4.889   0.518   0.399
 3819SOL     OW12355   5.387   5.466   1.019
 3819SOL    HW112356   5.380   5.441   1.116
 3819SOL    HW212357   5.420   5.387   0.967
 3820SOL     OW12358   6.893   6.970   3.558
 3820SOL    HW112359   6.873   6.928   3.469
 3820SOL    HW212360   6.980   7.019   3.553
 3821SOL     OW12361   1.794   2.256   0.956
 3821SOL    HW112362   1.855   2.263   0.877
 3821SOL    HW212363   1.802   2.340   1.011
 3822SOL     OW12364   1.604   5.949   2.723
 3822SOL    HW112365   1.506   5.937   2.736
 3822SOL    HW212366   1.646   5.862   2.700
 3823SOL     OW12367   4.000   2.267   5.919
 3823SOL    HW112368   3.962   2.196   5.860
 3823SOL    HW212369   4.002   2.235   6.013
 3824SOL     OW12370   5.599   1.706   6.350
 3824SOL    HW112371   5.672   1.705   6.282
 3824SOL    HW212372   5.596   1.796   6.394
 3825SOL     OW12373   0.508   6.846   0.895
 3825SOL    HW112374   0.595   6.807   0.925
 3825SOL    HW212375   0.484   6.809   0.805
 3826SOL     OW12376   0.457   3.673   0.252
 3826SOL    HW112377   0.476   3.641   0.345
 3826SOL    HW212378   0.540   3.708   0.210
 3827SOL     OW12379   3.022   3.005   1.192
 3827SOL    HW112380   3.027   3.057   1.107
 3827SOL    HW212381   3.090   2.932   1.190
 3828SOL     OW12382   4.715   2.470   1.441
 3828SOL    HW112383   4.789   2.526   1.477
 3828SOL    HW212384   4.705   2.387   1.496
 3829SOL     OW12385   2.065   4.734   4.432
 3829SOL    HW112386   2.140   4.670   4.414
 3829SOL    HW212387   2.035   4.723   4.527
 3830SOL     OW12388   0.991   0.212   4.908
 3830SOL    HW112389   0.956   0.293   4.861
 3830SOL    HW212390   1.041   0.239   4.990
 3831SOL     OW12391   4.445   1.641   2.207
 3831SOL    HW112392   4.416   1.734   2.184
 3831SOL    HW212393   4.492   1.600   2.130
 3832SOL     OW12394   5.886   1.201   2.005
 3832SOL    HW112395   5.929   1.214   1.916
 3832SOL    HW212396   5.854   1.107   2.014
 3833SOL     OW12397   1.466   5.923   6.372
 3833SOL    HW112398   1.396   5.993   6.389
 3833SOL    HW212399   1.552   5.967   6.347
 3834SOL     OW12400   3.707   2.526   0.906
 3834SOL    HW112401   3.658   2.440   0.916
 3834SOL    HW212402   3.708   2.575   0.994
 3835SOL     OW12403   2.891   5.454   5.053
 3835SOL    HW112404   2.845   5.526   5.105
 3835SOL    HW212405   2.977   5.489   5.015
 3836SOL     OW12406   1.767   3.843   5.372
 3836SOL    HW112407   1.845   3.831   5.312
 3836SOL    HW212408   1.761   3.939   5.401
 3837SOL     OW12409   5.288   3.709   6.854
 3837SOL    HW112410   5.211   3.677   6.909
 3837SOL    HW212411   5.364   3.734   6.913
 3838SOL     OW12412   6.306   4.174   4.020
 3838SOL    HW112413   6.221   4.157   3.969
 3838SOL    HW212414   6.334   4.089   4.066
 3839SOL     OW12415   4.126   0.826   4.434
 3839SOL    HW112416   4.122   0.752   4.502
 3839SOL    HW212417   4.033   0.851   4.406
 3840SOL     OW12418   1.524   1.410   5.157
 3840SOL    HW112419   1.576   1.411   5.071
 3840SOL    HW212420   1.426   1.401   5.137
 3841SOL     OW12421   6.820   3.399   4.836
 3841SOL    HW112422   6.722   3.417   4.831
 3841SOL    HW212423   6.869   3.486   4.839
 3842SOL     OW12424   1.212   4.560   6.948
 3842SOL    HW112425   1.139   4.491   6.949
 3842SOL    HW212426   1.294   4.521   6.906
 3843SOL     OW12427   6.812   4.600   1.918
 3843SOL    HW112428   6.882   4.629   1.852
 3843SOL    HW212429   6.825   4.650   2.004
 3844SOL     OW12430   0.005   4.332   5.870
 3844SOL    HW112431   0.012   4.233   5.876
 3844SOL    HW212432   0.092   4.374   5.896
 3845SOL     OW12433   3.677   3.147   3.065
 3845SOL    HW112434   3.665   3.067   3.124
 3845SOL    HW212435   3.772   3.179   3.072
 3846SOL     OW12436   0.694   5.021   4.009
 3846SOL    HW112437   0.652   5.072   4.085
 3846SOL    HW212438   0.681   4.923   4.025
 3847SOL     OW12439   6.140   1.234   5.210
 3847SOL    HW112440   6.078   1.253   5.286
 3847SOL    HW212441   6.099   1.165   5.151
 3848SOL     OW12442   3.033   5.883   3.170
 3848SOL    HW112443   3.005   5.786   3.175
 3848SOL    HW212444   2.951   5.940   3.168
 3849SOL     OW12445   0.566   1.441   5.598
 3849SOL    HW112446   0.659   1.467   5.573
 3849SOL    HW212447   0.559   1.342   5.604
 3850SOL     OW12448   2.654   3.540   1.330
 3850SOL    HW112449   2.680   3.573   1.421
 3850SOL    HW212450   2.556   3.553   1.316
 3851SOL     OW12451   1.206   4.609   3.319
 3851SOL    HW112452   1.304   4.606   3.296
 3851SOL    HW212453   1.155   4.557   3.250
 3852SOL     OW12454   4.611   6.602   4.549
 3852SOL    HW112455   4.675   6.634   4.480
 3852SOL    HW212456   4.661   6.559   4.624
 3853SOL     OW12457   1.656   3.223   2.461
 3853SOL    HW112458   1.720   3.210   2.537
 3853SOL    HW212459   1.638   3.135   2.417
 3854SOL     OW12460   0.981   4.254   2.754
 3854SOL    HW112461   1.005   4.272   2.850
 3854SOL    HW212462   1.055   4.287   2.695
 3855SOL     OW12463   4.932   5.705   6.828
 3855SOL    HW112464   4.972   5.727   6.738
 3855SOL    HW212465   4.906   5.790   6.874
 3856SOL     OW12466   6.685   6.313   4.903
 3856SOL    HW112467   6.598   6.293   4.946
 3856SOL    HW212468   6.743   6.231   4.904
 3857SOL     OW12469   0.914   6.215   5.611
 3857SOL    HW112470   0.853   6.147   5.571
 3857SOL    HW212471   1.009   6.184   5.601
 3858SOL     OW12472   1.541   6.263   6.183
 3858SOL    HW112473   1.641   6.276   6.181
 3858SOL    HW212474   1.509   6.267   6.277
 3859SOL     OW12475   0.139   1.805   3.405
 3859SOL    HW112476   0.093   1.883   3.363
 3859SOL    HW212477   0.209   1.838   3.468
 3860SOL     OW12478   1.102   6.783   4.746
 3860SOL    HW112479   1.064   6.863   4.701
 3860SOL    HW212480   1.045   6.703   4.727
 3861SOL     OW12481   5.152   4.234   1.822
 3861SOL    HW112482   5.166   4.306   1.890
 3861SOL    HW212483   5.184   4.147   1.859
 3862SOL     OW12484   6.559   6.921   5.294
 3862SOL    HW112485   6.641   6.866   5.276
 3862SOL    HW212486   6.496   6.912   5.217
 3863SOL     OW12487   3.825   4.281   6.502
 3863SOL    HW112488   3.807   4.371   6.461
 3863SOL    HW212489   3.899   4.236   6.452
 3864SOL     OW12490   4.314   1.891   5.610
 3864SOL    HW112491   4.236   1.912   5.669
 3864SOL    HW212492   4.300   1.803   5.566
 3865SOL     OW12493   3.915   0.472   1.538
 3865SOL    HW112494   3.982   0.516   1.597
 3865SOL    HW212495   3.935   0.375   1.531
 3866SOL     OW12496   3.853   0.549   0.161
 3866SOL    HW112497   3.891   0.608   0.233
 3866SOL    HW212498   3.811   0.606   0.090
 3867SOL     OW12499   1.994   3.480   3.993
 3867SOL    HW112500   1.969   3.573   3.968
 3867SOL    HW212501   2.024   3.478   4.088
 3868SOL     OW12502   2.246   6.319   2.248
 3868SOL    HW112503   2.204   6.241   2.201
 3868SOL    HW212504   2.175   6.369   2.299
 3869SOL     OW12505   7.020   2.955   4.268
 3869SOL    HW112506   7.020   2.899   4.350
 3869SOL    HW212507   0.053   2.910   4.198
 3870SOL     OW12508   4.490   5.064   0.326
 3870SOL    HW112509   4.579   5.029   0.300
 3870SOL    HW212510   4.420   4.995   0.309
 3871SOL     OW12511   2.996   0.998   2.475
 3871SOL    HW112512   2.898   1.013   2.465
 3871SOL    HW212513   3.030   1.054   2.552
 3872SOL     OW12514   3.458   2.763   1.538
 3872SOL    HW112515   3.440   2.693   1.607
 3872SOL    HW212516   3.552   2.754   1.506
 3873SOL     OW12517   5.686   5.540   1.382
 3873SOL    HW112518   5.780   5.575   1.380
 3873SOL    HW212519   5.629   5.600   1.438
 3874SOL     OW12520   4.429   6.463   0.428
 3874SOL    HW112521   4.380   6.408   0.360
 3874SOL    HW212522   4.506   6.410   0.463
 3875SOL     OW12523   1.112   3.615   2.657
 3875SOL    HW112524   1.073   3.707   2.669
 3875SOL    HW212525   1.150   3.584   2.744
 3876SOL     OW12526   5.122   5.137   6.469
 3876SOL    HW112527   5.161   5.129   6.560
 3876SOL    HW212528   5.053   5.210   6.468
 3877SOL     OW12529   6.711   1.255   0.662
 3877SOL    HW112530   6.807   1.282   0.652
 3877SOL    HW212531   6.665   1.318   0.725
 3878SOL     OW12532   2.403   5.765   6.048
 3878SOL    HW112533   2.435   5.672   6.067
 3878SOL    HW212534   2.471   5.831   6.081
 3879SOL     OW12535   5.136   6.094   1.356
 3879SOL    HW112536   5.177   6.185   1.346
 3879SOL    HW212537   5.176   6.032   1.289
 3880SOL     OW12538   6.281   4.284   2.910
 3880SOL    HW112539   6.279   4.225   2.991
 3880SOL    HW212540   6.352   4.251   2.847
 3881SOL     OW12541   1.314   5.386   0.867
 3881SOL    HW112542   1.291   5.444   0.790
 3881SOL    HW212543   1.248   5.312   0.875
 3882SOL     OW12544   6.581   1.108   5.458
 3882SOL    HW112545   6.536   1.172   5.521
 3882SOL    HW212546   6.550   1.125   5.365
 3883SOL     OW12547   5.076   1.684   3.597
 3883SOL    HW112548   5.045   1.778   3.612
 3883SOL    HW212549   5.034   1.648   3.513
 3884SOL     OW12550   1.485   6.211   4.548
 3884SOL    HW112551   1.446   6.129   4.506
 3884SOL    HW212552   1.434   6.291   4.517
 3885SOL     OW12553   6.531   0.791   4.504
 3885SOL    HW112554   6.565   0.884   4.516
 3885SOL    HW212555   6.574   0.749   4.424
 3886SOL     OW12556   5.891   0.156   5.702
 3886SOL    HW112557   5.884   0.080   5.637
 3886SOL    HW212558   5.927   0.122   5.789
 3887SOL     OW12559   5.145   2.198   5.562
 3887SOL    HW112560   5.094   2.245   5.633
 3887SOL    HW212561   5.141   2.252   5.477
 3888SOL     OW12562   0.070   0.840   6.337
 3888SOL    HW112563   0.165   0.838   6.367
 3888SOL    HW212564   0.025   0.920   6.377
 3889SOL     OW12565   0.674   5.221   6.296
 3889SOL    HW112566   0.638   5.284   6.365
 3889SOL    HW212567   0.669   5.127   6.332
 3890SOL     OW12568   6.443   6.542   2.932
 3890SOL    HW112569   6.496   6.459   2.946
 3890SOL    HW212570   6.421   6.551   2.835
 3891SOL     OW12571   5.827   4.728   4.548
 3891SOL    HW112572   5.923   4.720   4.521
 3891SOL    HW212573   5.782   4.798   4.492
 3892SOL     OW12574   1.415   0.496   2.259
 3892SOL    HW112575   1.480   0.534   2.194
 3892SOL    HW212576   1.444   0.519   2.352
 3893SOL     OW12577   3.471   5.886   3.356
 3893SOL    HW112578   3.434   5.807   3.405
 3893SOL    HW212579   3.401   5.923   3.296
 3894SOL     OW12580   3.989   2.458   0.473
 3894SOL    HW112581   4.001   2.449   0.374
 3894SOL    HW212582   3.993   2.554   0.499
 3895SOL     OW12583   1.259   1.173   5.386
 3895SOL    HW112584   1.213   1.201   5.470
 3895SOL    HW212585   1.235   1.237   5.313
 3896SOL     OW12586   0.749   2.108   6.328
 3896SOL    HW112587   0.795   2.186   6.286
 3896SOL    HW212588   0.653   2.129   6.342
 3897SOL     OW12589   3.117   6.487   2.235
 3897SOL    HW112590   3.039   6.546   2.256
 3897SOL    HW212591   3.106   6.448   2.143
 3898SOL     OW12592   3.110   3.031   3.932
 3898SOL    HW112593   3.055   2.981   4.000
 3898SOL    HW212594   3.207   3.018   3.952
 3899SOL     OW12595   5.177   1.153   5.026
 3899SOL    HW112596   5.094   1.203   5.001
 3899SOL    HW212597   5.219   1.196   5.106
 3900SOL     OW12598   6.042   2.852   3.324
 3900SOL    HW112599   6.112   2.781   3.325
 3900SOL    HW212600   6.075   2.931   3.273
 3901SOL     OW12601   1.752   6.607   5.665
 3901SOL    HW112602   1.707   6.544   5.728
 3901SOL    HW212603   1.851   6.593   5.669
 3902SOL     OW12604   5.214   4.590   3.015
 3902SOL    HW112605   5.250   4.507   3.056
 3902SOL    HW212606   5.114   4.583   3.008
 3903SOL     OW12607   4.567   3.394   0.344
 3903SOL    HW112608   4.507   3.319   0.373
 3903SOL    HW212609   4.660   3.375   0.375
 3904SOL     OW12610   0.879   6.854   0.368
 3904SOL    HW112611   0.847   6.768   0.328
 3904SOL    HW212612   0.868   6.928   0.301
 3905SOL     OW12613   6.341   6.350   6.314
 3905SOL    HW112614   6.407   6.280   6.340
 3905SOL    HW212615   6.257   6.337   6.366
 3906SOL     OW12616   1.539   4.771   3.991
 3906SOL    HW112617   1.551   4.739   3.897
 3906SOL    HW212618   1.491   4.701   4.044
 3907SOL     OW12619   6.804   0.985   4.894
 3907SOL    HW112620   6.794   0.924   4.973
 3907SOL    HW212621   6.891   1.033   4.900
 3908SOL     OW12622   1.194   0.847   5.544
 3908SOL    HW112623   1.279   0.855   5.492
 3908SOL    HW212624   1.186   0.924   5.607
 3909SOL     OW12625   4.910   3.582   6.227
 3909SOL    HW112626   4.882   3.487   6.218
 3909SOL    HW212627   5.010   3.587   6.234
 3910SOL     OW12628   3.792   3.955   2.124
 3910SOL    HW112629   3.726   3.967   2.197
 3910SOL    HW212630   3.884   3.949   2.163
 3911SOL     OW12631   5.385   0.502   0.941
 3911SOL    HW112632   5.475   0.503   0.984
 3911SOL    HW212633   5.338   0.416   0.962
 3912SOL     OW12634   3.025   1.810   5.882
 3912SOL    HW112635   3.047   1.819   5.980
 3912SOL    HW212636   3.005   1.714   5.862
 3913SOL     OW12637   3.838   6.525   0.659
 3913SOL    HW112638   3.892   6.530   0.743
 3913SOL    HW212639   3.751   6.479   0.678
 3914SOL     OW12640   5.738   1.614   0.915
 3914SOL    HW112641   5.686   1.592   0.832
 3914SOL    HW212642   5.683   1.591   0.996
 3915SOL     OW12643   3.122   6.035   0.408
 3915SOL    HW112644   3.196   6.099   0.386
 3915SOL    HW212645   3.149   5.977   0.485
 3916SOL     OW12646   3.279   0.646   2.928
 3916SOL    HW112647   3.315   0.659   2.835
 3916SOL    HW212648   3.353   0.623   2.990
 3917SOL     OW12649   2.375   5.181   0.722
 3917SOL    HW112650   2.401   5.277   0.711
 3917SOL    HW212651   2.282   5.167   0.688
 3918SOL     OW12652   5.183   1.117   0.193
 3918SOL    HW112653   5.106   1.055   0.182
 3918SOL    HW212654   5.230   1.097   0.279
 3919SOL     OW12655   4.706   1.299   0.798
 3919SOL    HW112656   4.664   1.233   0.859
 3919SOL    HW212657   4.795   1.326   0.835
 3920SOL     OW12658   3.155   1.496   0.165
 3920SOL    HW112659   3.171   1.398   0.161
 3920SOL    HW212660   3.183   1.538   0.078
 3921SOL     OW12661   6.819   2.690   6.654
 3921SOL    HW112662   6.856   2.695   6.561
 3921SOL    HW212663   6.793   2.782   6.685
 3922SOL     OW12664   4.807   4.821   1.953
 3922SOL    HW112665   4.772   4.905   1.911
 3922SOL    HW212666   4.757   4.743   1.917
 3923SOL     OW12667   6.031   1.107   1.339
 3923SOL    HW112668   6.033   1.205   1.356
 3923SOL    HW212669   6.059   1.058   1.422
 3924SOL     OW12670   0.192   4.502   4.063
 3924SOL    HW112671   0.215   4.405   4.073
 3924SOL    HW212672   0.266   4.549   4.015
 3925SOL     OW12673   4.785   3.809   0.573
 3925SOL    HW112674   4.850   3.821   0.498
 3925SOL    HW212675   4.835   3.800   0.659
 3926SOL     OW12676   1.538   0.816   5.817
 3926SOL    HW112677   1.585   0.830   5.904
 3926SOL    HW212678   1.452   0.866   5.818
 3927SOL     OW12679   0.307   2.592   4.521
 3927SOL    HW112680   0.359   2.606   4.606
 3927SOL    HW212681   0.359   2.535   4.458
 3928SOL     OW12682   2.346   0.210   3.374
 3928SOL    HW112683   2.272   0.151   3.405
 3928SOL    HW212684   2.427   0.195   3.431
 3929SOL     OW12685   6.699   1.982   5.889
 3929SOL    HW112686   6.608   2.006   5.922
 3929SOL    HW212687   6.716   2.028   5.802
 3930SOL     OW12688   1.426   2.414   3.675
 3930SOL    HW112689   1.348   2.353   3.677
 3930SOL    HW212690   1.423   2.476   3.753
 3931SOL     OW12691   1.537   1.922   1.869
 3931SOL    HW112692   1.588   1.974   1.937
 3931SOL    HW212693   1.507   1.835   1.908
 3932SOL     OW12694   1.874   5.540   3.794
 3932SOL    HW112695   1.863   5.440   3.790
 3932SOL    HW212696   1.857   5.572   3.887
 3933SOL     OW12697   1.666   5.373   0.415
 3933SOL    HW112698   1.694   5.363   0.320
 3933SOL    HW212699   1.705   5.458   0.452
 3934SOL     OW12700   0.774   1.336   2.516
 3934SOL    HW112701   0.740   1.430   2.521
 3934SOL    HW212702   0.703   1.273   2.545
 3935SOL     OW12703   6.046   3.270   6.378
 3935SOL    HW112704   5.961   3.219   6.393
 3935SOL    HW212705   6.032   3.366   6.399
 3936SOL     OW12706   6.412   5.511   5.050
 3936SOL    HW112707   6.313   5.524   5.039
 3936SOL    HW212708   6.429   5.439   5.118
 3937SOL     OW12709   0.247   5.276   2.777
 3937SOL    HW112710   0.268   5.350   2.842
 3937SOL    HW212711   0.161   5.232   2.804
 3938SOL     OW12712   6.777   3.884   4.376
 3938SOL    HW112713   6.734   3.807   4.423
 3938SOL    HW212714   6.876   3.881   4.390
 3939SOL     OW12715   0.846   1.347   2.092
 3939SOL    HW112716   0.916   1.371   2.160
 3939SOL    HW212717   0.888   1.342   2.002
 3940SOL     OW12718   2.889   4.781   1.816
 3940SOL    HW112719   2.825   4.816   1.748
 3940SOL    HW212720   2.852   4.698   1.857
 3941SOL     OW12721   6.167   0.041   4.188
 3941SOL    HW112722   6.225   0.093   4.251
 3941SOL    HW212723   6.111   0.105   4.134
 3942SOL     OW12724   1.224   6.511   6.328
 3942SOL    HW112725   1.294   6.549   6.269
 3942SOL    HW212726   1.159   6.582   6.354
 3943SOL     OW12727   0.900   3.941   1.662
 3943SOL    HW112728   0.917   3.888   1.578
 3943SOL    HW212729   0.946   4.029   1.655
 3944SOL     OW12730   6.319   3.099   6.531
 3944SOL    HW112731   6.370   3.128   6.450
 3944SOL    HW212732   6.226   3.072   6.505
 3945SOL     OW12733   0.904   1.930   3.593
 3945SOL    HW112734   0.904   1.865   3.518
 3945SOL    HW212735   0.829   1.910   3.656
 3946SOL     OW12736   6.865   3.697   0.716
 3946SOL    HW112737   6.843   3.599   0.718
 3946SOL    HW212738   6.781   3.750   0.723
 3947SOL     OW12739   5.905   6.159   0.530
 3947SOL    HW112740   5.814   6.168   0.571
 3947SOL    HW212741   5.901   6.094   0.455
 3948SOL     OW12742   2.129   2.732   6.222
 3948SOL    HW112743   2.084   2.763   6.306
 3948SOL    HW212744   2.063   2.732   6.147
 3949SOL     OW12745   6.326   6.559   2.684
 3949SOL    HW112746   6.396   6.529   2.619
 3949SOL    HW212747   6.253   6.607   2.634
 3950SOL     OW12748   4.209   4.385   1.596
 3950SOL    HW112749   4.273   4.420   1.665
 3950SOL    HW212750   4.254   4.316   1.540
 3951SOL     OW12751   0.187   2.224   5.427
 3951SOL    HW112752   0.202   2.151   5.360
 3951SOL    HW212753   0.099   2.268   5.409
 3952SOL     OW12754   5.647   2.451   5.057
 3952SOL    HW112755   5.620   2.412   5.144
 3952SOL    HW212756   5.573   2.440   4.990
 3953SOL     OW12757   3.015   3.846   5.926
 3953SOL    HW112758   2.996   3.937   5.890
 3953SOL    HW212759   2.978   3.838   6.018
 3954SOL     OW12760   6.947   3.894   5.266
 3954SOL    HW112761   7.008   3.833   5.216
 3954SOL    HW212762   6.903   3.843   5.340
 3955SOL     OW12763   5.278   6.193   0.126
 3955SOL    HW112764   5.295   6.240   0.213
 3955SOL    HW212765   5.301   6.253   0.050
 3956SOL     OW12766   0.808   2.628   5.719
 3956SOL    HW112767   0.765   2.624   5.809
 3956SOL    HW212768   0.756   2.688   5.659
 3957SOL     OW12769   2.860   6.833   3.940
 3957SOL    HW112770   2.943   6.877   3.973
 3957SOL    HW212771   2.884   6.752   3.887
 3958SOL     OW12772   6.596   5.825   0.346
 3958SOL    HW112773   6.616   5.905   0.289
 3958SOL    HW212774   6.622   5.844   0.440
 3959SOL     OW12775   2.606   5.715   0.850
 3959SOL    HW112776   2.553   5.748   0.772
 3959SOL    HW212777   2.554   5.728   0.934
 3960SOL     OW12778   4.243   2.730   6.934
 3960SOL    HW112779   4.335   2.720   6.895
 3960SOL    HW212780   4.240   2.686   0.001
 3961SOL     OW12781   5.017   1.571   2.325
 3961SOL    HW112782   4.930   1.589   2.280
 3961SOL    HW212783   5.043   1.475   2.313
 3962SOL     OW12784   1.291   6.381   0.231
 3962SOL    HW112785   1.387   6.359   0.248
 3962SOL    HW212786   1.258   6.326   0.154
 3963SOL     OW12787   5.024   5.363   3.725
 3963SOL    HW112788   5.104   5.337   3.672
 3963SOL    HW212789   4.944   5.314   3.691
 3964SOL     OW12790   5.252   5.940   5.222
 3964SOL    HW112791   5.178   6.002   5.247
 3964SOL    HW212792   5.301   5.977   5.143
 3965SOL     OW12793   4.093   5.120   6.784
 3965SOL    HW112794   4.124   5.171   6.703
 3965SOL    HW212795   4.081   5.184   6.860
 3966SOL     OW12796   6.127   5.020   6.108
 3966SOL    HW112797   6.070   4.965   6.168
 3966SOL    HW212798   6.219   4.979   6.103
 3967SOL     OW12799   0.273   5.707   4.856
 3967SOL    HW112800   0.356   5.700   4.912
 3967SOL    HW212801   0.231   5.797   4.869
 3968SOL     OW12802   4.845   0.197   2.631
 3968SOL    HW112803   4.843   0.276   2.569
 3968SOL    HW212804   4.878   0.117   2.581
 3969SOL     OW12805   1.331   4.867   2.935
 3969SOL    HW112806   1.398   4.869   3.009
 3969SOL    HW212807   1.321   4.959   2.896
 3970SOL     OW12808   4.760   5.092   4.019
 3970SOL    HW112809   4.691   5.104   3.947
 3970SOL    HW212810   4.752   5.166   4.085
 3971SOL     OW12811   2.537   5.366   3.471
 3971SOL    HW112812   2.441   5.389   3.455
 3971SOL    HW212813   2.545   5.309   3.553
 3972SOL     OW12814   0.600   6.540   0.467
 3972SOL    HW112815   0.696   6.527   0.490
 3972SOL    HW212816   0.559   6.607   0.530
 3973SOL     OW12817   3.310   3.468   4.416
 3973SOL    HW112818   3.348   3.561   4.414
 3973SOL    HW212819   3.288   3.439   4.323
 3974SOL     OW12820   0.034   1.370   5.843
 3974SOL    HW112821   0.066   1.290   5.893
 3974SOL    HW212822   6.958   1.366   5.832
 3975SOL     OW12823   6.566   0.944   6.319
 3975SOL    HW112824   6.490   0.890   6.285
 3975SOL    HW212825   6.621   0.889   6.382
 3976SOL     OW12826   0.734   4.417   0.860
 3976SOL    HW112827   0.811   4.400   0.922
 3976SOL    HW212828   0.747   4.505   0.814
 3977SOL     OW12829   2.319   5.764   6.364
 3977SOL    HW112830   2.392   5.762   6.432
 3977SOL    HW212831   2.252   5.834   6.390
 3978SOL     OW12832   5.800   1.626   5.585
 3978SOL    HW112833   5.774   1.588   5.496
 3978SOL    HW212834   5.900   1.620   5.596
 3979SOL     OW12835   1.380   6.874   1.797
 3979SOL    HW112836   1.294   6.891   1.844
 3979SOL    HW212837   1.432   6.959   1.789
 3980SOL     OW12838   5.420   3.482   4.415
 3980SOL    HW112839   5.328   3.487   4.375
 3980SOL    HW212840   5.465   3.571   4.406
 3981SOL     OW12841   0.295   2.009   6.398
 3981SOL    HW112842   0.214   2.065   6.382
 3981SOL    HW212843   0.364   2.031   6.329
 3982SOL     OW12844   2.095   0.988   4.434
 3982SOL    HW112845   2.133   1.076   4.405
 3982SOL    HW212846   2.098   0.924   4.357
 3983SOL     OW12847   3.225   0.037   4.729
 3983SOL    HW112848   3.173   0.005   4.808
 3983SOL    HW212849   3.220   6.990   4.656
 3984SOL     OW12850   1.388   6.598   1.848
 3984SOL    HW112851   1.317   6.577   1.916
 3984SOL    HW212852   1.379   6.693   1.818
 3985SOL     OW12853   1.266   3.740   0.057
 3985SOL    HW112854   1.279   3.838   0.043
 3985SOL    HW212855   1.220   3.701   7.001
 3986SOL     OW12856   0.294   1.986   1.556
 3986SOL    HW112857   0.224   1.928   1.513
 3986SOL    HW212858   0.291   2.077   1.515
 3987SOL     OW12859   1.824   5.673   5.285
 3987SOL    HW112860   1.847   5.703   5.192
 3987SOL    HW212861   1.908   5.654   5.335
 3988SOL     OW12862   4.099   1.709   6.322
 3988SOL    HW112863   4.113   1.612   6.345
 3988SOL    HW212864   4.129   1.766   6.399
 3989SOL     OW12865   6.411   0.159   6.552
 3989SOL    HW112866   6.429   0.175   6.455
 3989SOL    HW212867   6.320   0.120   6.563
 3990SOL     OW12868   0.020   2.467   4.657
 3990SOL    HW112869   6.993   2.521   4.724
 3990SOL    HW212870   0.111   2.507   4.642
 3991SOL     OW12871   0.593   2.161   3.880
 3991SOL    HW112872   0.623   2.094   3.948
 3991SOL    HW212873   0.672   2.188   3.825
 3992SOL     OW12874   4.109   3.308   6.731
 3992SOL    HW112875   4.052   3.237   6.691
 3992SOL    HW212876   4.130   3.284   6.826
 3993SOL     OW12877   2.843   2.049   2.477
 3993SOL    HW112878   2.751   2.084   2.496
 3993SOL    HW212879   2.879   2.095   2.395
 3994SOL     OW12880   2.573   2.459   4.952
 3994SOL    HW112881   2.568   2.429   4.857
 3994SOL    HW212882   2.559   2.558   4.956
 3995SOL     OW12883   1.892   3.934   3.448
 3995SOL    HW112884   1.912   3.906   3.542
 3995SOL    HW212885   1.896   4.034   3.442
 3996SOL     OW12886   0.936   1.095   3.968
 3996SOL    HW112887   0.857   1.100   3.907
 3996SOL    HW212888   0.964   1.187   3.994
 3997SOL     OW12889   5.051   3.606   3.241
 3997SOL    HW112890   5.112   3.579   3.315
 3997SOL    HW212891   4.970   3.548   3.241
 3998SOL     OW12892   6.192   2.090   2.499
 3998SOL    HW112893   6.161   2.023   2.431
 3998SOL    HW212894   6.250   2.158   2.454
 3999SOL     OW12895   5.661   4.145   3.292
 3999SOL    HW112896   5.573   4.164   3.337
 3999SOL    HW212897   5.729   4.211   3.323
 4000SOL     OW12898   2.963   6.134   2.766
 4000SOL    HW112899   2.956   6.216   2.710
 4000SOL    HW212900   2.898   6.065   2.732
 4001SOL     OW12901   2.599   4.106   5.973
 4001SOL    HW112902   2.510   4.152   5.976
 4001SOL    HW212903   2.598   4.036   5.902
 4002SOL     OW12904   3.832   3.441   5.106
 4002SOL    HW112905   3.906   3.391   5.059
 4002SOL    HW212906   3.871   3.498   5.178
 4003SOL     OW12907   2.413   1.034   6.254
 4003SOL    HW112908   2.329   1.071   6.293
 4003SOL    HW212909   2.418   0.936   6.273
 4004SOL     OW12910   6.371   3.910   3.248
 4004SOL    HW112911   6.409   3.818   3.243
 4004SOL    HW212912   6.389   3.948   3.339
 4005SOL     OW12913   3.812   4.512   1.158
 4005SOL    HW112914   3.899   4.477   1.125
 4005SOL    HW212915   3.816   4.612   1.164
 4006SOL     OW12916   5.532   4.686   1.921
 4006SOL    HW112917   5.466   4.651   1.855
 4006SOL    HW212918   5.532   4.786   1.917
 4007SOL     OW12919   0.006   1.955   3.725
 4007SOL    HW112920   6.935   1.967   3.693
 4007SOL    HW212921   0.028   2.027   3.790
 4008SOL     OW12922   2.799   6.682   0.353
 4008SOL    HW112923   2.877   6.691   0.292
 4008SOL    HW212924   2.789   6.766   0.407
 4009SOL     OW12925   4.996   2.144   1.063
 4009SOL    HW112926   4.976   2.235   1.026
 4009SOL    HW212927   5.014   2.080   0.988
 4010SOL     OW12928   3.094   3.559   1.575
 4010SOL    HW112929   3.042   3.479   1.547
 4010SOL    HW212930   3.169   3.531   1.635
 4011SOL     OW12931   6.496   6.185   1.573
 4011SOL    HW112932   6.548   6.268   1.598
 4011SOL    HW212933   6.491   6.124   1.652
 4012SOL     OW12934   3.659   6.644   2.406
 4012SOL    HW112935   3.622   6.600   2.324
 4012SOL    HW212936   3.734   6.706   2.379
 4013SOL     OW12937   1.859   0.281   1.464
 4013SOL    HW112938   1.801   0.350   1.420
 4013SOL    HW212939   1.914   0.324   1.536
 4014SOL     OW12940   3.994   6.463   3.989
 4014SOL    HW112941   3.932   6.458   4.068
 4014SOL    HW212942   3.958   6.405   3.916
 4015SOL     OW12943   4.450   4.687   6.380
 4015SOL    HW112944   4.471   4.721   6.472
 4015SOL    HW212945   4.521   4.717   6.316
 4016SOL     OW12946   2.809   5.237   0.479
 4016SOL    HW112947   2.815   5.246   0.380
 4016SOL    HW212948   2.891   5.191   0.513
 4017SOL     OW12949   0.088   4.786   5.034
 4017SOL    HW112950   0.030   4.761   4.956
 4017SOL    HW212951   0.109   4.704   5.087
 4018SOL     OW12952   3.841   6.877   1.534
 4018SOL    HW112953   3.811   6.782   1.532
 4018SOL    HW212954   3.796   6.925   1.609
 4019SOL     OW12955   5.650   4.043   2.636
 4019SOL    HW112956   5.642   4.061   2.734
 4019SOL    HW212957   5.687   3.951   2.622
 4020SOL     OW12958   6.843   3.182   5.724
 4020SOL    HW112959   6.933   3.224   5.722
 4020SOL    HW212960   6.845   3.097   5.671
 4021SOL     OW12961   3.511   3.831   5.288
 4021SOL    HW112962   3.478   3.737   5.300
 4021SOL    HW212963   3.498   3.859   5.193
 4022SOL     OW12964   4.101   6.230   0.344
 4022SOL    HW112965   4.059   6.318   0.368
 4022SOL    HW212966   4.179   6.247   0.284
 4023SOL     OW12967   6.997   1.089   6.427
 4023SOL    HW112968   6.914   1.080   6.371
 4023SOL    HW212969   0.000   1.185   6.433
 4024SOL     OW12970   2.434   5.014   4.524
 4024SOL    HW112971   2.374   4.973   4.455
 4024SOL    HW212972   2.501   4.947   4.553
 4025SOL     OW12973   0.458   6.567   4.577
 4025SOL    HW112974   0.389   6.629   4.613
 4025SOL    HW212975   0.428   6.472   4.590
 4026SOL     OW12976   6.337   6.341   4.226
 4026SOL    HW112977   6.307   6.342   4.321
 4026SOL    HW212978   6.280   6.402   4.171
 4027SOL     OW12979   2.761   2.150   6.950
 4027SOL    HW112980   2.684   2.150   6.886
 4027SOL    HW212981   2.728   2.127   0.019
 4028SOL     OW12982   4.236   1.682   3.406
 4028SOL    HW112983   4.231   1.610   3.474
 4028SOL    HW212984   4.243   1.771   3.452
 4029SOL     OW12985   3.013   4.315   5.834
 4029SOL    HW112986   2.937   4.372   5.863
 4029SOL    HW212987   3.093   4.334   5.891
 4030SOL     OW12988   6.412   0.995   1.831
 4030SOL    HW112989   6.503   1.033   1.850
 4030SOL    HW212990   6.417   0.895   1.833
 4031SOL     OW12991   4.950   6.257   3.115
 4031SOL    HW112992   4.984   6.193   3.184
 4031SOL    HW212993   4.854   6.276   3.131
 4032SOL     OW12994   0.099   6.892   2.715
 4032SOL    HW112995   0.166   6.947   2.766
 4032SOL    HW212996   0.125   6.891   2.619
 4033SOL     OW12997   1.605   2.599   1.824
 4033SOL    HW112998   1.668   2.559   1.891
 4033SOL    HW212999   1.518   2.620   1.869
 4034SOL     OW13000   5.675   2.056   5.190
 4034SOL    HW113001   5.677   1.957   5.181
 4034SOL    HW213002   5.768   2.092   5.179
 4035SOL     OW13003   6.421   1.055   0.419
 4035SOL    HW113004   6.357   1.051   0.495
 4035SOL    HW213005   6.373   1.085   0.336
 4036SOL     OW13006   4.071   4.765   2.413
 4036SOL    HW113007   4.004   4.794   2.481
 4036SOL    HW213008   4.155   4.738   2.460
 4037SOL     OW13009   2.168   1.262   6.309
 4037SOL    HW113010   2.121   1.348   6.290
 4037SOL    HW213011   2.214   1.230   6.227
 4038SOL     OW13012   4.219   3.202   0.892
 4038SOL    HW113013   4.203   3.203   0.990
 4038SOL    HW213014   4.308   3.242   0.871
 4039SOL     OW13015   4.689   5.559   1.689
 4039SOL    HW113016   4.687   5.503   1.606
 4039SOL    HW213017   4.620   5.526   1.753
 4040SOL     OW13018   3.009   6.696   5.217
 4040SOL    HW113019   3.094   6.719   5.169
 4040SOL    HW213020   2.983   6.601   5.195
 4041SOL     OW13021   1.563   5.036   0.769
 4041SOL    HW113022   1.567   5.089   0.854
 4041SOL    HW213023   1.553   5.098   0.692
 4042SOL     OW13024   6.288   6.089   4.109
 4042SOL    HW113025   6.193   6.067   4.131
 4042SOL    HW213026   6.317   6.168   4.163
 4043SOL     OW13027   6.848   1.816   6.331
 4043SOL    HW113028   6.908   1.765   6.393
 4043SOL    HW213029   6.810   1.753   6.263
 4044SOL     OW13030   5.188   5.994   3.720
 4044SOL    HW113031   5.216   5.946   3.637
 4044SOL    HW213032   5.144   5.929   3.782
 4045SOL     OW13033   3.870   6.168   6.154
 4045SOL    HW113034   3.801   6.114   6.106
 4045SOL    HW213035   3.849   6.170   6.252
 4046SOL     OW13036   0.988   2.020   3.198
 4046SOL    HW113037   1.018   2.090   3.132
 4046SOL    HW213038   0.890   2.030   3.215
 4047SOL     OW13039   2.500   2.170   6.810
 4047SOL    HW113040   2.530   2.266   6.803
 4047SOL    HW213041   2.407   2.162   6.776
 4048SOL     OW13042   5.126   1.342   1.674
 4048SOL    HW113043   5.181   1.259   1.660
 4048SOL    HW213044   5.171   1.420   1.629
 4049SOL     OW13045   5.199   5.118   6.708
 4049SOL    HW113046   5.262   5.155   6.777
 4049SOL    HW213047   5.240   5.038   6.665
 4050SOL     OW13048   0.787   6.257   2.183
 4050SOL    HW113049   0.882   6.246   2.212
 4050SOL    HW213050   0.744   6.328   2.239
 4051SOL     OW13051   3.846   1.639   6.515
 4051SOL    HW113052   3.876   1.544   6.525
 4051SOL    HW213053   3.890   1.679   6.434
 4052SOL     OW13054   6.031   1.444   2.933
 4052SOL    HW113055   5.961   1.498   2.885
 4052SOL    HW213056   6.095   1.406   2.866
 4053SOL     OW13057   2.913   6.984   4.540
 4053SOL    HW113058   2.816   6.960   4.529
 4053SOL    HW213059   2.935   6.987   4.638
 4054SOL     OW13060   5.007   4.237   0.949
 4054SOL    HW113061   4.972   4.316   0.898
 4054SOL    HW213062   4.936   4.205   1.012
 4055SOL     OW13063   3.007   3.784   0.679
 4055SOL    HW113064   2.925   3.785   0.738
 4055SOL    HW213065   3.018   3.873   0.636
 4056SOL     OW13066   5.699   4.017   0.869
 4056SOL    HW113067   5.607   4.053   0.858
 4056SOL    HW213068   5.701   3.920   0.842
 4057SOL     OW13069   6.992   2.617   0.700
 4057SOL    HW113070   7.002   2.669   0.785
 4057SOL    HW213071   0.009   2.669   0.624
 4058SOL     OW13072   2.730   6.563   5.034
 4058SOL    HW113073   2.682   6.485   4.993
 4058SOL    HW213074   2.793   6.529   5.104
 4059SOL     OW13075   1.094   1.710   2.328
 4059SOL    HW113076   1.088   1.635   2.394
 4059SOL    HW213077   1.012   1.712   2.271
 4060SOL     OW13078   5.308   5.150   5.426
 4060SOL    HW113079   5.209   5.164   5.429
 4060SOL    HW213080   5.351   5.198   5.502
 4061SOL     OW13081   2.099   4.702   2.322
 4061SOL    HW113082   2.084   4.799   2.339
 4061SOL    HW213083   2.011   4.656   2.312
 4062SOL     OW13084   2.399   0.441   1.873
 4062SOL    HW113085   2.457   0.522   1.869
 4062SOL    HW213086   2.429   0.376   1.803
 4063SOL     OW13087   6.298   6.444   0.258
 4063SOL    HW113088   6.261   6.396   0.338
 4063SOL    HW213089   6.380   6.397   0.226
 4064SOL     OW13090   2.522   0.565   3.980
 4064SOL    HW113091   2.521   0.504   4.059
 4064SOL    HW213092   2.483   0.517   3.901
 4065SOL     OW13093   1.225   6.339   1.642
 4065SOL    HW113094   1.273   6.422   1.614
 4065SOL    HW213095   1.178   6.299   1.563
 4066SOL     OW13096   6.622   4.340   3.109
 4066SOL    HW113097   6.717   4.335   3.140
 4066SOL    HW213098   6.608   4.277   3.032
 4067SOL     OW13099   6.047   3.421   2.866
 4067SOL    HW113100   6.025   3.488   2.795
 4067SOL    HW213101   6.134   3.445   2.909
 4068SOL     OW13102   1.839   1.013   4.826
 4068SOL    HW113103   1.781   1.053   4.898
 4068SOL    HW213104   1.820   0.915   4.820
 4069SOL     OW13105   3.222   5.496   6.629
 4069SOL    HW113106   3.229   5.563   6.703
 4069SOL    HW213107   3.240   5.542   6.542
 4070SOL     OW13108   0.485   2.708   2.862
 4070SOL    HW113109   0.559   2.771   2.838
 4070SOL    HW213110   0.398   2.745   2.828
 4071SOL     OW13111   0.823   1.534   5.513
 4071SOL    HW113112   0.812   1.540   5.414
 4071SOL    HW213113   0.919   1.515   5.535
 4072SOL     OW13114   1.086   5.454   4.781
 4072SOL    HW113115   1.028   5.536   4.774
 4072SOL    HW213116   1.030   5.373   4.768
 4073SOL     OW13117   2.999   6.631   6.735
 4073SOL    HW113118   3.099   6.629   6.736
 4073SOL    HW213119   2.967   6.710   6.786
 4074SOL     OW13120   0.211   3.866   1.490
 4074SOL    HW113121   0.307   3.892   1.501
 4074SOL    HW213122   0.204   3.788   1.428
 4075SOL     OW13123   4.808   1.889   1.400
 4075SOL    HW113124   4.905   1.903   1.421
 4075SOL    HW213125   4.764   1.844   1.478
 4076SOL     OW13126   2.893   3.462   6.039
 4076SOL    HW113127   2.889   3.519   5.957
 4076SOL    HW213128   2.871   3.368   6.015
 4077SOL     OW13129   3.789   1.410   6.956
 4077SOL    HW113130   3.833   1.397   0.022
 4077SOL    HW213131   3.822   1.340   6.893
 4078SOL     OW13132   0.410   5.433   1.220
 4078SOL    HW113133   0.339   5.363   1.207
 4078SOL    HW213134   0.385   5.490   1.298
 4079SOL     OW13135   1.860   0.936   3.415
 4079SOL    HW113136   1.800   0.861   3.387
 4079SOL    HW213137   1.949   0.899   3.443
 4080SOL     OW13138   4.285   4.087   6.206
 4080SOL    HW113139   4.336   4.159   6.252
 4080SOL    HW213140   4.193   4.120   6.183
 4081SOL     OW13141   2.242   2.930   4.370
 4081SOL    HW113142   2.206   3.022   4.361
 4081SOL    HW213143   2.248   2.906   4.467
 4082SOL     OW13144   0.856   3.860   0.263
 4082SOL    HW113145   0.765   3.887   0.229
 4082SOL    HW213146   0.854   3.856   0.363
 4083SOL     OW13147   6.881   3.102   2.290
 4083SOL    HW113148   6.915   3.039   2.360
 4083SOL    HW213149   6.854   3.188   2.334
 4084SOL     OW13150   5.414   2.408   3.635
 4084SOL    HW113151   5.427   2.346   3.558
 4084SOL    HW213152   5.321   2.445   3.632
 4085SOL     OW13153   3.176   5.870   1.985
 4085SOL    HW113154   3.163   5.909   2.076
 4085SOL    HW213155   3.112   5.913   1.921
 4086SOL     OW13156   1.689   5.790   1.878
 4086SOL    HW113157   1.643   5.860   1.933
 4086SOL    HW213158   1.644   5.702   1.893
 4087SOL     OW13159   1.995   1.785   3.578
 4087SOL    HW113160   1.955   1.736   3.656
 4087SOL    HW213161   1.924   1.843   3.536
 4088SOL     OW13162   0.160   1.575   0.461
 4088SOL    HW113163   0.133   1.577   0.558
 4088SOL    HW213164   0.097   1.517   0.410
 4089SOL     OW13165   5.933   6.357   4.285
 4089SOL    HW113166   6.030   6.359   4.308
 4089SOL    HW213167   5.907   6.442   4.239
 4090SOL     OW13168   1.167   4.314   5.818
 4090SOL    HW113169   1.258   4.289   5.785
 4090SOL    HW213170   1.106   4.326   5.740
 4091SOL     OW13171   0.290   6.233   0.205
 4091SOL    HW113172   0.326   6.242   0.298
 4091SOL    HW213173   0.222   6.161   0.203
 4092SOL     OW13174   6.506   2.341   5.808
 4092SOL    HW113175   6.436   2.318   5.740
 4092SOL    HW213176   6.591   2.368   5.761
 4093SOL     OW13177   4.537   0.076   2.457
 4093SOL    HW113178   4.557   0.103   2.551
 4093SOL    HW213179   4.622   0.064   2.407
 4094SOL     OW13180   2.587   5.817   4.300
 4094SOL    HW113181   2.632   5.841   4.214
 4094SOL    HW213182   2.491   5.842   4.296
 4095SOL     OW13183   0.415   4.243   0.232
 4095SOL    HW113184   0.502   4.239   0.282
 4095SOL    HW213185   0.422   4.310   0.158
 4096SOL     OW13186   4.544   6.032   6.177
 4096SOL    HW113187   4.557   5.954   6.115
 4096SOL    HW213188   4.563   6.117   6.128
 4097SOL     OW13189   3.521   4.974   5.327
 4097SOL    HW113190   3.422   4.957   5.326
 4097SOL    HW213191   3.540   5.065   5.290
 4098SOL     OW13192   0.847   2.928   1.835
 4098SOL    HW113193   0.904   2.987   1.892
 4098SOL    HW213194   0.763   2.906   1.884
 4099SOL     OW13195   2.761   4.919   1.565
 4099SOL    HW113196   2.778   4.828   1.526
 4099SOL    HW213197   2.673   4.918   1.614
 4100SOL     OW13198   6.765   5.609   4.407
 4100SOL    HW113199   6.719   5.557   4.334
 4100SOL    HW213200   6.860   5.627   4.379
 4101SOL     OW13201   6.396   1.063   6.947
 4101SOL    HW113202   6.494   1.050   6.933
 4101SOL    HW213203   6.345   0.998   6.890
 4102SOL     OW13204   6.478   0.523   0.922
 4102SOL    HW113205   6.518   0.455   0.983
 4102SOL    HW213206   6.447   0.478   0.838
 4103SOL     OW13207   0.151   0.796   0.406
 4103SOL    HW113208   0.131   0.772   0.501
 4103SOL    HW213209   0.164   0.895   0.399
 4104SOL     OW13210   0.774   4.706   2.412
 4104SOL    HW113211   0.698   4.648   2.381
 4104SOL    HW213212   0.860   4.657   2.403
 4105SOL     OW13213   4.507   6.990   1.532
 4105SOL    HW113214   4.596   6.994   1.486
 4105SOL    HW213215   4.499   6.905   1.583
 4106SOL     OW13216   6.653   2.443   3.590
 4106SOL    HW113217   6.690   2.449   3.683
 4106SOL    HW213218   6.554   2.454   3.593
 4107SOL     OW13219   1.223   5.895   1.518
 4107SOL    HW113220   1.311   5.942   1.516
 4107SOL    HW213221   1.176   5.915   1.604
 4108SOL     OW13222   6.317   4.529   5.121
 4108SOL    HW113223   6.336   4.488   5.031
 4108SOL    HW213224   6.307   4.457   5.189
 4109SOL     OW13225   5.725   6.808   5.300
 4109SOL    HW113226   5.649   6.845   5.247
 4109SOL    HW213227   5.735   6.859   5.385
 4110SOL     OW13228   4.384   3.831   6.235
 4110SOL    HW113229   4.332   3.916   6.230
 4110SOL    HW213230   4.373   3.790   6.325
 4111SOL     OW13231   3.751   3.635   6.978
 4111SOL    HW113232   3.785   3.561   6.920
 4111SOL    HW213233   3.823   3.665   0.017
 4112SOL     OW13234   5.002   6.871   5.350
 4112SOL    HW113235   4.918   6.924   5.358
 4112SOL    HW213236   5.076   6.931   5.318
 4113SOL     OW13237   4.795   6.347   4.450
 4113SOL    HW113238   4.853   6.345   4.369
 4113SOL    HW213239   4.700   6.360   4.423
 4114SOL     OW13240   3.260   2.069   4.244
 4114SOL    HW113241   3.351   2.109   4.241
 4114SOL    HW213242   3.219   2.086   4.333
 4115SOL     OW13243   3.658   4.873   2.485
 4115SOL    HW113244   3.665   4.918   2.397
 4115SOL    HW213245   3.616   4.783   2.473
 4116SOL     OW13246   3.867   2.087   1.971
 4116SOL    HW113247   3.901   2.137   1.891
 4116SOL    HW213248   3.769   2.104   1.981
 4117SOL     OW13249   1.224   4.719   2.248
 4117SOL    HW113250   1.300   4.745   2.307
 4117SOL    HW213251   1.226   4.775   2.165
 4118SOL     OW13252   2.863   6.635   0.806
 4118SOL    HW113253   2.917   6.698   0.750
 4118SOL    HW213254   2.875   6.542   0.771
 4119SOL     OW13255   3.617   1.713   3.982
 4119SOL    HW113256   3.586   1.634   3.928
 4119SOL    HW213257   3.540   1.773   4.000
 4120SOL     OW13258   3.790   6.962   0.459
 4120SOL    HW113259   3.848   6.971   0.378
 4120SOL    HW213260   3.696   6.988   0.436
 4121SOL     OW13261   6.383   0.800   5.191
 4121SOL    HW113262   6.470   0.802   5.240
 4121SOL    HW213263   6.334   0.715   5.213
 4122SOL     OW13264   0.775   5.544   5.375
 4122SOL    HW113265   0.776   5.478   5.300
 4122SOL    HW213266   0.812   5.502   5.458
 4123SOL     OW13267   4.062   4.890   5.892
 4123SOL    HW113268   4.159   4.884   5.870
 4123SOL    HW213269   4.021   4.966   5.842
 4124SOL     OW13270   5.756   5.050   6.748
 4124SOL    HW113271   5.705   5.045   6.662
 4124SOL    HW213272   5.785   5.145   6.764
 4125SOL     OW13273   4.666   1.417   2.464
 4125SOL    HW113274   4.675   1.444   2.560
 4125SOL    HW213275   4.580   1.451   2.428
 4126SOL     OW13276   1.478   3.808   4.505
 4126SOL    HW113277   1.571   3.777   4.523
 4126SOL    HW213278   1.421   3.789   4.585
 4127SOL     OW13279   4.237   4.677   4.461
 4127SOL    HW113280   4.211   4.630   4.545
 4127SOL    HW213281   4.221   4.775   4.471
 4128SOL     OW13282   1.807   3.035   1.984
 4128SOL    HW113283   1.886   3.036   2.046
 4128SOL    HW213284   1.819   3.105   1.914
 4129SOL     OW13285   4.551   1.764   6.601
 4129SOL    HW113286   4.465   1.713   6.591
 4129SOL    HW213287   4.563   1.791   6.697
 4130SOL     OW13288   6.593   2.733   5.628
 4130SOL    HW113289   6.575   2.695   5.537
 4130SOL    HW213290   6.507   2.759   5.671
 4131SOL     OW13291   1.822   0.296   3.124
 4131SOL    HW113292   1.723   0.303   3.137
 4131SOL    HW213293   1.844   0.206   3.087
 4132SOL     OW13294   4.992   4.399   3.607
 4132SOL    HW113295   4.918   4.459   3.580
 4132SOL    HW213296   5.026   4.349   3.528
 4133SOL     OW13297   3.075   6.936   1.335
 4133SOL    HW113298   3.165   6.904   1.363
 4133SOL    HW213299   3.008   6.915   1.406
 4134SOL     OW13300   2.583   3.175   0.016
 4134SOL    HW113301   2.532   3.254   7.006
 4134SOL    HW213302   2.641   3.139   6.965
 4135SOL     OW13303   1.369   1.654   3.087
 4135SOL    HW113304   1.440   1.589   3.060
 4135SOL    HW213305   1.344   1.711   3.008
 4136SOL     OW13306   1.536   2.238   2.907
 4136SOL    HW113307   1.577   2.147   2.909
 4136SOL    HW213308   1.606   2.306   2.888
 4137SOL     OW13309   0.743   4.683   0.772
 4137SOL    HW113310   0.787   4.756   0.824
 4137SOL    HW213311   0.741   4.707   0.675
 4138SOL     OW13312   4.093   5.134   3.190
 4138SOL    HW113313   4.079   5.037   3.168
 4138SOL    HW213314   4.035   5.190   3.131
 4139SOL     OW13315   2.252   2.367   4.885
 4139SOL    HW113316   2.321   2.425   4.929
 4139SOL    HW213317   2.223   2.409   4.799
 4140SOL     OW13318   2.922   0.989   5.649
 4140SOL    HW113319   2.939   0.898   5.686
 4140SOL    HW213320   2.823   1.004   5.643
 4141SOL     OW13321   5.881   6.239   1.399
 4141SOL    HW113322   5.851   6.165   1.339
 4141SOL    HW213323   5.819   6.245   1.477
 4142SOL     OW13324   6.382   5.770   0.807
 4142SOL    HW113325   6.316   5.770   0.732
 4142SOL    HW213326   6.443   5.691   0.798
 4143SOL     OW13327   6.949   2.790   0.904
 4143SOL    HW113328   6.944   2.768   1.001
 4143SOL    HW213329   6.899   2.875   0.887
 4144SOL     OW13330   4.899   4.141   5.970
 4144SOL    HW113331   4.980   4.191   5.939
 4144SOL    HW213332   4.852   4.101   5.892
 4145SOL     OW13333   6.663   5.658   1.147
 4145SOL    HW113334   6.571   5.697   1.158
 4145SOL    HW213335   6.730   5.732   1.149
 4146SOL     OW13336   6.681   0.852   5.304
 4146SOL    HW113337   6.688   0.781   5.374
 4146SOL    HW213338   6.628   0.929   5.339
 4147SOL     OW13339   4.557   3.389   5.688
 4147SOL    HW113340   4.606   3.368   5.603
 4147SOL    HW213341   4.489   3.459   5.670
 4148SOL     OW13342   1.167   0.237   5.133
 4148SOL    HW113343   1.238   0.306   5.147
 4148SOL    HW213344   1.098   0.244   5.205
 4149SOL     OW13345   0.064   2.642   0.286
 4149SOL    HW113346   0.151   2.614   0.246
 4149SOL    HW213347   0.002   2.564   0.290
 4150SOL     OW13348   0.536   0.737   5.638
 4150SOL    HW113349   0.635   0.741   5.627
 4150SOL    HW213350   0.512   0.758   5.733
 4151SOL     OW13351   3.640   6.060   5.984
 4151SOL    HW113352   3.719   6.028   5.932
 4151SOL    HW213353   3.586   5.981   6.014
 4152SOL     OW13354   3.108   6.305   1.236
 4152SOL    HW113355   3.190   6.259   1.205
 4152SOL    HW213356   3.055   6.244   1.295
 4153SOL     OW13357   4.777   4.764   0.131
 4153SOL    HW113358   4.694   4.791   0.082
 4153SOL    HW213359   4.752   4.730   0.222
 4154SOL     OW13360   0.707   4.807   4.332
 4154SOL    HW113361   0.747   4.746   4.400
 4154SOL    HW213362   0.625   4.764   4.292
 4155SOL     OW13363   6.729   1.792   2.139
 4155SOL    HW113364   6.704   1.696   2.144
 4155SOL    HW213365   6.662   1.841   2.083
 4156SOL     OW13366   5.613   6.287   4.992
 4156SOL    HW113367   5.520   6.307   4.962
 4156SOL    HW213368   5.612   6.251   5.085
 4157SOL     OW13369   4.483   6.015   4.637
 4157SOL    HW113370   4.464   6.028   4.540
 4157SOL    HW213371   4.439   6.087   4.690
 4158SOL     OW13372   1.561   4.876   3.098
 4158SOL    HW113373   1.593   4.861   3.005
 4158SOL    HW213374   1.586   4.798   3.156
 4159SOL     OW13375   2.093   3.482   4.240
 4159SOL    HW113376   2.192   3.484   4.225
 4159SOL    HW213377   2.066   3.564   4.291
 4160SOL     OW13378   6.242   0.663   0.577
 4160SOL    HW113379   6.312   0.706   0.520
 4160SOL    HW213380   6.151   0.689   0.544
 4161SOL     OW13381   0.922   0.821   0.089
 4161SOL    HW113382   1.002   0.881   0.086
 4161SOL    HW213383   0.843   0.868   0.050
 4162SOL     OW13384   6.087   6.521   5.898
 4162SOL    HW113385   6.049   6.547   5.809
 4162SOL    HW213386   6.185   6.508   5.890
 4163SOL     OW13387   6.242   6.978   3.214
 4163SOL    HW113388   6.256   0.050   3.244
 4163SOL    HW213389   6.150   6.948   3.242
 4164SOL     OW13390   1.439   6.689   0.123
 4164SOL    HW113391   1.395   6.639   0.049
 4164SOL    HW213392   1.536   6.666   0.127
 4165SOL     OW13393   4.031   0.107   6.717
 4165SOL    HW113394   4.088   0.127   6.637
 4165SOL    HW213395   4.072   0.147   6.798
 4166SOL     OW13396   5.903   3.721   1.062
 4166SOL    HW113397   5.956   3.805   1.051
 4166SOL    HW213398   5.860   3.697   0.975
 4167SOL     OW13399   1.286   3.990   0.947
 4167SOL    HW113400   1.250   4.045   1.023
 4167SOL    HW213401   1.210   3.952   0.895
 4168SOL     OW13402   6.578   5.191   1.206
 4168SOL    HW113403   6.626   5.104   1.199
 4168SOL    HW213404   6.580   5.223   1.301
 4169SOL     OW13405   5.814   4.290   4.017
 4169SOL    HW113406   5.801   4.345   4.100
 4169SOL    HW213407   5.907   4.305   3.983
 4170SOL     OW13408   3.122   4.078   4.787
 4170SOL    HW113409   3.119   4.170   4.826
 4170SOL    HW213410   3.059   4.019   4.836
 4171SOL     OW13411   5.090   5.264   1.615
 4171SOL    HW113412   5.040   5.186   1.579
 4171SOL    HW213413   5.187   5.255   1.593
 4172SOL     OW13414   0.510   1.958   6.109
 4172SOL    HW113415   0.510   1.998   6.017
 4172SOL    HW213416   0.587   1.994   6.161
 4173SOL     OW13417   5.262   3.628   5.415
 4173SOL    HW113418   5.183   3.568   5.431
 4173SOL    HW213419   5.315   3.637   5.499
 4174SOL     OW13420   5.219   0.715   3.437
 4174SOL    HW113421   5.201   0.779   3.362
 4174SOL    HW213422   5.294   0.654   3.411
 4175SOL     OW13423   2.066   5.819   4.458
 4175SOL    HW113424   2.076   5.720   4.470
 4175SOL    HW213425   1.999   5.838   4.386
 4176SOL     OW13426   2.977   6.807   1.995
 4176SOL    HW113427   2.987   6.863   2.077
 4176SOL    HW213428   2.902   6.842   1.939
 4177SOL     OW13429   0.032   4.354   4.509
 4177SOL    HW113430   6.986   4.337   4.437
 4177SOL    HW213431   0.123   4.345   4.469
 4178SOL     OW13432   4.674   1.352   4.209
 4178SOL    HW113433   4.634   1.263   4.230
 4178SOL    HW213434   4.768   1.355   4.242
 4179SOL     OW13435   5.445   2.347   3.252
 4179SOL    HW113436   5.435   2.346   3.153
 4179SOL    HW213437   5.507   2.420   3.279
 4180SOL     OW13438   5.533   3.656   1.713
 4180SOL    HW113439   5.559   3.700   1.627
 4180SOL    HW213440   5.448   3.696   1.747
 4181SOL     OW13441   2.239   1.910   6.763
 4181SOL    HW113442   2.173   1.835   6.767
 4181SOL    HW213443   2.310   1.895   6.832
 4182SOL     OW13444   0.163   6.318   2.824
 4182SOL    HW113445   0.102   6.311   2.903
 4182SOL    HW213446   0.218   6.402   2.832
 4183SOL     OW13447   4.591   0.349   0.425
 4183SOL    HW113448   4.596   0.375   0.329
 4183SOL    HW213449   4.674   0.379   0.472
 4184SOL     OW13450   4.544   5.628   1.281
 4184SOL    HW113451   4.465   5.654   1.225
 4184SOL    HW213452   4.512   5.579   1.362
 4185SOL     OW13453   1.248   5.855   2.127
 4185SOL    HW113454   1.289   5.909   2.200
 4185SOL    HW213455   1.151   5.843   2.146
 4186SOL     OW13456   1.957   4.804   1.338
 4186SOL    HW113457   2.048   4.764   1.337
 4186SOL    HW213458   1.892   4.741   1.296
 4187SOL     OW13459   3.310   4.004   5.818
 4187SOL    HW113460   3.336   3.921   5.867
 4187SOL    HW213461   3.391   4.059   5.800
 4188SOL     OW13462   5.335   7.015   4.066
 4188SOL    HW113463   5.286   6.929   4.080
 4188SOL    HW213464   5.356   0.003   3.968
 4189SOL     OW13465   3.371   0.709   5.232
 4189SOL    HW113466   3.340   0.694   5.138
 4189SOL    HW213467   3.403   0.623   5.270
 4190SOL     OW13468   0.809   0.029   0.140
 4190SOL    HW113469   0.879   0.094   0.113
 4190SOL    HW213470   0.723   0.078   0.158
 4191SOL     OW13471   5.580   3.690   3.021
 4191SOL    HW113472   5.632   3.753   3.079
 4191SOL    HW213473   5.488   3.728   3.005
 4192SOL     OW13474   0.387   0.205   3.361
 4192SOL    HW113475   0.377   0.299   3.331
 4192SOL    HW213476   0.415   0.148   3.284
 4193SOL     OW13477   2.500   6.817   2.468
 4193SOL    HW113478   2.439   6.895   2.453
 4193SOL    HW213479   2.590   6.850   2.494
 4194SOL     OW13480   5.919   1.059   5.564
 4194SOL    HW113481   5.854   1.000   5.611
 4194SOL    HW213482   5.870   1.118   5.500
 4195SOL     OW13483   4.134   0.593   1.675
 4195SOL    HW113484   4.200   0.590   1.749
 4195SOL    HW213485   4.119   0.688   1.646
 4196SOL     OW13486   6.024   2.467   3.963
 4196SOL    HW113487   5.980   2.523   4.034
 4196SOL    HW213488   5.978   2.483   3.876
 4197SOL     OW13489   5.225   5.450   5.490
 4197SOL    HW113490   5.319   5.447   5.454
 4197SOL    HW213491   5.164   5.483   5.419
 4198SOL     OW13492   5.523   2.943   6.635
 4198SOL    HW113493   5.573   2.910   6.715
 4198SOL    HW213494   5.427   2.956   6.658
 4199SOL     OW13495   1.922   4.238   6.489
 4199SOL    HW113496   1.904   4.143   6.461
 4199SOL    HW213497   1.868   4.300   6.433
 4200SOL     OW13498   3.310   6.518   4.961
 4200SOL    HW113499   3.391   6.571   4.937
 4200SOL    HW213500   3.255   6.502   4.878
 4201SOL     OW13501   5.743   6.031   4.199
 4201SOL    HW113502   5.724   5.945   4.152
 4201SOL    HW213503   5.659   6.065   4.241
 4202SOL     OW13504   3.885   5.962   5.896
 4202SOL    HW113505   3.881   5.873   5.940
 4202SOL    HW213506   3.950   6.020   5.944
 4203SOL     OW13507   4.778   5.469   1.324
 4203SOL    HW113508   4.706   5.527   1.287
 4203SOL    HW213509   4.739   5.385   1.360
 4204SOL     OW13510   3.836   3.277   2.252
 4204SOL    HW113511   3.867   3.285   2.346
 4204SOL    HW213512   3.803   3.184   2.235
 4205SOL     OW13513   3.954   5.202   4.403
 4205SOL    HW113514   3.881   5.153   4.356
 4205SOL    HW213515   3.919   5.240   4.489
 4206SOL     OW13516   6.035   0.591   5.417
 4206SOL    HW113517   6.032   0.568   5.514
 4206SOL    HW213518   6.074   0.682   5.406
 4207SOL     OW13519   2.559   1.574   1.622
 4207SOL    HW113520   2.644   1.520   1.619
 4207SOL    HW213521   2.483   1.517   1.652
 4208SOL     OW13522   1.636   2.693   6.026
 4208SOL    HW113523   1.736   2.690   6.031
 4208SOL    HW213524   1.601   2.600   6.009
 4209SOL     OW13525   0.833   1.547   5.239
 4209SOL    HW113526   0.821   1.449   5.227
 4209SOL    HW213527   0.788   1.595   5.163
 4210SOL     OW13528   2.910   3.559   1.982
 4210SOL    HW113529   2.857   3.620   1.923
 4210SOL    HW213530   2.887   3.464   1.961
 4211SOL     OW13531   4.045   5.550   5.328
 4211SOL    HW113532   4.012   5.623   5.388
 4211SOL    HW213533   3.972   5.522   5.266
 4212SOL     OW13534   5.712   2.089   2.282
 4212SOL    HW113535   5.766   2.147   2.343
 4212SOL    HW213536   5.727   1.993   2.304
 4213SOL     OW13537   2.610   1.116   2.804
 4213SOL    HW113538   2.523   1.066   2.797
 4213SOL    HW213539   2.685   1.050   2.799
 4214SOL     OW13540   0.503   4.170   5.874
 4214SOL    HW113541   0.482   4.249   5.815
 4214SOL    HW213542   0.600   4.170   5.896
 4215SOL     OW13543   6.480   5.619   4.457
 4215SOL    HW113544   6.450   5.615   4.362
 4215SOL    HW213545   6.560   5.560   4.470
 4216SOL     OW13546   1.978   1.689   2.952
 4216SOL    HW113547   2.014   1.706   3.043
 4216SOL    HW213548   2.038   1.624   2.904
 4217SOL     OW13549   6.379   0.101   2.387
 4217SOL    HW113550   6.460   0.110   2.445
 4217SOL    HW213551   6.330   0.188   2.383
 4218SOL     OW13552   4.705   0.075   1.238
 4218SOL    HW113553   4.664   0.154   1.192
 4218SOL    HW213554   4.761   0.024   1.173
 4219SOL     OW13555   2.784   5.399   4.555
 4219SOL    HW113556   2.703   5.347   4.580
 4219SOL    HW213557   2.866   5.346   4.579
 4220SOL     OW13558   6.181   2.701   3.057
 4220SOL    HW113559   6.215   2.788   3.093
 4220SOL    HW213560   6.195   2.629   3.124
 4221SOL     OW13561   6.217   5.567   6.517
 4221SOL    HW113562   6.118   5.564   6.504
 4221SOL    HW213563   6.263   5.585   6.430
 4222SOL     OW13564   6.041   2.253   2.660
 4222SOL    HW113565   6.085   2.192   2.594
 4222SOL    HW213566   6.060   2.348   2.635
 4223SOL     OW13567   2.874   3.720   4.139
 4223SOL    HW113568   2.844   3.803   4.186
 4223SOL    HW213569   2.917   3.658   4.205
 4224SOL     OW13570   4.790   2.983   3.548
 4224SOL    HW113571   4.803   2.909   3.614
 4224SOL    HW213572   4.819   2.951   3.457
 4225SOL     OW13573   4.980   0.267   5.412
 4225SOL    HW113574   5.042   0.345   5.400
 4225SOL    HW213575   4.975   0.243   5.509
 4226SOL     OW13576   1.004   0.681   3.194
 4226SOL    HW113577   1.019   0.585   3.171
 4226SOL    HW213578   0.923   0.688   3.252
 4227SOL     OW13579   3.334   4.823   6.996
 4227SOL    HW113580   3.272   4.862   6.928
 4227SOL    HW213581   3.287   4.816   0.061
 4228SOL     OW13582   6.941   4.051   3.033
 4228SOL    HW113583   6.966   4.148   3.019
 4228SOL    HW213584   6.842   4.042   3.035
 4229SOL     OW13585   4.691   4.750   5.465
 4229SOL    HW113586   4.609   4.787   5.422
 4229SOL    HW213587   4.673   4.657   5.497
 4230SOL     OW13588   2.520   0.878   4.734
 4230SOL    HW113589   2.449   0.936   4.694
 4230SOL    HW213590   2.484   0.785   4.748
 4231SOL     OW13591   5.639   6.698   4.824
 4231SOL    HW113592   5.718   6.638   4.818
 4231SOL    HW213593   5.597   6.689   4.914
 4232SOL     OW13594   0.366   4.828   2.120
 4232SOL    HW113595   0.412   4.756   2.068
 4232SOL    HW213596   0.268   4.806   2.128
 4233SOL     OW13597   6.884   0.058   6.890
 4233SOL    HW113598   6.842   7.001   6.847
 4233SOL    HW213599   6.818   0.133   6.894
 4234SOL     OW13600   1.158   0.655   5.760
 4234SOL    HW113601   1.143   0.703   5.674
 4234SOL    HW213602   1.087   0.585   5.771
 4235SOL     OW13603   6.580   3.497   5.541
 4235SOL    HW113604   6.491   3.533   5.570
 4235SOL    HW213605   6.637   3.480   5.622
 4236SOL     OW13606   0.277   3.217   3.242
 4236SOL    HW113607   0.272   3.296   3.303
 4236SOL    HW213608   0.221   3.234   3.161
 4237SOL     OW13609   6.095   4.737   4.025
 4237SOL    HW113610   6.022   4.706   3.964
 4237SOL    HW213611   6.179   4.753   3.972
 4238SOL     OW13612   4.529   5.110   3.860
 4238SOL    HW113613   4.480   5.177   3.915
 4238SOL    HW213614   4.465   5.061   3.801
 4239SOL     OW13615   5.901   0.748   3.723
 4239SOL    HW113616   5.964   0.825   3.724
 4239SOL    HW213617   5.911   0.697   3.637
 4240SOL     OW13618   1.981   6.743   6.659
 4240SOL    HW113619   2.050   6.679   6.627
 4240SOL    HW213620   1.936   6.787   6.581
 4241SOL     OW13621   4.864   0.713   0.684
 4241SOL    HW113622   4.827   0.780   0.748
 4241SOL    HW213623   4.867   0.623   0.728
 4242SOL     OW13624   1.630   0.533   2.864
 4242SOL    HW113625   1.700   0.481   2.815
 4242SOL    HW213626   1.607   0.487   2.949
 4243SOL     OW13627   0.946   3.668   3.431
 4243SOL    HW113628   0.920   3.571   3.428
 4243SOL    HW213629   1.023   3.680   3.495
 4244SOL     OW13630   4.634   5.216   1.095
 4244SOL    HW113631   4.576   5.294   1.074
 4244SOL    HW213632   4.700   5.203   1.021
 4245SOL     OW13633   0.143   1.520   6.916
 4245SOL    HW113634   0.162   1.608   6.871
 4245SOL    HW213635   0.178   1.445   6.860
 4246SOL     OW13636   5.873   2.998   3.515
 4246SOL    HW113637   5.912   2.939   3.444
 4246SOL    HW213638   5.783   2.965   3.540
 4247SOL     OW13639   2.304   5.061   4.237
 4247SOL    HW113640   2.325   5.159   4.241
 4247SOL    HW213641   2.221   5.043   4.290
 4248SOL     OW13642   1.286   1.122   3.021
 4248SOL    HW113643   1.210   1.061   3.002
 4248SOL    HW213644   1.255   1.195   3.082
 4249SOL     OW13645   6.537   1.302   3.289
 4249SOL    HW113646   6.602   1.319   3.364
 4249SOL    HW213647   6.445   1.293   3.326
 4250SOL     OW13648   0.090   5.848   3.682
 4250SOL    HW113649   0.173   5.891   3.718
 4250SOL    HW213650   0.010   5.883   3.731
 4251SOL     OW13651   6.646   2.836   0.203
 4251SOL    HW113652   6.569   2.892   0.173
 4251SOL    HW213653   6.703   2.889   0.267
 4252SOL     OW13654   5.628   6.067   6.264
 4252SOL    HW113655   5.727   6.064   6.251
 4252SOL    HW213656   5.597   6.162   6.269
 4253SOL     OW13657   3.836   5.920   2.109
 4253SOL    HW113658   3.791   5.839   2.072
 4253SOL    HW213659   3.839   5.915   2.208
 4254SOL     OW13660   2.035   4.390   2.070
 4254SOL    HW113661   2.127   4.377   2.106
 4254SOL    HW213662   2.022   4.485   2.044
 4255SOL     OW13663   0.424   3.957   4.154
 4255SOL    HW113664   0.377   3.881   4.109
 4255SOL    HW213665   0.497   3.991   4.095
 4256SOL     OW13666   1.377   5.996   1.953
 4256SOL    HW113667   1.471   5.986   1.985
 4256SOL    HW213668   1.315   5.955   2.020
 4257SOL     OW13669   5.617   0.955   4.377
 4257SOL    HW113670   5.621   0.923   4.282
 4257SOL    HW213671   5.656   1.047   4.382
 4258SOL     OW13672   3.018   5.960   1.244
 4258SOL    HW113673   2.956   6.023   1.196
 4258SOL    HW213674   3.111   5.996   1.239
 4259SOL     OW13675   1.696   6.155   1.101
 4259SOL    HW113676   1.733   6.099   1.176
 4259SOL    HW213677   1.643   6.231   1.140
 4260SOL     OW13678   5.690   6.955   3.892
 4260SOL    HW113679   5.592   6.941   3.885
 4260SOL    HW213680   5.728   6.973   3.802
 4261SOL     OW13681   1.555   0.782   2.962
 4261SOL    HW113682   1.602   0.701   2.927
 4261SOL    HW213683   1.621   0.857   2.972
 4262SOL     OW13684   1.419   4.286   5.768
 4262SOL    HW113685   1.407   4.385   5.764
 4262SOL    HW213686   1.469   4.261   5.851
 4263SOL     OW13687   2.627   1.257   3.362
 4263SOL    HW113688   2.706   1.253   3.300
 4263SOL    HW213689   2.545   1.229   3.312
 4264SOL     OW13690   5.939   1.807   3.906
 4264SOL    HW113691   5.974   1.861   3.982
 4264SOL    HW213692   5.886   1.730   3.941
 4265SOL     OW13693   3.773   0.658   0.599
 4265SOL    HW113694   3.855   0.638   0.654
 4265SOL    HW213695   3.767   0.757   0.585
 4266SOL     OW13696   1.341   6.612   0.399
 4266SOL    HW113697   1.280   6.691   0.397
 4266SOL    HW213698   1.329   6.559   0.315
 4267SOL     OW13699   1.747   3.565   3.741
 4267SOL    HW113700   1.845   3.579   3.727
 4267SOL    HW213701   1.716   3.486   3.688
 4268SOL     OW13702   2.120   5.422   6.897
 4268SOL    HW113703   2.040   5.399   6.841
 4268SOL    HW213704   2.200   5.373   6.864
 4269SOL     OW13705   2.969   1.212   3.811
 4269SOL    HW113706   3.055   1.261   3.827
 4269SOL    HW213707   2.901   1.240   3.878
 4270SOL     OW13708   3.443   2.817   2.008
 4270SOL    HW113709   3.498   2.797   1.927
 4270SOL    HW213710   3.414   2.731   2.050
 4271SOL     OW13711   6.946   0.519   6.956
 4271SOL    HW113712   6.998   0.586   7.009
 4271SOL    HW213713   6.887   0.566   6.891
 4272SOL     OW13714   6.834   3.017   5.328
 4272SOL    HW113715   6.923   2.984   5.360
 4272SOL    HW213716   6.814   3.105   5.371
 4273SOL     OW13717   4.936   5.973   5.165
 4273SOL    HW113718   4.854   5.950   5.217
 4273SOL    HW213719   5.000   6.021   5.223
 4274SOL     OW13720   0.843   0.168   2.118
 4274SOL    HW113721   0.811   0.082   2.157
 4274SOL    HW213722   0.913   0.207   2.176
 4275SOL     OW13723   0.531   2.069   4.178
 4275SOL    HW113724   0.517   2.062   4.276
 4275SOL    HW213725   0.629   2.071   4.158
 4276SOL     OW13726   2.960   5.394   3.837
 4276SOL    HW113727   2.937   5.303   3.869
 4276SOL    HW213728   2.937   5.403   3.740
 4277SOL     OW13729   0.140   4.128   2.717
 4277SOL    HW113730   0.150   4.206   2.780
 4277SOL    HW213731   0.049   4.088   2.729
 4278SOL     OW13732   0.716   6.644   3.553
 4278SOL    HW113733   0.769   6.696   3.486
 4278SOL    HW213734   0.645   6.702   3.593
 4279SOL     OW13735   1.184   1.343   2.214
 4279SOL    HW113736   1.252   1.399   2.260
 4279SOL    HW213737   1.126   1.298   2.282
 4280SOL     OW13738   6.108   6.834   5.886
 4280SOL    HW113739   6.106   6.903   5.814
 4280SOL    HW213740   6.145   6.874   5.969
 4281SOL     OW13741   5.318   4.983   3.766
 4281SOL    HW113742   5.220   4.978   3.782
 4281SOL    HW213743   5.359   4.893   3.780
 4282SOL     OW13744   2.962   4.734   0.950
 4282SOL    HW113745   3.025   4.807   0.924
 4282SOL    HW213746   2.893   4.770   1.013
 4283SOL     OW13747   4.496   1.182   3.573
 4283SOL    HW113748   4.479   1.280   3.582
 4283SOL    HW213749   4.567   1.155   3.638
 4284SOL     OW13750   4.763   5.547   0.229
 4284SOL    HW113751   4.772   5.574   0.325
 4284SOL    HW213752   4.781   5.448   0.221
 4285SOL     OW13753   2.843   0.865   6.134
 4285SOL    HW113754   2.784   0.802   6.083
 4285SOL    HW213755   2.820   0.959   6.109
 4286SOL     OW13756   5.885   6.997   6.409
 4286SOL    HW113757   5.858   0.060   6.366
 4286SOL    HW213758   5.883   6.924   6.340
 4287SOL     OW13759   4.726   1.246   6.042
 4287SOL    HW113760   4.638   1.210   6.010
 4287SOL    HW213761   4.796   1.176   6.029
 4288SOL     OW13762   0.436   6.092   3.087
 4288SOL    HW113763   0.450   6.081   2.988
 4288SOL    HW213764   0.449   6.188   3.111
 4289SOL     OW13765   1.563   2.502   6.281
 4289SOL    HW113766   1.534   2.523   6.374
 4289SOL    HW213767   1.650   2.549   6.262
 4290SOL     OW13768   0.462   6.802   4.969
 4290SOL    HW113769   0.493   6.763   5.056
 4290SOL    HW213770   0.446   6.729   4.903
 4291SOL     OW13771   4.994   3.923   6.117
 4291SOL    HW113772   5.027   3.938   6.211
 4291SOL    HW213773   4.966   4.010   6.077
 4292SOL     OW13774   6.260   3.257   6.777
 4292SOL    HW113775   6.193   3.323   6.744
 4292SOL    HW213776   6.286   3.196   6.701
 4293SOL     OW13777   3.544   4.278   6.875
 4293SOL    HW113778   3.519   4.274   6.778
 4293SOL    HW213779   3.612   4.350   6.889
 4294SOL     OW13780   2.110   1.734   6.092
 4294SOL    HW113781   2.191   1.692   6.051
 4294SOL    HW213782   2.113   1.833   6.078
 4295SOL     OW13783   4.645   6.548   3.039
 4295SOL    HW113784   4.550   6.579   3.030
 4295SOL    HW213785   4.679   6.570   3.131
 4296SOL     OW13786   3.635   6.686   0.474
 4296SOL    HW113787   3.685   6.625   0.535
 4296SOL    HW213788   3.674   6.778   0.479
 4297SOL     OW13789   6.756   6.597   2.773
 4297SOL    HW113790   6.735   6.539   2.851
 4297SOL    HW213791   6.680   6.661   2.758
 4298SOL     OW13792   3.457   6.354   2.029
 4298SOL    HW113793   3.511   6.310   2.101
 4298SOL    HW213794   3.488   6.321   1.939
 4299SOL     OW13795   1.059   3.081   0.223
 4299SOL    HW113796   1.103   3.040   0.143
 4299SOL    HW213797   1.094   3.037   0.306
 4300SOL     OW13798   2.840   6.954   0.407
 4300SOL    HW113799   2.777   6.953   0.485
 4300SOL    HW213800   2.933   6.931   0.439
 4301SOL     OW13801   3.972   0.230   1.873
 4301SOL    HW113802   3.911   0.304   1.902
 4301SOL    HW213803   3.938   0.189   1.789
 4302SOL     OW13804   6.482   0.166   6.829
 4302SOL    HW113805   6.487   0.152   6.730
 4302SOL    HW213806   6.427   0.094   6.871
 4303SOL     OW13807   0.114   4.687   3.554
 4303SOL    HW113808   0.165   4.645   3.479
 4303SOL    HW213809   0.157   4.773   3.580
 4304SOL     OW13810   3.745   4.003   1.850
 4304SOL    HW113811   3.732   4.018   1.948
 4304SOL    HW213812   3.667   3.953   1.814
 4305SOL     OW13813   0.611   6.772   5.623
 4305SOL    HW113814   0.704   6.739   5.640
 4305SOL    HW213815   0.614   6.862   5.579
 4306SOL     OW13816   5.062   4.896   4.504
 4306SOL    HW113817   5.155   4.864   4.520
 4306SOL    HW213818   5.016   4.834   4.439
 4307SOL     OW13819   5.552   3.558   5.319
 4307SOL    HW113820   5.623   3.607   5.268
 4307SOL    HW213821   5.467   3.611   5.316
 4308SOL     OW13822   5.576   5.074   1.416
 4308SOL    HW113823   5.533   5.017   1.346
 4308SOL    HW213824   5.605   5.016   1.492
 4309SOL     OW13825   1.374   2.776   0.442
 4309SOL    HW113826   1.431   2.768   0.524
 4309SOL    HW213827   1.342   2.685   0.416
 4310SOL     OW13828   1.575   2.890   2.007
 4310SOL    HW113829   1.514   2.897   1.929
 4310SOL    HW213830   1.651   2.955   1.996
 4311SOL     OW13831   1.220   6.499   2.140
 4311SOL    HW113832   1.159   6.452   2.076
 4311SOL    HW213833   1.296   6.439   2.165
 4312SOL     OW13834   1.545   5.820   3.017
 4312SOL    HW113835   1.639   5.814   3.049
 4312SOL    HW213836   1.488   5.756   3.069
 4313SOL     OW13837   3.815   2.264   0.379
 4313SOL    HW113838   3.792   2.280   0.283
 4313SOL    HW213839   3.871   2.340   0.413
 4314SOL     OW13840   5.978   2.220   5.145
 4314SOL    HW113841   5.946   2.150   5.081
 4314SOL    HW213842   6.073   2.244   5.124
 4315SOL     OW13843   1.812   1.119   3.232
 4315SOL    HW113844   1.841   1.059   3.307
 4315SOL    HW213845   1.851   1.210   3.245
 4316SOL     OW13846   5.151   0.232   2.621
 4316SOL    HW113847   5.061   0.209   2.660
 4316SOL    HW213848   5.216   0.160   2.643
 4317SOL     OW13849   4.635   1.261   5.497
 4317SOL    HW113850   4.614   1.294   5.405
 4317SOL    HW213851   4.733   1.245   5.505
 4318SOL     OW13852   0.885   1.145   4.441
 4318SOL    HW113853   0.817   1.113   4.374
 4318SOL    HW213854   0.946   1.070   4.465
 4319SOL     OW13855   2.159   1.805   1.276
 4319SOL    HW113856   2.150   1.875   1.346
 4319SOL    HW213857   2.142   1.845   1.186
 4320SOL     OW13858   3.823   6.124   1.330
 4320SOL    HW113859   3.902   6.144   1.272
 4320SOL    HW213860   3.790   6.209   1.372
 4321SOL     OW13861   0.020   5.049   3.475
 4321SOL    HW113862   7.000   5.002   3.398
 4321SOL    HW213863   0.106   5.003   3.498
 4322SOL     OW13864   6.580   2.881   6.127
 4322SOL    HW113865   6.619   2.938   6.055
 4322SOL    HW213866   6.541   2.940   6.198
 4323SOL     OW13867   4.226   5.301   0.002
 4323SOL    HW113868   4.269   5.363   0.068
 4323SOL    HW213869   4.261   5.209   0.016
 4324SOL     OW13870   6.708   4.227   5.368
 4324SOL    HW113871   6.723   4.147   5.310
 4324SOL    HW213872   6.719   4.201   5.464
 4325SOL     OW13873   2.841   1.741   2.354
 4325SOL    HW113874   2.817   1.833   2.384
 4325SOL    HW213875   2.880   1.745   2.262
 4326SOL     OW13876   5.556   3.716   2.017
 4326SOL    HW113877   5.466   3.759   2.009
 4326SOL    HW213878   5.586   3.687   1.926
 4327SOL     OW13879   4.296   5.984   3.091
 4327SOL    HW113880   4.206   5.942   3.084
 4327SOL    HW213881   4.314   6.039   3.009
 4328SOL     OW13882   6.028   4.404   4.883
 4328SOL    HW113883   5.990   4.385   4.792
 4328SOL    HW213884   6.124   4.377   4.886
 4329SOL     OW13885   6.221   3.301   5.566
 4329SOL    HW113886   6.153   3.237   5.602
 4329SOL    HW213887   6.288   3.251   5.511
 4330SOL     OW13888   1.965   6.739   4.038
 4330SOL    HW113889   1.941   6.796   3.960
 4330SOL    HW213890   1.927   6.779   4.122
 4331SOL     OW13891   0.135   0.468   1.319
 4331SOL    HW113892   0.069   0.393   1.313
 4331SOL    HW213893   0.124   0.529   1.241
 4332SOL     OW13894   6.516   3.281   3.201
 4332SOL    HW113895   6.584   3.246   3.137
 4332SOL    HW213896   6.540   3.254   3.294
 4333SOL     OW13897   4.333   2.013   4.858
 4333SOL    HW113898   4.344   2.014   4.758
 4333SOL    HW213899   4.284   2.095   4.887
 4334SOL     OW13900   1.530   2.626   2.364
 4334SOL    HW113901   1.493   2.706   2.317
 4334SOL    HW213902   1.508   2.630   2.461
 4335SOL     OW13903   3.844   2.936   1.516
 4335SOL    HW113904   3.930   2.985   1.525
 4335SOL    HW213905   3.783   2.960   1.591
 4336SOL     OW13906   2.396   4.967   5.510
 4336SOL    HW113907   2.446   4.908   5.446
 4336SOL    HW213908   2.328   4.912   5.559
 4337SOL     OW13909   1.779   5.141   1.530
 4337SOL    HW113910   1.836   5.196   1.591
 4337SOL    HW213911   1.792   5.044   1.552
 4338SOL     OW13912   5.914   0.278   6.399
 4338SOL    HW113913   5.900   0.266   6.497
 4338SOL    HW213914   5.896   0.373   6.374
 4339SOL     OW13915   3.211   2.603   6.524
 4339SOL    HW113916   3.301   2.647   6.517
 4339SOL    HW213917   3.169   2.600   6.434
 4340SOL     OW13918   5.417   3.020   1.265
 4340SOL    HW113919   5.441   3.112   1.234
 4340SOL    HW213920   5.450   2.952   1.200
 4341SOL     OW13921   1.314   5.270   2.110
 4341SOL    HW113922   1.384   5.312   2.168
 4341SOL    HW213923   1.241   5.336   2.094
 4342SOL     OW13924   5.282   3.600   3.052
 4342SOL    HW113925   5.307   3.549   2.969
 4342SOL    HW213926   5.183   3.617   3.052
 4343SOL     OW13927   2.822   6.112   5.505
 4343SOL    HW113928   2.752   6.174   5.541
 4343SOL    HW213929   2.911   6.134   5.544
 4344SOL     OW13930   1.000   3.043   3.285
 4344SOL    HW113931   1.074   3.040   3.352
 4344SOL    HW213932   1.017   2.976   3.213
 4345SOL     OW13933   3.064   3.460   3.595
 4345SOL    HW113934   3.150   3.509   3.597
 4345SOL    HW213935   3.057   3.399   3.674
 4346SOL     OW13936   2.403   2.595   2.365
 4346SOL    HW113937   2.453   2.531   2.307
 4346SOL    HW213938   2.334   2.643   2.311
 4347SOL     OW13939   6.259   6.122   2.552
 4347SOL    HW113940   6.261   6.178   2.635
 4347SOL    HW213941   6.349   6.124   2.509
 4348SOL     OW13942   0.683   5.801   4.625
 4348SOL    HW113943   0.619   5.877   4.638
 4348SOL    HW213944   0.708   5.794   4.529
 4349SOL     OW13945   0.006   3.269   4.123
 4349SOL    HW113946   6.991   3.253   4.213
 4349SOL    HW213947   6.986   3.208   4.057
 4350SOL     OW13948   5.075   2.156   4.085
 4350SOL    HW113949   5.060   2.220   4.160
 4350SOL    HW213950   5.173   2.134   4.078
 4351SOL     OW13951   1.142   6.006   1.237
 4351SOL    HW113952   1.166   5.963   1.323
 4351SOL    HW213953   1.225   6.044   1.194
 4352SOL     OW13954   6.256   3.945   2.059
 4352SOL    HW113955   6.283   4.035   2.025
 4352SOL    HW213956   6.158   3.931   2.045
 4353SOL     OW13957   3.018   3.878   0.112
 4353SOL    HW113958   2.956   3.889   0.034
 4353SOL    HW213959   3.093   3.943   0.104
 4354SOL     OW13960   0.425   1.658   5.973
 4354SOL    HW113961   0.388   1.665   6.066
 4354SOL    HW213962   0.379   1.724   5.914
 4355SOL     OW13963   1.574   0.086   3.011
 4355SOL    HW113964   1.544   0.024   2.939
 4355SOL    HW213965   1.568   0.040   3.099
 4356SOL     OW13966   4.401   3.342   5.367
 4356SOL    HW113967   4.342   3.397   5.427
 4356SOL    HW213968   4.496   3.371   5.379
 4357SOL     OW13969   0.076   1.384   1.301
 4357SOL    HW113970   7.014   1.338   1.275
 4357SOL    HW213971   0.108   1.349   1.388
 4358SOL     OW13972   0.178   0.000   0.273
 4358SOL    HW113973   0.183   6.964   0.354
 4358SOL    HW213974   0.103   6.993   0.214
 4359SOL     OW13975   1.740   0.919   6.494
 4359SOL    HW113976   1.677   0.848   6.462
 4359SOL    HW213977   1.834   0.886   6.485
 4360SOL     OW13978   0.937   2.510   3.968
 4360SOL    HW113979   0.926   2.602   4.006
 4360SOL    HW213980   0.856   2.456   3.990
 4361SOL     OW13981   2.328   3.234   1.229
 4361SOL    HW113982   2.326   3.135   1.241
 4361SOL    HW213983   2.245   3.274   1.268
 4362SOL     OW13984   0.402   6.116   4.194
 4362SOL    HW113985   0.470   6.158   4.254
 4362SOL    HW213986   0.448   6.069   4.119
 4363SOL     OW13987   4.441   1.189   1.756
 4363SOL    HW113988   4.436   1.255   1.831
 4363SOL    HW213989   4.348   1.161   1.731
 4364SOL     OW13990   3.173   3.816   2.742
 4364SOL    HW113991   3.094   3.836   2.799
 4364SOL    HW213992   3.235   3.754   2.791
 4365SOL     OW13993   2.989   1.368   1.820
 4365SOL    HW113994   3.007   1.318   1.735
 4365SOL    HW213995   3.007   1.308   1.898
 4366SOL     OW13996   6.016   6.313   6.604
 4366SOL    HW113997   5.987   6.284   6.513
 4366SOL    HW213998   5.951   6.279   6.672
 4367SOL     OW13999   2.945   5.192   3.587
 4367SOL    HW114000   3.015   5.126   3.616
 4367SOL    HW214001   2.989   5.277   3.559
 4368SOL     OW14002   3.715   5.396   2.619
 4368SOL    HW114003   3.797   5.352   2.582
 4368SOL    HW214004   3.740   5.481   2.665
 4369SOL     OW14005   5.009   5.897   3.446
 4369SOL    HW114006   5.013   5.821   3.511
 4369SOL    HW214007   4.966   5.865   3.361
 4370SOL     OW14008   3.495   3.954   1.509
 4370SOL    HW114009   3.427   3.903   1.457
 4370SOL    HW214010   3.496   3.923   1.604
 4371SOL     OW14011   2.140   1.511   2.819
 4371SOL    HW114012   2.217   1.447   2.808
 4371SOL    HW214013   2.159   1.594   2.768
 4372SOL     OW14014   2.130   3.306   3.835
 4372SOL    HW114015   2.170   3.239   3.898
 4372SOL    HW214016   2.075   3.372   3.886
 4373SOL     OW14017   4.094   1.427   6.259
 4373SOL    HW114018   4.100   1.386   6.168
 4373SOL    HW214019   4.149   1.373   6.323
 4374SOL     OW14020   1.906   1.660   1.271
 4374SOL    HW114021   1.986   1.718   1.255
 4374SOL    HW214022   1.870   1.677   1.363
 4375SOL     OW14023   3.878   6.329   2.816
 4375SOL    HW114024   3.901   6.385   2.895
 4375SOL    HW214025   3.824   6.382   2.751
 4376SOL     OW14026   6.558   0.045   1.740
 4376SOL    HW114027   6.573   0.112   1.667
 4376SOL    HW214028   6.633   0.052   1.807
 4377SOL     OW14029   6.221   5.184   0.352
 4377SOL    HW114030   6.241   5.254   0.284
 4377SOL    HW214031   6.260   5.097   0.322
 4378SOL     OW14032   1.153   4.494   2.869
 4378SOL    HW114033   1.149   4.569   2.935
 4378SOL    HW214034   1.156   4.531   2.776
 4379SOL     OW14035   2.377   0.842   2.023
 4379SOL    HW114036   2.388   0.941   2.017
 4379SOL    HW214037   2.293   0.814   1.976
 4380SOL     OW14038   1.831   5.865   4.788
 4380SOL    HW114039   1.759   5.933   4.803
 4380SOL    HW214040   1.792   5.783   4.746
 4381SOL     OW14041   2.218   4.386   4.867
 4381SOL    HW114042   2.280   4.344   4.801
 4381SOL    HW214043   2.226   4.339   4.955
 4382SOL     OW14044   6.440   4.162   5.838
 4382SOL    HW114045   6.414   4.142   5.744
 4382SOL    HW214046   6.365   4.139   5.899
 4383SOL     OW14047   0.419   2.029   5.344
 4383SOL    HW114048   0.480   2.056   5.269
 4383SOL    HW214049   0.331   2.001   5.307
 4384SOL     OW14050   5.188   1.381   0.192
 4384SOL    HW114051   5.169   1.285   0.209
 4384SOL    HW214052   5.285   1.400   0.208
 4385SOL     OW14053   0.161   2.807   4.098
 4385SOL    HW114054   0.252   2.779   4.127
 4385SOL    HW214055   0.142   2.770   4.007
 4386SOL     OW14056   1.343   3.451   6.513
 4386SOL    HW114057   1.348   3.371   6.453
 4386SOL    HW214058   1.333   3.534   6.458
 4387SOL     OW14059   0.756   2.457   1.868
 4387SOL    HW114060   0.695   2.437   1.791
 4387SOL    HW214061   0.849   2.470   1.835
 4388SOL     OW14062   4.334   1.599   6.583
 4388SOL    HW114063   4.257   1.645   6.629
 4388SOL    HW214064   4.365   1.522   6.638
 4389SOL     OW14065   5.572   2.121   0.418
 4389SOL    HW114066   5.650   2.128   0.480
 4389SOL    HW214067   5.605   2.102   0.325
 4390SOL     OW14068   3.895   2.130   2.297
 4390SOL    HW114069   3.855   2.177   2.218
 4390SOL    HW214070   3.995   2.126   2.287
 4391SOL     OW14071   1.451   5.761   6.115
 4391SOL    HW114072   1.430   5.763   6.212
 4391SOL    HW214073   1.521   5.692   6.097
 4392SOL     OW14074   5.960   4.074   5.127
 4392SOL    HW114075   6.036   4.057   5.189
 4392SOL    HW214076   5.995   4.094   5.035
 4393SOL     OW14077   4.922   6.359   2.804
 4393SOL    HW114078   5.003   6.300   2.804
 4393SOL    HW214079   4.914   6.403   2.893
 4394SOL     OW14080   6.374   5.201   3.318
 4394SOL    HW114081   6.323   5.250   3.389
 4394SOL    HW214082   6.407   5.266   3.250
 4395SOL     OW14083   4.307   2.111   1.746
 4395SOL    HW114084   4.232   2.045   1.754
 4395SOL    HW214085   4.393   2.062   1.730
 4396SOL     OW14086   2.516   1.724   3.962
 4396SOL    HW114087   2.505   1.798   4.028
 4396SOL    HW214088   2.596   1.741   3.905
 4397SOL     OW14089   0.400   1.701   4.401
 4397SOL    HW114090   0.414   1.725   4.497
 4397SOL    HW214091   0.341   1.770   4.358
 4398SOL     OW14092   1.009   4.312   5.108
 4398SOL    HW114093   0.916   4.350   5.109
 4398SOL    HW214094   1.003   4.212   5.098
 4399SOL     OW14095   2.035   0.825   1.542
 4399SOL    HW114096   2.045   0.726   1.535
 4399SOL    HW214097   1.938   0.847   1.558
 4400SOL     OW14098   2.006   7.012   4.725
 4400SOL    HW114099   2.053   0.041   4.653
 4400SOL    HW214100   2.062   6.933   4.750
 4401SOL     OW14101   5.382   5.974   6.139
 4401SOL    HW114102   5.426   6.000   6.224
 4401SOL    HW214103   5.317   6.045   6.111
 4402SOL     OW14104   2.131   6.264   2.604
 4402SOL    HW114105   2.205   6.199   2.617
 4402SOL    HW214106   2.054   6.240   2.663
 4403SOL     OW14107   0.051   6.610   3.465
 4403SOL    HW114108   0.073   6.659   3.549
 4403SOL    HW214109   0.036   6.675   3.391
 4404SOL     OW14110   1.422   3.539   5.461
 4404SOL    HW114111   1.467   3.620   5.498
 4404SOL    HW214112   1.328   3.561   5.436
 4405SOL     OW14113   3.144   4.433   0.286
 4405SOL    HW114114   3.104   4.507   0.340
 4405SOL    HW214115   3.108   4.437   0.193
 4406SOL     OW14116   5.471   4.447   1.402
 4406SOL    HW114117   5.492   4.374   1.337
 4406SOL    HW214118   5.376   4.476   1.392
 4407SOL     OW14119   7.002   4.701   0.821
 4407SOL    HW114120   7.001   4.793   0.859
 4407SOL    HW214121   0.074   4.671   0.810
 4408SOL     OW14122   5.085   0.786   0.557
 4408SOL    HW114123   5.111   0.881   0.572
 4408SOL    HW214124   4.997   0.768   0.601
 4409SOL     OW14125   4.045   0.678   1.990
 4409SOL    HW114126   4.144   0.666   1.977
 4409SOL    HW214127   3.996   0.637   1.913
 4410SOL     OW14128   2.094   4.689   0.016
 4410SOL    HW114129   2.102   4.596   0.052
 4410SOL    HW214130   2.055   4.685   6.947
 4411SOL     OW14131   4.160   3.631   3.435
 4411SOL    HW114132   4.168   3.547   3.489
 4411SOL    HW214133   4.141   3.708   3.496
 4412SOL     OW14134   3.385   1.780   4.437
 4412SOL    HW114135   3.474   1.746   4.467
 4412SOL    HW214136   3.391   1.877   4.416
 4413SOL     OW14137   5.077   5.893   4.960
 4413SOL    HW114138   5.133   5.815   4.988
 4413SOL    HW214139   5.011   5.915   5.031
 4414SOL     OW14140   4.434   4.978   2.018
 4414SOL    HW114141   4.408   4.955   2.111
 4414SOL    HW214142   4.451   5.077   2.011
 4415SOL     OW14143   4.173   3.606   6.802
 4415SOL    HW114144   4.079   3.630   6.781
 4415SOL    HW214145   4.186   3.508   6.793
 4416SOL     OW14146   2.747   0.787   4.441
 4416SOL    HW114147   2.723   0.822   4.532
 4416SOL    HW214148   2.763   0.864   4.379
 4417SOL     OW14149   6.926   4.381   2.538
 4417SOL    HW114150   6.959   4.436   2.615
 4417SOL    HW214151   6.847   4.427   2.496
 4418SOL     OW14152   5.059   0.223   4.176
 4418SOL    HW114153   5.088   0.193   4.085
 4418SOL    HW214154   5.137   0.216   4.239
 4419SOL     OW14155   5.579   5.928   0.564
 4419SOL    HW114156   5.576   5.881   0.476
 4419SOL    HW214157   5.541   6.020   0.555
 4420SOL     OW14158   4.896   2.288   0.520
 4420SOL    HW114159   4.941   2.330   0.599
 4420SOL    HW214160   4.872   2.193   0.543
 4421SOL     OW14161   1.655   0.749   3.341
 4421SOL    HW114162   1.708   0.701   3.271
 4421SOL    HW214163   1.571   0.785   3.301
 4422SOL     OW14164   2.440   3.792   5.627
 4422SOL    HW114165   2.428   3.881   5.671
 4422SOL    HW214166   2.526   3.752   5.656
 4423SOL     OW14167   1.386   2.909   5.923
 4423SOL    HW114168   1.441   2.989   5.948
 4423SOL    HW214169   1.376   2.905   5.824
 4424SOL     OW14170   5.739   6.777   3.471
 4424SOL    HW114171   5.720   6.695   3.525
 4424SOL    HW214172   5.691   6.770   3.384
 4425SOL     OW14173   3.551   5.781   6.050
 4425SOL    HW114174   3.507   5.714   5.990
 4425SOL    HW214175   3.507   5.780   6.140
 4426SOL     OW14176   6.711   1.753   4.517
 4426SOL    HW114177   6.771   1.691   4.567
 4426SOL    HW214178   6.764   1.830   4.481
 4427SOL     OW14179   0.014   6.668   2.820
 4427SOL    HW114180   0.023   6.759   2.779
 4427SOL    HW214181   6.956   6.622   2.783
 4428SOL     OW14182   2.947   5.611   2.968
 4428SOL    HW114183   2.992   5.522   2.967
 4428SOL    HW214184   2.942   5.647   2.875
 4429SOL     OW14185   2.957   0.315   3.931
 4429SOL    HW114186   2.874   0.272   3.966
 4429SOL    HW214187   2.942   0.344   3.837
 4430SOL     OW14188   5.196   3.336   3.999
 4430SOL    HW114189   5.228   3.419   4.045
 4430SOL    HW214190   5.236   3.332   3.907
 4431SOL     OW14191   1.500   1.527   2.064
 4431SOL    HW114192   1.595   1.512   2.092
 4431SOL    HW214193   1.440   1.522   2.144
 4432SOL     OW14194   3.476   4.078   3.337
 4432SOL    HW114195   3.478   4.117   3.246
 4432SOL    HW214196   3.380   4.066   3.366
 4433SOL     OW14197   6.241   0.505   4.832
 4433SOL    HW114198   6.311   0.499   4.902
 4433SOL    HW214199   6.156   0.464   4.866
 4434SOL     OW14200   4.667   1.852   3.846
 4434SOL    HW114201   4.730   1.930   3.838
 4434SOL    HW214202   4.685   1.803   3.931
 4435SOL     OW14203   4.380   3.722   0.985
 4435SOL    HW114204   4.288   3.684   0.983
 4435SOL    HW214205   4.444   3.652   1.016
 4436SOL     OW14206   3.267   2.359   0.776
 4436SOL    HW114207   3.323   2.286   0.737
 4436SOL    HW214208   3.250   2.340   0.873
 4437SOL     OW14209   5.369   1.936   3.477
 4437SOL    HW114210   5.357   1.842   3.509
 4437SOL    HW214211   5.314   1.998   3.533
 4438SOL     OW14212   4.092   1.757   6.636
 4438SOL    HW114213   4.007   1.722   6.599
 4438SOL    HW214214   4.073   1.831   6.700
 4439SOL     OW14215   0.154   5.950   1.391
 4439SOL    HW114216   0.131   5.863   1.435
 4439SOL    HW214217   0.251   5.969   1.404
 4440SOL     OW14218   1.734   4.800   6.968
 4440SOL    HW114219   1.792   4.806   6.887
 4440SOL    HW214220   1.789   4.810   0.028
 4441SOL     OW14221   6.850   1.373   2.023
 4441SOL    HW114222   6.855   1.373   1.923
 4441SOL    HW214223   6.775   1.432   2.053
 4442SOL     OW14224   3.505   6.535   3.816
 4442SOL    HW114225   3.529   6.463   3.881
 4442SOL    HW214226   3.535   6.509   3.724
 4443SOL     OW14227   0.080   2.791   0.518
 4443SOL    HW114228   0.035   2.736   0.448
 4443SOL    HW214229   0.179   2.775   0.515
 4444SOL     OW14230   3.845   6.282   6.610
 4444SOL    HW114231   3.869   6.365   6.660
 4444SOL    HW214232   3.830   6.207   6.675
 4445SOL     OW14233   6.988   0.301   0.785
 4445SOL    HW114234   6.995   0.333   0.690
 4445SOL    HW214235   0.016   0.364   0.844
 4446SOL     OW14236   5.450   1.330   1.805
 4446SOL    HW114237   5.389   1.280   1.867
 4446SOL    HW214238   5.428   1.305   1.711
 4447SOL     OW14239   5.668   3.593   5.970
 4447SOL    HW114240   5.679   3.647   6.054
 4447SOL    HW214241   5.614   3.645   5.904
 4448SOL     OW14242   3.089   4.293   0.955
 4448SOL    HW114243   3.077   4.198   0.925
 4448SOL    HW214244   3.071   4.299   1.053
 4449SOL     OW14245   4.562   0.560   5.924
 4449SOL    HW114246   4.482   0.500   5.916
 4449SOL    HW214247   4.541   0.637   5.985
 4450SOL     OW14248   3.895   3.018   4.362
 4450SOL    HW114249   3.892   2.984   4.456
 4450SOL    HW214250   3.847   3.105   4.357
 4451SOL     OW14251   5.878   3.914   2.877
 4451SOL    HW114252   5.892   3.846   2.949
 4451SOL    HW214253   5.783   3.944   2.878
 4452SOL     OW14254   5.889   6.703   4.994
 4452SOL    HW114255   5.928   6.642   5.062
 4452SOL    HW214256   5.891   6.797   5.028
 4453SOL     OW14257   6.468   2.596   0.642
 4453SOL    HW114258   6.460   2.497   0.627
 4453SOL    HW214259   6.405   2.644   0.581
 4454SOL     OW14260   5.125   2.561   0.284
 4454SOL    HW114261   5.165   2.489   0.228
 4454SOL    HW214262   5.122   2.532   0.379
 4455SOL     OW14263   3.341   0.388   6.484
 4455SOL    HW114264   3.413   0.409   6.550
 4455SOL    HW214265   3.329   0.466   6.422
 4456SOL     OW14266   2.411   5.127   2.503
 4456SOL    HW114267   2.385   5.031   2.495
 4456SOL    HW214268   2.511   5.135   2.509
 4457SOL     OW14269   4.012   2.426   0.200
 4457SOL    HW114270   3.944   2.406   0.130
 4457SOL    HW214271   4.077   2.495   0.166
 4458SOL     OW14272   1.378   3.836   6.764
 4458SOL    HW114273   1.309   3.766   6.782
 4458SOL    HW214274   1.455   3.824   6.826
 4459SOL     OW14275   5.674   0.298   3.491
 4459SOL    HW114276   5.669   0.276   3.394
 4459SOL    HW214277   5.757   0.352   3.508
 4460SOL     OW14278   2.597   3.099   5.686
 4460SOL    HW114279   2.532   3.029   5.714
 4460SOL    HW214280   2.548   3.175   5.642
 4461SOL     OW14281   0.730   0.769   2.693
 4461SOL    HW114282   0.715   0.743   2.597
 4461SOL    HW214283   0.649   0.746   2.747
 4462SOL     OW14284   0.087   3.540   1.619
 4462SOL    HW114285   0.164   3.483   1.649
 4462SOL    HW214286   0.116   3.595   1.541
 4463SOL     OW14287   2.991   2.514   0.003
 4463SOL    HW114288   2.961   2.590   6.968
 4463SOL    HW214289   2.990   2.429   6.973
 4464SOL     OW14290   5.964   4.874   6.731
 4464SOL    HW114291   5.977   4.857   6.633
 4464SOL    HW214292   5.886   4.934   6.744
 4465SOL     OW14293   2.338   6.279   3.398
 4465SOL    HW114294   2.331   6.246   3.493
 4465SOL    HW214295   2.411   6.228   3.351
 4466SOL     OW14296   1.282   0.425   1.906
 4466SOL    HW114297   1.374   0.416   1.944
 4466SOL    HW214298   1.282   0.494   1.834
 4467SOL     OW14299   1.197   6.425   3.634
 4467SOL    HW114300   1.173   6.448   3.728
 4467SOL    HW214301   1.114   6.414   3.579
 4468SOL     OW14302   1.087   2.265   0.077
 4468SOL    HW114303   1.016   2.211   0.032
 4468SOL    HW214304   1.130   2.325   0.010
 4469SOL     OW14305   3.403   0.404   1.244
 4469SOL    HW114306   3.434   0.459   1.167
 4469SOL    HW214307   3.473   0.336   1.268
 4470SOL     OW14308   5.973   3.733   1.818
 4470SOL    HW114309   5.969   3.673   1.738
 4470SOL    HW214310   5.962   3.828   1.790
 4471SOL     OW14311   0.396   2.280   0.427
 4471SOL    HW114312   0.489   2.289   0.461
 4471SOL    HW214313   0.341   2.231   0.494
 4472SOL     OW14314   1.636   3.052   3.914
 4472SOL    HW114315   1.631   3.079   3.818
 4472SOL    HW214316   1.718   3.093   3.955
 4473SOL     OW14317   6.650   2.218   3.802
 4473SOL    HW114318   6.554   2.201   3.779
 4473SOL    HW214319   6.706   2.141   3.770
 4474SOL     OW14320   2.732   1.097   1.638
 4474SOL    HW114321   2.800   1.161   1.675
 4474SOL    HW214322   2.709   1.123   1.544
 4475SOL     OW14323   1.562   3.896   2.589
 4475SOL    HW114324   1.639   3.923   2.531
 4475SOL    HW214325   1.491   3.966   2.585
 4476SOL     OW14326   5.202   6.544   3.665
 4476SOL    HW114327   5.173   6.461   3.617
 4476SOL    HW214328   5.122   6.588   3.706
 4477SOL     OW14329   1.769   6.874   5.723
 4477SOL    HW114330   1.803   6.932   5.649
 4477SOL    HW214331   1.765   6.779   5.691
 4478SOL     OW14332   2.821   5.898   2.589
 4478SOL    HW114333   2.860   5.916   2.499
 4478SOL    HW214334   2.721   5.904   2.584
 4479SOL     OW14335   0.674   0.432   0.987
 4479SOL    HW114336   0.586   0.419   1.033
 4479SOL    HW214337   0.728   0.349   0.994
 4480SOL     OW14338   1.606   3.632   5.134
 4480SOL    HW114339   1.595   3.714   5.190
 4480SOL    HW214340   1.692   3.586   5.158
 4481SOL     OW14341   2.424   6.790   5.120
 4481SOL    HW114342   2.405   6.706   5.069
 4481SOL    HW214343   2.502   6.837   5.079
 4482SOL     OW14344   0.635   4.062   4.038
 4482SOL    HW114345   0.713   4.063   4.100
 4482SOL    HW214346   0.666   4.078   3.944
 4483SOL     OW14347   5.740   3.391   1.256
 4483SOL    HW114348   5.669   3.402   1.185
 4483SOL    HW214349   5.767   3.481   1.289
 4484SOL     OW14350   3.073   2.231   5.364
 4484SOL    HW114351   2.977   2.226   5.337
 4484SOL    HW214352   3.124   2.285   5.297
 4485SOL     OW14353   5.000   2.222   6.250
 4485SOL    HW114354   5.029   2.127   6.265
 4485SOL    HW214355   4.906   2.223   6.216
 4486SOL     OW14356   5.617   3.783   4.207
 4486SOL    HW114357   5.566   3.735   4.135
 4486SOL    HW214358   5.557   3.799   4.285
 4487SOL     OW14359   2.550   3.206   6.588
 4487SOL    HW114360   2.635   3.238   6.548
 4487SOL    HW214361   2.486   3.181   6.516
 4488SOL     OW14362   5.901   2.852   5.386
 4488SOL    HW114363   5.830   2.901   5.437
 4488SOL    HW214364   5.890   2.871   5.288
 4489SOL     OW14365   5.238   6.450   4.367
 4489SOL    HW114366   5.251   6.408   4.457
 4489SOL    HW214367   5.191   6.538   4.379
 4490SOL     OW14368   5.820   2.230   1.944
 4490SOL    HW114369   5.814   2.329   1.941
 4490SOL    HW214370   5.744   2.192   1.998
 4491SOL     OW14371   0.576   3.057   3.839
 4491SOL    HW114372   0.537   3.109   3.915
 4491SOL    HW214373   0.516   2.981   3.816
 4492SOL     OW14374   5.345   3.550   1.007
 4492SOL    HW114375   5.315   3.472   0.952
 4492SOL    HW214376   5.287   3.558   1.088
 4493SOL     OW14377   4.647   5.742   5.719
 4493SOL    HW114378   4.599   5.830   5.722
 4493SOL    HW214379   4.610   5.687   5.644
 4494SOL     OW14380   0.210   1.901   6.144
 4494SOL    HW114381   0.169   1.853   6.222
 4494SOL    HW214382   0.307   1.915   6.161
 4495SOL     OW14383   4.952   6.323   3.774
 4495SOL    HW114384   4.965   6.252   3.844
 4495SOL    HW214385   4.956   6.413   3.818
 4496SOL     OW14386   4.642   5.768   0.767
 4496SOL    HW114387   4.667   5.675   0.795
 4496SOL    HW214388   4.624   5.823   0.848
 4497SOL     OW14389   4.723   0.152   0.104
 4497SOL    HW114390   4.697   0.063   0.066
 4497SOL    HW214391   4.800   0.141   0.167
 4498SOL     OW14392   0.391   2.882   6.284
 4498SOL    HW114393   0.429   2.847   6.370
 4498SOL    HW214394   0.445   2.848   6.207
 4499SOL     OW14395   0.047   3.674   3.802
 4499SOL    HW114396   6.990   3.638   3.755
 4499SOL    HW214397   0.128   3.619   3.780
 4500SOL     OW14398   2.910   3.385   3.972
 4500SOL    HW114399   2.906   3.481   3.943
 4500SOL    HW214400   2.912   3.380   4.071
 4501SOL     OW14401   0.485   3.420   6.078
 4501SOL    HW114402   0.484   3.350   6.150
 4501SOL    HW214403   0.438   3.385   5.997
 4502SOL     OW14404   1.747   1.987   6.837
 4502SOL    HW114405   1.732   2.086   6.839
 4502SOL    HW214406   1.747   1.952   6.931
 4503SOL     OW14407   2.944   0.521   2.827
 4503SOL    HW114408   2.955   0.617   2.851
 4503SOL    HW214409   2.875   0.512   2.755
 4504SOL     OW14410   6.329   1.887   4.969
 4504SOL    HW114411   6.264   1.915   4.898
 4504SOL    HW214412   6.333   1.787   4.972
 4505SOL     OW14413   6.692   5.779   3.546
 4505SOL    HW114414   6.597   5.803   3.564
 4505SOL    HW214415   6.732   5.737   3.628
 4506SOL     OW14416   4.818   2.473   4.405
 4506SOL    HW114417   4.887   2.508   4.469
 4506SOL    HW214418   4.807   2.538   4.330
 4507SOL     OW14419   5.232   4.425   2.016
 4507SOL    HW114420   5.177   4.497   2.059
 4507SOL    HW214421   5.302   4.393   2.081
 4508SOL     OW14422   0.833   5.036   5.819
 4508SOL    HW114423   0.851   5.001   5.727
 4508SOL    HW214424   0.772   5.115   5.813
 4509SOL     OW14425   5.555   2.954   3.766
 4509SOL    HW114426   5.567   2.904   3.681
 4509SOL    HW214427   5.570   3.052   3.751
 4510SOL     OW14428   5.518   6.804   5.776
 4510SOL    HW114429   5.604   6.846   5.805
 4510SOL    HW214430   5.451   6.809   5.850
 4511SOL     OW14431   6.890   3.576   6.411
 4511SOL    HW114432   6.902   3.511   6.487
 4511SOL    HW214433   6.971   3.573   6.352
 4512SOL     OW14434   2.188   6.513   5.849
 4512SOL    HW114435   2.140   6.492   5.934
 4512SOL    HW214436   2.280   6.546   5.870
 4513SOL     OW14437   5.095   6.355   0.370
 4513SOL    HW114438   5.099   6.388   0.276
 4513SOL    HW214439   5.000   6.357   0.402
 4514SOL     OW14440   4.785   1.163   5.051
 4514SOL    HW114441   4.870   1.193   5.008
 4514SOL    HW214442   4.760   1.226   5.125
 4515SOL     OW14443   6.942   4.070   5.597
 4515SOL    HW114444   6.848   4.079   5.628
 4515SOL    HW214445   7.001   4.049   5.675
 4516SOL     OW14446   1.536   0.998   6.129
 4516SOL    HW114447   1.547   1.020   6.226
 4516SOL    HW214448   1.543   1.082   6.075
 4517SOL     OW14449   2.191   0.339   0.024
 4517SOL    HW114450   2.093   0.334   0.005
 4517SOL    HW214451   2.227   0.248   0.044
 4518SOL     OW14452   6.692   1.692   3.428
 4518SOL    HW114453   6.605   1.668   3.470
 4518SOL    HW214454   6.765   1.636   3.468
 4519SOL     OW14455   5.631   0.541   1.436
 4519SOL    HW114456   5.576   0.617   1.401
 4519SOL    HW214457   5.578   0.490   1.504
 4520SOL     OW14458   5.388   5.698   3.352
 4520SOL    HW114459   5.346   5.779   3.311
 4520SOL    HW214460   5.317   5.631   3.373
 4521SOL     OW14461   5.181   2.073   4.351
 4521SOL    HW114462   5.159   2.163   4.313
 4521SOL    HW214463   5.259   2.082   4.413
 4522SOL     OW14464   5.496   0.066   3.498
 4522SOL    HW114465   5.563   0.137   3.523
 4522SOL    HW214466   5.533   0.012   3.422
 4523SOL     OW14467   1.232   4.207   0.201
 4523SOL    HW114468   1.215   4.189   0.104
 4523SOL    HW214469   1.311   4.267   0.210
 4524SOL     OW14470   5.152   2.380   4.919
 4524SOL    HW114471   5.161   2.309   4.988
 4524SOL    HW214472   5.126   2.340   4.832
 4525SOL     OW14473   6.256   1.436   3.425
 4525SOL    HW114474   6.261   1.348   3.473
 4525SOL    HW214475   6.253   1.420   3.327
 4526SOL     OW14476   4.711   0.869   0.875
 4526SOL    HW114477   4.647   0.945   0.881
 4526SOL    HW214478   4.687   0.800   0.943
 4527SOL     OW14479   4.391   1.310   3.937
 4527SOL    HW114480   4.489   1.310   3.917
 4527SOL    HW214481   4.365   1.221   3.976
 4528SOL     OW14482   4.601   6.559   0.009
 4528SOL    HW114483   4.608   6.488   0.079
 4528SOL    HW214484   4.651   6.640   0.040
 4529SOL     OW14485   3.452   1.286   4.150
 4529SOL    HW114486   3.403   1.371   4.168
 4529SOL    HW214487   3.548   1.296   4.176
 4530SOL     OW14488   0.381   3.075   5.662
 4530SOL    HW114489   0.421   3.006   5.723
 4530SOL    HW214490   0.422   3.066   5.571
 4531SOL     OW14491   0.433   3.329   3.713
 4531SOL    HW114492   0.417   3.354   3.617
 4531SOL    HW214493   0.525   3.290   3.722
 4532SOL     OW14494   0.236   0.980   2.417
 4532SOL    HW114495   0.143   0.945   2.428
 4532SOL    HW214496   0.242   1.072   2.456
 4533SOL     OW14497   1.182   0.399   2.515
 4533SOL    HW114498   1.280   0.405   2.535
 4533SOL    HW214499   1.159   0.462   2.441
 4534SOL     OW14500   6.249   3.766   4.328
 4534SOL    HW114501   6.310   3.800   4.257
 4534SOL    HW214502   6.197   3.688   4.293
 4535SOL     OW14503   4.637   1.952   2.848
 4535SOL    HW114504   4.696   1.947   2.767
 4535SOL    HW214505   4.691   1.929   2.930
 4536SOL     OW14506   4.976   2.607   4.070
 4536SOL    HW114507   4.884   2.591   4.105
 4536SOL    HW214508   5.012   2.522   4.031
 4537SOL     OW14509   3.916   3.162   6.067
 4537SOL    HW114510   3.912   3.172   5.968
 4537SOL    HW214511   3.878   3.243   6.111
 4538SOL     OW14512   2.650   1.214   4.230
 4538SOL    HW114513   2.709   1.134   4.244
 4538SOL    HW214514   2.706   1.297   4.231
 4539SOL     OW14515   2.451   1.151   4.383
 4539SOL    HW114516   2.516   1.153   4.307
 4539SOL    HW214517   2.483   1.211   4.457
 4540SOL     OW14518   3.431   2.890   4.423
 4540SOL    HW114519   3.484   2.881   4.339
 4540SOL    HW214520   3.490   2.871   4.502
 4541SOL     OW14521   5.757   1.233   7.017
 4541SOL    HW114522   5.692   1.220   6.942
 4541SOL    HW214523   5.850   1.239   6.979
 4542SOL     OW14524   5.833   6.587   1.668
 4542SOL    HW114525   5.797   6.680   1.678
 4542SOL    HW214526   5.890   6.565   1.747
 4543SOL     OW14527   5.095   2.312   0.128
 4543SOL    HW114528   5.016   2.272   0.174
 4543SOL    HW214529   5.161   2.240   0.107
 4544SOL     OW14530   2.614   6.363   5.790
 4544SOL    HW114531   2.645   6.363   5.695
 4544SOL    HW214532   2.609   6.269   5.824
 4545SOL     OW14533   5.167   2.755   4.707
 4545SOL    HW114534   5.241   2.688   4.698
 4545SOL    HW214535   5.189   2.819   4.780
 4546SOL     OW14536   1.277   1.364   6.432
 4546SOL    HW114537   1.306   1.367   6.337
 4546SOL    HW214538   1.328   1.432   6.485
 4547SOL     OW14539   6.553   2.887   3.016
 4547SOL    HW114540   6.493   2.946   3.069
 4547SOL    HW214541   6.595   2.819   3.076
 4548SOL     OW14542   1.422   4.347   4.791
 4548SOL    HW114543   1.509   4.321   4.749
 4548SOL    HW214544   1.438   4.421   4.856
 4549SOL     OW14545   6.272   3.691   2.386
 4549SOL    HW114546   6.326   3.706   2.304
 4549SOL    HW214547   6.175   3.680   2.361
 4550SOL     OW14548   0.890   6.071   2.783
 4550SOL    HW114549   0.979   6.118   2.786
 4550SOL    HW214550   0.846   6.091   2.696
 4551SOL     OW14551   6.871   2.075   5.276
 4551SOL    HW114552   6.932   2.094   5.199
 4551SOL    HW214553   6.837   1.982   5.269
 4552SOL     OW14554   6.563   2.703   6.393
 4552SOL    HW114555   6.652   2.719   6.435
 4552SOL    HW214556   6.565   2.617   6.342
 4553SOL     OW14557   4.097   4.426   0.604
 4553SOL    HW114558   4.134   4.399   0.515
 4553SOL    HW214559   4.001   4.399   0.610
 4554SOL     OW14560   3.892   0.919   1.752
 4554SOL    HW114561   3.841   1.002   1.774
 4554SOL    HW214562   3.958   0.900   1.825
 4555SOL     OW14563   3.220   1.768   5.702
 4555SOL    HW114564   3.176   1.807   5.783
 4555SOL    HW214565   3.166   1.790   5.621
 4556SOL     OW14566   4.877   2.279   3.334
 4556SOL    HW114567   4.862   2.189   3.377
 4556SOL    HW214568   4.795   2.334   3.343
 4557SOL     OW14569   5.413   6.777   5.347
 4557SOL    HW114570   5.415   6.784   5.247
 4557SOL    HW214571   5.431   6.867   5.386
 4558SOL     OW14572   6.837   3.923   6.019
 4558SOL    HW114573   6.742   3.914   5.988
 4558SOL    HW214574   6.898   3.915   5.941
 4559SOL     OW14575   1.106   4.588   0.897
 4559SOL    HW114576   1.113   4.660   0.966
 4559SOL    HW214577   1.196   4.575   0.854
 4560SOL     OW14578   5.398   4.982   3.501
 4560SOL    HW114579   5.374   4.989   3.598
 4560SOL    HW214580   5.367   4.894   3.465
 4561SOL     OW14581   2.863   1.056   1.365
 4561SOL    HW114582   2.790   0.990   1.348
 4561SOL    HW214583   2.938   1.011   1.414
 4562SOL     OW14584   2.844   5.688   4.857
 4562SOL    HW114585   2.826   5.775   4.902
 4562SOL    HW214586   2.905   5.633   4.914
 4563SOL     OW14587   6.795   3.901   0.134
 4563SOL    HW114588   6.809   3.809   0.171
 4563SOL    HW214589   6.833   3.969   0.197
 4564SOL     OW14590   0.557   6.530   1.101
 4564SOL    HW114591   0.619   6.608   1.105
 4564SOL    HW214592   0.555   6.485   1.190
 4565SOL     OW14593   0.146   1.493   5.285
 4565SOL    HW114594   0.183   1.444   5.206
 4565SOL    HW214595   0.049   1.514   5.269
 4566SOL     OW14596   6.315   1.084   0.667
 4566SOL    HW114597   6.404   1.050   0.698
 4566SOL    HW214598   6.256   1.098   0.747
 4567SOL     OW14599   0.682   1.011   0.010
 4567SOL    HW114600   0.671   0.984   6.937
 4567SOL    HW214601   0.661   1.109   0.019
 4568SOL     OW14602   1.110   4.656   5.294
 4568SOL    HW114603   1.166   4.697   5.366
 4568SOL    HW214604   1.108   4.557   5.306
 4569SOL     OW14605   2.264   1.469   3.128
 4569SOL    HW114606   2.187   1.533   3.133
 4569SOL    HW214607   2.296   1.448   3.220
 4570SOL     OW14608   0.473   4.937   3.047
 4570SOL    HW114609   0.506   4.861   2.990
 4570SOL    HW214610   0.380   4.917   3.077
 4571SOL     OW14611   3.666   3.278   5.644
 4571SOL    HW114612   3.622   3.189   5.629
 4571SOL    HW214613   3.596   3.347   5.659
 4572SOL     OW14614   1.151   6.205   6.244
 4572SOL    HW114615   1.149   6.194   6.144
 4572SOL    HW214616   1.126   6.299   6.267
 4573SOL     OW14617   6.100   6.008   0.386
 4573SOL    HW114618   6.186   6.048   0.416
 4573SOL    HW214619   6.100   5.910   0.406
 4574SOL     OW14620   6.313   4.085   1.093
 4574SOL    HW114621   6.356   4.045   1.174
 4574SOL    HW214622   6.267   4.171   1.119
 4575SOL     OW14623   6.736   1.876   6.602
 4575SOL    HW114624   6.679   1.871   6.520
 4575SOL    HW214625   6.724   1.794   6.657
 4576SOL     OW14626   2.347   6.137   6.619
 4576SOL    HW114627   2.262   6.186   6.597
 4576SOL    HW214628   2.324   6.044   6.648
 4577SOL     OW14629   0.512   3.084   3.259
 4577SOL    HW114630   0.570   3.103   3.337
 4577SOL    HW214631   0.429   3.141   3.264
 4578SOL     OW14632   0.246   3.180   4.083
 4578SOL    HW114633   0.276   3.116   4.154
 4578SOL    HW214634   0.155   3.214   4.106
 4579SOL     OW14635   5.489   1.522   2.986
 4579SOL    HW114636   5.570   1.465   3.002
 4579SOL    HW214637   5.514   1.600   2.929
 4580SOL     OW14638   5.319   5.615   6.809
 4580SOL    HW114639   5.270   5.545   6.860
 4580SOL    HW214640   5.265   5.699   6.807
 4581SOL     OW14641   2.973   5.629   3.229
 4581SOL    HW114642   2.973   5.625   3.129
 4581SOL    HW214643   2.983   5.537   3.266
 4582SOL     OW14644   6.000   6.499   4.824
 4582SOL    HW114645   5.935   6.424   4.812
 4582SOL    HW214646   5.959   6.571   4.880
 4583SOL     OW14647   2.805   1.380   4.688
 4583SOL    HW114648   2.868   1.326   4.633
 4583SOL    HW214649   2.758   1.445   4.630
 4584SOL     OW14650   0.168   5.257   5.228
 4584SOL    HW114651   0.197   5.164   5.205
 4584SOL    HW214652   0.232   5.323   5.188
 4585SOL     OW14653   2.649   6.753   2.840
 4585SOL    HW114654   2.553   6.777   2.857
 4585SOL    HW214655   2.681   6.690   2.911
 4586SOL     OW14656   3.722   5.271   0.645
 4586SOL    HW114657   3.657   5.317   0.584
 4586SOL    HW214658   3.692   5.176   0.659
 4587SOL     OW14659   4.407   3.198   1.668
 4587SOL    HW114660   4.504   3.173   1.672
 4587SOL    HW214661   4.368   3.192   1.760
 4588SOL     OW14662   3.774   3.912   5.404
 4588SOL    HW114663   3.686   3.896   5.359
 4588SOL    HW214664   3.781   3.856   5.486
 4589SOL     OW14665   5.919   1.634   1.718
 4589SOL    HW114666   5.935   1.625   1.619
 4589SOL    HW214667   5.897   1.545   1.756
 4590SOL     OW14668   4.304   6.197   2.051
 4590SOL    HW114669   4.218   6.150   2.027
 4590SOL    HW214670   4.283   6.278   2.106
 4591SOL     OW14671   0.563   6.095   4.932
 4591SOL    HW114672   0.636   6.029   4.913
 4591SOL    HW214673   0.535   6.086   5.028
 4592SOL     OW14674   4.061   2.424   1.560
 4592SOL    HW114675   4.155   2.399   1.581
 4592SOL    HW214676   4.060   2.509   1.508
 4593SOL     OW14677   4.236   5.899   4.246
 4593SOL    HW114678   4.214   5.802   4.249
 4593SOL    HW214679   4.315   5.918   4.304
 4594SOL     OW14680   3.640   2.065   1.315
 4594SOL    HW114681   3.563   2.115   1.276
 4594SOL    HW214682   3.626   2.053   1.414
 4595SOL     OW14683   3.244   2.983   5.705
 4595SOL    HW114684   3.277   2.916   5.638
 4595SOL    HW214685   3.313   3.054   5.717
 4596SOL     OW14686   6.423   6.646   2.310
 4596SOL    HW114687   6.333   6.605   2.318
 4596SOL    HW214688   6.418   6.743   2.333
 4597SOL     OW14689   5.057   4.573   0.146
 4597SOL    HW114690   5.147   4.593   0.108
 4597SOL    HW214691   5.050   4.609   0.239
 4598SOL     OW14692   1.735   5.534   6.865
 4598SOL    HW114693   1.793   5.489   6.797
 4598SOL    HW214694   1.657   5.475   6.885
 4599SOL     OW14695   1.885   4.278   0.473
 4599SOL    HW114696   1.978   4.307   0.451
 4599SOL    HW214697   1.879   4.255   0.570
 4600SOL     OW14698   1.877   5.998   6.010
 4600SOL    HW114699   1.967   5.953   6.016
 4600SOL    HW214700   1.865   6.059   6.088
 4601SOL     OW14701   1.595   0.459   5.333
 4601SOL    HW114702   1.601   0.550   5.374
 4601SOL    HW214703   1.654   0.454   5.253
 4602SOL     OW14704   0.961   5.867   0.546
 4602SOL    HW114705   1.054   5.889   0.514
 4602SOL    HW214706   0.933   5.932   0.616
 4603SOL     OW14707   3.530   6.429   1.098
 4603SOL    HW114708   3.561   6.339   1.068
 4603SOL    HW214709   3.599   6.469   1.159
 4604SOL     OW14710   4.923   0.773   1.721
 4604SOL    HW114711   4.968   0.825   1.649
 4604SOL    HW214712   4.825   0.796   1.722
 4605SOL     OW14713   5.035   1.186   2.996
 4605SOL    HW114714   5.023   1.116   2.926
 4605SOL    HW214715   4.953   1.242   3.003
 4606SOL     OW14716   0.576   0.020   1.741
 4606SOL    HW114717   0.612   0.008   1.648
 4606SOL    HW214718   0.479   0.042   1.736
 4607SOL     OW14719   2.743   2.967   0.487
 4607SOL    HW114720   2.643   2.959   0.495
 4607SOL    HW214721   2.786   2.911   0.557
 4608SOL     OW14722   1.223   5.728   3.712
 4608SOL    HW114723   1.269   5.751   3.798
 4608SOL    HW214724   1.290   5.691   3.647
 4609SOL     OW14725   3.972   5.496   5.969
 4609SOL    HW114726   3.973   5.499   5.869
 4609SOL    HW214727   3.895   5.550   6.003
 4610SOL     OW14728   5.918   2.559   0.620
 4610SOL    HW114729   5.933   2.469   0.662
 4610SOL    HW214730   5.841   2.553   0.557
 4611SOL     OW14731   6.061   5.811   6.201
 4611SOL    HW114732   6.016   5.730   6.165
 4611SOL    HW214733   6.068   5.804   6.301
 4612SOL     OW14734   1.169   6.386   0.877
 4612SOL    HW114735   1.177   6.320   0.803
 4612SOL    HW214736   1.242   6.454   0.869
 4613SOL     OW14737   2.771   5.448   2.425
 4613SOL    HW114738   2.824   5.435   2.508
 4613SOL    HW214739   2.681   5.486   2.448
 4614SOL     OW14740   0.969   3.966   5.421
 4614SOL    HW114741   1.038   3.932   5.485
 4614SOL    HW214742   0.886   3.988   5.471
 4615SOL     OW14743   1.623   0.614   0.020
 4615SOL    HW114744   1.609   0.518   7.020
 4615SOL    HW214745   1.715   0.642   7.014
 4616SOL     OW14746   6.021   0.206   5.970
 4616SOL    HW114747   6.022   0.287   6.029
 4616SOL    HW214748   6.110   0.162   5.973
 4617SOL     OW14749   1.286   2.368   2.346
 4617SOL    HW114750   1.217   2.434   2.318
 4617SOL    HW214751   1.377   2.407   2.334
 4618SOL     OW14752   1.918   2.386   5.424
 4618SOL    HW114753   1.982   2.453   5.462
 4618SOL    HW214754   1.947   2.361   5.332
 4619SOL     OW14755   4.008   6.429   3.169
 4619SOL    HW114756   3.941   6.485   3.118
 4619SOL    HW214757   4.071   6.387   3.104
 4620SOL     OW14758   2.878   4.221   6.848
 4620SOL    HW114759   2.957   4.176   6.889
 4620SOL    HW214760   2.882   4.212   6.749
 4621SOL     OW14761   5.685   1.687   3.342
 4621SOL    HW114762   5.734   1.760   3.295
 4621SOL    HW214763   5.587   1.698   3.326
 4622SOL     OW14764   1.165   3.301   0.746
 4622SOL    HW114765   1.161   3.288   0.845
 4622SOL    HW214766   1.128   3.391   0.722
 4623SOL     OW14767   0.403   6.027   0.828
 4623SOL    HW114768   0.459   5.959   0.877
 4623SOL    HW214769   0.319   6.043   0.878
 4624SOL     OW14770   5.219   6.652   2.868
 4624SOL    HW114771   5.308   6.609   2.853
 4624SOL    HW214772   5.190   6.637   2.962
 4625SOL     OW14773   1.837   4.778   6.725
 4625SOL    HW114774   1.748   4.761   6.683
 4625SOL    HW214775   1.878   4.691   6.752
 4626SOL     OW14776   5.920   5.543   2.023
 4626SOL    HW114777   5.879   5.631   1.997
 4626SOL    HW214778   6.019   5.553   2.029
 4627SOL     OW14779   3.850   6.248   3.796
 4627SOL    HW114780   3.762   6.232   3.841
 4627SOL    HW214781   3.924   6.221   3.858
 4628SOL     OW14782   6.040   4.198   3.581
 4628SOL    HW114783   6.102   4.121   3.565
 4628SOL    HW214784   6.092   4.276   3.615
 4629SOL     OW14785   2.001   4.869   5.242
 4629SOL    HW114786   2.024   4.958   5.282
 4629SOL    HW214787   1.903   4.867   5.220
 4630SOL     OW14788   3.656   5.687   3.064
 4630SOL    HW114789   3.560   5.661   3.079
 4630SOL    HW214790   3.696   5.628   2.994
 4631SOL     OW14791   2.366   6.332   3.828
 4631SOL    HW114792   2.325   6.256   3.778
 4631SOL    HW214793   2.460   6.308   3.852
 4632SOL     OW14794   4.400   4.541   3.596
 4632SOL    HW114795   4.449   4.556   3.510
 4632SOL    HW214796   4.395   4.443   3.614
 4633SOL     OW14797   5.855   2.438   3.755
 4633SOL    HW114798   5.778   2.374   3.762
 4633SOL    HW214799   5.929   2.395   3.703
 4634SOL     OW14800   2.063   4.505   6.548
 4634SOL    HW114801   2.040   4.418   6.504
 4634SOL    HW214802   2.091   4.571   6.478
 4635SOL     OW14803   5.789   3.390   1.972
 4635SOL    HW114804   5.735   3.355   1.895
 4635SOL    HW214805   5.886   3.387   1.948
 4636SOL     OW14806   2.175   5.170   0.052
 4636SOL    HW114807   2.149   5.254   0.005
 4636SOL    HW214808   2.273   5.154   0.040
 4637SOL     OW14809   1.869   0.930   0.394
 4637SOL    HW114810   1.930   0.852   0.381
 4637SOL    HW214811   1.855   0.977   0.307
 4638SOL     OW14812   3.585   3.517   6.538
 4638SOL    HW114813   3.607   3.612   6.561
 4638SOL    HW214814   3.607   3.458   6.616
 4639SOL     OW14815   1.972   4.561   5.100
 4639SOL    HW114816   1.881   4.584   5.067
 4639SOL    HW214817   2.040   4.591   5.033
 4640SOL     OW14818   5.229   5.348   3.522
 4640SOL    HW114819   5.314   5.385   3.560
 4640SOL    HW214820   5.250   5.273   3.460
 4641SOL     OW14821   3.216   6.357   4.260
 4641SOL    HW114822   3.225   6.305   4.175
 4641SOL    HW214823   3.272   6.316   4.331
 4642SOL     OW14824   0.718   6.571   5.473
 4642SOL    HW114825   0.648   6.639   5.496
 4642SOL    HW214826   0.808   6.606   5.499
 4643SOL     OW14827   5.774   2.214   1.180
 4643SOL    HW114828   5.849   2.212   1.246
 4643SOL    HW214829   5.694   2.256   1.222
 4644SOL     OW14830   1.240   4.982   4.803
 4644SOL    HW114831   1.319   5.014   4.856
 4644SOL    HW214832   1.181   4.927   4.862
 4645SOL     OW14833   1.181   0.488   4.356
 4645SOL    HW114834   1.187   0.586   4.338
 4645SOL    HW214835   1.182   0.473   4.455
 4646SOL     OW14836   2.699   6.593   3.052
 4646SOL    HW114837   2.619   6.573   3.108
 4646SOL    HW214838   2.764   6.648   3.105
 4647SOL     OW14839   1.013   6.404   3.298
 4647SOL    HW114840   0.953   6.361   3.231
 4647SOL    HW214841   0.975   6.393   3.390
 4648SOL     OW14842   4.186   0.499   1.147
 4648SOL    HW114843   4.262   0.438   1.170
 4648SOL    HW214844   4.171   0.563   1.222
 4649SOL     OW14845   5.134   6.642   6.168
 4649SOL    HW114846   5.211   6.684   6.119
 4649SOL    HW214847   5.161   6.620   6.261
 4650SOL     OW14848   4.280   6.131   4.094
 4650SOL    HW114849   4.342   6.109   4.019
 4650SOL    HW214850   4.237   6.046   4.127
 4651SOL     OW14851   0.151   1.351   1.042
 4651SOL    HW114852   0.123   1.356   1.138
 4651SOL    HW214853   0.240   1.306   1.036
 4652SOL     OW14854   0.268   0.846   4.081
 4652SOL    HW114855   0.228   0.755   4.072
 4652SOL    HW214856   0.353   0.851   4.028
 4653SOL     OW14857   6.330   5.653   6.729
 4653SOL    HW114858   6.416   5.603   6.728
 4653SOL    HW214859   6.284   5.643   6.641
 4654SOL     OW14860   0.508   6.825   6.988
 4654SOL    HW114861   0.499   6.895   0.035
 4654SOL    HW214862   0.531   6.868   6.900
 4655SOL     OW14863   6.562   5.631   1.732
 4655SOL    HW114864   6.488   5.611   1.669
 4655SOL    HW214865   6.575   5.553   1.794
 4656SOL     OW14866   1.203   7.003   3.510
 4656SOL    HW114867   1.276   6.972   3.571
 4656SOL    HW214868   1.144   0.044   3.559
 4657SOL     OW14869   4.774   6.838   1.526
 4657SOL    HW114870   4.722   6.853   1.610
 4657SOL    HW214871   4.862   6.885   1.533
 4658SOL     OW14872   3.551   1.043   2.066
 4658SOL    HW114873   3.508   0.959   2.099
 4658SOL    HW214874   3.643   1.022   2.031
 4659SOL     OW14875   2.536   3.749   5.979
 4659SOL    HW114876   2.560   3.707   5.892
 4659SOL    HW214877   2.619   3.758   6.035
 4660SOL     OW14878   0.878   2.776   5.083
 4660SOL    HW114879   0.882   2.740   5.176
 4660SOL    HW214880   0.916   2.869   5.082
 4661SOL     OW14881   3.396   4.233   5.503
 4661SOL    HW114882   3.454   4.314   5.499
 4661SOL    HW214883   3.382   4.197   5.411
 4662SOL     OW14884   4.671   0.370   5.161
 4662SOL    HW114885   4.666   0.274   5.133
 4662SOL    HW214886   4.748   0.415   5.115
 4663SOL     OW14887   0.708   1.964   2.179
 4663SOL    HW114888   0.808   1.964   2.173
 4663SOL    HW214889   0.669   1.962   2.087
 4664SOL     OW14890   2.075   1.943   0.509
 4664SOL    HW114891   2.055   2.034   0.474
 4664SOL    HW214892   2.093   1.881   0.433
 4665SOL     OW14893   4.208   6.807   0.325
 4665SOL    HW114894   4.197   6.810   0.424
 4665SOL    HW214895   4.240   6.716   0.298
 4666SOL     OW14896   1.625   1.475   0.483
 4666SOL    HW114897   1.647   1.498   0.388
 4666SOL    HW214898   1.571   1.548   0.524
 4667SOL     OW14899   6.302   4.593   1.312
 4667SOL    HW114900   6.273   4.689   1.314
 4667SOL    HW214901   6.394   4.587   1.273
 4668SOL     OW14902   6.459   2.406   3.145
 4668SOL    HW114903   6.448   2.322   3.093
 4668SOL    HW214904   6.509   2.387   3.230
 4669SOL     OW14905   3.138   6.981   0.439
 4669SOL    HW114906   3.215   7.022   0.488
 4669SOL    HW214907   3.151   6.882   0.432
 4670SOL     OW14908   3.330   1.649   5.057
 4670SOL    HW114909   3.330   1.659   5.156
 4670SOL    HW214910   3.245   1.604   5.028
 4671SOL     OW14911   6.871   2.429   2.219
 4671SOL    HW114912   6.918   2.395   2.138
 4671SOL    HW214913   6.929   2.498   2.264
 4672SOL     OW14914   2.529   5.263   6.312
 4672SOL    HW114915   2.625   5.290   6.319
 4672SOL    HW214916   2.519   5.167   6.337
 4673SOL     OW14917   5.033   6.687   0.765
 4673SOL    HW114918   5.037   6.764   0.829
 4673SOL    HW214919   5.115   6.630   0.777
 4674SOL     OW14920   5.029   6.919   0.025
 4674SOL    HW114921   5.100   6.867   7.000
 4674SOL    HW214922   5.038   7.016   0.002
 4675SOL     OW14923   0.871   3.218   0.028
 4675SOL    HW114924   0.871   3.269   6.964
 4675SOL    HW214925   0.964   3.215   0.064
 4676SOL     OW14926   6.796   6.187   3.641
 4676SOL    HW114927   6.856   6.154   3.568
 4676SOL    HW214928   6.798   6.287   3.644
 4677SOL     OW14929   2.342   2.457   1.178
 4677SOL    HW114930   2.359   2.554   1.158
 4677SOL    HW214931   2.244   2.443   1.192
 4678SOL     OW14932   2.012   4.713   3.120
 4678SOL    HW114933   1.998   4.626   3.073
 4678SOL    HW214934   2.042   4.696   3.214
 4679SOL     OW14935   4.411   0.288   1.801
 4679SOL    HW114936   4.495   0.237   1.818
 4679SOL    HW214937   4.360   0.244   1.727
 4680SOL     OW14938   3.936   0.952   6.449
 4680SOL    HW114939   3.908   0.858   6.431
 4680SOL    HW214940   4.029   0.967   6.414
 4681SOL     OW14941   5.361   4.760   0.302
 4681SOL    HW114942   5.455   4.755   0.337
 4681SOL    HW214943   5.347   4.688   0.234
 4682SOL     OW14944   4.603   4.509   5.570
 4682SOL    HW114945   4.668   4.433   5.566
 4682SOL    HW214946   4.523   4.488   5.514
 4683SOL     OW14947   5.668   5.473   2.820
 4683SOL    HW114948   5.699   5.406   2.752
 4683SOL    HW214949   5.568   5.479   2.817
 4684SOL     OW14950   5.064   6.940   5.860
 4684SOL    HW114951   4.982   6.951   5.915
 4684SOL    HW214952   5.052   6.861   5.799
 4685SOL     OW14953   2.239   5.018   6.460
 4685SOL    HW114954   2.254   5.053   6.552
 4685SOL    HW214955   2.325   4.988   6.420
 4686SOL     OW14956   4.167   5.712   6.941
 4686SOL    HW114957   4.088   5.758   6.981
 4686SOL    HW214958   4.136   5.646   6.873
 4687SOL     OW14959   4.698   2.808   4.302
 4687SOL    HW114960   4.755   2.843   4.376
 4687SOL    HW214961   4.609   2.853   4.305
 4688SOL     OW14962   6.187   2.678   5.103
 4688SOL    HW114963   6.215   2.762   5.056
 4688SOL    HW214964   6.228   2.599   5.057
 4689SOL     OW14965   5.615   1.087   0.538
 4689SOL    HW114966   5.557   1.127   0.609
 4689SOL    HW214967   5.623   1.150   0.461
 4690SOL     OW14968   2.122   0.414   0.650
 4690SOL    HW114969   2.089   0.385   0.739
 4690SOL    HW214970   2.081   0.356   0.579
 4691SOL     OW14971   3.099   4.016   0.839
 4691SOL    HW114972   3.176   4.026   0.776
 4691SOL    HW214973   3.110   3.931   0.891
 4692SOL     OW14974   5.620   5.110   2.932
 4692SOL    HW114975   5.607   5.073   2.840
 4692SOL    HW214976   5.553   5.182   2.949
 4693SOL     OW14977   1.265   0.347   3.673
 4693SOL    HW114978   1.310   0.300   3.749
 4693SOL    HW214979   1.170   0.317   3.666
 4694SOL     OW14980   2.282   1.622   6.896
 4694SOL    HW114981   2.281   1.568   6.980
 4694SOL    HW214982   2.353   1.692   6.903
 4695SOL     OW14983   1.303   4.892   0.709
 4695SOL    HW114984   1.390   4.941   0.712
 4695SOL    HW214985   1.231   4.948   0.750
 4696SOL     OW14986   0.446   5.575   6.010
 4696SOL    HW114987   0.463   5.570   5.911
 4696SOL    HW214988   0.347   5.586   6.025
 4697SOL     OW14989   1.188   3.917   2.220
 4697SOL    HW114990   1.198   3.883   2.126
 4697SOL    HW214991   1.100   3.886   2.257
 4698SOL     OW14992   4.383   6.205   3.254
 4698SOL    HW114993   4.385   6.166   3.346
 4698SOL    HW214994   4.332   6.144   3.193
 4699SOL     OW14995   0.516   6.223   2.633
 4699SOL    HW114996   0.545   6.303   2.581
 4699SOL    HW214997   0.432   6.186   2.593
 4700SOL     OW14998   6.207   2.085   2.113
 4700SOL    HW114999   6.282   2.131   2.159
 4700SOL    HW215000   6.239   1.997   2.077
 4701SOL     OW15001   3.500   1.886   0.239
 4701SOL    HW115002   3.479   1.976   0.277
 4701SOL    HW215003   3.519   1.894   0.142
 4702SOL     OW15004   4.585   5.046   7.018
 4702SOL    HW115005   4.512   5.066   0.061
 4702SOL    HW215006   4.568   4.957   6.976
 4703SOL     OW15007   1.396   6.618   2.969
 4703SOL    HW115008   1.306   6.584   2.994
 4703SOL    HW215009   1.458   6.608   3.047
 4704SOL     OW15010   6.248   6.089   6.561
 4704SOL    HW115011   6.188   6.116   6.485
 4704SOL    HW215012   6.220   6.136   6.644
 4705SOL     OW15013   4.267   2.480   1.085
 4705SOL    HW115014   4.179   2.442   1.056
 4705SOL    HW215015   4.341   2.419   1.054
 4706SOL     OW15016   1.762   0.590   0.552
 4706SOL    HW115017   1.798   0.584   0.458
 4706SOL    HW215018   1.729   0.500   0.581
 4707SOL     OW15019   1.092   6.399   1.915
 4707SOL    HW115020   0.994   6.379   1.906
 4707SOL    HW215021   1.123   6.452   1.836
 4708SOL     OW15022   1.376   1.765   5.797
 4708SOL    HW115023   1.435   1.833   5.841
 4708SOL    HW215024   1.364   1.789   5.701
 4709SOL     OW15025   4.941   5.339   5.100
 4709SOL    HW115026   4.916   5.288   5.018
 4709SOL    HW215027   4.862   5.345   5.161
 4710SOL     OW15028   5.364   6.986   6.214
 4710SOL    HW115029   5.278   7.018   6.253
 4710SOL    HW215030   5.415   6.935   6.283
 4711SOL     OW15031   6.472   1.475   1.961
 4711SOL    HW115032   6.422   1.424   1.892
 4711SOL    HW215033   6.565   1.494   1.928
 4712SOL     OW15034   3.156   4.867   6.705
 4712SOL    HW115035   3.136   4.770   6.712
 4712SOL    HW215036   3.230   4.881   6.639
 4713SOL     OW15037   3.993   4.917   1.062
 4713SOL    HW115038   3.958   4.970   0.984
 4713SOL    HW215039   4.092   4.908   1.054
 4714SOL     OW15040   0.208   1.275   6.226
 4714SOL    HW115041   0.263   1.192   6.216
 4714SOL    HW215042   0.227   1.337   6.150
 4715SOL     OW15043   5.843   3.188   1.386
 4715SOL    HW115044   5.858   3.113   1.321
 4715SOL    HW215045   5.790   3.260   1.343
 4716SOL     OW15046   4.285   6.392   5.513
 4716SOL    HW115047   4.306   6.311   5.458
 4716SOL    HW215048   4.189   6.389   5.541
 4717SOL     OW15049   0.907   5.944   5.068
 4717SOL    HW115050   0.963   5.863   5.053
 4717SOL    HW215051   0.965   6.025   5.068
 4718SOL     OW15052   5.444   2.006   0.802
 4718SOL    HW115053   5.513   2.016   0.874
 4718SOL    HW215054   5.354   1.994   0.844
 4719SOL     OW15055   4.882   3.580   2.378
 4719SOL    HW115056   4.943   3.606   2.453
 4719SOL    HW215057   4.895   3.484   2.356
 4720SOL     OW15058   1.771   5.119   5.913
 4720SOL    HW115059   1.861   5.082   5.888
 4720SOL    HW215060   1.780   5.216   5.936
 4721SOL     OW15061   6.536   1.710   1.492
 4721SOL    HW115062   6.532   1.794   1.438
 4721SOL    HW215063   6.585   1.727   1.577
 4722SOL     OW15064   0.980   6.179   6.609
 4722SOL    HW115065   0.985   6.096   6.665
 4722SOL    HW215066   1.039   6.249   6.648
 4723SOL     OW15067   2.772   3.408   5.187
 4723SOL    HW115068   2.836   3.476   5.222
 4723SOL    HW215069   2.687   3.412   5.239
 4724SOL     OW15070   0.100   0.040   4.389
 4724SOL    HW115071   0.099   0.070   4.484
 4724SOL    HW215072   0.140   6.971   4.383
 4725SOL     OW15073   6.644   4.995   0.476
 4725SOL    HW115074   6.579   4.938   0.427
 4725SOL    HW215075   6.637   4.976   0.574
 4726SOL     OW15076   1.564   3.180   6.234
 4726SOL    HW115077   1.529   3.214   6.147
 4726SOL    HW215078   1.664   3.186   6.235
 4727SOL     OW15079   0.588   6.389   1.333
 4727SOL    HW115080   0.656   6.318   1.354
 4727SOL    HW215081   0.497   6.347   1.326
 4728SOL     OW15082   6.420   0.694   2.812
 4728SOL    HW115083   6.398   0.754   2.889
 4728SOL    HW215084   6.505   0.724   2.769
 4729SOL     OW15085   4.970   0.958   0.219
 4729SOL    HW115086   5.040   0.917   0.277
 4729SOL    HW215087   4.904   0.889   0.193
 4730SOL     OW15088   3.035   5.970   5.181
 4730SOL    HW115089   2.969   5.940   5.250
 4730SOL    HW215090   3.127   5.940   5.207
 4731SOL     OW15091   3.055   1.067   0.811
 4731SOL    HW115092   2.991   1.108   0.746
 4731SOL    HW215093   3.013   1.063   0.902
 4732SOL     OW15094   0.400   3.302   5.020
 4732SOL    HW115095   0.493   3.267   5.030
 4732SOL    HW215096   0.398   3.398   5.047
 4733SOL     OW15097   1.431   3.757   3.850
 4733SOL    HW115098   1.454   3.787   3.757
 4733SOL    HW215099   1.332   3.747   3.858
 4734SOL     OW15100   4.354   3.216   0.421
 4734SOL    HW115101   4.276   3.245   0.476
 4734SOL    HW215102   4.332   3.129   0.377
 4735SOL     OW15103   6.904   5.896   4.188
 4735SOL    HW115104   6.810   5.871   4.166
 4735SOL    HW215105   6.914   5.996   4.182
 4736SOL     OW15106   5.416   1.821   6.012
 4736SOL    HW115107   5.418   1.850   5.916
 4736SOL    HW215108   5.497   1.766   6.032
 4737SOL     OW15109   2.603   4.407   0.714
 4737SOL    HW115110   2.624   4.334   0.779
 4737SOL    HW215111   2.549   4.370   0.639
 4738SOL     OW15112   2.878   6.256   3.205
 4738SOL    HW115113   2.879   6.201   3.289
 4738SOL    HW215114   2.803   6.225   3.146
 4739SOL     OW15115   5.239   1.426   3.072
 4739SOL    HW115116   5.200   1.348   3.023
 4739SOL    HW215117   5.330   1.447   3.036
 4740SOL     OW15118   0.102   0.453   0.966
 4740SOL    HW115119   0.035   0.482   1.035
 4740SOL    HW215120   0.186   0.507   0.976
 4741SOL     OW15121   4.526   3.343   1.243
 4741SOL    HW115122   4.463   3.389   1.305
 4741SOL    HW215123   4.569   3.266   1.289
 4742SOL     OW15124   2.376   6.626   1.390
 4742SOL    HW115125   2.421   6.698   1.337
 4742SOL    HW215126   2.400   6.537   1.351
 4743SOL     OW15127   1.558   2.827   5.302
 4743SOL    HW115128   1.578   2.879   5.385
 4743SOL    HW215129   1.478   2.866   5.256
 4744SOL     OW15130   2.666   3.717   5.713
 4744SOL    HW115131   2.675   3.817   5.720
 4744SOL    HW215132   2.757   3.676   5.704
 4745SOL     OW15133   2.264   5.403   5.422
 4745SOL    HW115134   2.301   5.314   5.395
 4745SOL    HW215135   2.303   5.475   5.365
 4746SOL     OW15136   5.981   6.095   2.441
 4746SOL    HW115137   5.927   6.055   2.514
 4746SOL    HW215138   6.078   6.082   2.460
 4747SOL     OW15139   1.586   3.830   6.952
 4747SOL    HW115140   1.642   3.764   7.002
 4747SOL    HW215141   1.549   3.898   7.015
 4748SOL     OW15142   1.515   5.185   0.545
 4748SOL    HW115143   1.578   5.258   0.517
 4748SOL    HW215144   1.420   5.217   0.533
 4749SOL     OW15145   2.578   6.088   5.338
 4749SOL    HW115146   2.555   6.163   5.276
 4749SOL    HW215147   2.658   6.113   5.392
 4750SOL     OW15148   0.273   3.473   4.377
 4750SOL    HW115149   0.358   3.526   4.380
 4750SOL    HW215150   0.280   3.395   4.440
 4751SOL     OW15151   2.406   2.756   0.270
 4751SOL    HW115152   2.467   2.763   0.191
 4751SOL    HW215153   2.426   2.672   0.320
 4752SOL     OW15154   2.842   0.282   0.078
 4752SOL    HW115155   2.895   0.216   0.132
 4752SOL    HW215156   2.791   0.342   0.141
 4753SOL     OW15157   5.744   0.267   4.301
 4753SOL    HW115158   5.792   0.313   4.375
 4753SOL    HW215159   5.738   0.169   4.320
 4754SOL     OW15160   5.816   0.386   5.334
 4754SOL    HW115161   5.750   0.353   5.402
 4754SOL    HW215162   5.873   0.458   5.374
 4755SOL     OW15163   2.844   0.451   0.779
 4755SOL    HW115164   2.884   0.498   0.700
 4755SOL    HW215165   2.745   0.451   0.772
 4756SOL     OW15166   6.019   2.781   1.293
 4756SOL    HW115167   5.981   2.689   1.296
 4756SOL    HW215168   6.058   2.805   1.381
 4757SOL     OW15169   1.470   2.355   1.998
 4757SOL    HW115170   1.553   2.355   2.054
 4757SOL    HW215171   1.416   2.436   2.019
 4758SOL     OW15172   2.976   6.222   4.588
 4758SOL    HW115173   3.034   6.152   4.546
 4758SOL    HW215174   2.970   6.301   4.528
 4759SOL     OW15175   5.860   5.411   4.484
 4759SOL    HW115176   5.943   5.444   4.530
 4759SOL    HW215177   5.837   5.320   4.518
 4760SOL     OW15178   3.678   2.036   0.824
 4760SOL    HW115179   3.683   2.053   0.725
 4760SOL    HW215180   3.627   1.951   0.840
 4761SOL     OW15181   0.860   6.567   6.311
 4761SOL    HW115182   0.843   6.541   6.216
 4761SOL    HW215183   0.777   6.605   6.351
 4762SOL     OW15184   2.065   5.201   2.946
 4762SOL    HW115185   2.107   5.273   3.001
 4762SOL    HW215186   2.109   5.197   2.856
 4763SOL     OW15187   5.852   6.246   3.585
 4763SOL    HW115188   5.916   6.237   3.508
 4763SOL    HW215189   5.853   6.161   3.638
 4764SOL     OW15190   5.126   4.139   5.401
 4764SOL    HW115191   5.212   4.156   5.352
 4764SOL    HW215192   5.142   4.073   5.474
 4765SOL     OW15193   5.211   0.305   4.716
 4765SOL    HW115194   5.148   0.343   4.648
 4765SOL    HW215195   5.186   0.338   4.807
 4766SOL     OW15196   4.479   0.292   3.668
 4766SOL    HW115197   4.429   0.238   3.736
 4766SOL    HW215198   4.474   0.247   3.579
 4767SOL     OW15199   4.071   5.217   6.020
 4767SOL    HW115200   4.067   5.316   6.010
 4767SOL    HW215201   4.109   5.176   5.937
 4768SOL     OW15202   4.247   1.738   4.934
 4768SOL    HW115203   4.261   1.754   5.032
 4768SOL    HW215204   4.269   1.820   4.883
 4769SOL     OW15205   4.835   4.724   0.411
 4769SOL    HW115206   4.873   4.816   0.401
 4769SOL    HW215207   4.826   4.702   0.508
 4770SOL     OW15208   0.887   0.391   4.261
 4770SOL    HW115209   0.872   0.293   4.247
 4770SOL    HW215210   0.976   0.417   4.224
 4771SOL     OW15211   3.337   5.535   5.421
 4771SOL    HW115212   3.260   5.594   5.400
 4771SOL    HW215213   3.361   5.544   5.517
 4772SOL     OW15214   2.776   5.201   1.618
 4772SOL    HW115215   2.770   5.103   1.598
 4772SOL    HW215216   2.794   5.214   1.716
 4773SOL     OW15217   6.562   5.580   4.726
 4773SOL    HW115218   6.492   5.613   4.789
 4773SOL    HW215219   6.531   5.591   4.632
 4774SOL     OW15220   1.216   2.775   1.753
 4774SOL    HW115221   1.260   2.687   1.734
 4774SOL    HW215222   1.117   2.764   1.755
 4775SOL     OW15223   5.278   6.830   2.493
 4775SOL    HW115224   5.197   6.791   2.539
 4775SOL    HW215225   5.357   6.772   2.511
 4776SOL     OW15226   1.013   6.510   4.732
 4776SOL    HW115227   1.093   6.453   4.751
 4776SOL    HW215228   0.956   6.515   4.815
 4777SOL     OW15229   2.859   4.668   1.517
 4777SOL    HW115230   2.889   4.605   1.445
 4777SOL    HW215231   2.785   4.625   1.569
 4778SOL     OW15232   5.835   2.409   2.428
 4778SOL    HW115233   5.773   2.395   2.505
 4778SOL    HW215234   5.923   2.443   2.462
 4779SOL     OW15235   6.536   6.456   2.497
 4779SOL    HW115236   6.531   6.500   2.407
 4779SOL    HW215237   6.629   6.467   2.534
 4780SOL     OW15238   6.735   0.578   0.635
 4780SOL    HW115239   6.658   0.515   0.635
 4780SOL    HW215240   6.723   0.646   0.562
 4781SOL     OW15241   2.978   6.491   1.959
 4781SOL    HW115242   2.963   6.576   1.909
 4781SOL    HW215243   3.077   6.477   1.973
 4782SOL     OW15244   4.485   6.128   0.114
 4782SOL    HW115245   4.526   6.060   0.175
 4782SOL    HW215246   4.553   6.158   0.048
 4783SOL     OW15247   4.404   4.597   6.807
 4783SOL    HW115248   4.462   4.655   6.749
 4783SOL    HW215249   4.308   4.610   6.781
 4784SOL     OW15250   6.386   4.077   6.412
 4784SOL    HW115251   6.350   4.170   6.421
 4784SOL    HW215252   6.328   4.024   6.350
 4785SOL     OW15253   5.905   5.628   1.741
 4785SOL    HW115254   5.923   5.653   1.645
 4785SOL    HW215255   5.916   5.529   1.752
 4786SOL     OW15256   2.459   2.306   1.623
 4786SOL    HW115257   2.388   2.325   1.691
 4786SOL    HW215258   2.517   2.231   1.657
 4787SOL     OW15259   3.215   2.153   3.397
 4787SOL    HW115260   3.125   2.172   3.356
 4787SOL    HW215261   3.282   2.140   3.324
 4788SOL     OW15262   1.074   4.934   5.877
 4788SOL    HW115263   0.976   4.948   5.866
 4788SOL    HW215264   1.117   5.020   5.903
 4789SOL     OW15265   5.975   0.895   0.026
 4789SOL    HW115266   5.898   0.873   6.989
 4789SOL    HW215267   5.986   0.822   0.094
 4790SOL     OW15268   0.500   2.729   6.093
 4790SOL    HW115269   0.593   2.696   6.079
 4790SOL    HW215270   0.443   2.655   6.128
 4791SOL     OW15271   6.421   1.701   1.053
 4791SOL    HW115272   6.452   1.795   1.060
 4791SOL    HW215273   6.498   1.639   1.071
 4792SOL     OW15274   2.040   3.118   2.846
 4792SOL    HW115275   2.045   3.215   2.822
 4792SOL    HW215276   2.070   3.062   2.768
 4793SOL     OW15277   1.877   2.969   6.027
 4793SOL    HW115278   1.814   3.019   5.967
 4793SOL    HW215279   1.917   3.032   6.093
 4794SOL     OW15280   4.787   0.452   3.149
 4794SOL    HW115281   4.700   0.456   3.200
 4794SOL    HW215282   4.786   0.522   3.078
 4795SOL     OW15283   6.788   1.771   3.165
 4795SOL    HW115284   6.731   1.798   3.088
 4795SOL    HW215285   6.731   1.752   3.244
 4796SOL     OW15286   5.083   2.097   6.642
 4796SOL    HW115287   5.012   2.094   6.571
 4796SOL    HW215288   5.073   2.181   6.695
 4797SOL     OW15289   1.686   6.265   5.635
 4797SOL    HW115290   1.781   6.240   5.618
 4797SOL    HW215291   1.670   6.270   5.733
 4798SOL     OW15292   0.115   2.646   4.895
 4798SOL    HW115293   0.066   2.733   4.898
 4798SOL    HW215294   0.148   2.623   4.986
 4799SOL     OW15295   4.612   2.305   6.537
 4799SOL    HW115296   4.581   2.282   6.629
 4799SOL    HW215297   4.638   2.402   6.533
 4800SOL     OW15298   2.552   3.445   5.760
 4800SOL    HW115299   2.545   3.418   5.857
 4800SOL    HW215300   2.632   3.502   5.747
 4801SOL     OW15301   2.609   2.315   1.401
 4801SOL    HW115302   2.623   2.404   1.358
 4801SOL    HW215303   2.562   2.328   1.488
 4802SOL     OW15304   1.052   6.233   2.327
 4802SOL    HW115305   1.061   6.134   2.339
 4802SOL    HW215306   1.142   6.276   2.338
 4803SOL     OW15307   1.458   6.114   0.737
 4803SOL    HW115308   1.499   6.184   0.796
 4803SOL    HW215309   1.360   6.132   0.727
 4804SOL     OW15310   5.088   5.747   6.582
 4804SOL    HW115311   5.138   5.832   6.567
 4804SOL    HW215312   5.078   5.699   6.495
 4805SOL     OW15313   6.085   0.445   1.235
 4805SOL    HW115314   6.068   0.433   1.137
 4805SOL    HW215315   6.181   0.427   1.255
 4806SOL     OW15316   1.084   4.727   2.710
 4806SOL    HW115317   1.016   4.655   2.695
 4806SOL    HW215318   1.053   4.788   2.782
 4807SOL     OW15319   1.203   4.925   0.193
 4807SOL    HW115320   1.148   5.008   0.196
 4807SOL    HW215321   1.247   4.911   0.282
 4808SOL     OW15322   6.212   3.793   6.719
 4808SOL    HW115323   6.303   3.764   6.750
 4808SOL    HW215324   6.187   3.878   6.764
 4809SOL     OW15325   3.514   4.173   0.105
 4809SOL    HW115326   3.524   4.211   0.013
 4809SOL    HW215327   3.495   4.247   0.170
 4810SOL     OW15328   0.866   5.024   2.100
 4810SOL    HW115329   0.962   5.011   2.125
 4810SOL    HW215330   0.809   5.018   2.182
 4811SOL     OW15331   1.822   4.643   2.287
 4811SOL    HW115332   1.781   4.707   2.221
 4811SOL    HW215333   1.784   4.552   2.273
 4812SOL     OW15334   6.810   4.929   4.999
 4812SOL    HW115335   6.876   4.987   5.046
 4812SOL    HW215336   6.856   4.880   4.925
 4813SOL     OW15337   5.704   1.917   0.253
 4813SOL    HW115338   5.783   1.884   0.201
 4813SOL    HW215339   5.717   1.895   0.350
 4814SOL     OW15340   5.904   4.132   0.753
 4814SOL    HW115341   5.926   4.089   0.666
 4814SOL    HW215342   5.831   4.081   0.799
 4815SOL     OW15343   5.991   4.406   3.121
 4815SOL    HW115344   6.074   4.458   3.104
 4815SOL    HW215345   5.921   4.466   3.160
 4816SOL     OW15346   0.666   5.362   1.820
 4816SOL    HW115347   0.704   5.455   1.826
 4816SOL    HW215348   0.573   5.362   1.856
 4817SOL     OW15349   1.459   2.545   6.522
 4817SOL    HW115350   1.378   2.504   6.566
 4817SOL    HW215351   1.537   2.538   6.584
 4818SOL     OW15352   1.232   0.624   5.131
 4818SOL    HW115353   1.299   0.550   5.140
 4818SOL    HW215354   1.279   0.709   5.110
 4819SOL     OW15355   1.186   2.477   6.936
 4819SOL    HW115356   1.269   2.431   6.967
 4819SOL    HW215357   1.204   2.523   6.849
 4820SOL     OW15358   6.773   2.547   0.909
 4820SOL    HW115359   6.724   2.633   0.895
 4820SOL    HW215360   6.872   2.563   0.905
 4821SOL     OW15361   1.298   6.352   2.390
 4821SOL    HW115362   1.281   6.396   2.478
 4821SOL    HW215363   1.389   6.313   2.389
 4822SOL     OW15364   1.654   3.113   4.686
 4822SOL    HW115365   1.742   3.069   4.669
 4822SOL    HW215366   1.584   3.072   4.627
 4823SOL     OW15367   1.525   1.257   3.875
 4823SOL    HW115368   1.490   1.351   3.867
 4823SOL    HW215369   1.528   1.215   3.784
 4824SOL     OW15370   4.802   2.315   5.135
 4824SOL    HW115371   4.885   2.341   5.185
 4824SOL    HW215372   4.783   2.384   5.065
 4825SOL     OW15373   1.346   2.676   4.414
 4825SOL    HW115374   1.363   2.741   4.340
 4825SOL    HW215375   1.407   2.598   4.403
 4826SOL     OW15376   5.388   0.463   0.222
 4826SOL    HW115377   5.392   0.370   0.184
 4826SOL    HW215378   5.293   0.495   0.222
 4827SOL     OW15379   6.505   1.550   0.425
 4827SOL    HW115380   6.590   1.532   0.377
 4827SOL    HW215381   6.443   1.602   0.366
 4828SOL     OW15382   5.042   1.143   0.493
 4828SOL    HW115383   5.034   1.242   0.483
 4828SOL    HW215384   4.976   1.112   0.562
 4829SOL     OW15385   2.995   0.052   5.795
 4829SOL    HW115386   2.967   0.031   5.889
 4829SOL    HW215387   3.091   0.079   5.794
 4830SOL     OW15388   3.719   5.812   4.055
 4830SOL    HW115389   3.629   5.842   4.087
 4830SOL    HW215390   3.708   5.736   3.991
 4831SOL     OW15391   1.740   4.370   5.549
 4831SOL    HW115392   1.740   4.352   5.451
 4831SOL    HW215393   1.767   4.464   5.566
 4832SOL     OW15394   3.518   4.177   3.592
 4832SOL    HW115395   3.548   4.120   3.516
 4832SOL    HW215396   3.444   4.237   3.561
 4833SOL     OW15397   6.155   1.652   3.113
 4833SOL    HW115398   6.098   1.666   3.194
 4833SOL    HW215399   6.097   1.626   3.036
 4834SOL     OW15400   2.720   5.722   1.838
 4834SOL    HW115401   2.781   5.701   1.915
 4834SOL    HW215402   2.755   5.679   1.755
 4835SOL     OW15403   5.688   2.882   5.590
 4835SOL    HW115404   5.722   2.873   5.683
 4835SOL    HW215405   5.600   2.834   5.582
 4836SOL     OW15406   5.248   1.678   5.011
 4836SOL    HW115407   5.341   1.641   5.012
 4836SOL    HW215408   5.247   1.763   4.960
 4837SOL     OW15409   0.124   3.235   3.017
 4837SOL    HW115410   0.061   3.278   2.952
 4837SOL    HW215411   0.124   3.136   3.003
 4838SOL     OW15412   2.442   6.201   0.534
 4838SOL    HW115413   2.491   6.273   0.583
 4838SOL    HW215414   2.370   6.242   0.478
 4839SOL     OW15415   0.805   3.514   0.102
 4839SOL    HW115416   0.776   3.504   0.197
 4839SOL    HW215417   0.732   3.485   0.041
 4840SOL     OW15418   6.565   4.762   5.830
 4840SOL    HW115419   6.594   4.826   5.901
 4840SOL    HW215420   6.638   4.695   5.813
 4841SOL     OW15421   2.464   4.950   3.107
 4841SOL    HW115422   2.529   4.955   3.183
 4841SOL    HW215423   2.392   4.885   3.129
 4842SOL     OW15424   2.695   4.937   3.278
 4842SOL    HW115425   2.689   4.851   3.329
 4842SOL    HW215426   2.777   4.935   3.221
 4843SOL     OW15427   6.326   2.529   1.586
 4843SOL    HW115428   6.324   2.574   1.675
 4843SOL    HW215429   6.293   2.435   1.596
 4844SOL     OW15430   0.226   4.103   5.772
 4844SOL    HW115431   0.314   4.069   5.805
 4844SOL    HW215432   0.241   4.168   5.697
 4845SOL     OW15433   4.943   4.921   6.458
 4845SOL    HW115434   4.872   4.948   6.393
 4845SOL    HW215435   5.024   4.978   6.444
 4846SOL     OW15436   0.187   2.203   3.561
 4846SOL    HW115437   0.204   2.195   3.462
 4846SOL    HW215438   0.128   2.281   3.579
 4847SOL     OW15439   2.502   1.443   5.911
 4847SOL    HW115440   2.500   1.386   5.994
 4847SOL    HW215441   2.468   1.534   5.933
 4848SOL     OW15442   2.874   1.043   4.744
 4848SOL    HW115443   2.968   1.039   4.776
 4848SOL    HW215444   2.815   0.989   4.804
 4849SOL     OW15445   1.644   5.539   1.351
 4849SOL    HW115446   1.599   5.457   1.386
 4849SOL    HW215447   1.575   5.608   1.328
 4850SOL     OW15448   5.060   0.936   1.539
 4850SOL    HW115449   5.141   0.877   1.534
 4850SOL    HW215450   5.005   0.926   1.456
 4851SOL     OW15451   2.927   5.681   5.632
 4851SOL    HW115452   3.004   5.687   5.695
 4851SOL    HW215453   2.937   5.601   5.574
 4852SOL     OW15454   2.459   5.891   4.994
 4852SOL    HW115455   2.414   5.836   4.924
 4852SOL    HW215456   2.425   5.985   4.990
 4853SOL     OW15457   3.791   1.207   3.267
 4853SOL    HW115458   3.704   1.252   3.243
 4853SOL    HW215459   3.866   1.272   3.256
 4854SOL     OW15460   5.054   0.417   2.300
 4854SOL    HW115461   5.087   0.475   2.374
 4854SOL    HW215462   4.954   0.417   2.300
 4855SOL     OW15463   6.290   3.561   5.580
 4855SOL    HW115464   6.254   3.598   5.494
 4855SOL    HW215465   6.248   3.472   5.598
 4856SOL     OW15466   1.517   3.039   2.707
 4856SOL    HW115467   1.559   2.989   2.630
 4856SOL    HW215468   1.581   3.107   2.741
 4857SOL     OW15469   2.824   2.232   3.621
 4857SOL    HW115470   2.914   2.224   3.663
 4857SOL    HW215471   2.756   2.187   3.679
 4858SOL     OW15472   6.822   6.542   4.987
 4858SOL    HW115473   6.787   6.455   4.953
 4858SOL    HW215474   6.815   6.611   4.915
 4859SOL     OW15475   0.387   4.738   1.703
 4859SOL    HW115476   0.429   4.656   1.666
 4859SOL    HW215477   0.436   4.819   1.669
 4860SOL     OW15478   4.544   4.743   7.022
 4860SOL    HW115479   4.522   4.719   6.928
 4860SOL    HW215480   4.470   4.713   0.059
 4861SOL     OW15481   5.898   5.396   6.514
 4861SOL    HW115482   5.868   5.381   6.609
 4861SOL    HW215483   5.897   5.308   6.466
 4862SOL     OW15484   2.472   4.476   5.112
 4862SOL    HW115485   2.420   4.474   5.026
 4862SOL    HW215486   2.507   4.568   5.128
 4863SOL     OW15487   4.993   2.840   2.567
 4863SOL    HW115488   4.895   2.819   2.572
 4863SOL    HW215489   5.022   2.844   2.472
 4864SOL     OW15490   3.591   1.344   1.832
 4864SOL    HW115491   3.568   1.441   1.835
 4864SOL    HW215492   3.513   1.291   1.864
 4865SOL     OW15493   2.403   5.740   4.727
 4865SOL    HW115494   2.484   5.778   4.681
 4865SOL    HW215495   2.326   5.802   4.711
 4866SOL     OW15496   5.813   4.397   1.184
 4866SOL    HW115497   5.749   4.437   1.119
 4866SOL    HW215498   5.855   4.315   1.143
 4867SOL     OW15499   4.649   5.609   3.473
 4867SOL    HW115500   4.732   5.554   3.465
 4867SOL    HW215501   4.569   5.550   3.468
 4868SOL     OW15502   0.119   5.194   1.703
 4868SOL    HW115503   0.045   5.130   1.683
 4868SOL    HW215504   0.118   5.268   1.636
 4869SOL     OW15505   0.194   2.576   0.964
 4869SOL    HW115506   0.292   2.591   0.978
 4869SOL    HW215507   0.143   2.626   1.035
 4870SOL     OW15508   5.058   5.322   1.873
 4870SOL    HW115509   5.006   5.241   1.900
 4870SOL    HW215510   5.052   5.334   1.774
 4871SOL     OW15511   0.170   1.030   4.443
 4871SOL    HW115512   0.198   0.948   4.393
 4871SOL    HW215513   0.191   1.111   4.389
 4872SOL     OW15514   0.815   6.109   4.035
 4872SOL    HW115515   0.807   6.039   4.106
 4872SOL    HW215516   0.894   6.167   4.053
 4873SOL     OW15517   0.004   5.091   3.992
 4873SOL    HW115518   0.100   5.087   4.020
 4873SOL    HW215519   6.982   5.004   4.013
 4874SOL     OW15520   6.075   3.614   2.692
 4874SOL    HW115521   6.152   3.588   2.634
 4874SOL    HW215522   6.099   3.695   2.745
 4875SOL     OW15523   5.300   2.345   1.207
 4875SOL    HW115524   5.247   2.402   1.269
 4875SOL    HW215525   5.390   2.328   1.247
 4876SOL     OW15526   6.207   0.406   4.431
 4876SOL    HW115527   6.264   0.455   4.497
 4876SOL    HW215528   6.244   0.314   4.416
 4877SOL     OW15529   6.682   1.502   0.831
 4877SOL    HW115530   6.763   1.540   0.875
 4877SOL    HW215531   6.641   1.570   0.770
 4878SOL     OW15532   6.027   1.977   2.296
 4878SOL    HW115533   5.941   1.956   2.250
 4878SOL    HW215534   6.094   2.009   2.230
 4879SOL     OW15535   4.368   5.148   3.106
 4879SOL    HW115536   4.269   5.160   3.115
 4879SOL    HW215537   4.412   5.162   3.195
 4880SOL     OW15538   5.063   3.179   6.511
 4880SOL    HW115539   5.010   3.206   6.591
 4880SOL    HW215540   5.057   3.080   6.500
 4881SOL     OW15541   2.267   5.853   0.418
 4881SOL    HW115542   2.332   5.813   0.483
 4881SOL    HW215543   2.268   5.953   0.427
 4882SOL     OW15544   6.310   1.369   4.848
 4882SOL    HW115545   6.385   1.403   4.792
 4882SOL    HW215546   6.291   1.273   4.825
 4883SOL     OW15547   5.290   4.622   2.283
 4883SOL    HW115548   5.276   4.701   2.341
 4883SOL    HW215549   5.385   4.621   2.251
 4884SOL     OW15550   4.309   6.943   0.564
 4884SOL    HW115551   4.327   0.014   0.534
 4884SOL    HW215552   4.388   6.885   0.543
 4885SOL     OW15553   2.826   6.418   2.603
 4885SOL    HW115554   2.782   6.402   2.691
 4885SOL    HW215555   2.840   6.516   2.590
 4886SOL     OW15556   0.194   5.623   6.094
 4886SOL    HW115557   0.121   5.684   6.063
 4886SOL    HW215558   0.230   5.655   6.181
 4887SOL     OW15559   0.215   1.747   2.670
 4887SOL    HW115560   0.251   1.834   2.704
 4887SOL    HW215561   0.170   1.762   2.582
 4888SOL     OW15562   2.225   6.230   4.082
 4888SOL    HW115563   2.285   6.240   4.003
 4888SOL    HW215564   2.237   6.309   4.143
 4889SOL     OW15565   0.168   1.798   6.778
 4889SOL    HW115566   0.151   1.876   6.838
 4889SOL    HW215567   0.249   1.815   6.722
 4890SOL     OW15568   0.584   2.138   5.130
 4890SOL    HW115569   0.553   2.216   5.077
 4890SOL    HW215570   0.681   2.148   5.152
 4891SOL     OW15571   1.349   5.593   0.022
 4891SOL    HW115572   1.364   5.691   0.032
 4891SOL    HW215573   1.251   5.573   0.031
 4892SOL     OW15574   2.519   5.889   2.143
 4892SOL    HW115575   2.517   5.792   2.167
 4892SOL    HW215576   2.607   5.911   2.101
 4893SOL     OW15577   6.280   4.660   6.626
 4893SOL    HW115578   6.366   4.662   6.677
 4893SOL    HW215579   6.248   4.754   6.612
 4894SOL     OW15580   2.561   0.655   1.888
 4894SOL    HW115581   2.499   0.729   1.914
 4894SOL    HW215582   2.654   0.678   1.917
 4895SOL     OW15583   0.166   4.582   1.267
 4895SOL    HW115584   0.170   4.618   1.360
 4895SOL    HW215585   0.095   4.512   1.261
 4896SOL     OW15586   2.559   5.552   2.740
 4896SOL    HW115587   2.515   5.624   2.685
 4896SOL    HW215588   2.548   5.464   2.694
 4897SOL     OW15589   2.762   5.377   6.327
 4897SOL    HW115590   2.862   5.366   6.326
 4897SOL    HW215591   2.739   5.474   6.327
 4898SOL     OW15592   5.993   1.570   5.135
 4898SOL    HW115593   5.999   1.566   5.035
 4898SOL    HW215594   5.910   1.523   5.165
 4899SOL     OW15595   6.474   4.609   2.564
 4899SOL    HW115596   6.470   4.634   2.661
 4899SOL    HW215597   6.542   4.537   2.551
 4900SOL     OW15598   1.816   6.148   5.329
 4900SOL    HW115599   1.799   6.068   5.387
 4900SOL    HW215600   1.829   6.229   5.386
 4901SOL     OW15601   2.193   6.952   5.224
 4901SOL    HW115602   2.140   7.018   5.276
 4901SOL    HW215603   2.289   6.956   5.252
 4902SOL     OW15604   2.391   2.702   4.277
 4902SOL    HW115605   2.461   2.743   4.335
 4902SOL    HW215606   2.306   2.692   4.330
 4903SOL     OW15607   3.164   6.718   0.029
 4903SOL    HW115608   3.091   6.653   0.047
 4903SOL    HW215609   3.252   6.670   0.024
 4904SOL     OW15610   1.606   0.290   3.841
 4904SOL    HW115611   1.613   0.339   3.754
 4904SOL    HW215612   1.533   0.330   3.896
 4905SOL     OW15613   4.185   2.307   2.584
 4905SOL    HW115614   4.108   2.341   2.638
 4905SOL    HW215615   4.223   2.226   2.629
 4906SOL     OW15616   3.469   1.032   6.528
 4906SOL    HW115617   3.392   1.094   6.537
 4906SOL    HW215618   3.516   1.049   6.441
 4907SOL     OW15619   4.279   5.846   2.473
 4907SOL    HW115620   4.261   5.879   2.565
 4907SOL    HW215621   4.367   5.798   2.470
 4908SOL     OW15622   3.699   5.179   0.067
 4908SOL    HW115623   3.656   5.264   0.039
 4908SOL    HW215624   3.630   5.107   0.075
 4909SOL     OW15625   6.241   6.926   6.399
 4909SOL    HW115626   6.194   6.995   6.454
 4909SOL    HW215627   6.316   6.887   6.452
 4910SOL     OW15628   5.639   0.014   5.094
 4910SOL    HW115629   5.720   7.003   5.048
 4910SOL    HW215630   5.565   6.970   5.085
 4911SOL     OW15631   6.838   2.598   5.583
 4911SOL    HW115632   6.906   2.657   5.540
 4911SOL    HW215633   6.750   2.644   5.585
 4912SOL     OW15634   5.338   1.668   1.092
 4912SOL    HW115635   5.302   1.751   1.134
 4912SOL    HW215636   5.276   1.638   1.019
 4913SOL     OW15637   3.660   3.510   3.619
 4913SOL    HW115638   3.739   3.527   3.561
 4913SOL    HW215639   3.583   3.566   3.588
 4914SOL     OW15640   3.780   0.786   4.951
 4914SOL    HW115641   3.696   0.826   4.913
 4914SOL    HW215642   3.761   0.694   4.984
 4915SOL     OW15643   4.679   0.747   4.826
 4915SOL    HW115644   4.615   0.736   4.750
 4915SOL    HW215645   4.768   0.709   4.800
 4916SOL     OW15646   1.586   1.431   3.010
 4916SOL    HW115647   1.624   1.353   2.960
 4916SOL    HW215648   1.642   1.512   2.994
 4917SOL     OW15649   1.872   3.715   0.401
 4917SOL    HW115650   1.902   3.797   0.451
 4917SOL    HW215651   1.919   3.635   0.437
 4918SOL     OW15652   3.086   0.216   2.752
 4918SOL    HW115653   3.180   0.249   2.745
 4918SOL    HW215654   3.025   0.284   2.711
 4919SOL     OW15655   2.591   2.093   1.708
 4919SOL    HW115656   2.589   2.009   1.654
 4919SOL    HW215657   2.669   2.091   1.770
 4920SOL     OW15658   4.036   0.507   6.777
 4920SOL    HW115659   4.051   0.503   6.678
 4920SOL    HW215660   4.119   0.476   6.824
 4921SOL     OW15661   2.147   4.025   1.722
 4921SOL    HW115662   2.233   4.076   1.723
 4921SOL    HW215663   2.086   4.059   1.794
 4922SOL     OW15664   0.952   3.274   5.031
 4922SOL    HW115665   0.946   3.237   4.938
 4922SOL    HW215666   1.020   3.347   5.034
 4923SOL     OW15667   4.475   0.831   1.254
 4923SOL    HW115668   4.487   0.930   1.261
 4923SOL    HW215669   4.425   0.797   1.333
 4924SOL     OW15670   2.201   3.029   5.867
 4924SOL    HW115671   2.194   3.126   5.890
 4924SOL    HW215672   2.225   2.977   5.949
 4925SOL     OW15673   6.594   6.298   0.552
 4925SOL    HW115674   6.650   6.376   0.524
 4925SOL    HW215675   6.561   6.312   0.645
 4926SOL     OW15676   5.300   2.905   1.620
 4926SOL    HW115677   5.229   2.842   1.650
 4926SOL    HW215678   5.261   2.971   1.555
 4927SOL     OW15679   4.051   3.328   3.903
 4927SOL    HW115680   4.062   3.238   3.945
 4927SOL    HW215681   4.075   3.399   3.970
 4928SOL     OW15682   0.467   6.936   6.472
 4928SOL    HW115683   0.385   6.886   6.444
 4928SOL    HW215684   0.443   0.008   6.492
 4929SOL     OW15685   1.150   4.398   5.334
 4929SOL    HW115686   1.094   4.362   5.260
 4929SOL    HW215687   1.219   4.330   5.360
 4930SOL     OW15688   6.576   0.231   1.397
 4930SOL    HW115689   6.627   0.293   1.455
 4930SOL    HW215690   6.638   0.183   1.335
 4931SOL     OW15691   0.867   6.512   0.508
 4931SOL    HW115692   0.964   6.530   0.520
 4931SOL    HW215693   0.837   6.441   0.572
 4932SOL     OW15694   2.229   3.329   1.667
 4932SOL    HW115695   2.296   3.373   1.727
 4932SOL    HW215696   2.140   3.372   1.680
 4933SOL     OW15697   2.536   0.387   4.272
 4933SOL    HW115698   2.633   0.412   4.263
 4933SOL    HW215699   2.489   0.455   4.328
 4934SOL     OW15700   1.336   5.424   4.041
 4934SOL    HW115701   1.347   5.430   4.140
 4934SOL    HW215702   1.424   5.407   3.997
 4935SOL     OW15703   1.154   0.962   0.049
 4935SOL    HW115704   1.238   0.953   0.103
 4935SOL    HW215705   1.147   1.055   0.014
 4936SOL     OW15706   2.004   5.276   2.131
 4936SOL    HW115707   2.049   5.218   2.063
 4936SOL    HW215708   2.031   5.371   2.118
 4937SOL     OW15709   0.746   3.892   5.946
 4937SOL    HW115710   0.687   3.851   5.876
 4937SOL    HW215711   0.749   3.991   5.933
 4938SOL     OW15712   3.536   5.027   1.611
 4938SOL    HW115713   3.477   5.108   1.617
 4938SOL    HW215714   3.511   4.962   1.682
 4939SOL     OW15715   1.464   2.153   3.242
 4939SOL    HW115716   1.392   2.221   3.255
 4939SOL    HW215717   1.482   2.143   3.144
 4940SOL     OW15718   6.958   1.496   5.549
 4940SOL    HW115719   6.968   1.495   5.648
 4940SOL    HW215720   6.860   1.493   5.525
 4941SOL     OW15721   4.151   2.763   5.365
 4941SOL    HW115722   4.095   2.842   5.344
 4941SOL    HW215723   4.164   2.708   5.282
 4942SOL     OW15724   5.255   3.058   4.302
 4942SOL    HW115725   5.332   2.995   4.286
 4942SOL    HW215726   5.282   3.126   4.370
 4943SOL     OW15727   5.028   4.004   6.371
 4943SOL    HW115728   5.124   4.027   6.387
 4943SOL    HW215729   4.977   4.088   6.354
 4944SOL     OW15730   2.444   4.090   1.725
 4944SOL    HW115731   2.422   4.112   1.821
 4944SOL    HW215732   2.507   4.158   1.689
 4945SOL     OW15733   1.229   0.049   4.852
 4945SOL    HW115734   1.138   0.085   4.832
 4945SOL    HW215735   1.268   0.009   4.769
 4946SOL     OW15736   0.901   5.296   0.210
 4946SOL    HW115737   0.833   5.232   0.174
 4946SOL    HW215738   0.979   5.299   0.149
 4947SOL     OW15739   2.410   1.180   1.437
 4947SOL    HW115740   2.364   1.122   1.369
 4947SOL    HW215741   2.508   1.183   1.417
 4948SOL     OW15742   1.849   2.650   3.430
 4948SOL    HW115743   1.847   2.693   3.340
 4948SOL    HW215744   1.833   2.551   3.421
 4949SOL     OW15745   0.315   3.909   5.164
 4949SOL    HW115746   0.236   3.852   5.141
 4949SOL    HW215747   0.298   4.003   5.134
 4950SOL     OW15748   2.336   4.337   5.745
 4950SOL    HW115749   2.273   4.369   5.674
 4950SOL    HW215750   2.426   4.377   5.729
 4951SOL     OW15751   6.424   6.742   4.433
 4951SOL    HW115752   6.489   6.667   4.434
 4951SOL    HW215753   6.334   6.707   4.405
 4952SOL     OW15754   0.745   6.945   6.219
 4952SOL    HW115755   0.681   7.008   6.263
 4952SOL    HW215756   0.693   6.876   6.167
 4953SOL     OW15757   1.590   0.045   3.311
 4953SOL    HW115758   1.496   0.017   3.292
 4953SOL    HW215759   1.647   6.986   3.324
 4954SOL     OW15760   2.816   3.732   6.425
 4954SOL    HW115761   2.763   3.672   6.484
 4954SOL    HW215762   2.777   3.824   6.426
 4955SOL     OW15763   3.194   6.351   0.447
 4955SOL    HW115764   3.193   6.384   0.353
 4955SOL    HW215765   3.101   6.324   0.474
 4956SOL     OW15766   2.750   0.109   5.222
 4956SOL    HW115767   2.809   0.036   5.186
 4956SOL    HW215768   2.793   0.150   5.303
 4957SOL     OW15769   5.218   3.453   0.700
 4957SOL    HW115770   5.127   3.445   0.660
 4957SOL    HW215771   5.281   3.390   0.654
 4958SOL     OW15772   1.704   5.715   6.075
 4958SOL    HW115773   1.668   5.793   6.023
 4958SOL    HW215774   1.783   5.744   6.128
 4959SOL     OW15775   6.235   1.408   1.146
 4959SOL    HW115776   6.188   1.491   1.114
 4959SOL    HW215777   6.282   1.365   1.069
 4960SOL     OW15778   4.289   4.852   4.011
 4960SOL    HW115779   4.371   4.854   4.067
 4960SOL    HW215780   4.210   4.829   4.068
 4961SOL     OW15781   2.696   0.226   6.074
 4961SOL    HW115782   2.775   0.284   6.095
 4961SOL    HW215783   2.653   0.197   6.160
 4962SOL     OW15784   5.530   2.539   1.059
 4962SOL    HW115785   5.526   2.545   1.159
 4962SOL    HW215786   5.622   2.565   1.028
 4963SOL     OW15787   1.244   5.260   0.488
 4963SOL    HW115788   1.207   5.170   0.468
 4963SOL    HW215789   1.266   5.307   0.403
 4964SOL     OW15790   2.441   0.238   4.536
 4964SOL    HW115791   2.514   0.275   4.479
 4964SOL    HW215792   2.464   0.251   4.633
 4965SOL     OW15793   1.292   6.503   2.647
 4965SOL    HW115794   1.271   6.522   2.743
 4965SOL    HW215795   1.391   6.499   2.635
 4966SOL     OW15796   2.926   6.447   5.180
 4966SOL    HW115797   2.942   6.371   5.117
 4966SOL    HW215798   2.905   6.411   5.271
 4967SOL     OW15799   2.648   5.495   5.612
 4967SOL    HW115800   2.745   5.486   5.592
 4967SOL    HW215801   2.635   5.543   5.699
 4968SOL     OW15802   0.268   1.322   3.593
 4968SOL    HW115803   0.361   1.318   3.630
 4968SOL    HW215804   0.273   1.343   3.495
 4969SOL     OW15805   1.104   5.981   2.440
 4969SOL    HW115806   1.106   5.947   2.534
 4969SOL    HW215807   1.041   5.926   2.385
 4970SOL     OW15808   2.245   1.390   1.336
 4970SOL    HW115809   2.304   1.467   1.361
 4970SOL    HW215810   2.245   1.323   1.410
 4971SOL     OW15811   6.443   5.830   2.915
 4971SOL    HW115812   6.477   5.804   2.824
 4971SOL    HW215813   6.520   5.846   2.976
 4972SOL     OW15814   0.663   4.108   0.792
 4972SOL    HW115815   0.599   4.184   0.805
 4972SOL    HW215816   0.732   4.134   0.725
 4973SOL     OW15817   0.831   0.137   1.825
 4973SOL    HW115818   0.920   0.108   1.789
 4973SOL    HW215819   0.831   0.131   1.925
 4974SOL     OW15820   6.148   4.958   0.741
 4974SOL    HW115821   6.129   4.931   0.647
 4974SOL    HW215822   6.229   5.016   0.744
 4975SOL     OW15823   5.630   4.099   6.959
 4975SOL    HW115824   5.665   4.006   6.951
 4975SOL    HW215825   5.531   4.099   6.946
 4976SOL     OW15826   1.282   1.224   4.302
 4976SOL    HW115827   1.370   1.205   4.259
 4976SOL    HW215828   1.213   1.159   4.269
 4977SOL     OW15829   3.987   5.405   6.936
 4977SOL    HW115830   3.926   5.425   7.013
 4977SOL    HW215831   4.079   5.385   6.970
 4978SOL     OW15832   5.590   4.920   4.505
 4978SOL    HW115833   5.554   4.919   4.411
 4978SOL    HW215834   5.525   4.874   4.566
 4979SOL     OW15835   6.903   6.521   6.111
 4979SOL    HW115836   6.958   6.600   6.083
 4979SOL    HW215837   6.812   6.551   6.138
 4980SOL     OW15838   5.438   5.449   3.157
 4980SOL    HW115839   5.344   5.452   3.192
 4980SOL    HW215840   5.502   5.470   3.231
 4981SOL     OW15841   3.916   5.239   2.456
 4981SOL    HW115842   3.916   5.323   2.402
 4981SOL    HW215843   3.891   5.161   2.397
 4982SOL     OW15844   3.061   2.281   6.034
 4982SOL    HW115845   3.008   2.366   6.032
 4982SOL    HW215846   3.090   2.256   5.941
 4983SOL     OW15847   5.827   3.882   4.981
 4983SOL    HW115848   5.844   3.959   5.042
 4983SOL    HW215849   5.741   3.896   4.932
 4984SOL     OW15850   4.897   3.736   2.920
 4984SOL    HW115851   4.987   3.774   2.942
 4984SOL    HW215852   4.898   3.638   2.935
 4985SOL     OW15853   5.721   6.756   3.171
 4985SOL    HW115854   5.626   6.765   3.140
 4985SOL    HW215855   5.752   6.662   3.155
 4986SOL     OW15856   6.567   5.011   0.739
 4986SOL    HW115857   6.628   5.073   0.789
 4986SOL    HW215858   6.488   5.063   0.706
 4987SOL     OW15859   1.147   6.608   2.418
 4987SOL    HW115860   1.204   6.587   2.339
 4987SOL    HW215861   1.190   6.573   2.501
 4988SOL     OW15862   6.251   0.877   2.394
 4988SOL    HW115863   6.286   0.928   2.316
 4988SOL    HW215864   6.208   0.940   2.458
 4989SOL     OW15865   5.452   0.051   1.293
 4989SOL    HW115866   5.369   0.044   1.350
 4989SOL    HW215867   5.469   0.148   1.273
 4990SOL     OW15868   2.859   2.128   6.137
 4990SOL    HW115869   2.924   2.199   6.112
 4990SOL    HW215870   2.908   2.051   6.178
 4991SOL     OW15871   6.283   5.290   3.962
 4991SOL    HW115872   6.325   5.357   3.900
 4991SOL    HW215873   6.212   5.240   3.913
 4992SOL     OW15874   5.186   0.650   2.096
 4992SOL    HW115875   5.271   0.654   2.148
 4992SOL    HW215876   5.109   0.640   2.158
 4993SOL     OW15877   3.762   6.211   4.872
 4993SOL    HW115878   3.735   6.299   4.832
 4993SOL    HW215879   3.848   6.181   4.830
 4994SOL     OW15880   2.147   6.690   4.356
 4994SOL    HW115881   2.097   6.726   4.276
 4994SOL    HW215882   2.082   6.667   4.428
 4995SOL     OW15883   0.808   1.952   5.834
 4995SOL    HW115884   0.820   1.871   5.892
 4995SOL    HW215885   0.776   1.924   5.744
 4996SOL     OW15886   6.976   0.899   2.670
 4996SOL    HW115887   6.955   0.913   2.573
 4996SOL    HW215888   6.992   0.802   2.687
 4997SOL     OW15889   4.260   2.319   2.177
 4997SOL    HW115890   4.225   2.314   2.083
 4997SOL    HW215891   4.212   2.253   2.234
 4998SOL     OW15892   1.878   3.932   4.512
 4998SOL    HW115893   1.796   3.946   4.455
 4998SOL    HW215894   1.854   3.880   4.593
 4999SOL     OW15895   6.873   3.154   4.954
 4999SOL    HW115896   6.802   3.138   5.024
 4999SOL    HW215897   6.873   3.251   4.928
 5000SOL     OW15898   2.841   0.075   3.329
 5000SOL    HW115899   2.899   0.028   3.395
 5000SOL    HW215900   2.763   0.016   3.305
 5001SOL     OW15901   1.068   5.428   2.039
 5001SOL    HW115902   1.072   5.485   1.958
 5001SOL    HW215903   0.994   5.361   2.030
 5002SOL     OW15904   0.629   3.926   2.231
 5002SOL    HW115905   0.567   3.855   2.198
 5002SOL    HW215906   0.691   3.887   2.300
 5003SOL     OW15907   3.149   6.107   3.304
 5003SOL    HW115908   3.177   6.049   3.228
 5003SOL    HW215909   3.058   6.079   3.336
 5004SOL     OW15910   2.433   4.700   5.807
 5004SOL    HW115911   2.494   4.668   5.734
 5004SOL    HW215912   2.487   4.739   5.882
 5005SOL     OW15913   3.372   3.338   6.967
 5005SOL    HW115914   3.387   3.327   6.869
 5005SOL    HW215915   3.369   3.436   6.990
 5006SOL     OW15916   5.449   0.748   1.952
 5006SOL    HW115917   5.512   0.826   1.963
 5006SOL    HW215918   5.356   0.782   1.938
 5007SOL     OW15919   0.394   6.837   1.531
 5007SOL    HW115920   0.303   6.862   1.497
 5007SOL    HW215921   0.464   6.879   1.473
 5008SOL     OW15922   6.107   5.919   1.722
 5008SOL    HW115923   6.171   5.904   1.646
 5008SOL    HW215924   6.018   5.880   1.699
 5009SOL     OW15925   0.048   2.383   6.969
 5009SOL    HW115926   0.030   2.473   6.930
 5009SOL    HW215927   0.146   2.371   6.983
 5010SOL     OW15928   4.134   2.755   0.781
 5010SOL    HW115929   4.071   2.741   0.857
 5010SOL    HW215930   4.187   2.671   0.765
 5011SOL     OW15931   1.303   4.713   1.499
 5011SOL    HW115932   1.307   4.802   1.454
 5011SOL    HW215933   1.316   4.640   1.431
 5012SOL     OW15934   6.222   2.903   4.938
 5012SOL    HW115935   6.196   2.868   4.849
 5012SOL    HW215936   6.176   2.990   4.955
 5013SOL     OW15937   5.051   1.758   6.460
 5013SOL    HW115938   5.139   1.713   6.472
 5013SOL    HW215939   5.019   1.792   6.549
 5014SOL     OW15940   5.916   4.208   1.020
 5014SOL    HW115941   5.889   4.201   0.924
 5014SOL    HW215942   5.978   4.133   1.043
 5015SOL     OW15943   4.943   1.411   5.163
 5015SOL    HW115944   4.965   1.509   5.162
 5015SOL    HW215945   4.901   1.387   5.251
 5016SOL     OW15946   2.029   3.244   5.407
 5016SOL    HW115947   2.005   3.218   5.501
 5016SOL    HW215948   2.117   3.205   5.383
 5017SOL     OW15949   2.059   2.861   1.307
 5017SOL    HW115950   2.042   2.937   1.370
 5017SOL    HW215951   2.023   2.776   1.347
 5018SOL     OW15952   1.130   4.886   2.501
 5018SOL    HW115953   1.103   4.823   2.428
 5018SOL    HW215954   1.100   4.850   2.589
 5019SOL     OW15955   1.506   5.556   5.593
 5019SOL    HW115956   1.567   5.478   5.605
 5019SOL    HW215957   1.475   5.588   5.683
 5020SOL     OW15958   5.856   6.821   6.187
 5020SOL    HW115959   5.863   6.873   6.102
 5020SOL    HW215960   5.938   6.765   6.199
 5021SOL     OW15961   0.950   1.501   0.263
 5021SOL    HW115962   1.011   1.503   0.342
 5021SOL    HW215963   0.990   1.444   0.191
 5022SOL     OW15964   2.064   2.384   1.294
 5022SOL    HW115965   1.979   2.416   1.252
 5022SOL    HW215966   2.095   2.451   1.362
 5023SOL     OW15967   0.393   3.478   1.581
 5023SOL    HW115968   0.367   3.395   1.630
 5023SOL    HW215969   0.338   3.487   1.498
 5024SOL     OW15970   5.991   5.642   1.481
 5024SOL    HW115971   6.010   5.561   1.425
 5024SOL    HW215972   5.973   5.720   1.421
 5025SOL     OW15973   4.250   1.913   3.561
 5025SOL    HW115974   4.315   1.936   3.635
 5025SOL    HW215975   4.165   1.963   3.576
 5026SOL     OW15976   6.638   6.326   5.525
 5026SOL    HW115977   6.566   6.261   5.551
 5026SOL    HW215978   6.727   6.281   5.532
 5027SOL     OW15979   6.266   6.529   1.416
 5027SOL    HW115980   6.179   6.487   1.439
 5027SOL    HW215981   6.333   6.458   1.394
 5028SOL     OW15982   0.745   1.860   2.726
 5028SOL    HW115983   0.789   1.773   2.750
 5028SOL    HW215984   0.741   1.869   2.627
 5029SOL     OW15985   6.094   2.492   2.543
 5029SOL    HW115986   6.046   2.579   2.536
 5029SOL    HW215987   6.183   2.499   2.499
 5030SOL     OW15988   0.326   6.293   6.382
 5030SOL    HW115989   0.367   6.381   6.356
 5030SOL    HW215990   0.238   6.310   6.426
 5031SOL     OW15991   6.514   1.128   6.035
 5031SOL    HW115992   6.528   1.044   5.982
 5031SOL    HW215993   6.562   1.121   6.122
 5032SOL     OW15994   2.522   2.185   5.619
 5032SOL    HW115995   2.557   2.278   5.613
 5032SOL    HW215996   2.535   2.149   5.711
 5033SOL     OW15997   2.278   6.829   5.868
 5033SOL    HW115998   2.342   6.890   5.915
 5033SOL    HW215999   2.208   6.798   5.932
 5034SOL     OW16000   5.955   6.937   3.297
 5034SOL    HW116001   5.863   6.927   3.337
 5034SOL    HW216002   6.000   6.848   3.295
 5035SOL     OW16003   0.137   4.184   6.135
 5035SOL    HW116004   0.169   4.116   6.068
 5035SOL    HW216005   0.131   4.141   6.225
 5036SOL     OW16006   0.453   5.010   6.592
 5036SOL    HW116007   0.445   5.032   6.689
 5036SOL    HW216008   0.379   4.948   6.565
 5037SOL     OW16009   5.098   4.478   1.723
 5037SOL    HW116010   5.142   4.390   1.709
 5037SOL    HW216011   5.012   4.465   1.774
 5038SOL     OW16012   3.091   3.835   5.579
 5038SOL    HW116013   3.057   3.904   5.642
 5038SOL    HW216014   3.170   3.870   5.529
 5039SOL     OW16015   2.362   4.251   5.997
 5039SOL    HW116016   2.282   4.271   6.054
 5039SOL    HW216017   2.350   4.293   5.907
 5040SOL     OW16018   1.299   6.802   6.336
 5040SOL    HW116019   1.325   6.869   6.406
 5040SOL    HW216020   1.202   6.812   6.314
 5041SOL     OW16021   1.127   1.486   2.499
 5041SOL    HW116022   1.109   1.524   2.589
 5041SOL    HW216023   1.138   1.387   2.506
 5042SOL     OW16024   6.404   3.622   0.029
 5042SOL    HW116025   6.414   3.716   0.061
 5042SOL    HW216026   6.328   3.579   0.079
 5043SOL     OW16027   3.417   6.804   6.526
 5043SOL    HW116028   3.513   6.777   6.534
 5043SOL    HW216029   3.396   6.876   6.592
 5044SOL     OW16030   0.791   6.177   0.575
 5044SOL    HW116031   0.828   6.221   0.494
 5044SOL    HW216032   0.692   6.169   0.566
 5045SOL     OW16033   5.879   6.775   6.575
 5045SOL    HW116034   5.871   6.861   6.523
 5045SOL    HW216035   5.934   6.710   6.523
 5046SOL     OW16036   3.391   4.144   2.705
 5046SOL    HW116037   3.363   4.081   2.632
 5046SOL    HW216038   3.310   4.188   2.744
 5047SOL     OW16039   1.169   4.372   2.598
 5047SOL    HW116040   1.153   4.314   2.518
 5047SOL    HW216041   1.235   4.443   2.575
 5048SOL     OW16042   1.189   1.220   2.494
 5048SOL    HW116043   1.138   1.157   2.436
 5048SOL    HW216044   1.277   1.179   2.519
 5049SOL     OW16045   4.959   2.320   6.781
 5049SOL    HW116046   4.983   2.384   6.853
 5049SOL    HW216047   4.860   2.310   6.777
 5050SOL     OW16048   2.037   0.835   1.277
 5050SOL    HW116049   2.041   0.845   1.376
 5050SOL    HW216050   1.944   0.853   1.246
 5051SOL     OW16051   4.093   4.507   1.059
 5051SOL    HW116052   4.157   4.487   1.134
 5051SOL    HW216053   4.113   4.597   1.021
 5052SOL     OW16054   2.396   0.964   5.971
 5052SOL    HW116055   2.416   0.920   6.058
 5052SOL    HW216056   2.439   1.054   5.968
 5053SOL     OW16057   1.901   4.020   3.991
 5053SOL    HW116058   1.808   4.003   3.956
 5053SOL    HW216059   1.898   4.096   4.055
 5054SOL     OW16060   3.563   4.997   4.114
 5054SOL    HW116061   3.589   5.010   4.018
 5054SOL    HW216062   3.504   5.072   4.143
 5055SOL     OW16063   1.323   2.666   5.505
 5055SOL    HW116064   1.420   2.655   5.525
 5055SOL    HW216065   1.310   2.670   5.406
 5056SOL     OW16066   5.354   4.108   6.894
 5056SOL    HW116067   5.275   4.134   6.838
 5056SOL    HW216068   5.326   4.102   6.990
 5057SOL     OW16069   0.180   6.337   3.631
 5057SOL    HW116070   0.136   6.331   3.720
 5057SOL    HW216071   0.171   6.429   3.595
 5058SOL     OW16072   3.389   4.177   5.239
 5058SOL    HW116073   3.295   4.194   5.210
 5058SOL    HW216074   3.426   4.099   5.188
 5059SOL     OW16075   6.518   1.131   3.000
 5059SOL    HW116076   6.593   1.161   2.940
 5059SOL    HW216077   6.436   1.184   2.981
 5060SOL     OW16078   0.515   2.012   5.817
 5060SOL    HW116079   0.601   1.964   5.831
 5060SOL    HW216080   0.439   1.950   5.836
 5061SOL     OW16081   4.722   3.004   1.026
 5061SOL    HW116082   4.661   3.049   0.961
 5061SOL    HW216083   4.801   3.062   1.044
 5062SOL     OW16084   5.935   0.307   2.897
 5062SOL    HW116085   5.949   0.225   2.953
 5062SOL    HW216086   5.892   0.281   2.810
 5063SOL     OW16087   0.893   6.721   2.499
 5063SOL    HW116088   0.914   6.713   2.596
 5063SOL    HW216089   0.959   6.667   2.446
 5064SOL     OW16090   5.084   3.752   1.036
 5064SOL    HW116091   5.158   3.687   1.055
 5064SOL    HW216092   5.081   3.820   1.110
 5065SOL     OW16093   2.451   0.817   4.309
 5065SOL    HW116094   2.509   0.810   4.228
 5065SOL    HW216095   2.461   0.908   4.350
 5066SOL     OW16096   5.256   4.427   2.468
 5066SOL    HW116097   5.272   4.472   2.380
 5066SOL    HW216098   5.248   4.497   2.540
 5067SOL     OW16099   4.755   1.030   1.447
 5067SOL    HW116100   4.838   1.000   1.401
 5067SOL    HW216101   4.778   1.078   1.531
 5068SOL     OW16102   2.624   3.845   0.987
 5068SOL    HW116103   2.599   3.751   0.965
 5068SOL    HW216104   2.556   3.908   0.949
 5069SOL     OW16105   1.788   4.069   5.589
 5069SOL    HW116106   1.750   4.102   5.503
 5069SOL    HW216107   1.874   4.117   5.608
 5070SOL     OW16108   4.983   4.243   4.177
 5070SOL    HW116109   4.903   4.280   4.223
 5070SOL    HW216110   4.978   4.143   4.176
 5071SOL     OW16111   4.424   2.345   4.317
 5071SOL    HW116112   4.396   2.406   4.391
 5071SOL    HW216113   4.489   2.278   4.352
 5072SOL     OW16114   1.109   6.815   1.181
 5072SOL    HW116115   1.074   6.730   1.222
 5072SOL    HW216116   1.053   6.892   1.212
 5073SOL     OW16117   6.924   5.961   2.649
 5073SOL    HW116118   6.833   5.998   2.634
 5073SOL    HW216119   6.922   5.900   2.729
 5074SOL     OW16120   3.022   3.170   0.982
 5074SOL    HW116121   2.969   3.157   0.897
 5074SOL    HW216122   3.037   3.268   0.996
 5075SOL     OW16123   1.388   1.859   6.769
 5075SOL    HW116124   1.446   1.939   6.759
 5075SOL    HW216125   1.299   1.886   6.804
 5076SOL     OW16126   3.756   0.931   0.561
 5076SOL    HW116127   3.851   0.962   0.556
 5076SOL    HW216128   3.713   0.939   0.472
 5077SOL     OW16129   0.835   3.643   5.411
 5077SOL    HW116130   0.903   3.671   5.479
 5077SOL    HW216131   0.766   3.585   5.455
 5078SOL     OW16132   1.598   1.723   3.559
 5078SOL    HW116133   1.585   1.816   3.522
 5078SOL    HW216134   1.624   1.662   3.485
 5079SOL     OW16135   2.201   3.715   5.775
 5079SOL    HW116136   2.172   3.621   5.758
 5079SOL    HW216137   2.254   3.749   5.697
 5080SOL     OW16138   6.390   6.663   6.021
 5080SOL    HW116139   6.392   6.666   6.121
 5080SOL    HW216140   6.325   6.732   5.988
 5081SOL     OW16141   3.621   2.865   4.142
 5081SOL    HW116142   3.675   2.791   4.181
 5081SOL    HW216143   3.682   2.934   4.102
 5082SOL     OW16144   5.287   5.997   6.418
 5082SOL    HW116145   5.263   6.089   6.448
 5082SOL    HW216146   5.217   5.964   6.353
 5083SOL     OW16147   2.635   0.346   3.001
 5083SOL    HW116148   2.646   0.445   2.989
 5083SOL    HW216149   2.715   0.309   3.048
 5084SOL     OW16150   0.689   4.756   4.010
 5084SOL    HW116151   0.638   4.682   4.053
 5084SOL    HW216152   0.646   4.780   3.923
 5085SOL     OW16153   4.771   3.616   6.538
 5085SOL    HW116154   4.861   3.573   6.535
 5085SOL    HW216155   4.766   3.691   6.472
 5086SOL     OW16156   0.086   5.784   3.379
 5086SOL    HW116157   7.016   5.818   3.396
 5086SOL    HW216158   0.098   5.695   3.424
 5087SOL     OW16159   0.174   5.181   3.158
 5087SOL    HW116160   0.159   5.241   3.236
 5087SOL    HW216161   0.268   5.190   3.126
 5088SOL     OW16162   5.940   1.769   4.769
 5088SOL    HW116163   5.972   1.679   4.798
 5088SOL    HW216164   5.973   1.788   4.677
 5089SOL     OW16165   5.254   3.526   3.423
 5089SOL    HW116166   5.319   3.566   3.488
 5089SOL    HW216167   5.261   3.426   3.427
 5090SOL     OW16168   1.829   3.147   3.040
 5090SOL    HW116169   1.838   3.130   3.138
 5090SOL    HW216170   1.917   3.132   2.995
 5091SOL     OW16171   1.736   6.678   2.565
 5091SOL    HW116172   1.671   6.749   2.592
 5091SOL    HW216173   1.822   6.691   2.614
 5092SOL     OW16174   3.445   3.175   1.589
 5092SOL    HW116175   3.380   3.125   1.532
 5092SOL    HW216176   3.466   3.263   1.545
 5093SOL     OW16177   3.027   1.456   1.353
 5093SOL    HW116178   3.123   1.461   1.324
 5093SOL    HW216179   2.981   1.381   1.304
 5094SOL     OW16180   1.398   6.314   5.191
 5094SOL    HW116181   1.326   6.353   5.249
 5094SOL    HW216182   1.485   6.359   5.211
 5095SOL     OW16183   0.449   2.580   4.769
 5095SOL    HW116184   0.467   2.488   4.806
 5095SOL    HW216185   0.533   2.635   4.773
 5096SOL     OW16186   4.232   3.465   0.760
 5096SOL    HW116187   4.178   3.383   0.744
 5096SOL    HW216188   4.194   3.516   0.838
 5097SOL     OW16189   1.613   0.327   7.016
 5097SOL    HW116190   1.557   0.323   0.076
 5097SOL    HW216191   1.640   0.234   6.991
 5098SOL     OW16192   1.433   0.587   1.237
 5098SOL    HW116193   1.491   0.597   1.319
 5098SOL    HW216194   1.356   0.650   1.243
 5099SOL     OW16195   1.002   6.548   6.544
 5099SOL    HW116196   0.941   6.623   6.571
 5099SOL    HW216197   0.979   6.518   6.452
 5100SOL     OW16198   4.411   6.317   5.064
 5100SOL    HW116199   4.476   6.362   5.004
 5100SOL    HW216200   4.318   6.345   5.039
 5101SOL     OW16201   3.953   6.642   0.229
 5101SOL    HW116202   4.045   6.641   0.188
 5101SOL    HW216203   3.942   6.725   0.283
 5102SOL     OW16204   6.412   0.443   5.041
 5102SOL    HW116205   6.450   0.353   5.062
 5102SOL    HW216206   6.469   0.514   5.082
 5103SOL     OW16207   0.370   0.637   3.715
 5103SOL    HW116208   0.291   0.651   3.656
 5103SOL    HW216209   0.408   0.725   3.743
 5104SOL     OW16210   2.285   6.653   2.446
 5104SOL    HW116211   2.341   6.726   2.486
 5104SOL    HW216212   2.307   6.643   2.349
 5105SOL     OW16213   3.695   2.727   6.820
 5105SOL    HW116214   3.645   2.744   6.735
 5105SOL    HW216215   3.734   2.813   6.854
 5106SOL     OW16216   3.277   0.736   1.594
 5106SOL    HW116217   3.332   0.697   1.668
 5106SOL    HW216218   3.292   0.835   1.589
 5107SOL     OW16219   4.383   0.906   0.989
 5107SOL    HW116220   4.417   0.898   1.083
 5107SOL    HW216221   4.322   0.830   0.969
 5108SOL     OW16222   3.021   3.938   3.618
 5108SOL    HW116223   2.943   4.001   3.626
 5108SOL    HW216224   3.064   3.928   3.708
 5109SOL     OW16225   1.088   0.947   0.675
 5109SOL    HW116226   1.185   0.954   0.699
 5109SOL    HW216227   1.071   0.998   0.591
 5110SOL     OW16228   0.750   0.350   6.453
 5110SOL    HW116229   0.834   0.387   6.492
 5110SOL    HW216230   0.671   0.385   6.503
 5111SOL     OW16231   1.918   0.767   5.724
 5111SOL    HW116232   2.002   0.774   5.670
 5111SOL    HW216233   1.881   0.859   5.739
 5112SOL     OW16234   0.933   6.975   2.649
 5112SOL    HW116235   0.988   6.939   2.574
 5112SOL    HW216236   0.957   0.047   2.667
 5113SOL     OW16237   2.105   0.059   2.305
 5113SOL    HW116238   2.148   0.032   2.219
 5113SOL    HW216239   2.024   0.114   2.286
 5114SOL     OW16240   3.488   2.584   6.927
 5114SOL    HW116241   3.411   2.639   6.960
 5114SOL    HW216242   3.569   2.642   6.919
 5115SOL     OW16243   2.110   4.910   4.904
 5115SOL    HW116244   2.011   4.903   4.917
 5115SOL    HW216245   2.150   4.819   4.915
 5116SOL     OW16246   5.356   6.297   6.553
 5116SOL    HW116247   5.431   6.278   6.617
 5116SOL    HW216248   5.279   6.336   6.604
 5117SOL     OW16249   1.910   4.736   4.672
 5117SOL    HW116250   1.890   4.833   4.681
 5117SOL    HW216251   1.829   4.682   4.696
 5118SOL     OW16252   4.514   6.791   0.705
 5118SOL    HW116253   4.444   6.729   0.669
 5118SOL    HW216254   4.532   6.769   0.800
 5119SOL     OW16255   5.329   1.105   1.946
 5119SOL    HW116256   5.303   1.085   1.851
 5119SOL    HW216257   5.248   1.098   2.004
 5120SOL     OW16258   4.776   1.466   3.518
 5120SOL    HW116259   4.694   1.491   3.568
 5120SOL    HW216260   4.764   1.488   3.421
 5121SOL     OW16261   2.302   2.491   0.141
 5121SOL    HW116262   2.240   2.548   0.195
 5121SOL    HW216263   2.251   2.450   0.065
 5122SOL     OW16264   3.660   0.559   4.000
 5122SOL    HW116265   3.583   0.618   4.024
 5122SOL    HW216266   3.631   0.464   4.000
 5123SOL     OW16267   5.761   2.920   4.535
 5123SOL    HW116268   5.810   3.006   4.553
 5123SOL    HW216269   5.664   2.939   4.524
 5124SOL     OW16270   2.510   5.182   4.957
 5124SOL    HW116271   2.546   5.202   5.049
 5124SOL    HW216272   2.440   5.111   4.964
 5125SOL     OW16273   6.272   3.253   4.494
 5125SOL    HW116274   6.224   3.232   4.579
 5125SOL    HW216275   6.212   3.305   4.433
 5126SOL     OW16276   6.106   5.504   6.133
 5126SOL    HW116277   6.189   5.537   6.177
 5126SOL    HW216278   6.122   5.495   6.035
 5127SOL     OW16279   6.906   3.641   0.220
 5127SOL    HW116280   6.862   3.603   0.301
 5127SOL    HW216281   6.857   3.610   0.138
 5128SOL     OW16282   0.262   6.686   7.022
 5128SOL    HW116283   0.209   6.668   6.939
 5128SOL    HW216284   0.356   6.709   6.996
 5129SOL     OW16285   4.939   0.174   2.896
 5129SOL    HW116286   4.963   0.078   2.879
 5129SOL    HW216287   4.907   0.216   2.811
 5130SOL     OW16288   1.777   6.195   4.015
 5130SOL    HW116289   1.840   6.263   4.053
 5130SOL    HW216290   1.686   6.236   4.005
 5131SOL     OW16291   3.122   5.021   3.670
 5131SOL    HW116292   3.057   4.947   3.656
 5131SOL    HW216293   3.158   5.018   3.763
 5132SOL     OW16294   3.457   1.544   6.231
 5132SOL    HW116295   3.475   1.456   6.188
 5132SOL    HW216296   3.542   1.597   6.235
 5133SOL     OW16297   2.811   5.929   6.488
 5133SOL    HW116298   2.726   5.983   6.484
 5133SOL    HW216299   2.854   5.942   6.577
 5134SOL     OW16300   6.835   6.990   2.615
 5134SOL    HW116301   6.932   6.970   2.607
 5134SOL    HW216302   6.817   0.007   2.705
 5135SOL     OW16303   5.844   4.010   3.679
 5135SOL    HW116304   5.910   3.944   3.713
 5135SOL    HW216305   5.889   4.098   3.664
 5136SOL     OW16306   5.850   0.573   5.935
 5136SOL    HW116307   5.765   0.527   5.962
 5136SOL    HW216308   5.844   0.670   5.959
 5137SOL     OW16309   5.395   3.305   5.086
 5137SOL    HW116310   5.483   3.353   5.085
 5137SOL    HW216311   5.326   3.362   5.042
 5138SOL     OW16312   4.009   3.894   4.037
 5138SOL    HW116313   3.970   3.983   4.016
 5138SOL    HW216314   4.012   3.881   4.137
 5139SOL     OW16315   1.054   6.988   4.576
 5139SOL    HW116316   1.014   0.054   4.552
 5139SOL    HW216317   1.047   6.926   4.498
 5140SOL     OW16318   3.252   1.991   5.276
 5140SOL    HW116319   3.195   2.057   5.325
 5140SOL    HW216320   3.228   1.898   5.307
 5141SOL     OW16321   6.431   3.389   1.204
 5141SOL    HW116322   6.510   3.389   1.266
 5141SOL    HW216323   6.448   3.326   1.128
 5142SOL     OW16324   5.540   6.629   5.535
 5142SOL    HW116325   5.507   6.666   5.448
 5142SOL    HW216326   5.519   6.693   5.609
 5143SOL     OW16327   1.014   4.029   5.149
 5143SOL    HW116328   0.923   4.027   5.109
 5143SOL    HW216329   1.010   3.994   5.243
 5144SOL     OW16330   2.045   4.195   5.937
 5144SOL    HW116331   2.001   4.248   5.866
 5144SOL    HW216332   2.072   4.106   5.901
 5145SOL     OW16333   4.038   6.416   6.098
 5145SOL    HW116334   4.123   6.424   6.151
 5145SOL    HW216335   3.974   6.357   6.148
 5146SOL     OW16336   3.974   3.949   5.204
 5146SOL    HW116337   3.915   3.957   5.124
 5146SOL    HW216338   3.918   3.940   5.286
 5147SOL     OW16339   6.206   4.978   3.472
 5147SOL    HW116340   6.252   5.067   3.470
 5147SOL    HW216341   6.274   4.905   3.470
 5148SOL     OW16342   0.349   1.179   1.995
 5148SOL    HW116343   0.419   1.110   2.011
 5148SOL    HW216344   0.390   1.259   1.951
 5149SOL     OW16345   5.953   5.246   4.757
 5149SOL    HW116346   6.049   5.216   4.757
 5149SOL    HW216347   5.919   5.248   4.851
 5150SOL     OW16348   2.153   4.259   4.153
 5150SOL    HW116349   2.106   4.217   4.230
 5150SOL    HW216350   2.198   4.189   4.098
 5151SOL     OW16351   6.821   3.586   1.959
 5151SOL    HW116352   6.727   3.580   1.992
 5151SOL    HW216353   6.821   3.601   1.860
 5152SOL     OW16354   1.901   5.834   6.570
 5152SOL    HW116355   1.803   5.813   6.561
 5152SOL    HW216356   1.943   5.771   6.634
 5153SOL     OW16357   0.653   2.516   0.863
 5153SOL    HW116358   0.695   2.553   0.781
 5153SOL    HW216359   0.618   2.424   0.844
 5154SOL     OW16360   1.396   2.803   6.444
 5154SOL    HW116361   1.423   2.717   6.486
 5154SOL    HW216362   1.446   2.815   6.358
 5155SOL     OW16363   4.273   1.056   1.284
 5155SOL    HW116364   4.181   1.034   1.317
 5155SOL    HW216365   4.335   1.064   1.361
 5156SOL     OW16366   5.723   4.500   4.673
 5156SOL    HW116367   5.723   4.443   4.590
 5156SOL    HW216368   5.763   4.589   4.652
 5157SOL     OW16369   3.200   2.062   2.257
 5157SOL    HW116370   3.184   1.975   2.303
 5157SOL    HW216371   3.292   2.062   2.217
 5158SOL     OW16372   3.553   2.358   0.666
 5158SOL    HW116373   3.491   2.435   0.652
 5158SOL    HW216374   3.560   2.338   0.763
 5159SOL     OW16375   5.928   3.918   6.310
 5159SOL    HW116376   5.968   3.986   6.371
 5159SOL    HW216377   5.853   3.959   6.259
 5160SOL     OW16378   0.311   5.388   3.351
 5160SOL    HW116379   0.213   5.371   3.360
 5160SOL    HW216380   0.348   5.419   3.438
 5161SOL     OW16381   0.956   3.402   0.491
 5161SOL    HW116382   0.953   3.302   0.503
 5161SOL    HW216383   1.029   3.425   0.427
 5162SOL     OW16384   1.099   5.407   2.320
 5162SOL    HW116385   1.058   5.324   2.358
 5162SOL    HW216386   1.069   5.419   2.225
 5163SOL     OW16387   3.613   6.626   0.884
 5163SOL    HW116388   3.701   6.672   0.893
 5163SOL    HW216389   3.587   6.586   0.972
 5164SOL     OW16390   3.287   2.896   6.613
 5164SOL    HW116391   3.195   2.908   6.575
 5164SOL    HW216392   3.282   2.896   6.713
 5165SOL     OW16393   1.027   4.373   6.897
 5165SOL    HW116394   1.069   4.287   6.925
 5165SOL    HW216395   0.965   4.357   6.820
 5166SOL     OW16396   1.644   5.105   2.596
 5166SOL    HW116397   1.650   5.185   2.656
 5166SOL    HW216398   1.548   5.081   2.583
 5167SOL     OW16399   6.717   4.213   4.679
 5167SOL    HW116400   6.716   4.182   4.585
 5167SOL    HW216401   6.776   4.294   4.687
 5168SOL     OW16402   5.135   2.531   2.934
 5168SOL    HW116403   5.114   2.628   2.950
 5168SOL    HW216404   5.215   2.524   2.875
 5169SOL     OW16405   4.371   2.052   3.292
 5169SOL    HW116406   4.392   1.972   3.237
 5169SOL    HW216407   4.303   2.028   3.362
 5170SOL     OW16408   1.427   3.160   5.425
 5170SOL    HW116409   1.458   3.234   5.365
 5170SOL    HW216410   1.501   3.094   5.438
 5171SOL     OW16411   6.971   4.797   5.550
 5171SOL    HW116412   6.956   4.809   5.648
 5171SOL    HW216413   0.035   4.838   5.523
 5172SOL     OW16414   1.013   4.358   3.242
 5172SOL    HW116415   1.107   4.324   3.229
 5172SOL    HW216416   0.960   4.342   3.159
 5173SOL     OW16417   4.384   4.867   5.736
 5173SOL    HW116418   4.447   4.945   5.742
 5173SOL    HW216419   4.407   4.801   5.808
 5174SOL     OW16420   2.142   5.635   3.728
 5174SOL    HW116421   2.053   5.670   3.698
 5174SOL    HW216422   2.135   5.536   3.743
 5175SOL     OW16423   2.863   4.000   0.298
 5175SOL    HW116424   2.773   4.019   0.259
 5175SOL    HW216425   2.915   3.941   0.235
 5176SOL     OW16426   5.265   4.476   6.307
 5176SOL    HW116427   5.245   4.450   6.212
 5176SOL    HW216428   5.270   4.575   6.313
 5177SOL     OW16429   4.547   6.711   0.972
 5177SOL    HW116430   4.542   6.719   1.071
 5177SOL    HW216431   4.492   6.633   0.942
 5178SOL     OW16432   1.460   4.388   2.337
 5178SOL    HW116433   1.404   4.306   2.347
 5178SOL    HW216434   1.427   4.441   2.259
 5179SOL     OW16435   4.711   4.259   4.062
 5179SOL    HW116436   4.705   4.190   4.134
 5179SOL    HW216437   4.679   4.347   4.098
 5180SOL     OW16438   3.607   0.764   1.204
 5180SOL    HW116439   3.635   0.859   1.217
 5180SOL    HW216440   3.534   0.742   1.269
 5181SOL     OW16441   6.212   6.820   1.338
 5181SOL    HW116442   6.260   6.895   1.382
 5181SOL    HW216443   6.274   6.743   1.326
 5182SOL     OW16444   4.339   4.549   2.076
 5182SOL    HW116445   4.313   4.501   2.160
 5182SOL    HW216446   4.407   4.496   2.026
 5183SOL     OW16447   4.111   1.852   2.712
 5183SOL    HW116448   4.069   1.928   2.662
 5183SOL    HW216449   4.182   1.888   2.773
 5184SOL     OW16450   2.447   1.781   3.376
 5184SOL    HW116451   2.467   1.684   3.392
 5184SOL    HW216452   2.508   1.817   3.306
 5185SOL     OW16453   5.530   0.582   2.587
 5185SOL    HW116454   5.554   0.625   2.500
 5185SOL    HW216455   5.437   0.609   2.612
 5186SOL     OW16456   6.245   2.565   6.173
 5186SOL    HW116457   6.150   2.597   6.176
 5186SOL    HW216458   6.296   2.621   6.108
 5187SOL     OW16459   1.245   5.342   5.529
 5187SOL    HW116460   1.332   5.376   5.493
 5187SOL    HW216461   1.224   5.390   5.615
 5188SOL     OW16462   5.769   5.796   1.891
 5188SOL    HW116463   5.827   5.721   1.860
 5188SOL    HW216464   5.673   5.773   1.877
 5189SOL     OW16465   5.233   5.924   0.100
 5189SOL    HW116466   5.258   6.021   0.101
 5189SOL    HW216467   5.169   5.905   0.175
 5190SOL     OW16468   1.212   3.705   3.545
 5190SOL    HW116469   1.213   3.619   3.596
 5190SOL    HW216470   1.302   3.748   3.551
 5191SOL     OW16471   3.460   5.789   2.473
 5191SOL    HW116472   3.392   5.820   2.407
 5191SOL    HW216473   3.421   5.715   2.528
 5192SOL     OW16474   1.409   5.655   1.325
 5192SOL    HW116475   1.345   5.719   1.368
 5192SOL    HW216476   1.393   5.655   1.226
 5193SOL     OW16477   4.552   5.605   5.459
 5193SOL    HW116478   4.513   5.659   5.385
 5193SOL    HW216479   4.492   5.527   5.478
 5194SOL     OW16480   3.364   2.320   6.936
 5194SOL    HW116481   3.385   2.408   6.978
 5194SOL    HW216482   3.313   2.335   6.851
 5195SOL     OW16483   0.320   0.852   4.343
 5195SOL    HW116484   0.312   0.859   4.244
 5195SOL    HW216485   0.290   0.762   4.373
 5196SOL     OW16486   4.321   6.915   2.420
 5196SOL    HW116487   4.401   6.976   2.417
 5196SOL    HW216488   4.251   6.955   2.479
 5197SOL     OW16489   1.739   3.616   6.757
 5197SOL    HW116490   1.783   3.704   6.777
 5197SOL    HW216491   1.730   3.606   6.658
 5198SOL     OW16492   4.556   5.628   3.107
 5198SOL    HW116493   4.549   5.727   3.122
 5198SOL    HW216494   4.614   5.610   3.027
 5199SOL     OW16495   0.809   5.455   0.430
 5199SOL    HW116496   0.860   5.503   0.501
 5199SOL    HW216497   0.872   5.418   0.362
 5200SOL     OW16498   6.736   3.574   5.070
 5200SOL    HW116499   6.757   3.642   5.000
 5200SOL    HW216500   6.822   3.537   5.107
 5201SOL     OW16501   1.353   6.942   3.269
 5201SOL    HW116502   1.302   6.962   3.354
 5201SOL    HW216503   1.292   6.895   3.205
 5202SOL     OW16504   5.514   3.018   6.349
 5202SOL    HW116505   5.503   3.021   6.449
 5202SOL    HW216506   5.532   2.924   6.320
 5203SOL     OW16507   1.951   1.779   6.747
 5203SOL    HW116508   1.896   1.862   6.754
 5203SOL    HW216509   1.963   1.755   6.651
 5204SOL     OW16510   4.122   5.234   0.432
 5204SOL    HW116511   4.075   5.261   0.516
 5204SOL    HW216512   4.063   5.254   0.353
 5205SOL     OW16513   1.942   6.703   0.923
 5205SOL    HW116514   1.989   6.763   0.989
 5205SOL    HW216515   1.913   6.757   0.844
 5206SOL     OW16516   0.415   3.911   5.417
 5206SOL    HW116517   0.376   3.892   5.327
 5206SOL    HW216518   0.390   3.838   5.480
 5207SOL     OW16519   1.178   5.661   4.241
 5207SOL    HW116520   1.123   5.579   4.222
 5207SOL    HW216521   1.183   5.676   4.339
 5208SOL     OW16522   3.934   2.058   0.092
 5208SOL    HW116523   3.878   2.138   0.071
 5208SOL    HW216524   3.914   2.028   0.185
 5209SOL     OW16525   5.495   5.918   3.783
 5209SOL    HW116526   5.528   5.931   3.876
 5209SOL    HW216527   5.437   5.995   3.757
 5210SOL     OW16528   5.888   2.386   5.336
 5210SOL    HW116529   5.945   2.468   5.342
 5210SOL    HW216530   5.910   2.336   5.252
 5211SOL     OW16531   4.028   3.115   4.825
 5211SOL    HW116532   4.033   3.198   4.881
 5211SOL    HW216533   4.114   3.065   4.832
 5212SOL     OW16534   6.381   1.431   0.654
 5212SOL    HW116535   6.291   1.394   0.633
 5212SOL    HW216536   6.416   1.481   0.575
 5213SOL     OW16537   5.300   4.235   6.421
 5213SOL    HW116538   5.325   4.265   6.513
 5213SOL    HW216539   5.277   4.315   6.366
 5214SOL     OW16540   4.718   1.475   6.394
 5214SOL    HW116541   4.710   1.379   6.367
 5214SOL    HW216542   4.792   1.518   6.343
 5215SOL     OW16543   5.473   5.620   3.829
 5215SOL    HW116544   5.467   5.717   3.805
 5215SOL    HW216545   5.535   5.608   3.906
 5216SOL     OW16546   4.249   5.532   1.617
 5216SOL    HW116547   4.158   5.569   1.599
 5216SOL    HW216548   4.240   5.443   1.661
 5217SOL     OW16549   4.021   5.534   3.980
 5217SOL    HW116550   3.959   5.459   4.005
 5217SOL    HW216551   3.999   5.566   3.888
 5218SOL     OW16552   1.205   0.624   3.643
 5218SOL    HW116553   1.106   0.622   3.634
 5218SOL    HW216554   1.239   0.530   3.655
 5219SOL     OW16555   3.271   0.598   6.001
 5219SOL    HW116556   3.296   0.525   6.064
 5219SOL    HW216557   3.351   0.626   5.949
 5220SOL     OW16558   1.708   5.682   2.710
 5220SOL    HW116559   1.612   5.679   2.737
 5220SOL    HW216560   1.761   5.625   2.772
 5221SOL     OW16561   5.329   2.179   4.020
 5221SOL    HW116562   5.395   2.163   3.948
 5221SOL    HW216563   5.357   2.259   4.074
 5222SOL     OW16564   2.483   0.020   3.644
 5222SOL    HW116565   2.573   7.015   3.680
 5222SOL    HW216566   2.412   6.991   3.692
 5223SOL     OW16567   5.766   0.680   0.852
 5223SOL    HW116568   5.740   0.608   0.916
 5223SOL    HW216569   5.865   0.696   0.857
 5224SOL     OW16570   0.991   2.255   4.189
 5224SOL    HW116571   1.083   2.294   4.192
 5224SOL    HW216572   0.980   2.189   4.264
 5225SOL     OW16573   6.488   0.223   2.927
 5225SOL    HW116574   6.392   0.246   2.913
 5225SOL    HW216575   6.535   0.299   2.973
 5226SOL     OW16576   0.474   5.753   5.255
 5226SOL    HW116577   0.387   5.798   5.236
 5226SOL    HW216578   0.480   5.731   5.352
 5227SOL     OW16579   1.650   4.787   3.438
 5227SOL    HW116580   1.599   4.872   3.421
 5227SOL    HW216581   1.747   4.807   3.444
 5228SOL     OW16582   6.572   2.108   0.988
 5228SOL    HW116583   6.537   2.137   0.899
 5228SOL    HW216584   6.634   2.178   1.024
 5229SOL     OW16585   1.445   3.976   0.231
 5229SOL    HW116586   1.378   3.956   0.302
 5229SOL    HW216587   1.535   3.940   0.258
 5230SOL     OW16588   0.175   6.528   1.328
 5230SOL    HW116589   0.257   6.583   1.343
 5230SOL    HW216590   0.095   6.587   1.329
 5231SOL     OW16591   4.076   3.815   4.556
 5231SOL    HW116592   4.139   3.893   4.555
 5231SOL    HW216593   4.056   3.786   4.463
 5232SOL     OW16594   3.314   2.166   6.011
 5232SOL    HW116595   3.218   2.194   6.010
 5232SOL    HW216596   3.336   2.118   5.926
 5233SOL     OW16597   5.945   0.225   1.859
 5233SOL    HW116598   6.005   0.272   1.794
 5233SOL    HW216599   5.866   0.188   1.810
 5234SOL     OW16600   2.384   0.345   6.625
 5234SOL    HW116601   2.422   0.252   6.624
 5234SOL    HW216602   2.302   0.347   6.681
 5235SOL     OW16603   2.317   2.942   1.220
 5235SOL    HW116604   2.366   2.916   1.304
 5235SOL    HW216605   2.223   2.908   1.225
 5236SOL     OW16606   5.959   3.374   2.340
 5236SOL    HW116607   5.927   3.291   2.293
 5236SOL    HW216608   5.892   3.400   2.409
 5237SOL     OW16609   2.601   0.656   5.522
 5237SOL    HW116610   2.572   0.652   5.426
 5237SOL    HW216611   2.700   0.651   5.527
 5238SOL     OW16612   1.789   4.832   0.274
 5238SOL    HW116613   1.870   4.867   0.321
 5238SOL    HW216614   1.710   4.890   0.296
 5239SOL     OW16615   4.093   3.523   4.084
 5239SOL    HW116616   4.150   3.606   4.079
 5239SOL    HW216617   4.087   3.494   4.179
 5240SOL     OW16618   2.969   1.625   6.142
 5240SOL    HW116619   2.909   1.548   6.121
 5240SOL    HW216620   3.063   1.601   6.115
 5241SOL     OW16621   1.387   5.616   6.630
 5241SOL    HW116622   1.314   5.641   6.567
 5241SOL    HW216623   1.440   5.541   6.592
 5242SOL     OW16624   6.988   6.661   5.841
 5242SOL    HW116625   6.921   6.602   5.796
 5242SOL    HW216626   6.952   6.755   5.843
 5243SOL     OW16627   1.081   5.952   1.767
 5243SOL    HW116628   1.004   5.976   1.708
 5243SOL    HW216629   1.084   6.013   1.846
 5244SOL     OW16630   3.620   4.232   6.211
 5244SOL    HW116631   3.646   4.138   6.189
 5244SOL    HW216632   3.521   4.238   6.223
 5245SOL     OW16633   4.363   4.621   0.158
 5245SOL    HW116634   4.271   4.605   0.124
 5245SOL    HW216635   4.374   4.577   0.248
 5246SOL     OW16636   5.750   4.381   2.790
 5246SOL    HW116637   5.844   4.346   2.791
 5246SOL    HW216638   5.700   4.345   2.869
 5247SOL     OW16639   1.209   6.194   0.662
 5247SOL    HW116640   1.144   6.132   0.706
 5247SOL    HW216641   1.160   6.252   0.597
 5248SOL     OW16642   6.445   0.084   4.764
 5248SOL    HW116643   6.366   0.138   4.792
 5248SOL    HW216644   6.448   7.023   4.817
 5249SOL     OW16645   0.734   5.044   5.032
 5249SOL    HW116646   0.815   4.987   5.023
 5249SOL    HW216647   0.665   4.997   5.088
 5250SOL     OW16648   0.136   1.122   5.941
 5250SOL    HW116649   0.193   1.115   5.859
 5250SOL    HW216650   0.192   1.107   6.022
 5251SOL     OW16651   0.310   3.301   1.113
 5251SOL    HW116652   0.372   3.262   1.181
 5251SOL    HW216653   0.362   3.350   1.043
 5252SOL     OW16654   1.955   5.142   0.850
 5252SOL    HW116655   1.956   5.152   0.949
 5252SOL    HW216656   1.925   5.228   0.808
 5253SOL     OW16657   6.160   3.971   5.306
 5253SOL    HW116658   6.110   3.886   5.324
 5253SOL    HW216659   6.248   3.949   5.262
 5254SOL     OW16660   5.622   1.135   3.602
 5254SOL    HW116661   5.643   1.051   3.551
 5254SOL    HW216662   5.704   1.166   3.650
 5255SOL     OW16663   4.573   0.291   5.418
 5255SOL    HW116664   4.633   0.356   5.372
 5255SOL    HW216665   4.618   0.202   5.423
 5256SOL     OW16666   4.710   0.837   3.349
 5256SOL    HW116667   4.787   0.901   3.342
 5256SOL    HW216668   4.721   0.781   3.431
 5257SOL     OW16669   4.211   0.257   2.001
 5257SOL    HW116670   4.120   0.245   1.960
 5257SOL    HW216671   4.273   0.296   1.932
 5258SOL     OW16672   5.180   3.664   1.506
 5258SOL    HW116673   5.267   3.669   1.458
 5258SOL    HW216674   5.182   3.722   1.587
 5259SOL     OW16675   4.551   6.541   1.437
 5259SOL    HW116676   4.588   6.450   1.454
 5259SOL    HW216677   4.580   6.604   1.509
 5260SOL     OW16678   5.659   3.761   1.485
 5260SOL    HW116679   5.703   3.833   1.538
 5260SOL    HW216680   5.728   3.715   1.428
 5261SOL     OW16681   2.046   3.143   6.460
 5261SOL    HW116682   1.988   3.069   6.494
 5261SOL    HW216683   2.129   3.149   6.516
 5262SOL     OW16684   3.004   0.776   2.876
 5262SOL    HW116685   3.104   0.770   2.870
 5262SOL    HW216686   2.974   0.738   2.964
 5263SOL     OW16687   0.866   1.224   5.444
 5263SOL    HW116688   0.830   1.134   5.419
 5263SOL    HW216689   0.850   1.241   5.541
 5264SOL     OW16690   6.697   0.268   2.367
 5264SOL    HW116691   6.661   0.234   2.454
 5264SOL    HW216692   6.724   0.191   2.310
 5265SOL     OW16693   4.949   4.537   2.965
 5265SOL    HW116694   4.860   4.577   2.945
 5265SOL    HW216695   4.937   4.450   3.014
 5266SOL     OW16696   2.722   0.794   2.246
 5266SOL    HW116697   2.754   0.819   2.338
 5266SOL    HW216698   2.696   0.698   2.245
 5267SOL     OW16699   4.852   4.521   6.050
 5267SOL    HW116700   4.821   4.570   5.968
 5267SOL    HW216701   4.797   4.438   6.062
 5268SOL     OW16702   6.155   5.967   5.938
 5268SOL    HW116703   6.090   5.984   6.012
 5268SOL    HW216704   6.242   6.010   5.959
 5269SOL     OW16705   2.467   6.327   4.509
 5269SOL    HW116706   2.402   6.259   4.477
 5269SOL    HW216707   2.558   6.285   4.517
 5270SOL     OW16708   5.086   1.451   1.904
 5270SOL    HW116709   5.093   1.402   1.817
 5270SOL    HW216710   5.174   1.448   1.951
 5271SOL     OW16711   4.467   4.897   4.718
 5271SOL    HW116712   4.541   4.914   4.652
 5271SOL    HW216713   4.379   4.905   4.673
 5272SOL     OW16714   1.930   6.118   3.324
 5272SOL    HW116715   2.010   6.060   3.311
 5272SOL    HW216716   1.957   6.204   3.366
 5273SOL     OW16717   0.311   3.574   3.781
 5273SOL    HW116718   0.333   3.476   3.789
 5273SOL    HW216719   0.387   3.628   3.817
 5274SOL     OW16720   5.882   5.105   2.208
 5274SOL    HW116721   5.863   5.137   2.301
 5274SOL    HW216722   5.974   5.134   2.181
 5275SOL     OW16723   3.812   1.276   6.125
 5275SOL    HW116724   3.784   1.241   6.214
 5275SOL    HW216725   3.827   1.375   6.131
 5276SOL     OW16726   0.868   6.819   1.541
 5276SOL    HW116727   0.960   6.792   1.513
 5276SOL    HW216728   0.802   6.749   1.512
 5277SOL     OW16729   1.338   2.765   3.042
 5277SOL    HW116730   1.415   2.828   3.031
 5277SOL    HW216731   1.285   2.792   3.122
 5278SOL     OW16732   5.207   6.747   4.007
 5278SOL    HW116733   5.122   6.786   4.042
 5278SOL    HW216734   5.212   6.650   4.032
 5279SOL     OW16735   1.553   5.366   6.554
 5279SOL    HW116736   1.645   5.376   6.517
 5279SOL    HW216737   1.556   5.315   6.640
 5280SOL     OW16738   2.482   5.766   5.761
 5280SOL    HW116739   2.421   5.808   5.828
 5280SOL    HW216740   2.513   5.677   5.796
 5281SOL     OW16741   1.030   0.982   3.306
 5281SOL    HW116742   1.115   0.998   3.356
 5281SOL    HW216743   1.048   0.988   3.208
 5282SOL     OW16744   1.433   1.135   2.791
 5282SOL    HW116745   1.389   1.141   2.881
 5282SOL    HW216746   1.456   1.226   2.758
 5283SOL     OW16747   2.873   0.351   2.596
 5283SOL    HW116748   2.912   0.266   2.560
 5283SOL    HW216749   2.785   0.331   2.639
 5284SOL     OW16750   4.724   2.778   2.640
 5284SOL    HW116751   4.656   2.706   2.648
 5284SOL    HW216752   4.711   2.828   2.554
 5285SOL     OW16753   1.681   3.953   4.321
 5285SOL    HW116754   1.582   3.943   4.312
 5285SOL    HW216755   1.725   3.868   4.291
 5286SOL     OW16756   6.714   4.118   1.275
 5286SOL    HW116757   6.627   4.085   1.240
 5286SOL    HW216758   6.782   4.119   1.202
 5287SOL     OW16759   2.349   6.163   1.477
 5287SOL    HW116760   2.263   6.176   1.526
 5287SOL    HW216761   2.366   6.066   1.464
 5288SOL     OW16762   3.820   0.859   2.361
 5288SOL    HW116763   3.914   0.885   2.381
 5288SOL    HW216764   3.813   0.830   2.265
 5289SOL     OW16765   1.440   5.499   6.291
 5289SOL    HW116766   1.356   5.457   6.324
 5289SOL    HW216767   1.513   5.485   6.358
 5290SOL     OW16768   0.747   4.576   5.837
 5290SOL    HW116769   0.815   4.601   5.906
 5290SOL    HW216770   0.657   4.610   5.864
 5291SOL     OW16771   3.024   5.015   6.193
 5291SOL    HW116772   3.016   5.113   6.211
 5291SOL    HW216773   3.081   5.001   6.112
 5292SOL     OW16774   6.113   4.489   6.514
 5292SOL    HW116775   6.180   4.554   6.551
 5292SOL    HW216776   6.033   4.539   6.481
 5293SOL     OW16777   1.648   0.257   4.560
 5293SOL    HW116778   1.560   0.213   4.573
 5293SOL    HW216779   1.642   0.323   4.485
 5294SOL     OW16780   5.771   3.073   4.985
 5294SOL    HW116781   5.770   3.148   5.051
 5294SOL    HW216782   5.700   3.088   4.916
 5295SOL     OW16783   3.832   0.913   2.790
 5295SOL    HW116784   3.869   0.836   2.842
 5295SOL    HW216785   3.812   0.988   2.852
 5296SOL     OW16786   3.246   5.187   7.008
 5296SOL    HW116787   3.266   5.285   7.014
 5296SOL    HW216788   3.213   5.166   6.916
 5297SOL     OW16789   1.935   2.462   0.718
 5297SOL    HW116790   1.988   2.456   0.633
 5297SOL    HW216791   1.936   2.557   0.751
 5298SOL     OW16792   0.957   6.110   0.282
 5298SOL    HW116793   0.943   6.175   0.207
 5298SOL    HW216794   1.013   6.152   0.353
 5299SOL     OW16795   2.693   3.270   0.752
 5299SOL    HW116796   2.741   3.201   0.699
 5299SOL    HW216797   2.597   3.243   0.763
 5300SOL     OW16798   1.071   5.770   1.074
 5300SOL    HW116799   1.154   5.727   1.039
 5300SOL    HW216800   1.095   5.853   1.123
 5301SOL     OW16801   3.392   2.304   6.415
 5301SOL    HW116802   3.292   2.302   6.407
 5301SOL    HW216803   3.430   2.362   6.343
 5302SOL     OW16804   6.077   5.627   3.827
 5302SOL    HW116805   6.162   5.680   3.835
 5302SOL    HW216806   6.048   5.597   3.917
 5303SOL     OW16807   0.161   5.605   3.621
 5303SOL    HW116808   0.119   5.692   3.648
 5303SOL    HW216809   0.257   5.619   3.600
 5304SOL     OW16810   5.350   0.878   0.232
 5304SOL    HW116811   5.351   0.977   0.245
 5304SOL    HW216812   5.421   0.835   0.288
 5305SOL     OW16813   0.388   5.036   2.713
 5305SOL    HW116814   0.461   5.008   2.776
 5305SOL    HW216815   0.347   5.121   2.745
 5306SOL     OW16816   1.178   4.241   4.864
 5306SOL    HW116817   1.188   4.144   4.887
 5306SOL    HW216818   1.269   4.282   4.852
 5307SOL     OW16819   4.430   1.864   0.447
 5307SOL    HW116820   4.447   1.945   0.391
 5307SOL    HW216821   4.409   1.892   0.541
 5308SOL     OW16822   0.980   5.282   3.627
 5308SOL    HW116823   0.962   5.200   3.681
 5308SOL    HW216824   0.991   5.360   3.689
 5309SOL     OW16825   4.428   4.731   1.645
 5309SOL    HW116826   4.372   4.804   1.684
 5309SOL    HW216827   4.416   4.648   1.699
 5310SOL     OW16828   6.452   3.786   2.180
 5310SOL    HW116829   6.384   3.835   2.125
 5310SOL    HW216830   6.541   3.791   2.135
 5311SOL     OW16831   6.579   5.539   6.755
 5311SOL    HW116832   6.574   5.440   6.744
 5311SOL    HW216833   6.564   5.563   6.851
 5312SOL     OW16834   6.871   5.351   1.639
 5312SOL    HW116835   6.804   5.277   1.644
 5312SOL    HW216836   6.900   5.364   1.544
 5313SOL     OW16837   1.482   3.723   6.189
 5313SOL    HW116838   1.459   3.766   6.102
 5313SOL    HW216839   1.398   3.695   6.236
 5314SOL     OW16840   3.015   6.284   0.965
 5314SOL    HW116841   3.011   6.356   0.895
 5314SOL    HW216842   3.040   6.325   1.053
 5315SOL     OW16843   5.237   3.448   1.967
 5315SOL    HW116844   5.151   3.450   1.916
 5315SOL    HW216845   5.280   3.358   1.956
 5316SOL     OW16846   0.613   3.858   4.723
 5316SOL    HW116847   0.611   3.947   4.678
 5316SOL    HW216848   0.538   3.853   4.789
 5317SOL     OW16849   6.516   0.004   4.501
 5317SOL    HW116850   6.477   0.026   4.590
 5317SOL    HW216851   6.495   6.932   4.478
 5318SOL     OW16852   0.675   2.972   6.479
 5318SOL    HW116853   0.596   2.916   6.503
 5318SOL    HW216854   0.731   2.922   6.413
 5319SOL     OW16855   3.424   6.754   0.255
 5319SOL    HW116856   3.485   6.784   0.329
 5319SOL    HW216857   3.369   6.832   0.225
 5320SOL     OW16858   5.443   5.312   0.349
 5320SOL    HW116859   5.393   5.249   0.408
 5320SOL    HW216860   5.436   5.281   0.254
 5321SOL     OW16861   1.053   4.951   4.560
 5321SOL    HW116862   0.970   4.947   4.615
 5321SOL    HW216863   1.110   5.027   4.592
 5322SOL     OW16864   5.013   6.182   6.306
 5322SOL    HW116865   4.922   6.171   6.266
 5322SOL    HW216866   5.016   6.267   6.358
 5323SOL     OW16867   3.993   1.934   6.823
 5323SOL    HW116868   3.997   1.970   6.916
 5323SOL    HW216869   3.928   1.988   6.769
 5324SOL     OW16870   3.991   2.403   1.006
 5324SOL    HW116871   4.019   2.427   0.913
 5324SOL    HW216872   3.952   2.311   1.007
 5325SOL     OW16873   4.890   1.108   4.510
 5325SOL    HW116874   4.814   1.046   4.530
 5325SOL    HW216875   4.950   1.114   4.590
 5326SOL     OW16876   6.977   4.856   3.278
 5326SOL    HW116877   6.910   4.845   3.204
 5326SOL    HW216878   6.968   4.780   3.342
 5327SOL     OW16879   5.613   3.268   5.323
 5327SOL    HW116880   5.537   3.203   5.324
 5327SOL    HW216881   5.577   3.361   5.329
 5328SOL     OW16882   4.567   3.100   5.304
 5328SOL    HW116883   4.658   3.109   5.345
 5328SOL    HW216884   4.520   3.188   5.307
 5329SOL     OW16885   0.001   4.787   0.212
 5329SOL    HW116886   6.971   4.759   0.131
 5329SOL    HW216887   0.037   4.880   0.198
 5330SOL     OW16888   3.648   4.438   5.783
 5330SOL    HW116889   3.735   4.423   5.831
 5330SOL    HW216890   3.666   4.482   5.695
 5331SOL     OW16891   5.324   1.405   0.613
 5331SOL    HW116892   5.350   1.496   0.644
 5331SOL    HW216893   5.225   1.394   0.620
 5332SOL     OW16894   0.705   3.651   1.258
 5332SOL    HW116895   0.620   3.664   1.311
 5332SOL    HW216896   0.700   3.564   1.209
 5333SOL     OW16897   0.936   0.510   3.596
 5333SOL    HW116898   0.896   0.584   3.542
 5333SOL    HW216899   0.941   0.427   3.541
 5334SOL     OW16900   4.203   0.213   4.458
 5334SOL    HW116901   4.275   0.180   4.520
 5334SOL    HW216902   4.237   0.289   4.404
 5335SOL     OW16903   6.065   5.736   2.340
 5335SOL    HW116904   6.158   5.752   2.305
 5335SOL    HW216905   6.067   5.738   2.440
 5336SOL     OW16906   2.578   1.980   3.161
 5336SOL    HW116907   2.640   1.997   3.238
 5336SOL    HW216908   2.561   2.065   3.112
 5337SOL     OW16909   5.246   4.014   1.355
 5337SOL    HW116910   5.260   4.079   1.430
 5337SOL    HW216911   5.329   3.961   1.341
 5338SOL     OW16912   5.814   1.822   6.226
 5338SOL    HW116913   5.760   1.899   6.261
 5338SOL    HW216914   5.816   1.826   6.126
 5339SOL     OW16915   6.805   2.072   4.401
 5339SOL    HW116916   6.879   2.136   4.417
 5339SOL    HW216917   6.723   2.102   4.449
 5340SOL     OW16918   5.515   2.826   1.104
 5340SOL    HW116919   5.613   2.805   1.100
 5340SOL    HW216920   5.464   2.754   1.057
 5341SOL     OW16921   3.228   3.803   6.470
 5341SOL    HW116922   3.266   3.784   6.561
 5341SOL    HW216923   3.253   3.729   6.408
 5342SOL     OW16924   3.304   6.985   3.548
 5342SOL    HW116925   3.231   6.939   3.598
 5342SOL    HW216926   3.322   6.936   3.462
 5343SOL     OW16927   4.132   3.604   4.935
 5343SOL    HW116928   4.082   3.627   4.852
 5343SOL    HW216929   4.231   3.608   4.916
 5344SOL     OW16930   2.450   2.142   2.183
 5344SOL    HW116931   2.512   2.219   2.168
 5344SOL    HW216932   2.502   2.057   2.176
 5345SOL     OW16933   3.577   6.766   1.708
 5345SOL    HW116934   3.548   6.857   1.738
 5345SOL    HW216935   3.505   6.725   1.652
 5346SOL     OW16936   3.385   5.673   4.146
 5346SOL    HW116937   3.345   5.610   4.213
 5346SOL    HW216938   3.324   5.681   4.068
 5347SOL     OW16939   0.222   2.565   1.487
 5347SOL    HW116940   0.158   2.620   1.432
 5347SOL    HW216941   0.296   2.532   1.429
 5348SOL     OW16942   6.848   1.648   1.019
 5348SOL    HW116943   6.796   1.731   1.039
 5348SOL    HW216944   6.941   1.673   0.993
 5349SOL     OW16945   1.829   2.312   0.085
 5349SOL    HW116946   1.898   2.364   0.035
 5349SOL    HW216947   1.873   2.263   0.160
 5350SOL     OW16948   1.760   0.067   5.488
 5350SOL    HW116949   1.750   6.993   5.464
 5350SOL    HW216950   1.681   0.118   5.454
 5351SOL     OW16951   6.861   4.884   2.527
 5351SOL    HW116952   6.936   4.947   2.552
 5351SOL    HW216953   6.813   4.920   2.447
 5352SOL     OW16954   2.698   4.696   3.496
 5352SOL    HW116955   2.603   4.666   3.500
 5352SOL    HW216956   2.758   4.617   3.508
 5353SOL     OW16957   4.136   4.840   3.774
 5353SOL    HW116958   4.187   4.823   3.859
 5353SOL    HW216959   4.049   4.883   3.795
 5354SOL     OW16960   2.607   5.468   1.879
 5354SOL    HW116961   2.643   5.444   1.969
 5354SOL    HW216962   2.592   5.567   1.875
 5355SOL     OW16963   6.605   4.178   3.807
 5355SOL    HW116964   6.693   4.131   3.802
 5355SOL    HW216965   6.620   4.277   3.810
 5356SOL     OW16966   5.902   4.379   2.171
 5356SOL    HW116967   5.802   4.376   2.169
 5356SOL    HW216968   5.933   4.415   2.259
 5357SOL     OW16969   3.592   6.068   0.351
 5357SOL    HW116970   3.616   6.016   0.434
 5357SOL    HW216971   3.675   6.107   0.311
 5358SOL     OW16972   4.689   0.969   0.478
 5358SOL    HW116973   4.710   1.041   0.411
 5358SOL    HW216974   4.757   0.972   0.552
 5359SOL     OW16975   1.096   1.552   5.558
 5359SOL    HW116976   1.171   1.578   5.497
 5359SOL    HW216977   1.102   1.605   5.643
 5360SOL     OW16978   3.478   6.902   4.858
 5360SOL    HW116979   3.419   6.891   4.778
 5360SOL    HW216980   3.512   6.996   4.861
 5361SOL     OW16981   2.643   0.956   5.648
 5361SOL    HW116982   2.578   1.031   5.660
 5361SOL    HW216983   2.593   0.871   5.629
 5362SOL     OW16984   6.792   5.915   3.317
 5362SOL    HW116985   6.839   5.994   3.358
 5362SOL    HW216986   6.759   5.855   3.390
 5363SOL     OW16987   0.210   0.637   6.625
 5363SOL    HW116988   0.113   0.617   6.635
 5363SOL    HW216989   0.224   0.736   6.624
 5364SOL     OW16990   0.072   6.745   1.990
 5364SOL    HW116991   0.113   6.663   1.950
 5364SOL    HW216992   6.997   6.746   1.970
 5365SOL     OW16993   3.553   3.462   0.109
 5365SOL    HW116994   3.614   3.509   0.045
 5365SOL    HW216995   3.599   3.381   0.145
 5366SOL     OW16996   5.085   5.758   1.846
 5366SOL    HW116997   5.133   5.845   1.832
 5366SOL    HW216998   5.118   5.715   1.930
 5367SOL     OW16999   0.919   6.601   0.919
 5367SOL    HW117000   1.010   6.576   0.953
 5367SOL    HW217001   0.885   6.531   0.857
 5368SOL     OW17002   5.305   0.010   2.693
 5368SOL    HW117003   5.312   6.976   2.611
 5368SOL    HW217004   5.344   6.984   2.771
 5369SOL     OW17005   2.746   0.092   2.051
 5369SOL    HW117006   2.776   0.164   2.113
 5369SOL    HW217007   2.669   0.043   2.092
 5370SOL     OW17008   4.585   2.837   1.692
 5370SOL    HW117009   4.495   2.796   1.675
 5370SOL    HW217010   4.576   2.909   1.762
 5371SOL     OW17011   0.856   3.677   5.136
 5371SOL    HW117012   0.783   3.728   5.091
 5371SOL    HW217013   0.831   3.663   5.232
 5372SOL     OW17014   1.971   6.425   3.942
 5372SOL    HW117015   2.039   6.495   3.923
 5372SOL    HW217016   1.980   6.393   4.037
 5373SOL     OW17017   3.844   6.798   4.536
 5373SOL    HW117018   3.858   6.729   4.465
 5373SOL    HW217019   3.926   6.855   4.543
 5374SOL     OW17020   1.698   4.116   6.982
 5374SOL    HW117021   1.783   4.108   0.011
 5374SOL    HW217022   1.700   4.052   6.906
 5375SOL     OW17023   0.752   5.313   5.169
 5375SOL    HW117024   0.747   5.372   5.089
 5375SOL    HW217025   0.719   5.222   5.146
 5376SOL     OW17026   1.708   2.690   1.021
 5376SOL    HW117027   1.724   2.751   0.943
 5376SOL    HW217028   1.658   2.739   1.092
 5377SOL     OW17029   0.065   6.544   2.409
 5377SOL    HW117030   7.010   6.536   2.470
 5377SOL    HW217031   0.067   6.635   2.367
 5378SOL     OW17032   6.306   0.138   1.838
 5378SOL    HW117033   6.286   0.083   1.919
 5378SOL    HW217034   6.402   0.130   1.815
 5379SOL     OW17035   1.163   4.535   5.050
 5379SOL    HW117036   1.143   4.563   5.144
 5379SOL    HW217037   1.128   4.443   5.035
 5380SOL     OW17038   2.203   1.229   2.949
 5380SOL    HW117039   2.157   1.164   3.010
 5380SOL    HW217040   2.259   1.291   3.004
 5381SOL     OW17041   6.736   4.784   2.143
 5381SOL    HW117042   6.675   4.723   2.192
 5381SOL    HW217043   6.792   4.835   2.208
 5382SOL     OW17044   2.938   1.099   2.208
 5382SOL    HW117045   2.940   1.076   2.305
 5382SOL    HW217046   2.915   1.017   2.155
 5383SOL     OW17047   2.249   2.260   5.261
 5383SOL    HW117048   2.273   2.341   5.315
 5383SOL    HW217049   2.196   2.288   5.182
 5384SOL     OW17050   5.986   6.663   5.325
 5384SOL    HW117051   6.036   6.702   5.403
 5384SOL    HW217052   5.902   6.715   5.310
 5385SOL     OW17053   3.418   3.183   4.365
 5385SOL    HW117054   3.410   3.086   4.386
 5385SOL    HW217055   3.378   3.237   4.439
 5386SOL     OW17056   5.065   1.143   4.748
 5386SOL    HW117057   5.149   1.093   4.773
 5386SOL    HW217058   5.049   1.216   4.814
 5387SOL     OW17059   2.488   6.907   3.412
 5387SOL    HW117060   2.547   6.919   3.333
 5387SOL    HW217061   2.526   6.956   3.490
 5388SOL     OW17062   0.281   1.022   3.788
 5388SOL    HW117063   0.292   1.113   3.829
 5388SOL    HW217064   0.279   1.030   3.688
 5389SOL     OW17065   4.510   1.341   2.819
 5389SOL    HW117066   4.600   1.369   2.787
 5389SOL    HW217067   4.519   1.263   2.881
 5390SOL     OW17068   4.805   3.979   3.066
 5390SOL    HW117069   4.758   4.039   3.002
 5390SOL    HW217070   4.807   3.885   3.030
 5391SOL     OW17071   2.352   1.822   0.776
 5391SOL    HW117072   2.380   1.863   0.863
 5391SOL    HW217073   2.384   1.880   0.701
 5392SOL     OW17074   5.287   3.300   0.906
 5392SOL    HW117075   5.259   3.352   0.825
 5392SOL    HW217076   5.215   3.236   0.932
 5393SOL     OW17077   4.675   0.057   6.584
 5393SOL    HW117078   4.615   7.002   6.601
 5393SOL    HW217079   4.753   0.028   6.529
 5394SOL     OW17080   6.801   5.003   0.081
 5394SOL    HW117081   6.868   5.045   0.020
 5394SOL    HW217082   6.803   5.048   0.170
 5395SOL     OW17083   5.265   1.099   1.674
 5395SOL    HW117084   5.190   1.048   1.633
 5395SOL    HW217085   5.343   1.100   1.610
 5396SOL     OW17086   4.447   4.461   1.721
 5396SOL    HW117087   4.433   4.396   1.795
 5396SOL    HW217088   4.497   4.418   1.647
 5397SOL     OW17089   0.394   2.460   1.317
 5397SOL    HW117090   0.412   2.508   1.232
 5397SOL    HW217091   0.480   2.432   1.359
 5398SOL     OW17092   3.701   2.136   3.520
 5398SOL    HW117093   3.609   2.101   3.505
 5398SOL    HW217094   3.736   2.174   3.434
 5399SOL     OW17095   3.036   5.559   0.612
 5399SOL    HW117096   2.990   5.566   0.700
 5399SOL    HW217097   2.995   5.623   0.547
 5400SOL     OW17098   2.539   3.808   6.721
 5400SOL    HW117099   2.527   3.879   6.791
 5400SOL    HW217100   2.469   3.818   6.650
 5401SOL     OW17101   6.307   3.760   1.500
 5401SOL    HW117102   6.265   3.670   1.491
 5401SOL    HW217103   6.273   3.806   1.582
 5402SOL     OW17104   2.880   5.312   2.003
 5402SOL    HW117105   2.904   5.217   1.982
 5402SOL    HW217106   2.901   5.369   1.923
 5403SOL     OW17107   5.432   2.863   5.877
 5403SOL    HW117108   5.471   2.941   5.828
 5403SOL    HW217109   5.394   2.894   5.964
 5404SOL     OW17110   0.908   0.561   2.168
 5404SOL    HW117111   0.947   0.513   2.247
 5404SOL    HW217112   0.851   0.498   2.116
 5405SOL     OW17113   6.042   6.139   0.140
 5405SOL    HW117114   6.115   6.202   0.115
 5405SOL    HW217115   6.055   6.107   0.233
 5406SOL     OW17116   2.618   6.930   6.653
 5406SOL    HW117117   2.520   6.945   6.664
 5406SOL    HW217118   2.640   6.919   6.556
 5407SOL     OW17119   4.355   2.321   1.353
 5407SOL    HW117120   4.330   2.407   1.310
 5407SOL    HW217121   4.330   2.324   1.450
 5408SOL     OW17122   3.642   1.224   5.903
 5408SOL    HW117123   3.603   1.132   5.916
 5408SOL    HW217124   3.697   1.249   5.982
 5409SOL     OW17125   6.028   2.217   4.089
 5409SOL    HW117126   6.021   2.300   4.034
 5409SOL    HW217127   5.976   2.143   4.045
 5410SOL     OW17128   1.420   3.180   0.432
 5410SOL    HW117129   1.431   3.220   0.341
 5410SOL    HW217130   1.350   3.109   0.430
 5411SOL     OW17131   6.114   5.073   5.630
 5411SOL    HW117132   6.032   5.127   5.647
 5411SOL    HW217133   6.178   5.082   5.706
 5412SOL     OW17134   4.227   0.392   6.961
 5412SOL    HW117135   4.251   0.303   7.001
 5412SOL    HW217136   4.257   0.465   7.023
 5413SOL     OW17137   0.492   0.332   1.404
 5413SOL    HW117138   0.428   0.293   1.470
 5413SOL    HW217139   0.462   0.310   1.311
 5414SOL     OW17140   6.489   3.047   5.491
 5414SOL    HW117141   6.579   3.011   5.467
 5414SOL    HW217142   6.449   3.091   5.410
 5415SOL     OW17143   1.559   6.414   1.479
 5415SOL    HW117144   1.648   6.444   1.445
 5415SOL    HW217145   1.538   6.462   1.564
 5416SOL     OW17146   3.885   5.120   6.501
 5416SOL    HW117147   3.899   5.029   6.539
 5416SOL    HW217148   3.848   5.181   6.571
 5417SOL     OW17149   4.311   6.969   4.613
 5417SOL    HW117150   4.343   7.001   4.524
 5417SOL    HW217151   4.323   6.870   4.619
 5418SOL     OW17152   5.088   0.332   4.486
 5418SOL    HW117153   5.155   0.281   4.432
 5418SOL    HW217154   5.009   0.274   4.505
 5419SOL     OW17155   3.142   5.429   0.396
 5419SOL    HW117156   3.221   5.485   0.371
 5419SOL    HW217157   3.093   5.473   0.472
 5420SOL     OW17158   1.803   2.839   2.271
 5420SOL    HW117159   1.857   2.919   2.245
 5420SOL    HW217160   1.768   2.794   2.189
 5421SOL     OW17161   2.179   4.285   3.145
 5421SOL    HW117162   2.253   4.282   3.078
 5421SOL    HW217163   2.136   4.195   3.152
 5422SOL     OW17164   1.019   5.966   5.864
 5422SOL    HW117165   1.064   5.982   5.777
 5422SOL    HW217166   0.928   5.929   5.849
 5423SOL     OW17167   5.714   3.411   6.955
 5423SOL    HW117168   5.811   3.434   6.964
 5423SOL    HW217169   5.702   3.312   6.969
 5424SOL     OW17170   6.034   3.487   3.922
 5424SOL    HW117171   6.112   3.427   3.904
 5424SOL    HW217172   5.958   3.433   3.958
 5425SOL     OW17173   5.368   1.364   3.907
 5425SOL    HW117174   5.306   1.299   3.864
 5425SOL    HW217175   5.401   1.429   3.838
 5426SOL     OW17176   6.930   5.444   4.015
 5426SOL    HW117177   6.907   5.541   4.019
 5426SOL    HW217178   0.005   5.433   3.999
 5427SOL     OW17179   5.287   4.718   1.139
 5427SOL    HW117180   5.216   4.731   1.208
 5427SOL    HW217181   5.303   4.621   1.125
 5428SOL     OW17182   6.786   0.437   1.952
 5428SOL    HW117183   6.794   0.527   1.911
 5428SOL    HW217184   6.877   0.397   1.964
 5429SOL     OW17185   1.142   1.071   5.066
 5429SOL    HW117186   1.088   1.098   4.986
 5429SOL    HW217187   1.150   1.149   5.128
 5430SOL     OW17188   1.649   2.981   5.491
 5430SOL    HW117189   1.719   3.052   5.483
 5430SOL    HW217190   1.669   2.924   5.571
 5431SOL     OW17191   3.814   5.498   6.212
 5431SOL    HW117192   3.837   5.405   6.242
 5431SOL    HW217193   3.820   5.560   6.291
 5432SOL     OW17194   4.044   6.349   5.626
 5432SOL    HW117195   4.079   6.413   5.695
 5432SOL    HW217196   4.071   6.256   5.651
 5433SOL     OW17197   0.051   1.360   3.763
 5433SOL    HW117198   0.133   1.339   3.709
 5433SOL    HW217199   0.076   1.411   3.844
 5434SOL     OW17200   4.063   0.725   4.728
 5434SOL    HW117201   4.060   0.818   4.763
 5434SOL    HW217202   3.971   0.686   4.726
 5435SOL     OW17203   6.145   1.676   1.067
 5435SOL    HW117204   6.129   1.669   0.969
 5435SOL    HW217205   6.243   1.690   1.084
 5436SOL     OW17206   5.418   4.199   4.721
 5436SOL    HW117207   5.466   4.117   4.690
 5436SOL    HW217208   5.445   4.220   4.815
 5437SOL     OW17209   2.360   5.176   5.303
 5437SOL    HW117210   2.374   5.145   5.210
 5437SOL    HW217211   2.424   5.130   5.364
 5438SOL     OW17212   6.062   4.012   2.711
 5438SOL    HW117213   5.990   3.977   2.771
 5438SOL    HW217214   6.143   4.033   2.766
 5439SOL     OW17215   6.882   2.461   0.313
 5439SOL    HW117216   6.918   2.369   0.323
 5439SOL    HW217217   6.803   2.473   0.374
 5440SOL     OW17218   0.622   0.085   2.613
 5440SOL    HW117219   0.535   0.090   2.564
 5440SOL    HW217220   0.696   0.118   2.554
 5441SOL     OW17221   4.966   3.235   3.476
 5441SOL    HW117222   5.044   3.178   3.501
 5441SOL    HW217223   4.881   3.185   3.494
 5442SOL     OW17224   2.865   6.722   3.225
 5442SOL    HW117225   2.948   6.668   3.208
 5442SOL    HW217226   2.853   6.734   3.323
 5443SOL     OW17227   2.654   6.327   3.631
 5443SOL    HW117228   2.744   6.353   3.597
 5443SOL    HW217229   2.594   6.407   3.629
 5444SOL     OW17230   0.604   0.500   3.285
 5444SOL    HW117231   0.665   0.467   3.213
 5444SOL    HW217232   0.608   0.438   3.364
 5445SOL     OW17233   6.281   4.564   4.123
 5445SOL    HW117234   6.195   4.615   4.118
 5445SOL    HW217235   6.318   4.554   4.031
 5446SOL     OW17236   5.438   5.159   4.881
 5446SOL    HW117237   5.418   5.162   4.979
 5446SOL    HW217238   5.371   5.102   4.834
 5447SOL     OW17239   1.478   1.658   0.610
 5447SOL    HW117240   1.405   1.713   0.651
 5447SOL    HW217241   1.490   1.686   0.514
 5448SOL     OW17242   5.656   4.027   4.829
 5448SOL    HW117243   5.633   4.007   4.734
 5448SOL    HW217244   5.725   4.100   4.831
 5449SOL     OW17245   1.511   1.693   6.980
 5449SOL    HW117246   1.610   1.705   6.995
 5449SOL    HW217247   1.482   1.750   6.904
 5450SOL     OW17248   2.142   0.713   1.940
 5450SOL    HW117249   2.091   0.637   1.979
 5450SOL    HW217250   2.169   0.690   1.846
 5451SOL     OW17251   1.779   5.489   3.307
 5451SOL    HW117252   1.859   5.433   3.329
 5451SOL    HW217253   1.715   5.487   3.384
 5452SOL     OW17254   2.231   3.786   0.388
 5452SOL    HW117255   2.211   3.704   0.335
 5452SOL    HW217256   2.151   3.812   0.442
 5453SOL     OW17257   5.038   4.289   1.363
 5453SOL    HW117258   5.099   4.210   1.364
 5453SOL    HW217259   4.964   4.275   1.428
 5454SOL     OW17260   6.444   4.354   5.325
 5454SOL    HW117261   6.378   4.337   5.399
 5454SOL    HW217262   6.536   4.332   5.357
 5455SOL     OW17263   6.423   2.330   1.908
 5455SOL    HW117264   6.504   2.292   1.952
 5455SOL    HW217265   6.381   2.398   1.969
 5456SOL     OW17266   2.572   6.938   0.172
 5456SOL    HW117267   2.598   6.909   0.079
 5456SOL    HW217268   2.654   6.938   0.230
 5457SOL     OW17269   0.446   2.637   1.058
 5457SOL    HW117270   0.517   2.624   0.989
 5457SOL    HW217271   0.444   2.733   1.086
 5458SOL     OW17272   0.156   4.576   0.345
 5458SOL    HW117273   0.056   4.572   0.341
 5458SOL    HW217274   0.184   4.654   0.402
 5459SOL     OW17275   2.786   4.016   6.436
 5459SOL    HW117276   2.763   4.086   6.504
 5459SOL    HW217277   2.882   3.990   6.446
 5460SOL     OW17278   4.160   0.150   3.123
 5460SOL    HW117279   4.217   0.217   3.171
 5460SOL    HW217280   4.070   0.146   3.167
 5461SOL     OW17281   0.337   0.517   5.701
 5461SOL    HW117282   0.384   0.482   5.782
 5461SOL    HW217283   0.263   0.456   5.675
 5462SOL     OW17284   6.911   6.654   1.086
 5462SOL    HW117285   6.965   6.731   1.054
 5462SOL    HW217286   6.971   6.576   1.104
 5463SOL     OW17287   0.184   1.490   0.776
 5463SOL    HW117288   0.270   1.451   0.742
 5463SOL    HW217289   0.153   1.438   0.855
 5464SOL     OW17290   0.262   0.641   4.501
 5464SOL    HW117291   0.304   0.641   4.592
 5464SOL    HW217292   0.162   0.643   4.510
 5465SOL     OW17293   4.957   0.683   4.350
 5465SOL    HW117294   4.937   0.747   4.276
 5465SOL    HW217295   4.874   0.634   4.376
 5466SOL     OW17296   5.392   3.185   4.798
 5466SOL    HW117297   5.418   3.088   4.791
 5466SOL    HW217298   5.372   3.207   4.894
 5467SOL     OW17299   4.929   4.029   3.477
 5467SOL    HW117300   4.938   3.967   3.399
 5467SOL    HW217301   4.946   3.979   3.562
 5468SOL     OW17302   6.588   2.818   3.721
 5468SOL    HW117303   6.558   2.760   3.796
 5468SOL    HW217304   6.674   2.782   3.683
 5469SOL     OW17305   2.739   5.864   5.689
 5469SOL    HW117306   2.657   5.807   5.702
 5469SOL    HW217307   2.815   5.805   5.661
 5470SOL     OW17308   3.353   5.374   3.293
 5470SOL    HW117309   3.415   5.327   3.356
 5470SOL    HW217310   3.360   5.332   3.202
 5471SOL     OW17311   5.723   6.591   2.767
 5471SOL    HW117312   5.686   6.626   2.681
 5471SOL    HW217313   5.749   6.668   2.826
 5472SOL     OW17314   3.403   4.000   6.575
 5472SOL    HW117315   3.452   4.087   6.568
 5472SOL    HW217316   3.371   3.973   6.484
 5473SOL     OW17317   0.577   3.324   2.422
 5473SOL    HW117318   0.662   3.310   2.371
 5473SOL    HW217319   0.538   3.235   2.447
 5474SOL     OW17320   1.194   4.637   3.844
 5474SOL    HW117321   1.199   4.717   3.903
 5474SOL    HW217322   1.099   4.621   3.817
 5475SOL     OW17323   2.202   2.738   0.928
 5475SOL    HW117324   2.214   2.657   0.871
 5475SOL    HW217325   2.272   2.740   0.999
 5476SOL     OW17326   2.598   4.407   5.690
 5476SOL    HW117327   2.658   4.328   5.682
 5476SOL    HW217328   2.596   4.457   5.603
 5477SOL     OW17329   1.918   4.572   2.788
 5477SOL    HW117330   2.012   4.592   2.760
 5477SOL    HW217331   1.919   4.507   2.864
 5478SOL     OW17332   3.161   6.049   4.462
 5478SOL    HW117333   3.145   6.030   4.366
 5478SOL    HW217334   3.217   5.976   4.502
 5479SOL     OW17335   5.467   1.440   6.244
 5479SOL    HW117336   5.467   1.429   6.343
 5479SOL    HW217337   5.541   1.501   6.217
 5480SOL     OW17338   5.768   4.795   3.541
 5480SOL    HW117339   5.719   4.832   3.463
 5480SOL    HW217340   5.852   4.847   3.556
 5481SOL     OW17341   4.309   1.732   4.035
 5481SOL    HW117342   4.287   1.728   3.938
 5481SOL    HW217343   4.276   1.649   4.080
 5482SOL     OW17344   3.586   4.365   1.681
 5482SOL    HW117345   3.593   4.454   1.726
 5482SOL    HW217346   3.533   4.303   1.739
 5483SOL     OW17347   0.321   1.591   5.517
 5483SOL    HW117348   0.394   1.531   5.551
 5483SOL    HW217349   0.275   1.547   5.440
 5484SOL     OW17350   4.180   1.691   4.478
 5484SOL    HW117351   4.260   1.693   4.419
 5484SOL    HW217352   4.143   1.599   4.482
 5485SOL     OW17353   3.993   0.205   4.664
 5485SOL    HW117354   4.025   0.289   4.707
 5485SOL    HW217355   4.024   0.202   4.569
 5486SOL     OW17356   2.165   6.293   5.246
 5486SOL    HW117357   2.175   6.268   5.342
 5486SOL    HW217358   2.176   6.212   5.189
 5487SOL     OW17359   5.148   2.460   6.936
 5487SOL    HW117360   5.108   2.552   6.943
 5487SOL    HW217361   5.121   2.405   7.015
 5488SOL     OW17362   6.340   0.364   1.291
 5488SOL    HW117363   6.305   0.313   1.213
 5488SOL    HW217364   6.413   0.311   1.335
 5489SOL     OW17365   0.274   4.252   1.594
 5489SOL    HW117366   0.194   4.223   1.647
 5489SOL    HW217367   0.352   4.192   1.616
 5490SOL     OW17368   3.129   0.536   2.449
 5490SOL    HW117369   3.207   0.575   2.499
 5490SOL    HW217370   3.104   0.448   2.490
 5491SOL     OW17371   0.894   3.132   0.488
 5491SOL    HW117372   0.803   3.102   0.515
 5491SOL    HW217373   0.902   3.130   0.388
 5492SOL     OW17374   0.815   3.869   6.491
 5492SOL    HW117375   0.730   3.839   6.533
 5492SOL    HW217376   0.799   3.889   6.394
 5493SOL     OW17377   3.350   4.137   4.127
 5493SOL    HW117378   3.252   4.130   4.142
 5493SOL    HW217379   3.368   4.152   4.029
 5494SOL     OW17380   1.125   3.857   6.148
 5494SOL    HW117381   1.188   3.897   6.214
 5494SOL    HW217382   1.107   3.923   6.075
 5495SOL     OW17383   5.378   1.143   0.712
 5495SOL    HW117384   5.423   1.147   0.802
 5495SOL    HW217385   5.381   1.233   0.670
 5496SOL     OW17386   4.384   0.928   3.311
 5496SOL    HW117387   4.451   0.890   3.247
 5496SOL    HW217388   4.432   0.964   3.391
 5497SOL     OW17389   6.891   0.909   5.156
 5497SOL    HW117390   6.929   1.000   5.176
 5497SOL    HW217391   6.816   0.890   5.220
 5498SOL     OW17392   6.797   5.580   1.405
 5498SOL    HW117393   6.731   5.537   1.343
 5498SOL    HW217394   6.796   5.679   1.392
 5499SOL     OW17395   0.810   0.553   4.542
 5499SOL    HW117396   0.727   0.507   4.511
 5499SOL    HW217397   0.825   0.635   4.487
 5500SOL     OW17398   0.791   0.674   0.334
 5500SOL    HW117399   0.876   0.629   0.361
 5500SOL    HW217400   0.792   0.690   0.235
 5501SOL     OW17401   3.365   1.687   6.705
 5501SOL    HW117402   3.445   1.737   6.672
 5501SOL    HW217403   3.395   1.608   6.759
 5502SOL     OW17404   4.588   3.883   0.362
 5502SOL    HW117405   4.622   3.858   0.453
 5502SOL    HW217406   4.657   3.937   0.314
 5503SOL     OW17407   6.557   4.386   1.397
 5503SOL    HW117408   6.543   4.448   1.320
 5503SOL    HW217409   6.624   4.425   1.460
 5504SOL     OW17410   4.470   1.606   5.269
 5504SOL    HW117411   4.569   1.619   5.277
 5504SOL    HW217412   4.424   1.695   5.279
 5505SOL     OW17413   1.856   5.271   3.822
 5505SOL    HW117414   1.930   5.239   3.882
 5505SOL    HW217415   1.814   5.192   3.777
 5506SOL     OW17416   0.332   3.662   0.570
 5506SOL    HW117417   0.237   3.668   0.599
 5506SOL    HW217418   0.381   3.597   0.629
 5507SOL     OW17419   4.281   1.013   4.828
 5507SOL    HW117420   4.197   1.033   4.879
 5507SOL    HW217421   4.360   1.040   4.882
 5508SOL     OW17422   1.356   0.925   0.540
 5508SOL    HW117423   1.278   0.900   0.481
 5508SOL    HW217424   1.372   0.852   0.606
 5509SOL     OW17425   0.274   6.019   6.232
 5509SOL    HW117426   0.185   6.065   6.224
 5509SOL    HW217427   0.344   6.086   6.257
 5510SOL     OW17428   4.481   5.486   6.858
 5510SOL    HW117429   4.572   5.475   6.898
 5510SOL    HW217430   4.413   5.442   6.916
 5511SOL     OW17431   1.071   0.146   3.798
 5511SOL    HW117432   1.053   0.052   3.771
 5511SOL    HW217433   1.167   0.156   3.826
 5512SOL     OW17434   5.037   2.396   0.740
 5512SOL    HW117435   5.102   2.385   0.815
 5512SOL    HW217436   5.069   2.468   0.679
 5513SOL     OW17437   3.802   5.216   5.784
 5513SOL    HW117438   3.899   5.230   5.767
 5513SOL    HW217439   3.784   5.118   5.796
 5514SOL     OW17440   3.491   0.642   4.804
 5514SOL    HW117441   3.523   0.553   4.838
 5514SOL    HW217442   3.463   0.633   4.708
 5515SOL     OW17443   0.833   5.758   1.547
 5515SOL    HW117444   0.792   5.733   1.635
 5515SOL    HW217445   0.874   5.849   1.554
 5516SOL     OW17446   1.947   3.286   5.940
 5516SOL    HW117447   1.914   3.316   6.030
 5516SOL    HW217448   1.870   3.251   5.887
 5517SOL     OW17449   2.060   3.339   2.148
 5517SOL    HW117450   1.967   3.374   2.139
 5517SOL    HW217451   2.119   3.380   2.079
 5518SOL     OW17452   5.920   5.799   6.717
 5518SOL    HW117453   5.852   5.844   6.774
 5518SOL    HW217454   5.980   5.742   6.774
 5519SOL     OW17455   5.465   3.359   3.145
 5519SOL    HW117456   5.405   3.435   3.120
 5519SOL    HW217457   5.486   3.305   3.064
 5520SOL     OW17458   6.365   6.880   2.503
 5520SOL    HW117459   6.266   6.862   2.498
 5520SOL    HW217460   6.384   6.972   2.469
 5521SOL     OW17461   5.025   6.388   2.335
 5521SOL    HW117462   4.975   6.312   2.376
 5521SOL    HW217463   5.025   6.379   2.236
 5522SOL     OW17464   6.029   4.603   0.491
 5522SOL    HW117465   6.046   4.701   0.482
 5522SOL    HW217466   6.069   4.570   0.576
 5523SOL     OW17467   3.854   1.805   1.944
 5523SOL    HW117468   3.840   1.904   1.943
 5523SOL    HW217469   3.907   1.779   2.025
 5524SOL     OW17470   4.463   0.208   4.594
 5524SOL    HW117471   4.532   0.224   4.523
 5524SOL    HW217472   4.451   0.110   4.608
 5525SOL     OW17473   0.433   2.066   0.233
 5525SOL    HW117474   0.352   2.010   0.249
 5525SOL    HW217475   0.415   2.160   0.263
 5526SOL     OW17476   4.867   5.056   2.849
 5526SOL    HW117477   4.806   5.073   2.926
 5526SOL    HW217478   4.957   5.029   2.883
 5527SOL     OW17479   4.935   3.728   4.091
 5527SOL    HW117480   4.921   3.666   4.169
 5527SOL    HW217481   4.922   3.678   4.006
 5528SOL     OW17482   1.803   0.999   0.642
 5528SOL    HW117483   1.785   1.095   0.623
 5528SOL    HW217484   1.824   0.951   0.556
 5529SOL     OW17485   3.403   6.756   5.309
 5529SOL    HW117486   3.498   6.733   5.330
 5529SOL    HW217487   3.343   6.689   5.353
 5530SOL     OW17488   5.957   1.831   0.713
 5530SOL    HW117489   6.023   1.858   0.643
 5530SOL    HW217490   5.963   1.732   0.728
 5531SOL     OW17491   3.684   3.646   1.864
 5531SOL    HW117492   3.620   3.582   1.907
 5531SOL    HW217493   3.775   3.605   1.861
 5532SOL     OW17494   0.983   3.425   1.200
 5532SOL    HW117495   1.012   3.498   1.138
 5532SOL    HW217496   0.883   3.420   1.202
 5533SOL     OW17497   3.964   1.845   3.042
 5533SOL    HW117498   3.997   1.788   3.117
 5533SOL    HW217499   3.950   1.788   2.961
 5534SOL     OW17500   1.163   1.974   6.914
 5534SOL    HW117501   1.081   1.930   6.951
 5534SOL    HW217502   1.216   2.014   6.989
 5535SOL     OW17503   1.058   1.309   3.174
 5535SOL    HW117504   1.122   1.354   3.111
 5535SOL    HW217505   1.103   1.294   3.262
 5536SOL     OW17506   3.830   0.705   4.413
 5536SOL    HW117507   3.776   0.722   4.496
 5536SOL    HW217508   3.809   0.775   4.345
 5537SOL     OW17509   2.959   1.328   2.430
 5537SOL    HW117510   2.892   1.291   2.494
 5537SOL    HW217511   2.921   1.326   2.337
 5538SOL     OW17512   3.581   5.547   4.962
 5538SOL    HW117513   3.658   5.584   4.910
 5538SOL    HW217514   3.597   5.561   5.060
 5539SOL     OW17515   1.056   4.132   1.971
 5539SOL    HW117516   1.105   4.218   1.988
 5539SOL    HW217517   0.990   4.117   2.045
 5540SOL     OW17518   4.762   4.532   3.833
 5540SOL    HW117519   4.670   4.566   3.852
 5540SOL    HW217520   4.758   4.433   3.819
 5541SOL     OW17521   4.861   0.374   6.705
 5541SOL    HW117522   4.950   0.396   6.745
 5541SOL    HW217523   4.832   0.284   6.736
 5542SOL     OW17524   4.386   3.582   5.728
 5542SOL    HW117525   4.329   3.531   5.794
 5542SOL    HW217526   4.355   3.677   5.724
 5543SOL     OW17527   4.198   4.294   6.682
 5543SOL    HW117528   4.276   4.294   6.619
 5543SOL    HW217529   4.146   4.379   6.672
 5544SOL     OW17530   5.040   5.454   6.906
 5544SOL    HW117531   5.021   5.539   6.857
 5544SOL    HW217532   5.005   5.377   6.854
 5545SOL     OW17533   4.425   0.558   2.610
 5545SOL    HW117534   4.454   0.464   2.593
 5545SOL    HW217535   4.438   0.612   2.527
 5546SOL     OW17536   0.285   4.811   4.194
 5546SOL    HW117537   0.283   4.824   4.293
 5546SOL    HW217538   0.202   4.850   4.154
 5547SOL     OW17539   3.240   6.582   5.436
 5547SOL    HW117540   3.239   6.592   5.535
 5547SOL    HW217541   3.257   6.486   5.412
 5548SOL     OW17542   6.317   2.490   5.302
 5548SOL    HW117543   6.232   2.539   5.320
 5548SOL    HW217544   6.391   2.532   5.354
 5549SOL     OW17545   4.235   4.916   6.896
 5549SOL    HW117546   4.209   4.823   6.868
 5549SOL    HW217547   4.192   4.982   6.835
 5550SOL     OW17548   2.919   5.462   2.661
 5550SOL    HW117549   3.006   5.417   2.640
 5550SOL    HW217550   2.932   5.561   2.665
 5551SOL     OW17551   2.036   1.050   2.737
 5551SOL    HW117552   2.088   1.119   2.789
 5551SOL    HW217553   2.068   0.959   2.762
 5552SOL     OW17554   0.093   1.016   6.948
 5552SOL    HW117555   0.077   0.925   6.908
 5552SOL    HW217556   0.085   1.085   6.877
 5553SOL     OW17557   4.009   6.470   0.431
 5553SOL    HW117558   3.941   6.488   0.502
 5553SOL    HW217559   3.989   6.526   0.351
 5554SOL     OW17560   2.892   1.627   5.549
 5554SOL    HW117561   2.873   1.548   5.491
 5554SOL    HW217562   2.863   1.710   5.501
 5555SOL     OW17563   1.018   4.879   3.782
 5555SOL    HW117564   1.079   4.868   3.860
 5555SOL    HW217565   0.961   4.797   3.772
 5556SOL     OW17566   0.341   3.005   4.273
 5556SOL    HW117567   0.296   2.926   4.230
 5556SOL    HW217568   0.350   2.988   4.371
 5557SOL     OW17569   3.437   4.956   3.571
 5557SOL    HW117570   3.348   4.912   3.584
 5557SOL    HW217571   3.424   5.048   3.534
 5558SOL     OW17572   5.039   3.455   5.415
 5558SOL    HW117573   4.982   3.521   5.366
 5558SOL    HW217574   5.010   3.362   5.392
 5559SOL     OW17575   2.746   7.004   2.507
 5559SOL    HW117576   2.748   6.987   2.606
 5559SOL    HW217577   2.677   0.050   2.487
 5560SOL     OW17578   0.357   6.963   2.832
 5560SOL    HW117579   0.396   6.912   2.908
 5560SOL    HW217580   0.372   6.914   2.746
 5561SOL     OW17581   2.181   2.081   3.732
 5561SOL    HW117582   2.143   2.083   3.824
 5561SOL    HW217583   2.221   1.991   3.714
 5562SOL     OW17584   1.926   2.238   6.677
 5562SOL    HW117585   1.987   2.291   6.619
 5562SOL    HW217586   1.853   2.198   6.621
 5563SOL     OW17587   4.451   6.183   2.640
 5563SOL    HW117588   4.493   6.239   2.569
 5563SOL    HW217589   4.351   6.190   2.634
 5564SOL     OW17590   5.216   1.907   1.222
 5564SOL    HW117591   5.145   1.954   1.169
 5564SOL    HW217592   5.173   1.839   1.281
 5565SOL     OW17593   4.536   1.981   6.164
 5565SOL    HW117594   4.520   1.924   6.084
 5565SOL    HW217595   4.625   1.958   6.204
 5566SOL     OW17596   1.077   5.489   1.241
 5566SOL    HW117597   1.131   5.541   1.176
 5566SOL    HW217598   1.060   5.544   1.323
 5567SOL     OW17599   0.914   4.985   0.632
 5567SOL    HW117600   0.918   5.002   0.731
 5567SOL    HW217601   0.819   4.991   0.601
 5568SOL     OW17602   4.448   2.571   1.805
 5568SOL    HW117603   4.434   2.528   1.894
 5568SOL    HW217604   4.546   2.587   1.791
 5569SOL     OW17605   4.005   1.842   2.307
 5569SOL    HW117606   4.059   1.925   2.321
 5569SOL    HW217607   3.908   1.866   2.301
 5570SOL     OW17608   6.224   4.916   4.621
 5570SOL    HW117609   6.305   4.965   4.588
 5570SOL    HW217610   6.253   4.834   4.671
 5571SOL     OW17611   0.397   6.323   0.444
 5571SOL    HW117612   0.456   6.397   0.414
 5571SOL    HW217613   0.450   6.257   0.497
 5572SOL     OW17614   2.840   2.593   6.451
 5572SOL    HW117615   2.744   2.569   6.435
 5572SOL    HW217616   2.844   2.678   6.503
 5573SOL     OW17617   0.931   2.833   0.635
 5573SOL    HW117618   1.002   2.901   0.653
 5573SOL    HW217619   0.888   2.805   0.721
 5574SOL     OW17620   6.879   1.104   4.513
 5574SOL    HW117621   6.799   1.048   4.535
 5574SOL    HW217622   6.926   1.066   4.433
 5575SOL     OW17623   1.630   0.701   1.716
 5575SOL    HW117624   1.678   0.762   1.654
 5575SOL    HW217625   1.686   0.686   1.798
 5576SOL     OW17626   6.393   5.299   1.875
 5576SOL    HW117627   6.322   5.293   1.805
 5576SOL    HW217628   6.359   5.261   1.961
 5577SOL     OW17629   2.192   3.494   5.285
 5577SOL    HW117630   2.225   3.401   5.299
 5577SOL    HW217631   2.195   3.516   5.187
 5578SOL     OW17632   3.598   2.945   0.730
 5578SOL    HW117633   3.642   2.946   0.641
 5578SOL    HW217634   3.570   2.852   0.753
 5579SOL     OW17635   5.479   3.783   5.800
 5579SOL    HW117636   5.505   3.873   5.834
 5579SOL    HW217637   5.379   3.774   5.803
 5580SOL     OW17638   4.640   1.769   0.669
 5580SOL    HW117639   4.623   1.696   0.735
 5580SOL    HW217640   4.573   1.842   0.682
 5581SOL     OW17641   2.724   0.202   0.582
 5581SOL    HW117642   2.822   0.187   0.599
 5581SOL    HW217643   2.705   0.185   0.485
 5582SOL     OW17644   3.384   3.865   4.157
 5582SOL    HW117645   3.431   3.846   4.072
 5582SOL    HW217646   3.381   3.963   4.173
 5583SOL     OW17647   4.321   6.674   2.665
 5583SOL    HW117648   4.296   6.689   2.569
 5583SOL    HW217649   4.375   6.752   2.697
 5584SOL     OW17650   5.585   4.122   3.656
 5584SOL    HW117651   5.601   4.097   3.752
 5584SOL    HW217652   5.660   4.089   3.600
 5585SOL     OW17653   5.755   0.484   4.087
 5585SOL    HW117654   5.756   0.410   4.154
 5585SOL    HW217655   5.785   0.450   3.999
 5586SOL     OW17656   1.748   2.143   6.479
 5586SOL    HW117657   1.783   2.129   6.387
 5586SOL    HW217658   1.649   2.127   6.480
 5587SOL     OW17659   3.760   0.159   2.462
 5587SOL    HW117660   3.784   0.096   2.536
 5587SOL    HW217661   3.843   0.187   2.414
 5588SOL     OW17662   1.634   6.686   4.575
 5588SOL    HW117663   1.690   6.765   4.597
 5588SOL    HW217664   1.623   6.679   4.476
 5589SOL     OW17665   5.097   3.108   5.606
 5589SOL    HW117666   5.133   3.200   5.620
 5589SOL    HW217667   5.158   3.041   5.649
 5590SOL     OW17668   6.466   5.554   3.387
 5590SOL    HW117669   6.389   5.615   3.403
 5590SOL    HW217670   6.548   5.607   3.364
 5591SOL     OW17671   5.906   0.422   0.123
 5591SOL    HW117672   5.927   0.436   0.026
 5591SOL    HW217673   5.934   0.503   0.175
 5592SOL     OW17674   1.821   3.684   3.965
 5592SOL    HW117675   1.798   3.776   3.935
 5592SOL    HW217676   1.770   3.618   3.910
 5593SOL     OW17677   0.180   2.453   5.906
 5593SOL    HW117678   0.205   2.496   5.820
 5593SOL    HW217679   0.218   2.505   5.982
 5594SOL     OW17680   2.330   0.967   6.839
 5594SOL    HW117681   2.412   0.977   6.782
 5594SOL    HW217682   2.336   1.030   6.917
 5595SOL     OW17683   6.316   0.723   5.698
 5595SOL    HW117684   6.246   0.784   5.734
 5595SOL    HW217685   6.357   0.764   5.617
 5596SOL     OW17686   6.017   0.038   2.595
 5596SOL    HW117687   6.048   0.115   2.539
 5596SOL    HW217688   5.999   6.982   2.537
 5597SOL     OW17689   5.064   2.235   5.948
 5597SOL    HW117690   4.991   2.196   6.004
 5597SOL    HW217691   5.144   2.175   5.951
 5598SOL     OW17692   4.951   2.044   3.851
 5598SOL    HW117693   4.856   2.070   3.832
 5598SOL    HW217694   4.984   2.094   3.931
 5599SOL     OW17695   5.661   3.988   1.892
 5599SOL    HW117696   5.650   4.007   1.794
 5599SOL    HW217697   5.571   3.977   1.934
 5600SOL     OW17698   2.382   0.330   3.122
 5600SOL    HW117699   2.470   0.311   3.077
 5600SOL    HW217700   2.389   0.307   3.219
 5601SOL     OW17701   5.191   2.877   5.722
 5601SOL    HW117702   5.256   2.863   5.798
 5601SOL    HW217703   5.192   2.796   5.663
 5602SOL     OW17704   0.154   1.735   3.701
 5602SOL    HW117705   0.089   1.659   3.696
 5602SOL    HW217706   0.105   1.821   3.691
 5603SOL     OW17707   4.486   2.635   5.188
 5603SOL    HW117708   4.386   2.630   5.179
 5603SOL    HW217709   4.518   2.721   5.146
 5604SOL     OW17710   0.560   0.840   4.070
 5604SOL    HW117711   0.596   0.752   4.101
 5604SOL    HW217712   0.570   0.846   3.971
 5605SOL     OW17713   0.755   0.231   4.657
 5605SOL    HW117714   0.684   0.275   4.601
 5605SOL    HW217715   0.717   0.210   4.747
 5606SOL     OW17716   4.574   1.576   0.093
 5606SOL    HW117717   4.673   1.586   0.099
 5606SOL    HW217718   4.541   1.521   0.170
 5607SOL     OW17719   6.013   2.652   3.626
 5607SOL    HW117720   6.027   2.598   3.542
 5607SOL    HW217721   5.918   2.641   3.657
 5608SOL     OW17722   6.227   0.235   3.243
 5608SOL    HW117723   6.133   0.266   3.227
 5608SOL    HW217724   6.290   0.312   3.234
 5609SOL     OW17725   4.638   6.363   0.185
 5609SOL    HW117726   4.699   6.340   0.260
 5609SOL    HW217727   4.559   6.303   0.186
 5610SOL     OW17728   5.938   4.301   6.866
 5610SOL    HW117729   5.913   4.268   6.957
 5610SOL    HW217730   5.894   4.244   6.796
 5611SOL     OW17731   0.215   4.473   1.909
 5611SOL    HW117732   0.150   4.399   1.892
 5611SOL    HW217733   0.289   4.467   1.842
 5612SOL     OW17734   3.016   2.797   0.221
 5612SOL    HW117735   3.007   2.700   0.246
 5612SOL    HW217736   3.088   2.839   0.276
 5613SOL     OW17737   0.181   5.394   4.253
 5613SOL    HW117738   0.178   5.384   4.352
 5613SOL    HW217739   0.208   5.488   4.230
 5614SOL     OW17740   6.137   1.938   4.062
 5614SOL    HW117741   6.125   2.034   4.036
 5614SOL    HW217742   6.219   1.930   4.119
 5615SOL     OW17743   0.507   2.166   2.572
 5615SOL    HW117744   0.544   2.230   2.504
 5615SOL    HW217745   0.433   2.113   2.530
 5616SOL     OW17746   2.257   1.901   4.432
 5616SOL    HW117747   2.307   1.978   4.392
 5616SOL    HW217748   2.199   1.934   4.507
 5617SOL     OW17749   1.827   5.194   4.801
 5617SOL    HW117750   1.751   5.198   4.737
 5617SOL    HW217751   1.874   5.282   4.803
 5618SOL     OW17752   6.481   5.177   3.724
 5618SOL    HW117753   6.537   5.105   3.683
 5618SOL    HW217754   6.528   5.265   3.712
 5619SOL     OW17755   3.296   3.250   3.659
 5619SOL    HW117756   3.284   3.342   3.623
 5619SOL    HW217757   3.206   3.209   3.675
 5620SOL     OW17758   4.192   3.946   5.956
 5620SOL    HW117759   4.250   3.867   5.937
 5620SOL    HW217760   4.202   3.972   6.052
 5621SOL     OW17761   2.030   3.113   6.185
 5621SOL    HW117762   2.099   3.046   6.159
 5621SOL    HW217763   2.027   3.121   6.285
 5622SOL     OW17764   4.297   5.635   5.265
 5622SOL    HW117765   4.216   5.603   5.314
 5622SOL    HW217766   4.308   5.734   5.279
 5623SOL     OW17767   5.029   6.878   4.273
 5623SOL    HW117768   5.075   6.965   4.257
 5623SOL    HW217769   4.941   6.878   4.226
 5624SOL     OW17770   0.525   5.221   3.329
 5624SOL    HW117771   0.457   5.292   3.350
 5624SOL    HW217772   0.617   5.257   3.344
 5625SOL     OW17773   0.852   5.608   4.744
 5625SOL    HW117774   0.818   5.696   4.711
 5625SOL    HW217775   0.794   5.535   4.710
 5626SOL     OW17776   1.810   4.604   4.406
 5626SOL    HW117777   1.743   4.616   4.480
 5626SOL    HW217778   1.862   4.688   4.394
 5627SOL     OW17779   0.788   5.921   6.229
 5627SOL    HW117780   0.750   5.876   6.148
 5627SOL    HW217781   0.826   6.010   6.202
 5628SOL     OW17782   2.947   3.083   0.729
 5628SOL    HW117783   2.939   3.111   0.633
 5628SOL    HW217784   2.988   2.992   0.734
 5629SOL     OW17785   3.883   3.567   1.348
 5629SOL    HW117786   3.839   3.477   1.353
 5629SOL    HW217787   3.816   3.637   1.370
 5630SOL     OW17788   1.748   3.767   6.239
 5630SOL    HW117789   1.651   3.744   6.228
 5630SOL    HW217790   1.783   3.805   6.153
 5631SOL     OW17791   4.733   0.866   2.080
 5631SOL    HW117792   4.796   0.792   2.104
 5631SOL    HW217793   4.640   0.829   2.071
 5632SOL     OW17794   4.928   1.015   5.955
 5632SOL    HW117795   5.013   1.012   6.008
 5632SOL    HW217796   4.888   0.924   5.951
 5633SOL     OW17797   0.543   5.069   4.244
 5633SOL    HW117798   0.567   4.973   4.229
 5633SOL    HW217799   0.445   5.077   4.258
 5634SOL     OW17800   2.370   5.582   5.250
 5634SOL    HW117801   2.380   5.505   5.187
 5634SOL    HW217802   2.446   5.646   5.238
 5635SOL     OW17803   3.052   0.035   6.748
 5635SOL    HW117804   3.099   0.113   6.707
 5635SOL    HW217805   3.055   0.042   6.848
 5636SOL     OW17806   6.081   1.332   5.865
 5636SOL    HW117807   6.146   1.271   5.911
 5636SOL    HW217808   6.069   1.415   5.918
 5637SOL     OW17809   5.835   6.560   4.118
 5637SOL    HW117810   5.781   6.642   4.138
 5637SOL    HW217811   5.822   6.535   4.022
 5638SOL     OW17812   5.409   5.885   1.729
 5638SOL    HW117813   5.333   5.861   1.668
 5638SOL    HW217814   5.466   5.954   1.685
 5639SOL     OW17815   1.595   0.568   1.483
 5639SOL    HW117816   1.614   0.608   1.573
 5639SOL    HW217817   1.507   0.522   1.485
 5640SOL     OW17818   2.465   0.018   2.781
 5640SOL    HW117819   2.420   0.103   2.753
 5640SOL    HW217820   2.563   0.032   2.786
 5641SOL     OW17821   0.640   4.444   5.637
 5641SOL    HW117822   0.545   4.434   5.666
 5641SOL    HW217823   0.691   4.493   5.708
 5642SOL     OW17824   0.316   5.100   5.982
 5642SOL    HW117825   0.385   5.167   5.956
 5642SOL    HW217826   0.343   5.010   5.950
 5643SOL     OW17827   3.331   1.098   4.839
 5643SOL    HW117828   3.265   1.092   4.764
 5643SOL    HW217829   3.287   1.074   4.925
 5644SOL     OW17830   5.348   1.668   4.112
 5644SOL    HW117831   5.258   1.646   4.073
 5644SOL    HW217832   5.348   1.763   4.143
 5645SOL     OW17833   5.865   4.035   2.427
 5645SOL    HW117834   5.917   4.118   2.449
 5645SOL    HW217835   5.798   4.018   2.500
 5646SOL     OW17836   1.124   5.430   3.856
 5646SOL    HW117837   1.199   5.455   3.918
 5646SOL    HW217838   1.066   5.510   3.839
 5647SOL     OW17839   6.494   6.152   6.478
 5647SOL    HW117840   6.519   6.197   6.564
 5647SOL    HW217841   6.401   6.116   6.485
 5648SOL     OW17842   1.726   0.998   3.000
 5648SOL    HW117843   1.714   1.079   2.941
 5648SOL    HW217844   1.747   1.028   3.093
 5649SOL     OW17845   1.362   0.084   5.290
 5649SOL    HW117846   1.303   0.143   5.236
 5649SOL    HW217847   1.431   0.043   5.231
 5650SOL     OW17848   0.516   4.919   1.217
 5650SOL    HW117849   0.487   4.930   1.122
 5650SOL    HW217850   0.579   4.992   1.242
 5651SOL     OW17851   0.488   1.817   1.474
 5651SOL    HW117852   0.408   1.857   1.518
 5651SOL    HW217853   0.548   1.889   1.441
 5652SOL     OW17854   4.902   6.156   2.193
 5652SOL    HW117855   4.867   6.126   2.282
 5652SOL    HW217856   4.965   6.087   2.157
 5653SOL     OW17857   0.106   6.367   6.552
 5653SOL    HW117858   0.128   6.320   6.638
 5653SOL    HW217859   0.007   6.367   6.539
 5654SOL     OW17860   0.519   0.195   6.167
 5654SOL    HW117861   0.486   0.227   6.256
 5654SOL    HW217862   0.441   0.172   6.109
 5655SOL     OW17863   0.884   2.742   4.310
 5655SOL    HW117864   0.928   2.801   4.378
 5655SOL    HW217865   0.790   2.722   4.339
 5656SOL     OW17866   3.116   5.169   0.834
 5656SOL    HW117867   3.142   5.094   0.895
 5656SOL    HW217868   3.195   5.228   0.817
 5657SOL     OW17869   4.737   6.692   1.285
 5657SOL    HW117870   4.661   6.629   1.299
 5657SOL    HW217871   4.761   6.736   1.371
 5658SOL     OW17872   2.908   6.677   6.021
 5658SOL    HW117873   2.893   6.628   6.107
 5658SOL    HW217874   2.984   6.741   6.033
 5659SOL     OW17875   2.912   3.442   2.948
 5659SOL    HW117876   2.928   3.510   3.019
 5659SOL    HW217877   2.846   3.477   2.883
 5660SOL     OW17878   5.477   0.482   6.855
 5660SOL    HW117879   5.509   0.506   6.946
 5660SOL    HW217880   5.481   0.562   6.796
 5661SOL     OW17881   6.782   5.314   5.822
 5661SOL    HW117882   6.847   5.387   5.801
 5661SOL    HW217883   6.748   5.325   5.915
 5662SOL     OW17884   2.570   4.936   4.237
 5662SOL    HW117885   2.564   4.861   4.302
 5662SOL    HW217886   2.483   4.984   4.232
 5663SOL     OW17887   1.144   4.120   6.950
 5663SOL    HW117888   1.099   4.042   6.908
 5663SOL    HW217889   1.226   4.144   6.899
 5664SOL     OW17890   0.141   3.896   3.675
 5664SOL    HW117891   0.093   3.817   3.713
 5664SOL    HW217892   0.079   3.946   3.614
 5665SOL     OW17893   1.687   1.257   6.629
 5665SOL    HW117894   1.765   1.260   6.566
 5665SOL    HW217895   1.663   1.162   6.649
 5666SOL     OW17896   4.877   5.994   0.856
 5666SOL    HW117897   4.811   5.924   0.881
 5666SOL    HW217898   4.970   5.961   0.876
 5667SOL     OW17899   0.566   4.758   3.734
 5667SOL    HW117900   0.638   4.720   3.676
 5667SOL    HW217901   0.520   4.832   3.684
 5668SOL     OW17902   5.393   2.118   6.509
 5668SOL    HW117903   5.339   2.097   6.590
 5668SOL    HW217904   5.401   2.217   6.498
 5669SOL     OW17905   0.315   3.735   6.355
 5669SOL    HW117906   0.382   3.785   6.410
 5669SOL    HW217907   0.321   3.638   6.374
 5670SOL     OW17908   0.301   2.920   3.482
 5670SOL    HW117909   0.303   2.900   3.384
 5670SOL    HW217910   0.393   2.908   3.520
 5671SOL     OW17911   0.980   0.047   6.430
 5671SOL    HW117912   0.952   0.116   6.364
 5671SOL    HW217913   0.903   7.009   6.450
 5672SOL     OW17914   4.295   4.968   6.344
 5672SOL    HW117915   4.323   4.934   6.434
 5672SOL    HW217916   4.243   4.897   6.296
 5673SOL     OW17917   1.069   7.019   1.843
 5673SOL    HW117918   1.123   0.024   1.923
 5673SOL    HW217919   1.100   0.047   1.762
 5674SOL     OW17920   6.828   3.591   2.596
 5674SOL    HW117921   6.756   3.603   2.528
 5674SOL    HW217922   6.787   3.573   2.686
 5675SOL     OW17923   4.318   2.440   5.699
 5675SOL    HW117924   4.288   2.494   5.778
 5675SOL    HW217925   4.410   2.406   5.714
 5676SOL     OW17926   2.266   1.528   1.756
 5676SOL    HW117927   2.199   1.576   1.699
 5676SOL    HW217928   2.320   1.595   1.808
 5677SOL     OW17929   0.833   2.172   3.442
 5677SOL    HW117930   0.763   2.157   3.372
 5677SOL    HW217931   0.857   2.085   3.484
 5678SOL     OW17932   3.223   6.559   3.078
 5678SOL    HW117933   3.309   6.561   3.130
 5678SOL    HW217934   3.194   6.652   3.059
 5679SOL     OW17935   1.424   0.198   4.130
 5679SOL    HW117936   1.498   0.135   4.154
 5679SOL    HW217937   1.420   0.271   4.199
 5680SOL     OW17938   1.598   5.385   0.941
 5680SOL    HW117939   1.622   5.465   0.995
 5680SOL    HW217940   1.504   5.394   0.908
 5681SOL     OW17941   1.633   3.539   6.996
 5681SOL    HW117942   1.560   3.473   6.980
 5681SOL    HW217943   1.673   3.566   6.908
 5682SOL     OW17944   2.107   4.785   6.241
 5682SOL    HW117945   2.032   4.760   6.302
 5682SOL    HW217946   2.122   4.711   6.175
 5683SOL     OW17947   4.332   1.851   6.404
 5683SOL    HW117948   4.363   1.826   6.312
 5683SOL    HW217949   4.411   1.857   6.465
 5684SOL     OW17950   4.057   3.325   4.983
 5684SOL    HW117951   4.066   3.419   4.951
 5684SOL    HW217952   4.087   3.319   5.078
 5685SOL     OW17953   0.754   4.727   1.535
 5685SOL    HW117954   0.710   4.656   1.480
 5685SOL    HW217955   0.686   4.794   1.564
 5686SOL     OW17956   3.178   0.927   0.425
 5686SOL    HW117957   3.121   0.875   0.361
 5686SOL    HW217958   3.219   0.864   0.491
 5687SOL     OW17959   6.545   3.735   4.992
 5687SOL    HW117960   6.594   3.709   5.075
 5687SOL    HW217961   6.463   3.788   5.016
 5688SOL     OW17962   6.695   1.314   0.117
 5688SOL    HW117963   6.720   1.407   0.090
 5688SOL    HW217964   6.595   1.307   0.126
 5689SOL     OW17965   4.082   0.952   6.748
 5689SOL    HW117966   4.029   0.874   6.780
 5689SOL    HW217967   4.131   0.928   6.664
 5690SOL     OW17968   2.509   6.410   1.286
 5690SOL    HW117969   2.542   6.317   1.270
 5690SOL    HW217970   2.576   6.475   1.252
 5691SOL     OW17971   3.031   6.300   2.449
 5691SOL    HW117972   3.092   6.366   2.406
 5691SOL    HW217973   2.966   6.349   2.508
 5692SOL     OW17974   6.891   2.285   6.179
 5692SOL    HW117975   6.937   2.217   6.122
 5692SOL    HW217976   6.792   2.275   6.168
 5693SOL     OW17977   5.382   2.676   1.992
 5693SOL    HW117978   5.432   2.761   1.975
 5693SOL    HW217979   5.362   2.631   1.904
 5694SOL     OW17980   0.600   1.059   3.552
 5694SOL    HW117981   0.510   1.024   3.528
 5694SOL    HW217982   0.659   1.057   3.470
 5695SOL     OW17983   1.125   2.485   3.025
 5695SOL    HW117984   1.064   2.556   2.989
 5695SOL    HW217985   1.184   2.452   2.952
 5696SOL     OW17986   1.556   0.342   3.060
 5696SOL    HW117987   1.560   0.245   3.034
 5696SOL    HW217988   1.461   0.371   3.064
 5697SOL     OW17989   6.365   1.705   0.779
 5697SOL    HW117990   6.358   1.712   0.879
 5697SOL    HW217991   6.380   1.609   0.754
 5698SOL     OW17992   0.278   2.540   2.245
 5698SOL    HW117993   0.341   2.615   2.226
 5698SOL    HW217994   0.294   2.466   2.180
 5699SOL     OW17995   6.701   2.377   3.330
 5699SOL    HW117996   6.673   2.391   3.425
 5699SOL    HW217997   6.778   2.313   3.327
 5700SOL     OW17998   6.727   6.217   4.624
 5700SOL    HW117999   6.647   6.160   4.605
 5700SOL    HW218000   6.752   6.210   4.720
 5701SOL     OW18001   1.009   5.829   3.409
 5701SOL    HW118002   1.098   5.858   3.375
 5701SOL    HW218003   0.937   5.863   3.348
 5702SOL     OW18004   1.955   6.953   5.927
 5702SOL    HW118005   1.916   0.015   5.964
 5702SOL    HW218006   1.916   6.935   5.837
 5703SOL     OW18007   5.090   4.452   0.447
 5703SOL    HW118008   5.145   4.394   0.507
 5703SOL    HW218009   5.103   4.548   0.472
 5704SOL     OW18010   3.870   5.477   2.348
 5704SOL    HW118011   3.778   5.502   2.316
 5704SOL    HW218012   3.899   5.540   2.419
 5705SOL     OW18013   6.192   1.009   0.198
 5705SOL    HW118014   6.255   1.008   0.121
 5705SOL    HW218015   6.099   0.989   0.166
 5706SOL     OW18016   1.218   1.625   0.744
 5706SOL    HW118017   1.119   1.621   0.739
 5706SOL    HW218018   1.255   1.533   0.759
 5707SOL     OW18019   0.641   6.608   0.032
 5707SOL    HW118020   0.610   6.522   7.013
 5707SOL    HW218021   0.588   6.684   7.017
 5708SOL     OW18022   5.432   6.787   1.521
 5708SOL    HW118023   5.482   6.807   1.438
 5708SOL    HW218024   5.334   6.781   1.501
 5709SOL     OW18025   1.189   6.753   3.678
 5709SOL    HW118026   1.147   6.747   3.587
 5709SOL    HW218027   1.136   6.698   3.743
 5710SOL     OW18028   2.398   3.305   5.578
 5710SOL    HW118029   2.452   3.335   5.657
 5710SOL    HW218030   2.308   3.349   5.580
 5711SOL     OW18031   5.403   0.750   3.011
 5711SOL    HW118032   5.483   0.781   3.063
 5711SOL    HW218033   5.396   0.651   3.016
 5712SOL     OW18034   0.780   6.275   5.847
 5712SOL    HW118035   0.826   6.241   5.766
 5712SOL    HW218036   0.681   6.257   5.840
 5713SOL     OW18037   1.508   2.028   1.073
 5713SOL    HW118038   1.439   1.989   1.133
 5713SOL    HW218039   1.539   1.958   1.008
 5714SOL     OW18040   1.545   6.316   0.281
 5714SOL    HW118041   1.588   6.250   0.219
 5714SOL    HW218042   1.612   6.347   0.348
 5715SOL     OW18043   1.259   5.875   3.299
 5715SOL    HW118044   1.221   5.885   3.207
 5715SOL    HW218045   1.339   5.934   3.309
 5716SOL     OW18046   1.036   3.672   5.621
 5716SOL    HW118047   1.056   3.760   5.664
 5716SOL    HW218048   1.092   3.601   5.663
 5717SOL     OW18049   1.738   5.624   0.528
 5717SOL    HW118050   1.814   5.605   0.466
 5717SOL    HW218051   1.772   5.669   0.610
 5718SOL     OW18052   1.265   4.159   6.130
 5718SOL    HW118053   1.220   4.244   6.100
 5718SOL    HW218054   1.223   4.127   6.215
 5719SOL     OW18055   2.567   1.199   6.089
 5719SOL    HW118056   2.635   1.156   6.028
 5719SOL    HW218057   2.537   1.132   6.157
 5720SOL     OW18058   0.814   4.648   4.559
 5720SOL    HW118059   0.751   4.673   4.633
 5720SOL    HW218060   0.908   4.654   4.592
 5721SOL     OW18061   0.488   3.873   0.674
 5721SOL    HW118062   0.507   3.856   0.770
 5721SOL    HW218063   0.437   3.796   0.635
 5722SOL     OW18064   5.680   1.782   5.110
 5722SOL    HW118065   5.693   1.706   5.173
 5722SOL    HW218066   5.623   1.752   5.033
 5723SOL     OW18067   4.069   4.002   0.232
 5723SOL    HW118068   4.166   4.017   0.252
 5723SOL    HW218069   4.030   3.940   0.299
 5724SOL     OW18070   4.003   2.390   5.311
 5724SOL    HW118071   3.999   2.392   5.411
 5724SOL    HW218072   4.036   2.478   5.278
 5725SOL     OW18073   5.084   6.118   3.325
 5725SOL    HW118074   5.039   6.045   3.378
 5725SOL    HW218075   5.177   6.089   3.302
 5726SOL     OW18076   6.558   3.424   3.520
 5726SOL    HW118077   6.517   3.399   3.608
 5726SOL    HW218078   6.617   3.350   3.488
 5727SOL     OW18079   6.998   3.306   3.600
 5727SOL    HW118080   0.019   3.240   3.540
 5727SOL    HW218081   6.916   3.266   3.641
 5728SOL     OW18082   4.363   1.451   6.103
 5728SOL    HW118083   4.437   1.394   6.067
 5728SOL    HW218084   4.375   1.462   6.202
 5729SOL     OW18085   0.898   1.101   0.787
 5729SOL    HW118086   0.977   1.052   0.750
 5729SOL    HW218087   0.923   1.147   0.872
 5730SOL     OW18088   4.254   5.606   5.670
 5730SOL    HW118089   4.268   5.583   5.766
 5730SOL    HW218090   4.320   5.556   5.613
 5731SOL     OW18091   2.206   6.550   3.851
 5731SOL    HW118092   2.274   6.478   3.843
 5731SOL    HW218093   2.224   6.604   3.933
 5732SOL     OW18094   6.602   4.356   4.988
 5732SOL    HW118095   6.635   4.404   5.069
 5732SOL    HW218096   6.563   4.268   5.014
 5733SOL     OW18097   3.309   0.375   5.643
 5733SOL    HW118098   3.396   0.418   5.619
 5733SOL    HW218099   3.246   0.445   5.677
 5734SOL     OW18100   1.471   6.879   6.723
 5734SOL    HW118101   1.384   6.855   6.767
 5734SOL    HW218102   1.534   6.801   6.729
 5735SOL     OW18103   3.650   1.423   2.834
 5735SOL    HW118104   3.616   1.357   2.767
 5735SOL    HW218105   3.648   1.515   2.794
 5736SOL     OW18106   5.627   4.771   0.357
 5736SOL    HW118107   5.682   4.715   0.296
 5736SOL    HW218108   5.616   4.723   0.445
 5737SOL     OW18109   5.529   6.214   0.592
 5737SOL    HW118110   5.434   6.223   0.562
 5737SOL    HW218111   5.585   6.285   0.549
 5738SOL     OW18112   3.781   1.738   6.939
 5738SOL    HW118113   3.787   1.643   6.909
 5738SOL    HW218114   3.839   1.795   6.880
 5739SOL     OW18115   1.289   6.859   5.802
 5739SOL    HW118116   1.283   6.931   5.732
 5739SOL    HW218117   1.235   6.886   5.882
 5740SOL     OW18118   4.564   3.605   1.152
 5740SOL    HW118119   4.569   3.506   1.162
 5740SOL    HW218120   4.532   3.646   1.237
 5741SOL     OW18121   6.982   3.763   4.065
 5741SOL    HW118122   0.004   3.742   4.152
 5741SOL    HW218123   0.008   3.718   3.991
 5742SOL     OW18124   4.618   6.290   3.159
 5742SOL    HW118125   4.524   6.270   3.187
 5742SOL    HW218126   4.618   6.365   3.092
 5743SOL     OW18127   3.114   5.684   5.344
 5743SOL    HW118128   3.170   5.764   5.364
 5743SOL    HW218129   3.128   5.657   5.248
 5744SOL     OW18130   5.614   0.900   2.202
 5744SOL    HW118131   5.535   0.918   2.261
 5744SOL    HW218132   5.603   0.950   2.116
 5745SOL     OW18133   2.759   0.962   4.174
 5745SOL    HW118134   2.684   0.912   4.130
 5745SOL    HW218135   2.844   0.913   4.159
 5746SOL     OW18136   4.974   6.950   1.715
 5746SOL    HW118137   4.949   0.024   1.714
 5746SOL    HW218138   5.029   6.930   1.796
 5747SOL     OW18139   0.963   5.407   1.548
 5747SOL    HW118140   1.007   5.363   1.470
 5747SOL    HW218141   1.014   5.490   1.572
 5748SOL     OW18142   1.803   0.301   0.582
 5748SOL    HW118143   1.730   0.236   0.560
 5748SOL    HW218144   1.887   0.274   0.535
 5749SOL     OW18145   1.755   6.809   4.989
 5749SOL    HW118146   1.787   6.895   5.028
 5749SOL    HW218147   1.658   6.817   4.965
 5750SOL     OW18148   6.087   6.023   5.447
 5750SOL    HW118149   6.184   6.012   5.426
 5750SOL    HW218150   6.073   6.020   5.545
 5751SOL     OW18151   2.398   2.734   4.986
 5751SOL    HW118152   2.305   2.697   4.984
 5751SOL    HW218153   2.394   2.833   5.004
 5752SOL     OW18154   5.526   6.937   0.484
 5752SOL    HW118155   5.586   6.946   0.564
 5752SOL    HW218156   5.559   6.997   0.411
 5753SOL     OW18157   3.363   4.109   4.681
 5753SOL    HW118158   3.393   4.171   4.753
 5753SOL    HW218159   3.267   4.084   4.695
 5754SOL     OW18160   1.086   5.656   1.467
 5754SOL    HW118161   1.151   5.733   1.471
 5754SOL    HW218162   0.993   5.692   1.468
 5755SOL     OW18163   1.488   2.184   6.372
 5755SOL    HW118164   1.477   2.094   6.329
 5755SOL    HW218165   1.549   2.240   6.316
 5756SOL     OW18166   0.547   0.447   2.776
 5756SOL    HW118167   0.547   0.544   2.802
 5756SOL    HW218168   0.536   0.439   2.677
 5757SOL     OW18169   0.679   5.492   4.430
 5757SOL    HW118170   0.683   5.589   4.408
 5757SOL    HW218171   0.652   5.440   4.349
 5758SOL     OW18172   2.403   1.392   2.699
 5758SOL    HW118173   2.410   1.309   2.644
 5758SOL    HW218174   2.377   1.469   2.641
 5759SOL     OW18175   4.619   0.805   0.261
 5759SOL    HW118176   4.548   0.832   0.195
 5759SOL    HW218177   4.615   0.865   0.340
 5760SOL     OW18178   6.377   1.982   1.118
 5760SOL    HW118179   6.298   2.019   1.070
 5760SOL    HW218180   6.455   2.044   1.107
 5761SOL     OW18181   6.058   4.821   5.925
 5761SOL    HW118182   6.057   4.912   5.967
 5761SOL    HW218183   6.138   4.813   5.865
 5762SOL     OW18184   4.845   4.437   0.840
 5762SOL    HW118185   4.836   4.479   0.750
 5762SOL    HW218186   4.832   4.506   0.911
 5763SOL     OW18187   5.866   6.168   0.998
 5763SOL    HW118188   5.799   6.104   0.959
 5763SOL    HW218189   5.839   6.262   0.976
 5764SOL     OW18190   4.504   4.618   4.343
 5764SOL    HW118191   4.411   4.592   4.319
 5764SOL    HW218192   4.534   4.567   4.423
 5765SOL     OW18193   6.179   3.534   0.206
 5765SOL    HW118194   6.097   3.571   0.249
 5765SOL    HW218195   6.237   3.491   0.276
 5766SOL     OW18196   1.719   2.163   5.110
 5766SOL    HW118197   1.673   2.075   5.117
 5766SOL    HW218198   1.800   2.163   5.168
 5767SOL     OW18199   2.480   0.187   0.721
 5767SOL    HW118200   2.564   0.199   0.668
 5767SOL    HW218201   2.491   0.109   0.783
 5768SOL     OW18202   0.544   6.832   3.670
 5768SOL    HW118203   0.507   6.912   3.623
 5768SOL    HW218204   0.478   6.798   3.736
 5769SOL     OW18205   2.575   5.544   4.337
 5769SOL    HW118206   2.647   5.529   4.404
 5769SOL    HW218207   2.567   5.642   4.318
 5770SOL     OW18208   6.700   6.672   6.241
 5770SOL    HW118209   6.609   6.713   6.231
 5770SOL    HW218210   6.727   6.675   6.337
 5771SOL     OW18211   1.248   6.959   4.244
 5771SOL    HW118212   1.332   6.929   4.200
 5771SOL    HW218213   1.258   0.031   4.275
 5772SOL     OW18214   5.220   0.909   0.789
 5772SOL    HW118215   5.291   0.841   0.773
 5772SOL    HW218216   5.259   1.001   0.780
 5773SOL     OW18217   4.670   1.200   3.339
 5773SOL    HW118218   4.766   1.173   3.337
 5773SOL    HW218219   4.633   1.186   3.430
 5774SOL     OW18220   3.319   0.184   4.131
 5774SOL    HW118221   3.267   0.144   4.207
 5774SOL    HW218222   3.262   0.187   4.049
 5775SOL     OW18223   1.149   0.318   2.129
 5775SOL    HW118224   1.074   0.370   2.171
 5775SOL    HW218225   1.191   0.373   2.056
 5776SOL     OW18226   0.739   6.826   3.873
 5776SOL    HW118227   0.682   6.820   3.791
 5776SOL    HW218228   0.686   6.870   3.946
 5777SOL     OW18229   0.125   0.337   4.919
 5777SOL    HW118230   0.198   0.319   4.852
 5777SOL    HW218231   0.066   0.410   4.885
 5778SOL     OW18232   1.513   0.267   0.239
 5778SOL    HW118233   1.561   0.210   0.305
 5778SOL    HW218234   1.489   0.354   0.282
 5779SOL     OW18235   4.954   2.413   1.008
 5779SOL    HW118236   4.937   2.426   0.910
 5779SOL    HW218237   4.870   2.429   1.059
 5780SOL     OW18238   6.201   6.046   3.826
 5780SOL    HW118239   6.236   6.071   3.916
 5780SOL    HW218240   6.180   5.948   3.825
 5781SOL     OW18241   0.313   5.107   4.367
 5781SOL    HW118242   0.265   5.153   4.441
 5781SOL    HW218243   0.263   5.122   4.281
 5782SOL     OW18244   1.949   1.612   0.669
 5782SOL    HW118245   1.981   1.697   0.711
 5782SOL    HW218246   2.016   1.540   0.686
 5783SOL     OW18247   1.047   0.923   1.469
 5783SOL    HW118248   1.122   0.907   1.404
 5783SOL    HW218249   1.045   0.850   1.536
 5784SOL     OW18250   0.114   6.437   5.422
 5784SOL    HW118251   0.036   6.389   5.381
 5784SOL    HW218252   0.111   6.534   5.397
 5785SOL     OW18253   2.222   2.271   0.373
 5785SOL    HW118254   2.318   2.278   0.345
 5785SOL    HW218255   2.217   2.217   0.457
 5786SOL     OW18256   0.283   4.425   0.561
 5786SOL    HW118257   0.225   4.354   0.522
 5786SOL    HW218258   0.321   4.481   0.488
 5787SOL     OW18259   2.220   1.453   4.494
 5787SOL    HW118260   2.242   1.408   4.580
 5787SOL    HW218261   2.304   1.482   4.449
 5788SOL     OW18262   2.826   1.484   1.612
 5788SOL    HW118263   2.850   1.467   1.707
 5788SOL    HW218264   2.899   1.535   1.567
 5789SOL     OW18265   3.750   4.904   0.460
 5789SOL    HW118266   3.686   4.884   0.385
 5789SOL    HW218267   3.705   4.965   0.526
 5790SOL     OW18268   1.424   4.221   5.074
 5790SOL    HW118269   1.454   4.244   4.982
 5790SOL    HW218270   1.464   4.285   5.140
 5791SOL     OW18271   3.957   1.082   2.432
 5791SOL    HW118272   3.979   1.162   2.488
 5791SOL    HW218273   3.931   1.111   2.341
 5792SOL     OW18274   6.223   3.282   2.379
 5792SOL    HW118275   6.157   3.276   2.304
 5792SOL    HW218276   6.203   3.363   2.435
 5793SOL     OW18277   5.474   1.107   3.922
 5793SOL    HW118278   5.430   1.197   3.923
 5793SOL    HW218279   5.475   1.071   3.829
 5794SOL     OW18280   2.942   1.365   0.266
 5794SOL    HW118281   3.022   1.423   0.248
 5794SOL    HW218282   2.961   1.272   0.237
 5795SOL     OW18283   6.527   6.922   0.114
 5795SOL    HW118284   6.609   6.977   0.133
 5795SOL    HW218285   6.542   6.828   0.146
 5796SOL     OW18286   4.183   1.761   6.989
 5796SOL    HW118287   4.159   1.779   6.894
 5796SOL    HW218288   4.245   1.833   7.022
 5797SOL     OW18289   4.648   2.531   6.164
 5797SOL    HW118290   4.554   2.532   6.132
 5797SOL    HW218291   4.699   2.606   6.122
 5798SOL     OW18292   0.578   4.690   5.342
 5798SOL    HW118293   0.674   4.711   5.362
 5798SOL    HW218294   0.560   4.594   5.359
 5799SOL     OW18295   7.013   0.602   2.729
 5799SOL    HW118296   7.022   0.549   2.644
 5799SOL    HW218297   6.942   0.562   2.786
 5800SOL     OW18298   6.255   6.439   1.916
 5800SOL    HW118299   6.298   6.429   1.826
 5800SOL    HW218300   6.259   6.352   1.965
 5801SOL     OW18301   2.045   2.061   3.215
 5801SOL    HW118302   2.114   1.991   3.195
 5801SOL    HW218303   2.083   2.152   3.195
 5802SOL     OW18304   0.956   4.643   2.042
 5802SOL    HW118305   0.935   4.679   1.951
 5802SOL    HW218306   1.013   4.710   2.091
 5803SOL     OW18307   2.349   4.558   2.374
 5803SOL    HW118308   2.257   4.596   2.369
 5803SOL    HW218309   2.350   4.481   2.437
 5804SOL     OW18310   0.868   5.104   3.813
 5804SOL    HW118311   0.798   5.074   3.878
 5804SOL    HW218312   0.922   5.025   3.783
 5805SOL     OW18313   3.088   3.433   6.793
 5805SOL    HW118314   3.125   3.507   6.737
 5805SOL    HW218315   3.083   3.462   6.889
 5806SOL     OW18316   0.113   5.947   4.895
 5806SOL    HW118317   0.081   5.955   4.800
 5806SOL    HW218318   0.052   5.999   4.955
 5807SOL     OW18319   0.748   3.899   2.496
 5807SOL    HW118320   0.704   3.988   2.488
 5807SOL    HW218321   0.694   3.842   2.559
 5808SOL     OW18322   5.822   5.282   4.986
 5808SOL    HW118323   5.825   5.363   5.046
 5808SOL    HW218324   5.794   5.202   5.040
 5809SOL     OW18325   5.736   1.262   4.657
 5809SOL    HW118326   5.791   1.223   4.583
 5809SOL    HW218327   5.643   1.225   4.652
 5810SOL     OW18328   3.233   1.775   4.670
 5810SOL    HW118329   3.283   1.821   4.744
 5810SOL    HW218330   3.283   1.788   4.584
 5811SOL     OW18331   2.925   0.713   5.815
 5811SOL    HW118332   2.878   0.671   5.737
 5811SOL    HW218333   2.905   0.659   5.897
 5812SOL     OW18334   6.689   2.690   4.260
 5812SOL    HW118335   6.780   2.669   4.294
 5812SOL    HW218336   6.646   2.758   4.320
 5813SOL     OW18337   1.957   1.874   0.737
 5813SOL    HW118338   2.021   1.905   0.808
 5813SOL    HW218339   1.992   1.900   0.647
 5814SOL     OW18340   6.276   4.861   1.321
 5814SOL    HW118341   6.232   4.876   1.409
 5814SOL    HW218342   6.285   4.949   1.273
 5815SOL     OW18343   4.162   2.284   4.224
 5815SOL    HW118344   4.248   2.280   4.275
 5815SOL    HW218345   4.173   2.239   4.136
 5816SOL     OW18346   4.445   5.453   0.107
 5816SOL    HW118347   4.483   5.542   0.132
 5816SOL    HW218348   4.442   5.394   0.188
 5817SOL     OW18349   5.676   3.780   6.151
 5817SOL    HW118350   5.611   3.776   6.227
 5817SOL    HW218351   5.719   3.870   6.149
 5818SOL     OW18352   6.449   6.058   4.662
 5818SOL    HW118353   6.386   6.109   4.721
 5818SOL    HW218354   6.397   5.992   4.607
 5819SOL     OW18355   4.030   6.854   6.764
 5819SOL    HW118356   3.977   6.864   6.849
 5819SOL    HW218357   4.014   6.934   6.706
 5820SOL     OW18358   4.089   5.860   3.897
 5820SOL    HW118359   4.155   5.811   3.841
 5820SOL    HW218360   4.068   5.805   3.978
 5821SOL     OW18361   6.987   6.748   1.338
 5821SOL    HW118362   6.907   6.756   1.398
 5821SOL    HW218363   6.956   6.734   1.244
 5822SOL     OW18364   1.114   2.560   1.974
 5822SOL    HW118365   1.059   2.567   1.891
 5822SOL    HW218366   1.057   2.581   2.053
 5823SOL     OW18367   1.523   1.416   5.631
 5823SOL    HW118368   1.516   1.412   5.531
 5823SOL    HW218369   1.491   1.505   5.663
 5824SOL     OW18370   6.489   5.417   2.879
 5824SOL    HW118371   6.556   5.491   2.885
 5824SOL    HW218372   6.536   5.329   2.878
 5825SOL     OW18373   1.931   1.716   5.680
 5825SOL    HW118374   1.860   1.675   5.622
 5825SOL    HW218375   2.005   1.751   5.623
 5826SOL     OW18376   0.229   5.003   5.190
 5826SOL    HW118377   0.193   4.958   5.109
 5826SOL    HW218378   0.214   4.946   5.270
 5827SOL     OW18379   1.738   4.522   4.794
 5827SOL    HW118380   1.686   4.469   4.727
 5827SOL    HW218381   1.822   4.473   4.817
 5828SOL     OW18382   6.358   2.273   1.171
 5828SOL    HW118383   6.424   2.299   1.241
 5828SOL    HW218384   6.385   2.312   1.083
 5829SOL     OW18385   1.805   0.597   3.184
 5829SOL    HW118386   1.889   0.627   3.227
 5829SOL    HW218387   1.826   0.537   3.106
 5830SOL     OW18388   5.146   6.583   5.361
 5830SOL    HW118389   5.108   6.675   5.347
 5830SOL    HW218390   5.225   6.589   5.421
 5831SOL     OW18391   0.179   1.117   5.311
 5831SOL    HW118392   0.160   1.163   5.398
 5831SOL    HW218393   0.230   1.178   5.251
 5832SOL     OW18394   3.141   4.867   6.403
 5832SOL    HW118395   3.220   4.913   6.444
 5832SOL    HW218396   3.090   4.931   6.346
 5833SOL     OW18397   3.710   3.565   4.722
 5833SOL    HW118398   3.698   3.629   4.798
 5833SOL    HW218399   3.710   3.471   4.758
 5834SOL     OW18400   0.188   3.373   6.973
 5834SOL    HW118401   0.139   3.307   6.916
 5834SOL    HW218402   0.155   3.367   0.044
 5835SOL     OW18403   4.917   3.309   3.969
 5835SOL    HW118404   4.886   3.239   3.905
 5835SOL    HW218405   5.016   3.319   3.961
 5836SOL     OW18406   2.751   7.008   2.785
 5836SOL    HW118407   2.736   6.917   2.824
 5836SOL    HW218408   2.837   0.023   2.819
 5837SOL     OW18409   4.078   4.524   5.660
 5837SOL    HW118410   4.083   4.425   5.644
 5837SOL    HW218411   4.160   4.568   5.623
 5838SOL     OW18412   3.233   2.409   6.697
 5838SOL    HW118413   3.257   2.454   6.611
 5838SOL    HW218414   3.133   2.402   6.704
 5839SOL     OW18415   0.677   2.339   2.147
 5839SOL    HW118416   0.736   2.281   2.090
 5839SOL    HW218417   0.629   2.404   2.090
 5840SOL     OW18418   0.904   5.127   6.172
 5840SOL    HW118419   0.818   5.152   6.218
 5840SOL    HW218420   0.944   5.208   6.129
 5841SOL     OW18421   5.178   1.713   2.507
 5841SOL    HW118422   5.099   1.675   2.460
 5841SOL    HW218423   5.151   1.798   2.553
 5842SOL     OW18424   4.571   3.074   1.403
 5842SOL    HW118425   4.581   2.975   1.411
 5842SOL    HW218426   4.658   3.119   1.423
 5843SOL     OW18427   2.112   4.011   3.106
 5843SOL    HW118428   2.012   4.007   3.099
 5843SOL    HW218429   2.145   3.931   3.156
 5844SOL     OW18430   1.726   6.561   6.264
 5844SOL    HW118431   1.741   6.518   6.353
 5844SOL    HW218432   1.634   6.601   6.262
 5845SOL     OW18433   0.177   0.596   2.312
 5845SOL    HW118434   0.236   0.554   2.243
 5845SOL    HW218435   0.232   0.655   2.371
 5846SOL     OW18436   0.406   2.306   4.107
 5846SOL    HW118437   0.446   2.217   4.130
 5846SOL    HW218438   0.358   2.300   4.020
 5847SOL     OW18439   2.185   2.321   1.781
 5847SOL    HW118440   2.215   2.227   1.799
 5847SOL    HW218441   2.087   2.329   1.797
 5848SOL     OW18442   2.327   5.108   3.334
 5848SOL    HW118443   2.279   5.196   3.324
 5848SOL    HW218444   2.375   5.087   3.249
 5849SOL     OW18445   0.040   0.149   6.275
 5849SOL    HW118446   6.968   0.167   6.302
 5849SOL    HW218447   0.089   0.236   6.266
 5850SOL     OW18448   6.945   2.834   1.453
 5850SOL    HW118449   6.916   2.916   1.403
 5850SOL    HW218450   6.867   2.774   1.467
 5851SOL     OW18451   5.267   3.994   3.271
 5851SOL    HW118452   5.178   3.950   3.273
 5851SOL    HW218453   5.323   3.961   3.347
 5852SOL     OW18454   6.699   5.848   3.047
 5852SOL    HW118455   6.747   5.869   3.133
 5852SOL    HW218456   6.764   5.810   2.981
 5853SOL     OW18457   3.889   6.303   4.175
 5853SOL    HW118458   3.812   6.284   4.236
 5853SOL    HW218459   3.950   6.224   4.173
 5854SOL     OW18460   5.730   5.112   6.074
 5854SOL    HW118461   5.807   5.131   6.013
 5854SOL    HW218462   5.656   5.069   6.023
 5855SOL     OW18463   6.947   1.381   4.413
 5855SOL    HW118464   6.928   1.466   4.462
 5855SOL    HW218465   6.896   1.306   4.455
 5856SOL     OW18466   1.721   5.897   3.991
 5856SOL    HW118467   1.709   5.994   3.970
 5856SOL    HW218468   1.800   5.886   4.052
 5857SOL     OW18469   6.344   2.040   5.678
 5857SOL    HW118470   6.361   1.970   5.609
 5857SOL    HW218471   6.357   2.131   5.638
 5858SOL     OW18472   2.255   2.411   2.622
 5858SOL    HW118473   2.206   2.496   2.601
 5858SOL    HW218474   2.291   2.371   2.538
 5859SOL     OW18475   5.300   6.007   1.930
 5859SOL    HW118476   5.328   6.103   1.917
 5859SOL    HW218477   5.336   5.952   1.855
 5860SOL     OW18478   0.906   4.410   1.599
 5860SOL    HW118479   0.947   4.326   1.634
 5860SOL    HW218480   0.978   4.475   1.577
 5861SOL     OW18481   4.540   1.463   4.582
 5861SOL    HW118482   4.613   1.417   4.532
 5861SOL    HW218483   4.521   1.413   4.666
 5862SOL     OW18484   5.242   5.019   1.934
 5862SOL    HW118485   5.167   5.075   1.898
 5862SOL    HW218486   5.310   5.004   1.862
 5863SOL     OW18487   3.056   1.017   4.944
 5863SOL    HW118488   3.018   0.924   4.947
 5863SOL    HW218489   3.063   1.053   5.037
 5864SOL     OW18490   4.039   3.743   1.754
 5864SOL    HW118491   4.106   3.778   1.688
 5864SOL    HW218492   4.031   3.808   1.830
 5865SOL     OW18493   5.922   0.612   5.115
 5865SOL    HW118494   5.939   0.578   5.207
 5865SOL    HW218495   5.971   0.699   5.103
 5866SOL     OW18496   4.192   4.730   0.932
 5866SOL    HW118497   4.270   4.674   0.902
 5866SOL    HW218498   4.135   4.751   0.853
 5867SOL     OW18499   1.121   3.821   0.814
 5867SOL    HW118500   1.070   3.756   0.870
 5867SOL    HW218501   1.116   3.793   0.718
 5868SOL     OW18502   0.546   1.139   5.239
 5868SOL    HW118503   0.569   1.233   5.266
 5868SOL    HW218504   0.603   1.075   5.291
 5869SOL     OW18505   2.354   6.441   4.227
 5869SOL    HW118506   2.321   6.521   4.276
 5869SOL    HW218507   2.382   6.371   4.292
 5870SOL     OW18508   5.350   6.273   4.904
 5870SOL    HW118509   5.253   6.269   4.881
 5870SOL    HW218510   5.385   6.181   4.919
 5871SOL     OW18511   3.897   3.228   1.128
 5871SOL    HW118512   3.865   3.246   1.035
 5871SOL    HW218513   3.994   3.249   1.135
 5872SOL     OW18514   3.992   5.672   1.579
 5872SOL    HW118515   4.033   5.763   1.583
 5872SOL    HW218516   3.899   5.676   1.615
 5873SOL     OW18517   3.317   2.161   1.336
 5873SOL    HW118518   3.301   2.063   1.342
 5873SOL    HW218519   3.258   2.209   1.401
 5874SOL     OW18520   3.667   4.614   0.137
 5874SOL    HW118521   3.573   4.581   0.132
 5874SOL    HW218522   3.722   4.552   0.193
 5875SOL     OW18523   4.236   1.175   6.736
 5875SOL    HW118524   4.210   1.238   6.809
 5875SOL    HW218525   4.187   1.089   6.746
 5876SOL     OW18526   3.169   3.346   0.540
 5876SOL    HW118527   3.089   3.298   0.505
 5876SOL    HW218528   3.142   3.404   0.617
 5877SOL     OW18529   0.382   0.103   0.696
 5877SOL    HW118530   0.319   0.124   0.770
 5877SOL    HW218531   0.397   0.185   0.640
 5878SOL     OW18532   5.564   5.519   4.173
 5878SOL    HW118533   5.512   5.473   4.101
 5878SOL    HW218534   5.521   5.500   4.261
 5879SOL     OW18535   1.789   3.591   6.477
 5879SOL    HW118536   1.801   3.493   6.467
 5879SOL    HW218537   1.784   3.634   6.387
 5880SOL     OW18538   4.672   4.611   6.736
 5880SOL    HW118539   4.693   4.592   6.832
 5880SOL    HW218540   4.748   4.660   6.694
 5881SOL     OW18541   1.214   6.990   1.546
 5881SOL    HW118542   1.297   6.999   1.490
 5881SOL    HW218543   1.215   6.902   1.592
 5882SOL     OW18544   1.016   6.665   5.915
 5882SOL    HW118545   0.945   6.595   5.906
 5882SOL    HW218546   0.976   6.749   5.952
 5883SOL     OW18547   0.792   1.331   6.886
 5883SOL    HW118548   0.879   1.360   6.927
 5883SOL    HW218549   0.723   1.322   6.957
 5884SOL     OW18550   4.988   1.335   4.918
 5884SOL    HW118551   4.976   1.373   5.010
 5884SOL    HW218552   4.957   1.402   4.850
 5885SOL     OW18553   0.079   5.600   2.377
 5885SOL    HW118554   7.006   5.623   2.359
 5885SOL    HW218555   0.085   5.551   2.464
 5886SOL     OW18556   1.176   2.118   4.005
 5886SOL    HW118557   1.109   2.107   3.931
 5886SOL    HW218558   1.155   2.201   4.057
 5887SOL     OW18559   2.325   2.057   1.841
 5887SOL    HW118560   2.344   2.077   1.937
 5887SOL    HW218561   2.405   2.079   1.786
 5888SOL     OW18562   2.337   6.987   1.371
 5888SOL    HW118563   2.410   6.947   1.316
 5888SOL    HW218564   2.339   0.064   1.361
 5889SOL     OW18565   6.015   1.611   6.268
 5889SOL    HW118566   6.087   1.588   6.333
 5889SOL    HW218567   5.984   1.705   6.284
 5890SOL     OW18568   2.213   0.230   2.925
 5890SOL    HW118569   2.272   0.291   2.978
 5890SOL    HW218570   2.124   0.273   2.910
 5891SOL     OW18571   2.306   4.163   0.764
 5891SOL    HW118572   2.347   4.233   0.706
 5891SOL    HW218573   2.207   4.164   0.752
 5892SOL     OW18574   0.644   5.083   1.834
 5892SOL    HW118575   0.627   5.083   1.933
 5892SOL    HW218576   0.680   5.172   1.807
 5893SOL     OW18577   2.242   4.824   2.112
 5893SOL    HW118578   2.209   4.774   2.193
 5893SOL    HW218579   2.340   4.841   2.120
 5894SOL     OW18580   0.701   5.899   5.267
 5894SOL    HW118581   0.781   5.885   5.208
 5894SOL    HW218582   0.637   5.823   5.254
 5895SOL     OW18583   5.996   3.819   3.290
 5895SOL    HW118584   6.064   3.776   3.230
 5895SOL    HW218585   6.042   3.882   3.352
 5896SOL     OW18586   4.909   1.715   0.743
 5896SOL    HW118587   4.811   1.699   0.756
 5896SOL    HW218588   4.937   1.678   0.654
 5897SOL     OW18589   4.255   0.657   0.930
 5897SOL    HW118590   4.336   0.623   0.883
 5897SOL    HW218591   4.226   0.591   0.999
 5898SOL     OW18592   2.687   0.673   5.030
 5898SOL    HW118593   2.760   0.622   5.075
 5898SOL    HW218594   2.725   0.758   4.992
 5899SOL     OW18595   5.853   6.204   6.799
 5899SOL    HW118596   5.792   6.127   6.783
 5899SOL    HW218597   5.845   6.234   6.894
 5900SOL     OW18598   6.832   4.727   2.920
 5900SOL    HW118599   6.925   4.762   2.914
 5900SOL    HW218600   6.773   4.796   2.961
 5901SOL     OW18601   2.768   0.782   0.783
 5901SOL    HW118602   2.827   0.821   0.713
 5901SOL    HW218603   2.823   0.755   0.862
 5902SOL     OW18604   5.238   3.339   5.662
 5902SOL    HW118605   5.334   3.367   5.668
 5902SOL    HW218606   5.179   3.417   5.682
 5903SOL     OW18607   4.489   3.985   6.807
 5903SOL    HW118608   4.512   3.982   6.709
 5903SOL    HW218609   4.527   4.067   6.848
 5904SOL     OW18610   0.933   4.425   1.041
 5904SOL    HW118611   0.946   4.447   1.138
 5904SOL    HW218612   0.987   4.489   0.985
 5905SOL     OW18613   6.441   0.612   3.419
 5905SOL    HW118614   6.392   0.554   3.355
 5905SOL    HW218615   6.497   0.555   3.480
 5906SOL     OW18616   4.950   2.051   4.577
 5906SOL    HW118617   4.946   2.019   4.672
 5906SOL    HW218618   4.997   1.983   4.521
 5907SOL     OW18619   1.365   6.613   0.865
 5907SOL    HW118620   1.404   6.629   0.956
 5907SOL    HW218621   1.306   6.689   0.840
 5908SOL     OW18622   6.549   4.007   0.015
 5908SOL    HW118623   6.571   4.102   0.040
 5908SOL    HW218624   6.604   3.944   0.069
 5909SOL     OW18625   6.308   5.293   6.175
 5909SOL    HW118626   6.214   5.327   6.177
 5909SOL    HW218627   6.307   5.193   6.169
 5910SOL     OW18628   0.605   4.526   1.410
 5910SOL    HW118629   0.547   4.575   1.345
 5910SOL    HW218630   0.643   4.445   1.365
 5911SOL     OW18631   6.546   4.943   6.555
 5911SOL    HW118632   6.605   4.919   6.633
 5911SOL    HW218633   6.468   4.997   6.587
 5912SOL     OW18634   6.006   3.382   6.723
 5912SOL    HW118635   5.997   3.389   6.822
 5912SOL    HW218636   5.965   3.297   6.691
 5913SOL     OW18637   3.365   3.275   6.703
 5913SOL    HW118638   3.318   3.350   6.658
 5913SOL    HW218639   3.298   3.207   6.735
 5914SOL     OW18640   3.044   5.781   6.025
 5914SOL    HW118641   2.964   5.778   6.085
 5914SOL    HW218642   3.125   5.800   6.079
 5915SOL     OW18643   5.943   4.161   2.006
 5915SOL    HW118644   5.934   4.218   2.088
 5915SOL    HW218645   5.862   4.102   1.998
 5916SOL     OW18646   4.100   6.066   5.656
 5916SOL    HW118647   4.070   6.044   5.749
 5916SOL    HW218648   4.165   5.997   5.625
 5917SOL     OW18649   3.593   3.404   4.344
 5917SOL    HW118650   3.538   3.487   4.330
 5917SOL    HW218651   3.539   3.324   4.319
 5918SOL     OW18652   2.262   3.874   5.341
 5918SOL    HW118653   2.304   3.785   5.353
 5918SOL    HW218654   2.314   3.928   5.275
 5919SOL     OW18655   3.068   2.557   0.759
 5919SOL    HW118656   3.124   2.480   0.788
 5919SOL    HW218657   2.988   2.564   0.819
 5920SOL     OW18658   3.544   0.008   0.383
 5920SOL    HW118659   3.465   0.039   0.435
 5920SOL    HW218660   3.528   0.024   0.285
 5921SOL     OW18661   3.456   5.588   5.673
 5921SOL    HW118662   3.506   5.652   5.614
 5921SOL    HW218663   3.512   5.507   5.689
 5922SOL     OW18664   6.845   5.362   3.604
 5922SOL    HW118665   6.920   5.427   3.596
 5922SOL    HW218666   6.874   5.285   3.662
 5923SOL     OW18667   5.215   0.388   1.227
 5923SOL    HW118668   5.144   0.342   1.280
 5923SOL    HW218669   5.246   0.327   1.153
 5924SOL     OW18670   6.180   1.922   4.746
 5924SOL    HW118671   6.155   1.986   4.673
 5924SOL    HW218672   6.097   1.876   4.778
 5925SOL     OW18673   4.300   5.635   3.270
 5925SOL    HW118674   4.390   5.670   3.243
 5925SOL    HW218675   4.256   5.700   3.331
 5926SOL     OW18676   3.861   5.047   2.296
 5926SOL    HW118677   3.871   4.955   2.258
 5926SOL    HW218678   3.767   5.079   2.283
 5927SOL     OW18679   1.699   4.416   3.290
 5927SOL    HW118680   1.705   4.395   3.388
 5927SOL    HW218681   1.724   4.335   3.237
 5928SOL     OW18682   3.054   0.635   1.452
 5928SOL    HW118683   3.120   0.652   1.525
 5928SOL    HW218684   2.961   0.639   1.490
 5929SOL     OW18685   0.777   6.547   5.877
 5929SOL    HW118686   0.776   6.481   5.802
 5929SOL    HW218687   0.744   6.503   5.961
 5930SOL     OW18688   6.871   1.432   3.079
 5930SOL    HW118689   6.895   1.481   3.163
 5930SOL    HW218690   6.939   1.361   3.060
 5931SOL     OW18691   5.804   5.451   3.685
 5931SOL    HW118692   5.765   5.500   3.763
 5931SOL    HW218693   5.821   5.515   3.610
 5932SOL     OW18694   2.300   6.466   1.076
 5932SOL    HW118695   2.216   6.416   1.096
 5932SOL    HW218696   2.359   6.465   1.157
 5933SOL     OW18697   0.406   5.811   2.848
 5933SOL    HW118698   0.438   5.810   2.943
 5933SOL    HW218699   0.354   5.895   2.831
 5934SOL     OW18700   4.046   3.439   4.362
 5934SOL    HW118701   4.066   3.401   4.453
 5934SOL    HW218702   3.960   3.490   4.366
 5935SOL     OW18703   4.177   3.309   5.226
 5935SOL    HW118704   4.264   3.344   5.261
 5935SOL    HW218705   4.104   3.330   5.292
 5936SOL     OW18706   3.916   3.545   0.611
 5936SOL    HW118707   3.979   3.548   0.534
 5936SOL    HW218708   3.834   3.598   0.589
 5937SOL     OW18709   0.441   4.784   2.369
 5937SOL    HW118710   0.527   4.832   2.387
 5937SOL    HW218711   0.414   4.801   2.274
 5938SOL     OW18712   1.276   5.768   4.010
 5938SOL    HW118713   1.218   5.737   4.086
 5938SOL    HW218714   1.371   5.742   4.028
 5939SOL     OW18715   3.602   0.097   3.291
 5939SOL    HW118716   3.614   0.096   3.391
 5939SOL    HW218717   3.574   0.007   3.260
 5940SOL     OW18718   4.511   5.448   1.488
 5940SOL    HW118719   4.467   5.364   1.457
 5940SOL    HW218720   4.447   5.498   1.547
 5941SOL     OW18721   6.395   3.005   1.890
 5941SOL    HW118722   6.392   3.043   1.798
 5941SOL    HW218723   6.438   3.071   1.952
 5942SOL     OW18724   4.806   3.107   6.666
 5942SOL    HW118725   4.720   3.133   6.711
 5942SOL    HW218726   4.796   3.118   6.567
 5943SOL     OW18727   3.333   5.440   0.987
 5943SOL    HW118728   3.404   5.453   1.056
 5943SOL    HW218729   3.255   5.498   1.008
 5944SOL     OW18730   5.584   2.025   1.104
 5944SOL    HW118731   5.671   2.067   1.128
 5944SOL    HW218732   5.599   1.931   1.074
 5945SOL     OW18733   6.345   5.519   5.562
 5945SOL    HW118734   6.408   5.505   5.638
 5945SOL    HW218735   6.253   5.538   5.598
 5946SOL     OW18736   3.618   2.996   5.607
 5946SOL    HW118737   3.677   3.030   5.534
 5946SOL    HW218738   3.532   2.965   5.568
 5947SOL     OW18739   4.227   3.208   1.883
 5947SOL    HW118740   4.163   3.269   1.836
 5947SOL    HW218741   4.185   3.176   1.969
 5948SOL     OW18742   3.865   5.083   3.556
 5948SOL    HW118743   3.894   5.072   3.651
 5948SOL    HW218744   3.912   5.161   3.515
 5949SOL     OW18745   3.727   3.315   1.378
 5949SOL    HW118746   3.706   3.226   1.336
 5949SOL    HW218747   3.772   3.301   1.466
 5950SOL     OW18748   5.463   3.127   5.908
 5950SOL    HW118749   5.369   3.123   5.943
 5950SOL    HW218750   5.461   3.157   5.812
 5951SOL     OW18751   0.323   5.603   4.616
 5951SOL    HW118752   0.227   5.624   4.595
 5951SOL    HW218753   0.345   5.637   4.707
 5952SOL     OW18754   5.646   5.597   4.444
 5952SOL    HW118755   5.732   5.545   4.442
 5952SOL    HW218756   5.609   5.595   4.536
 5953SOL     OW18757   6.240   2.902   5.598
 5953SOL    HW118758   6.319   2.946   5.556
 5953SOL    HW218759   6.158   2.957   5.581
 5954SOL     OW18760   0.236   4.518   5.528
 5954SOL    HW118761   0.165   4.524   5.458
 5954SOL    HW218762   0.323   4.494   5.484
 5955SOL     OW18763   5.433   5.544   2.627
 5955SOL    HW118764   5.411   5.446   2.634
 5955SOL    HW218765   5.361   5.597   2.671
 5956SOL     OW18766   3.614   1.771   6.628
 5956SOL    HW118767   3.681   1.705   6.592
 5956SOL    HW218768   3.650   1.864   6.618
 5957SOL     OW18769   4.503   0.378   5.658
 5957SOL    HW118770   4.516   0.344   5.565
 5957SOL    HW218771   4.586   0.362   5.711
 5958SOL     OW18772   6.306   5.627   2.609
 5958SOL    HW118773   6.214   5.661   2.627
 5958SOL    HW218774   6.306   5.527   2.614
 5959SOL     OW18775   3.883   2.073   4.992
 5959SOL    HW118776   3.879   2.060   4.893
 5959SOL    HW218777   3.957   2.136   5.014
 5960SOL     OW18778   4.116   6.281   4.753
 5960SOL    HW118779   4.096   6.348   4.682
 5960SOL    HW218780   4.040   6.216   4.761
 5961SOL     OW18781   5.185   1.179   3.831
 5961SOL    HW118782   5.184   1.112   3.757
 5961SOL    HW218783   5.119   1.152   3.901
 5962SOL     OW18784   4.880   6.010   1.396
 5962SOL    HW118785   4.975   6.043   1.401
 5962SOL    HW218786   4.867   5.937   1.464
 5963SOL     OW18787   3.291   3.022   4.629
 5963SOL    HW118788   3.338   2.953   4.575
 5963SOL    HW218789   3.272   2.987   4.720
 5964SOL     OW18790   0.353   5.159   5.455
 5964SOL    HW118791   0.315   5.239   5.408
 5964SOL    HW218792   0.453   5.165   5.455
 5965SOL     OW18793   1.378   2.138   6.621
 5965SOL    HW118794   1.393   2.221   6.674
 5965SOL    HW218795   1.413   2.150   6.528
 5966SOL     OW18796   2.552   5.797   5.217
 5966SOL    HW118797   2.525   5.840   5.132
 5966SOL    HW218798   2.544   5.862   5.293
 5967SOL     OW18799   4.335   6.070   1.160
 5967SOL    HW118800   4.390   6.153   1.153
 5967SOL    HW218801   4.341   6.019   1.075
 5968SOL     OW18802   4.583   1.096   2.401
 5968SOL    HW118803   4.667   1.067   2.447
 5968SOL    HW218804   4.604   1.131   2.310
 5969SOL     OW18805   6.806   1.040   6.214
 5969SOL    HW118806   6.827   0.980   6.137
 5969SOL    HW218807   6.724   1.008   6.261
 5970SOL     OW18808   0.513   4.458   2.637
 5970SOL    HW118809   0.510   4.424   2.731
 5970SOL    HW218810   0.583   4.407   2.586
 5971SOL     OW18811   1.445   0.867   3.219
 5971SOL    HW118812   1.450   0.857   3.120
 5971SOL    HW218813   1.378   0.803   3.256
 5972SOL     OW18814   5.292   6.583   0.068
 5972SOL    HW118815   5.339   6.502   0.035
 5972SOL    HW218816   5.337   6.615   0.152
 5973SOL     OW18817   1.753   4.369   2.329
 5973SOL    HW118818   1.791   4.315   2.255
 5973SOL    HW218819   1.655   4.382   2.315
 5974SOL     OW18820   5.538   4.496   6.699
 5974SOL    HW118821   5.571   4.455   6.615
 5974SOL    HW218822   5.455   4.548   6.680
 5975SOL     OW18823   2.991   2.138   0.710
 5975SOL    HW118824   3.081   2.141   0.666
 5975SOL    HW218825   2.979   2.050   0.755
 5976SOL     OW18826   3.401   3.343   4.646
 5976SOL    HW118827   3.501   3.347   4.648
 5976SOL    HW218828   3.366   3.405   4.576
 5977SOL     OW18829   1.688   4.385   1.611
 5977SOL    HW118830   1.715   4.353   1.520
 5977SOL    HW218831   1.623   4.321   1.651
 5978SOL     OW18832   4.967   5.672   3.591
 5978SOL    HW118833   4.972   5.577   3.560
 5978SOL    HW218834   4.879   5.687   3.636
 5979SOL     OW18835   6.546   6.755   2.730
 5979SOL    HW118836   6.490   6.778   2.810
 5979SOL    HW218837   6.493   6.771   2.647
 5980SOL     OW18838   3.969   3.735   0.089
 5980SOL    HW118839   3.967   3.812   0.025
 5980SOL    HW218840   3.939   3.768   0.179
 5981SOL     OW18841   6.551   0.758   2.308
 5981SOL    HW118842   6.469   0.742   2.364
 5981SOL    HW218843   6.599   0.671   2.294
 5982SOL     OW18844   6.585   2.580   0.264
 5982SOL    HW118845   6.620   2.670   0.237
 5982SOL    HW218846   6.596   2.516   0.188
 5983SOL     OW18847   1.541   0.757   4.576
 5983SOL    HW118848   1.542   0.848   4.619
 5983SOL    HW218849   1.607   0.698   4.622
 5984SOL     OW18850   6.453   6.521   5.148
 5984SOL    HW118851   6.536   6.577   5.144
 5984SOL    HW218852   6.378   6.576   5.186
 5985SOL     OW18853   6.235   3.343   3.827
 5985SOL    HW118854   6.327   3.363   3.796
 5985SOL    HW218855   6.174   3.332   3.748
 5986SOL     OW18856   3.521   3.810   3.932
 5986SOL    HW118857   3.595   3.742   3.934
 5986SOL    HW218858   3.559   3.899   3.909
 5987SOL     OW18859   4.146   0.855   5.328
 5987SOL    HW118860   4.070   0.899   5.280
 5987SOL    HW218861   4.150   0.759   5.303
 5988SOL     OW18862   4.664   0.098   5.090
 5988SOL    HW118863   4.590   0.032   5.080
 5988SOL    HW218864   4.730   0.064   5.158
 5989SOL     OW18865   2.818   5.815   6.804
 5989SOL    HW118866   2.881   5.889   6.780
 5989SOL    HW218867   2.769   5.839   6.889
 5990SOL     OW18868   4.256   4.689   0.617
 5990SOL    HW118869   4.213   4.619   0.560
 5990SOL    HW218870   4.187   4.756   0.645
 5991SOL     OW18871   4.010   5.481   5.679
 5991SOL    HW118872   4.026   5.399   5.624
 5991SOL    HW218873   4.091   5.539   5.678
 5992SOL     OW18874   3.574   0.498   3.561
 5992SOL    HW118875   3.618   0.457   3.482
 5992SOL    HW218876   3.642   0.523   3.629
 5993SOL     OW18877   3.060   6.228   5.581
 5993SOL    HW118878   3.098   6.229   5.673
 5993SOL    HW218879   3.131   6.253   5.515
 5994SOL     OW18880   6.453   2.020   1.678
 5994SOL    HW118881   6.493   2.030   1.587
 5994SOL    HW218882   6.396   1.937   1.681
 5995SOL     OW18883   6.259   4.745   2.465
 5995SOL    HW118884   6.342   4.698   2.494
 5995SOL    HW218885   6.185   4.726   2.530
 5996SOL     OW18886   0.877   6.009   0.768
 5996SOL    HW118887   0.893   6.059   0.853
 5996SOL    HW218888   0.820   6.065   0.708
 5997SOL     OW18889   1.330   5.941   2.752
 5997SOL    HW118890   1.275   5.872   2.799
 5997SOL    HW218891   1.292   6.032   2.768
 5998SOL     OW18892   6.170   1.892   1.398
 5998SOL    HW118893   6.239   1.842   1.450
 5998SOL    HW218894   6.107   1.827   1.355
 5999SOL     OW18895   1.572   1.839   2.757
 5999SOL    HW118896   1.581   1.881   2.666
 5999SOL    HW218897   1.507   1.892   2.811
 6000SOL     OW18898   3.705   6.926   2.009
 6000SOL    HW118899   3.696   7.013   2.057
 6000SOL    HW218900   3.668   6.936   1.916
 6001SOL     OW18901   0.541   4.062   6.415
 6001SOL    HW118902   0.507   4.132   6.352
 6001SOL    HW218903   0.578   3.985   6.362
 6002SOL     OW18904   6.857   0.196   1.054
 6002SOL    HW118905   6.884   0.291   1.069
 6002SOL    HW218906   6.847   0.180   0.956
 6003SOL     OW18907   0.031   1.998   4.130
 6003SOL    HW118908   0.042   1.900   4.111
 6003SOL    HW218909   6.998   2.010   4.213
 6004SOL     OW18910   6.965   4.330   3.005
 6004SOL    HW118911   6.887   4.367   2.956
 6004SOL    HW218912   0.027   4.358   2.959
 6005SOL     OW18913   4.910   5.103   4.623
 6005SOL    HW118914   4.937   5.194   4.592
 6005SOL    HW218915   4.978   5.036   4.592
 6006SOL     OW18916   3.315   6.917   6.747
 6006SOL    HW118917   3.229   6.961   6.720
 6006SOL    HW218918   3.295   6.834   6.799
 6007SOL     OW18919   4.876   3.633   4.643
 6007SOL    HW118920   4.841   3.718   4.682
 6007SOL    HW218921   4.902   3.571   4.717
 6008SOL     OW18922   2.110   5.621   5.992
 6008SOL    HW118923   2.047   5.656   5.923
 6008SOL    HW218924   2.186   5.574   5.948
 6009SOL     OW18925   4.265   0.684   4.985
 6009SOL    HW118926   4.200   0.753   4.954
 6009SOL    HW218927   4.226   0.593   4.969
 6010SOL     OW18928   1.243   4.170   3.123
 6010SOL    HW118929   1.256   4.134   3.030
 6010SOL    HW218930   1.328   4.160   3.175
 6011SOL     OW18931   4.679   2.671   2.990
 6011SOL    HW118932   4.586   2.688   2.957
 6011SOL    HW218933   4.699   2.574   2.983
 6012SOL     OW18934   6.437   1.412   6.882
 6012SOL    HW118935   6.346   1.453   6.884
 6012SOL    HW218936   6.460   1.375   6.973
 6013SOL     OW18937   5.651   2.212   2.933
 6013SOL    HW118938   5.619   2.131   2.982
 6013SOL    HW218939   5.727   2.187   2.873
 6014SOL     OW18940   4.251   2.506   0.751
 6014SOL    HW118941   4.318   2.509   0.677
 6014SOL    HW218942   4.186   2.432   0.734
 6015SOL     OW18943   5.544   2.341   5.303
 6015SOL    HW118944   5.529   2.351   5.402
 6015SOL    HW218945   5.553   2.244   5.281
 6016SOL     OW18946   0.186   1.579   6.303
 6016SOL    HW118947   0.150   1.514   6.237
 6016SOL    HW218948   0.148   1.560   6.394
 6017SOL     OW18949   6.466   4.751   2.820
 6017SOL    HW118950   6.420   4.778   2.905
 6017SOL    HW218951   6.559   4.786   2.821
 6018SOL     OW18952   3.683   1.565   0.305
 6018SOL    HW118953   3.727   1.499   0.366
 6018SOL    HW218954   3.619   1.621   0.356
 6019SOL     OW18955   6.313   1.510   4.288
 6019SOL    HW118956   6.237   1.569   4.316
 6019SOL    HW218957   6.287   1.458   4.207
 6020SOL     OW18958   2.255   5.467   1.756
 6020SOL    HW118959   2.158   5.463   1.733
 6020SOL    HW218960   2.294   5.375   1.754
 6021SOL     OW18961   3.609   0.696   2.378
 6021SOL    HW118962   3.549   0.763   2.335
 6021SOL    HW218963   3.693   0.741   2.409
 6022SOL     OW18964   4.580   1.515   4.963
 6022SOL    HW118965   4.597   1.559   5.051
 6022SOL    HW218966   4.577   1.584   4.891
 6023SOL     OW18967   6.008   1.756   2.443
 6023SOL    HW118968   6.042   1.819   2.373
 6023SOL    HW218969   5.917   1.784   2.471
 6024SOL     OW18970   0.980   4.223   3.613
 6024SOL    HW118971   0.968   4.172   3.528
 6024SOL    HW218972   1.000   4.319   3.592
 6025SOL     OW18973   3.553   1.672   2.194
 6025SOL    HW118974   3.618   1.615   2.144
 6025SOL    HW218975   3.542   1.759   2.146
 6026SOL     OW18976   6.785   4.443   4.140
 6026SOL    HW118977   6.795   4.344   4.127
 6026SOL    HW218978   6.707   4.476   4.087
 6027SOL     OW18979   1.518   4.060   5.660
 6027SOL    HW118980   1.484   4.145   5.701
 6027SOL    HW218981   1.617   4.065   5.649
 6028SOL     OW18982   1.254   4.030   0.430
 6028SOL    HW118983   1.240   4.081   0.346
 6028SOL    HW218984   1.194   3.950   0.432
 6029SOL     OW18985   1.891   6.258   4.902
 6029SOL    HW118986   1.901   6.267   4.803
 6029SOL    HW218987   1.800   6.221   4.923
 6030SOL     OW18988   3.812   6.553   3.002
 6030SOL    HW118989   3.806   6.649   3.032
 6030SOL    HW218990   3.722   6.512   3.003
 6031SOL     OW18991   3.824   5.326   4.054
 6031SOL    HW118992   3.813   5.227   4.047
 6031SOL    HW218993   3.757   5.363   4.118
 6032SOL     OW18994   2.138   2.941   3.257
 6032SOL    HW118995   2.142   3.040   3.244
 6032SOL    HW218996   2.206   2.913   3.324
 6033SOL     OW18997   3.205   1.826   2.486
 6033SOL    HW118998   3.274   1.790   2.549
 6033SOL    HW218999   3.132   1.759   2.474
 6034SOL     OW19000   1.528   5.580   4.776
 6034SOL    HW119001   1.627   5.586   4.761
 6034SOL    HW219002   1.499   5.652   4.839
 6035SOL     OW19003   0.171   0.470   3.172
 6035SOL    HW119004   0.219   0.493   3.257
 6035SOL    HW219005   0.237   0.449   3.101
 6036SOL     OW19006   6.582   6.481   4.154
 6036SOL    HW119007   6.512   6.409   4.155
 6036SOL    HW219008   6.664   6.448   4.107
 6037SOL     OW19009   4.278   4.672   5.575
 6037SOL    HW119010   4.287   4.759   5.625
 6037SOL    HW219011   4.364   4.651   5.529
 6038SOL     OW19012   1.538   2.890   6.219
 6038SOL    HW119013   1.588   2.839   6.149
 6038SOL    HW219014   1.550   2.988   6.204
 6039SOL     OW19015   3.543   2.903   2.476
 6039SOL    HW119016   3.451   2.941   2.476
 6039SOL    HW219017   3.537   2.803   2.466
 6040SOL     OW19018   0.465   2.279   6.476
 6040SOL    HW119019   0.376   2.301   6.517
 6040SOL    HW219020   0.450   2.241   6.385
 6041SOL     OW19021   2.058   0.790   4.812
 6041SOL    HW119022   2.100   0.760   4.897
 6041SOL    HW219023   2.085   0.884   4.793
 6042SOL     OW19024   5.211   5.647   2.049
 6042SOL    HW119025   5.269   5.679   2.124
 6042SOL    HW219026   5.227   5.549   2.034
 6043SOL     OW19027   0.804   4.225   5.571
 6043SOL    HW119028   0.895   4.265   5.561
 6043SOL    HW219029   0.737   4.297   5.590
 6044SOL     OW19030   1.553   2.621   1.368
 6044SOL    HW119031   1.511   2.575   1.290
 6044SOL    HW219032   1.569   2.555   1.441
 6045SOL     OW19033   6.049   5.818   1.265
 6045SOL    HW119034   6.143   5.799   1.293
 6045SOL    HW219035   6.029   5.915   1.276
 6046SOL     OW19036   2.879   1.758   0.204
 6046SOL    HW119037   2.954   1.824   0.209
 6046SOL    HW219038   2.915   1.670   0.171
 6047SOL     OW19039   6.477   1.917   1.971
 6047SOL    HW119040   6.382   1.894   1.989
 6047SOL    HW219041   6.486   1.951   1.878
 6048SOL     OW19042   4.377   6.443   3.548
 6048SOL    HW119043   4.432   6.526   3.556
 6048SOL    HW219044   4.336   6.439   3.457
 6049SOL     OW19045   5.603   3.766   5.540
 6049SOL    HW119046   5.563   3.755   5.632
 6049SOL    HW219047   5.547   3.830   5.488
 6050SOL     OW19048   3.250   4.867   5.219
 6050SOL    HW119049   3.203   4.858   5.132
 6050SOL    HW219050   3.196   4.822   5.291
 6051SOL     OW19051   2.109   1.205   3.982
 6051SOL    HW119052   2.118   1.106   3.994
 6051SOL    HW219053   2.163   1.252   4.051
 6052SOL     OW19054   6.531   6.286   0.273
 6052SOL    HW119055   6.607   6.303   0.210
 6052SOL    HW219056   6.560   6.307   0.366
 6053SOL     OW19057   3.713   0.707   6.270
 6053SOL    HW119058   3.669   0.687   6.358
 6053SOL    HW219059   3.717   0.624   6.215
 6054SOL     OW19060   2.798   4.187   0.532
 6054SOL    HW119061   2.860   4.235   0.594
 6054SOL    HW219062   2.787   4.242   0.449
 6055SOL     OW19063   5.583   1.586   5.749
 6055SOL    HW119064   5.585   1.491   5.779
 6055SOL    HW219065   5.663   1.605   5.691
 6056SOL     OW19066   5.154   3.429   5.031
 6056SOL    HW119067   5.089   3.387   5.094
 6056SOL    HW219068   5.173   3.523   5.060
 6057SOL     OW19069   5.492   2.953   4.529
 6057SOL    HW119070   5.416   2.902   4.490
 6057SOL    HW219071   5.486   2.951   4.629
 6058SOL     OW19072   5.065   2.866   2.285
 6058SOL    HW119073   5.015   2.796   2.234
 6058SOL    HW219074   5.070   2.950   2.231
 6059SOL     OW19075   4.643   5.740   5.159
 6059SOL    HW119076   4.698   5.806   5.108
 6059SOL    HW219077   4.570   5.705   5.101
 6060SOL     OW19078   2.963   4.219   6.154
 6060SOL    HW119079   3.052   4.190   6.121
 6060SOL    HW219080   2.949   4.316   6.135
 6061SOL     OW19081   4.241   1.643   0.788
 6061SOL    HW119082   4.247   1.588   0.705
 6061SOL    HW219083   4.258   1.585   0.868
 6062SOL     OW19084   1.403   1.295   4.827
 6062SOL    HW119085   1.501   1.311   4.838
 6062SOL    HW219086   1.386   1.245   4.742
 6063SOL     OW19087   3.379   1.457   6.852
 6063SOL    HW119088   3.420   1.466   6.943
 6063SOL    HW219089   3.334   1.368   6.844
 6064SOL     OW19090   2.753   6.016   2.071
 6064SOL    HW119091   2.773   6.102   2.117
 6064SOL    HW219092   2.783   6.023   1.975
 6065SOL     OW19093   6.007   6.837   1.928
 6065SOL    HW119094   6.030   6.767   1.996
 6065SOL    HW219095   5.933   6.804   1.869
 6066SOL     OW19096   3.963   1.630   0.139
 6066SOL    HW119097   4.059   1.655   0.130
 6066SOL    HW219098   3.908   1.687   0.077
 6067SOL     OW19099   5.599   1.948   6.470
 6067SOL    HW119100   5.658   2.008   6.416
 6067SOL    HW219101   5.509   1.991   6.482
 6068SOL     OW19102   5.470   2.920   4.810
 6068SOL    HW119103   5.517   2.836   4.782
 6068SOL    HW219104   5.440   2.912   4.905
 6069SOL     OW19105   0.024   3.254   5.182
 6069SOL    HW119106   6.977   3.208   5.127
 6069SOL    HW219107   0.039   3.201   5.266
 6070SOL     OW19108   2.396   1.475   6.222
 6070SOL    HW119109   2.429   1.568   6.212
 6070SOL    HW219110   2.302   1.476   6.254
 6071SOL     OW19111   5.375   5.067   4.291
 6071SOL    HW119112   5.368   5.100   4.385
 6071SOL    HW219113   5.285   5.069   4.249
 6072SOL     OW19114   6.966   0.568   2.435
 6072SOL    HW119115   0.037   0.582   2.402
 6072SOL    HW219116   6.910   0.646   2.410
 6073SOL     OW19117   6.545   4.278   0.416
 6073SOL    HW119118   6.643   4.283   0.433
 6073SOL    HW219119   6.495   4.307   0.498
 6074SOL     OW19120   1.083   6.588   4.338
 6074SOL    HW119121   1.034   6.644   4.404
 6074SOL    HW219122   1.018   6.542   4.278
 6075SOL     OW19123   6.790   2.469   6.833
 6075SOL    HW119124   6.781   2.529   6.754
 6075SOL    HW219125   6.735   2.387   6.820
 6076SOL     OW19126   2.653   6.093   4.850
 6076SOL    HW119127   2.586   6.034   4.803
 6076SOL    HW219128   2.708   6.037   4.912
 6077SOL     OW19129   4.133   5.899   2.228
 6077SOL    HW119130   4.175   5.865   2.313
 6077SOL    HW219131   4.130   5.999   2.230
 6078SOL     OW19132   3.800   4.810   1.734
 6078SOL    HW119133   3.757   4.759   1.808
 6078SOL    HW219134   3.728   4.852   1.677
 6079SOL     OW19135   3.203   3.376   5.826
 6079SOL    HW119136   3.166   3.345   5.738
 6079SOL    HW219137   3.161   3.463   5.851
 6080SOL     OW19138   6.925   1.441   1.726
 6080SOL    HW119139   6.898   1.424   1.631
 6080SOL    HW219140   0.002   1.448   1.731
 6081SOL     OW19141   6.057   3.124   5.016
 6081SOL    HW119142   6.090   3.136   5.110
 6081SOL    HW219143   5.957   3.120   5.016
 6082SOL     OW19144   3.179   1.501   3.012
 6082SOL    HW119145   3.253   1.565   3.036
 6082SOL    HW219146   3.135   1.532   2.928
 6083SOL     OW19147   0.464   5.877   6.091
 6083SOL    HW119148   0.379   5.909   6.132
 6083SOL    HW219149   0.463   5.777   6.086
 6084SOL     OW19150   0.643   5.651   3.916
 6084SOL    HW119151   0.572   5.646   3.987
 6084SOL    HW219152   0.624   5.728   3.855
 6085SOL     OW19153   0.508   4.485   0.071
 6085SOL    HW119154   0.579   4.500   0.140
 6085SOL    HW219155   0.550   4.444   7.012
 6086SOL     OW19156   3.010   1.309   4.882
 6086SOL    HW119157   2.984   1.248   4.956
 6086SOL    HW219158   2.952   1.292   4.802
 6087SOL     OW19159   4.543   5.731   0.053
 6087SOL    HW119160   4.620   5.668   0.041
 6087SOL    HW219161   4.493   5.739   6.990
 6088SOL     OW19162   6.233   6.489   4.662
 6088SOL    HW119163   6.145   6.516   4.700
 6088SOL    HW219164   6.268   6.561   4.604
 6089SOL     OW19165   0.212   3.605   1.377
 6089SOL    HW119166   0.154   3.530   1.343
 6089SOL    HW219167   0.258   3.649   1.299
 6090SOL     OW19168   1.863   6.166   6.249
 6090SOL    HW119169   1.936   6.233   6.247
 6090SOL    HW219170   1.837   6.147   6.344
 6091SOL     OW19171   2.154   1.695   2.120
 6091SOL    HW119172   2.079   1.677   2.056
 6091SOL    HW219173   2.199   1.781   2.095
 6092SOL     OW19174   2.824   0.417   3.687
 6092SOL    HW119175   2.892   0.388   3.620
 6092SOL    HW219176   2.732   0.405   3.649
 6093SOL     OW19177   1.154   2.999   3.011
 6093SOL    HW119178   1.197   2.952   2.934
 6093SOL    HW219179   1.214   2.994   3.091
 6094SOL     OW19180   3.888   0.379   0.888
 6094SOL    HW119181   3.840   0.416   0.967
 6094SOL    HW219182   3.928   0.455   0.835
 6095SOL     OW19183   4.516   3.532   6.614
 6095SOL    HW119184   4.603   3.553   6.569
 6095SOL    HW219185   4.505   3.433   6.620
 6096SOL     OW19186   5.970   0.343   3.476
 6096SOL    HW119187   5.975   0.243   3.486
 6096SOL    HW219188   5.952   0.366   3.381
 6097SOL     OW19189   1.806   6.885   1.760
 6097SOL    HW119190   1.765   6.849   1.843
 6097SOL    HW219191   1.772   6.835   1.681
 6098SOL     OW19192   1.170   2.225   6.314
 6098SOL    HW119193   1.116   2.278   6.380
 6098SOL    HW219194   1.255   2.273   6.294
 6099SOL     OW19195   0.096   6.005   0.148
 6099SOL    HW119196   0.095   5.964   0.057
 6099SOL    HW219197   0.179   5.978   0.196
 6100SOL     OW19198   5.133   3.266   6.946
 6100SOL    HW119199   5.048   3.284   6.895
 6100SOL    HW219200   5.205   3.325   6.912
 6101SOL     OW19201   6.258   2.072   5.180
 6101SOL    HW119202   6.241   2.163   5.142
 6101SOL    HW219203   6.273   2.007   5.105
 6102SOL     OW19204   3.897   0.718   4.012
 6102SOL    HW119205   3.860   0.808   4.033
 6102SOL    HW219206   3.822   0.654   3.998
 6103SOL     OW19207   0.682   1.992   2.958
 6103SOL    HW119208   0.687   1.922   2.887
 6103SOL    HW219209   0.616   2.062   2.930
 6104SOL     OW19210   6.296   2.305   5.576
 6104SOL    HW119211   6.200   2.280   5.562
 6104SOL    HW219212   6.302   2.399   5.608
 6105SOL     OW19213   2.214   0.173   5.757
 6105SOL    HW119214   2.128   0.186   5.708
 6105SOL    HW219215   2.198   0.185   5.855
 6106SOL     OW19216   1.308   4.027   5.208
 6106SOL    HW119217   1.219   4.004   5.169
 6106SOL    HW219218   1.344   4.108   5.160
 6107SOL     OW19219   2.602   4.728   4.405
 6107SOL    HW119220   2.664   4.771   4.470
 6107SOL    HW219221   2.542   4.664   4.452
 6108SOL     OW19222   0.653   2.548   2.734
 6108SOL    HW119223   0.742   2.581   2.765
 6108SOL    HW219224   0.581   2.589   2.790
 6109SOL     OW19225   4.879   2.899   6.315
 6109SOL    HW119226   4.933   2.905   6.231
 6109SOL    HW219227   4.829   2.985   6.329
 6110SOL     OW19228   4.031   2.943   7.015
 6110SOL    HW119229   4.097   2.868   7.018
 6110SOL    HW219230   4.029   2.990   0.081
 6111SOL     OW19231   1.709   4.424   2.614
 6111SOL    HW119232   1.767   4.367   2.672
 6111SOL    HW219233   1.709   4.388   2.521
 6112SOL     OW19234   3.765   0.856   3.698
 6112SOL    HW119235   3.682   0.907   3.678
 6112SOL    HW219236   3.829   0.914   3.748
 6113SOL     OW19237   0.845   1.200   5.711
 6113SOL    HW119238   0.855   1.265   5.786
 6113SOL    HW219239   0.868   1.108   5.743
 6114SOL     OW19240   5.223   4.946   0.986
 6114SOL    HW119241   5.197   5.035   1.024
 6114SOL    HW219242   5.252   4.885   1.060
 6115SOL     OW19243   5.507   6.212   3.113
 6115SOL    HW119244   5.548   6.242   3.027
 6115SOL    HW219245   5.532   6.275   3.186
 6116SOL     OW19246   2.835   1.190   0.689
 6116SOL    HW119247   2.823   1.218   0.593
 6116SOL    HW219248   2.746   1.164   0.727
 6117SOL     OW19249   6.119   0.498   6.005
 6117SOL    HW119250   6.182   0.487   5.928
 6117SOL    HW219251   6.030   0.530   5.971
 6118SOL     OW19252   0.325   0.213   1.583
 6118SOL    HW119253   0.295   0.191   1.676
 6118SOL    HW219254   0.244   0.233   1.527
 6119SOL     OW19255   0.718   3.802   4.320
 6119SOL    HW119256   0.811   3.768   4.313
 6119SOL    HW219257   0.717   3.901   4.304
 6120SOL     OW19258   4.445   6.973   3.548
 6120SOL    HW119259   4.527   6.945   3.598
 6120SOL    HW219260   4.470   0.017   3.478
 6121SOL     OW19261   0.240   2.890   4.547
 6121SOL    HW119262   0.254   2.796   4.516
 6121SOL    HW219263   0.246   2.893   4.647
 6122SOL     OW19264   3.702   0.127   1.690
 6122SOL    HW119265   3.680   0.223   1.706
 6122SOL    HW219266   3.632   0.070   1.733
 6123SOL     OW19267   6.593   0.409   6.451
 6123SOL    HW119268   6.544   0.491   6.481
 6123SOL    HW219269   6.657   0.380   6.522
 6124SOL     OW19270   2.626   0.639   6.001
 6124SOL    HW119271   2.565   0.661   6.078
 6124SOL    HW219272   2.572   0.626   5.918
 6125SOL     OW19273   3.510   5.454   0.593
 6125SOL    HW119274   3.494   5.396   0.673
 6125SOL    HW219275   3.437   5.522   0.585
 6126SOL     OW19276   6.412   6.972   3.858
 6126SOL    HW119277   6.493   6.985   3.801
 6126SOL    HW219278   6.404   6.875   3.882
 6127SOL     OW19279   2.668   0.626   3.031
 6127SOL    HW119280   2.601   0.671   3.090
 6127SOL    HW219281   2.663   0.665   2.939
 6128SOL     OW19282   6.626   3.825   0.762
 6128SOL    HW119283   6.646   3.922   0.745
 6128SOL    HW219284   6.544   3.799   0.712
 6129SOL     OW19285   6.263   4.515   3.067
 6129SOL    HW119286   6.333   4.512   3.139
 6129SOL    HW219287   6.284   4.447   2.997
 6130SOL     OW19288   5.609   1.877   3.846
 6130SOL    HW119289   5.645   1.821   3.772
 6130SOL    HW219290   5.587   1.819   3.924
 6131SOL     OW19291   6.411   1.275   5.209
 6131SOL    HW119292   6.316   1.249   5.194
 6131SOL    HW219293   6.414   1.370   5.240
 6132SOL     OW19294   5.404   1.442   0.350
 6132SOL    HW119295   5.464   1.519   0.326
 6132SOL    HW219296   5.388   1.444   0.449
 6133SOL     OW19297   1.277   2.366   2.806
 6133SOL    HW119298   1.276   2.307   2.725
 6133SOL    HW219299   1.366   2.360   2.851
 6134SOL     OW19300   3.856   4.485   0.296
 6134SOL    HW119301   3.776   4.511   0.350
 6134SOL    HW219302   3.897   4.402   0.334
 6135SOL     OW19303   0.517   6.708   1.739
 6135SOL    HW119304   0.607   6.751   1.743
 6135SOL    HW219305   0.467   6.743   1.659
 6136SOL     OW19306   0.495   2.701   2.216
 6136SOL    HW119307   0.553   2.678   2.138
 6136SOL    HW219308   0.551   2.711   2.298
 6137SOL     OW19309   5.426   1.986   4.867
 6137SOL    HW119310   5.515   1.946   4.846
 6137SOL    HW219311   5.355   1.937   4.816
 6138SOL     OW19312   3.911   6.166   2.471
 6138SOL    HW119313   3.939   6.202   2.382
 6138SOL    HW219314   3.877   6.240   2.529
 6139SOL     OW19315   1.588   2.699   4.720
 6139SOL    HW119316   1.492   2.712   4.694
 6139SOL    HW219317   1.608   2.601   4.727
 6140SOL     OW19318   0.043   6.147   1.943
 6140SOL    HW119319   6.990   6.123   1.882
 6140SOL    HW219320   0.024   6.112   2.035
 6141SOL     OW19321   5.523   5.738   5.525
 6141SOL    HW119322   5.440   5.792   5.537
 6141SOL    HW219323   5.500   5.649   5.485
 6142SOL     OW19324   6.712   5.185   0.866
 6142SOL    HW119325   6.803   5.156   0.838
 6142SOL    HW219326   6.720   5.256   0.936
 6143SOL     OW19327   6.453   4.849   0.342
 6143SOL    HW119328   6.449   4.791   0.423
 6143SOL    HW219329   6.361   4.858   0.303
 6144SOL     OW19330   5.926   4.751   2.356
 6144SOL    HW119331   5.976   4.825   2.401
 6144SOL    HW219332   5.840   4.734   2.405
 6145SOL     OW19333   4.987   5.832   4.180
 6145SOL    HW119334   4.953   5.756   4.235
 6145SOL    HW219335   5.013   5.908   4.239
 6146SOL     OW19336   4.167   1.344   3.472
 6146SOL    HW119337   4.184   1.366   3.568
 6146SOL    HW219338   4.254   1.340   3.423
 6147SOL     OW19339   1.491   3.877   4.079
 6147SOL    HW119340   1.453   3.846   3.992
 6147SOL    HW219341   1.421   3.929   4.129
 6148SOL     OW19342   0.085   0.181   4.629
 6148SOL    HW119343   0.173   0.219   4.658
 6148SOL    HW219344   0.012   0.247   4.646
 6149SOL     OW19345   3.184   5.047   2.981
 6149SOL    HW119346   3.194   5.014   2.887
 6149SOL    HW219347   3.272   5.040   3.028
 6150SOL     OW19348   3.867   4.955   6.844
 6150SOL    HW119349   3.797   5.027   6.853
 6150SOL    HW219350   3.954   4.997   6.819
 6151SOL     OW19351   6.116   4.010   4.453
 6151SOL    HW119352   6.158   3.948   4.388
 6151SOL    HW219353   6.067   4.082   4.404
 6152SOL     OW19354   5.686   4.927   5.537
 6152SOL    HW119355   5.744   4.886   5.608
 6152SOL    HW219356   5.740   4.938   5.453
 6153SOL     OW19357   4.849   3.920   2.033
 6153SOL    HW119358   4.860   4.003   2.087
 6153SOL    HW219359   4.876   3.841   2.088
 6154SOL     OW19360   5.744   1.512   2.824
 6154SOL    HW119361   5.683   1.585   2.854
 6154SOL    HW219362   5.781   1.535   2.734
 6155SOL     OW19363   2.034   1.949   4.889
 6155SOL    HW119364   2.031   2.049   4.898
 6155SOL    HW219365   1.944   1.912   4.912
 6156SOL     OW19366   4.561   4.429   2.381
 6156SOL    HW119367   4.555   4.389   2.473
 6156SOL    HW219368   4.509   4.514   2.378
 6157SOL     OW19369   1.221   1.465   4.410
 6157SOL    HW119370   1.295   1.515   4.454
 6157SOL    HW219371   1.256   1.378   4.375
 6158SOL     OW19372   4.682   0.610   5.698
 6158SOL    HW119373   4.655   0.595   5.793
 6158SOL    HW219374   4.607   0.582   5.638
 6159SOL     OW19375   4.755   2.369   1.178
 6159SOL    HW119376   4.728   2.439   1.244
 6159SOL    HW219377   4.811   2.300   1.223
 6160SOL     OW19378   4.826   6.733   0.075
 6160SOL    HW119379   4.884   6.800   0.029
 6160SOL    HW219380   4.824   6.753   0.173
 6161SOL     OW19381   5.791   1.906   5.448
 6161SOL    HW119382   5.883   1.943   5.435
 6161SOL    HW219383   5.794   1.807   5.454
 6162SOL     OW19384   0.929   5.658   3.993
 6162SOL    HW119385   0.831   5.638   3.990
 6162SOL    HW219386   0.977   5.579   4.030
 6163SOL     OW19387   5.442   6.221   1.824
 6163SOL    HW119388   5.371   6.290   1.819
 6163SOL    HW219389   5.531   6.266   1.837
 6164SOL     OW19390   2.625   3.127   1.638
 6164SOL    HW119391   2.639   3.145   1.541
 6164SOL    HW219392   2.636   3.213   1.689
 6165SOL     OW19393   4.353   6.981   6.247
 6165SOL    HW119394   4.328   0.047   6.285
 6165SOL    HW219395   4.319   6.908   6.307
 6166SOL     OW19396   3.915   0.917   5.796
 6166SOL    HW119397   3.933   1.002   5.746
 6166SOL    HW219398   3.993   0.897   5.855
 6167SOL     OW19399   0.311   4.616   2.556
 6167SOL    HW119400   0.342   4.681   2.487
 6167SOL    HW219401   0.387   4.557   2.583
 6168SOL     OW19402   0.481   3.502   0.722
 6168SOL    HW119403   0.419   3.427   0.698
 6168SOL    HW219404   0.574   3.468   0.729
 6169SOL     OW19405   1.086   3.580   2.037
 6169SOL    HW119406   1.015   3.555   2.103
 6169SOL    HW219407   1.044   3.618   1.955
 6170SOL     OW19408   0.683   3.289   4.970
 6170SOL    HW119409   0.772   3.305   5.013
 6170SOL    HW219410   0.692   3.299   4.871
 6171SOL     OW19411   0.722   1.810   0.192
 6171SOL    HW119412   0.660   1.860   0.132
 6171SOL    HW219413   0.787   1.873   0.234
 6172SOL     OW19414   1.246   3.400   2.851
 6172SOL    HW119415   1.271   3.369   2.759
 6172SOL    HW219416   1.320   3.375   2.915
 6173SOL     OW19417   6.656   5.124   3.362
 6173SOL    HW119418   6.561   5.151   3.344
 6173SOL    HW219419   6.717   5.196   3.329
 6174SOL     OW19420   4.996   5.433   4.123
 6174SOL    HW119421   5.081   5.408   4.076
 6174SOL    HW219422   4.919   5.423   4.061
 6175SOL     OW19423   4.000   0.457   4.139
 6175SOL    HW119424   3.959   0.544   4.111
 6175SOL    HW219425   3.982   0.442   4.236
 6176SOL     OW19426   4.888   3.911   5.494
 6176SOL    HW119427   4.980   3.910   5.533
 6176SOL    HW219428   4.862   3.818   5.467
 6177SOL     OW19429   5.592   1.898   1.941
 6177SOL    HW119430   5.595   1.874   1.844
 6177SOL    HW219431   5.586   1.997   1.951
 6178SOL     OW19432   5.224   4.007   2.292
 6178SOL    HW119433   5.157   3.935   2.275
 6178SOL    HW219434   5.250   4.006   2.389
 6179SOL     OW19435   6.383   4.588   2.059
 6179SOL    HW119436   6.310   4.519   2.060
 6179SOL    HW219437   6.417   4.602   2.152
 6180SOL     OW19438   2.604   5.058   1.180
 6180SOL    HW119439   2.558   5.072   1.267
 6180SOL    HW219440   2.686   5.003   1.194
 6181SOL     OW19441   4.802   6.496   6.434
 6181SOL    HW119442   4.868   6.434   6.476
 6181SOL    HW219443   4.851   6.568   6.384
 6182SOL     OW19444   4.565   3.648   6.094
 6182SOL    HW119445   4.646   3.683   6.047
 6182SOL    HW219446   4.510   3.725   6.128
 6183SOL     OW19447   1.636   2.028   2.102
 6183SOL    HW119448   1.621   2.097   2.172
 6183SOL    HW219449   1.653   1.939   2.144
 6184SOL     OW19450   3.176   6.807   6.055
 6184SOL    HW119451   3.245   6.880   6.061
 6184SOL    HW219452   3.176   6.755   6.140
 6185SOL     OW19453   1.297   4.430   6.145
 6185SOL    HW119454   1.397   4.433   6.152
 6185SOL    HW219455   1.260   4.381   6.224
 6186SOL     OW19456   5.938   1.060   1.096
 6186SOL    HW119457   5.988   1.074   1.182
 6186SOL    HW219458   5.845   1.029   1.116
 6187SOL     OW19459   5.023   3.156   4.455
 6187SOL    HW119460   5.048   3.095   4.380
 6187SOL    HW219461   5.105   3.191   4.499
 6188SOL     OW19462   1.654   1.772   6.086
 6188SOL    HW119463   1.728   1.743   6.026
 6188SOL    HW219464   1.609   1.691   6.124
 6189SOL     OW19465   3.731   4.888   3.121
 6189SOL    HW119466   3.827   4.861   3.115
 6189SOL    HW219467   3.698   4.874   3.215
 6190SOL     OW19468   0.323   3.231   5.363
 6190SOL    HW119469   0.344   3.319   5.407
 6190SOL    HW219470   0.285   3.248   5.272
 6191SOL     OW19471   2.949   3.062   6.317
 6191SOL    HW119472   2.955   3.136   6.385
 6191SOL    HW219473   2.862   3.014   6.328
 6192SOL     OW19474   2.651   1.963   6.718
 6192SOL    HW119475   2.700   2.012   6.646
 6192SOL    HW219476   2.586   2.026   6.762
 6193SOL     OW19477   4.306   5.858   0.899
 6193SOL    HW119478   4.338   5.797   0.827
 6193SOL    HW219479   4.248   5.929   0.860
 6194SOL     OW19480   6.094   0.613   6.274
 6194SOL    HW119481   6.175   0.672   6.280
 6194SOL    HW219482   6.102   0.553   6.195
 6195SOL     OW19483   5.532   6.323   4.488
 6195SOL    HW119484   5.457   6.367   4.537
 6195SOL    HW219485   5.618   6.372   4.507
 6196SOL     OW19486   4.850   4.176   2.617
 6196SOL    HW119487   4.756   4.209   2.608
 6196SOL    HW219488   4.878   4.130   2.533
 6197SOL     OW19489   2.694   5.408   2.176
 6197SOL    HW119490   2.712   5.407   2.274
 6197SOL    HW219491   2.771   5.368   2.127
 6198SOL     OW19492   4.220   6.282   0.814
 6198SOL    HW119493   4.125   6.253   0.812
 6198SOL    HW219494   4.280   6.201   0.813
 6199SOL     OW19495   0.837   1.297   0.576
 6199SOL    HW119496   0.770   1.359   0.617
 6199SOL    HW219497   0.863   1.228   0.643
 6200SOL     OW19498   1.107   2.142   4.593
 6200SOL    HW119499   1.071   2.085   4.666
 6200SOL    HW219500   1.198   2.109   4.567
 6201SOL     OW19501   0.908   3.252   4.490
 6201SOL    HW119502   0.959   3.326   4.446
 6201SOL    HW219503   0.961   3.168   4.487
 6202SOL     OW19504   5.756   1.381   1.751
 6202SOL    HW119505   5.723   1.401   1.658
 6202SOL    HW219506   5.682   1.342   1.805
 6203SOL     OW19507   5.406   5.381   1.701
 6203SOL    HW119508   5.428   5.478   1.694
 6203SOL    HW219509   5.483   5.331   1.740
 6204SOL     OW19510   1.088   6.162   5.021
 6204SOL    HW119511   1.051   6.226   5.088
 6204SOL    HW219512   1.182   6.137   5.046
 6205SOL     OW19513   6.188   4.312   1.203
 6205SOL    HW119514   6.129   4.323   1.282
 6205SOL    HW219515   6.231   4.400   1.181
 6206SOL     OW19516   5.336   1.384   2.742
 6206SOL    HW119517   5.431   1.368   2.715
 6206SOL    HW219518   5.326   1.477   2.776
 6207SOL     OW19519   1.671   6.511   5.185
 6207SOL    HW119520   1.643   6.495   5.279
 6207SOL    HW219521   1.728   6.593   5.180
 6208SOL     OW19522   3.276   2.207   5.561
 6208SOL    HW119523   3.372   2.233   5.558
 6208SOL    HW219524   3.227   2.252   5.487
 6209SOL     OW19525   3.610   5.399   0.344
 6209SOL    HW119526   3.640   5.303   0.344
 6209SOL    HW219527   3.569   5.421   0.432
 6210SOL     OW19528   5.391   3.876   3.033
 6210SOL    HW119529   5.334   3.821   2.971
 6210SOL    HW219530   5.342   3.889   3.120
 6211SOL     OW19531   3.289   6.332   5.362
 6211SOL    HW119532   3.321   6.242   5.390
 6211SOL    HW219533   3.304   6.344   5.264
 6212SOL     OW19534   2.270   4.569   4.303
 6212SOL    HW119535   2.295   4.634   4.232
 6212SOL    HW219536   2.295   4.477   4.275
 6213SOL     OW19537   4.511   6.847   6.637
 6213SOL    HW119538   4.565   6.763   6.630
 6213SOL    HW219539   4.453   6.843   6.718
 6214SOL     OW19540   5.779   5.650   5.608
 6214SOL    HW119541   5.815   5.695   5.690
 6214SOL    HW219542   5.706   5.706   5.568
 6215SOL     OW19543   3.700   3.051   6.394
 6215SOL    HW119544   3.605   3.053   6.425
 6215SOL    HW219545   3.720   2.962   6.354
 6216SOL     OW19546   6.113   2.226   1.878
 6216SOL    HW119547   6.133   2.194   1.971
 6216SOL    HW219548   6.032   2.285   1.881
 6217SOL     OW19549   0.992   4.544   2.392
 6217SOL    HW119550   1.073   4.602   2.393
 6217SOL    HW219551   1.020   4.449   2.375
 6218SOL     OW19552   3.768   6.450   0.180
 6218SOL    HW119553   3.836   6.524   0.182
 6218SOL    HW219554   3.677   6.489   0.197
 6219SOL     OW19555   1.541   0.851   4.933
 6219SOL    HW119556   1.568   0.845   4.837
 6219SOL    HW219557   1.602   0.794   4.988
 6220SOL     OW19558   3.488   1.282   6.132
 6220SOL    HW119559   3.533   1.256   6.218
 6220SOL    HW219560   3.478   1.201   6.074
 6221SOL     OW19561   6.363   6.685   6.567
 6221SOL    HW119562   6.441   6.722   6.617
 6221SOL    HW219563   6.332   6.600   6.611
 6222SOL     OW19564   6.863   0.288   2.654
 6222SOL    HW119565   6.863   0.317   2.750
 6222SOL    HW219566   6.842   0.367   2.596
 6223SOL     OW19567   1.607   5.715   3.503
 6223SOL    HW119568   1.643   5.802   3.466
 6223SOL    HW219569   1.508   5.712   3.490
 6224SOL     OW19570   3.855   1.720   5.705
 6224SOL    HW119571   3.883   1.717   5.609
 6224SOL    HW219572   3.892   1.801   5.749
 6225SOL     OW19573   3.938   2.380   6.391
 6225SOL    HW119574   3.853   2.433   6.385
 6225SOL    HW219575   4.007   2.433   6.440
 6226SOL     OW19576   1.208   1.227   3.712
 6226SOL    HW119577   1.268   1.149   3.731
 6226SOL    HW219578   1.166   1.258   3.797
 6227SOL     OW19579   3.108   5.236   5.239
 6227SOL    HW119580   3.047   5.182   5.182
 6227SOL    HW219581   3.100   5.206   5.334
 6228SOL     OW19582   0.509   2.264   3.274
 6228SOL    HW119583   0.525   2.320   3.355
 6228SOL    HW219584   0.553   2.307   3.195
 6229SOL     OW19585   0.430   2.714   5.273
 6229SOL    HW119586   0.438   2.806   5.310
 6229SOL    HW219587   0.502   2.698   5.205
 6230SOL     OW19588   1.274   2.412   3.237
 6230SOL    HW119589   1.217   2.427   3.156
 6230SOL    HW219590   1.361   2.460   3.226
 6231SOL     OW19591   5.081   5.561   0.437
 6231SOL    HW119592   5.036   5.504   0.506
 6231SOL    HW219593   5.180   5.547   0.441
 6232SOL     OW19594   6.414   1.277   0.104
 6232SOL    HW119595   6.405   1.187   0.062
 6232SOL    HW219596   6.327   1.303   0.146
 6233SOL     OW19597   0.090   3.151   1.391
 6233SOL    HW119598   0.175   3.098   1.385
 6233SOL    HW219599   0.046   3.134   1.479
 6234SOL     OW19600   7.005   0.202   5.440
 6234SOL    HW119601   6.999   0.103   5.427
 6234SOL    HW219602   7.021   0.246   5.352
 6235SOL     OW19603   0.146   0.876   2.077
 6235SOL    HW119604   0.230   0.855   2.028
 6235SOL    HW219605   0.138   0.818   2.158
 6236SOL     OW19606   6.915   4.693   0.433
 6236SOL    HW119607   6.947   4.728   0.345
 6236SOL    HW219608   6.894   4.595   0.424
 6237SOL     OW19609   3.047   7.009   7.006
 6237SOL    HW119610   3.045   0.044   0.065
 6237SOL    HW219611   3.061   6.913   0.011
 6238SOL     OW19612   4.692   6.706   3.265
 6238SOL    HW119613   4.727   6.791   3.305
 6238SOL    HW219614   4.592   6.709   3.263
 6239SOL     OW19615   3.440   0.634   1.403
 6239SOL    HW119616   3.399   0.562   1.347
 6239SOL    HW219617   3.373   0.665   1.471
 6240SOL     OW19618   2.938   3.622   4.841
 6240SOL    HW119619   3.021   3.569   4.860
 6240SOL    HW219620   2.858   3.562   4.850
 6241SOL     OW19621   4.090   0.035   4.023
 6241SOL    HW119622   4.174   0.038   3.970
 6241SOL    HW219623   4.028   0.108   3.993
 6242SOL     OW19624   3.036   0.943   3.860
 6242SOL    HW119625   3.058   0.930   3.956
 6242SOL    HW219626   3.002   1.036   3.846
 6243SOL     OW19627   6.654   0.547   5.721
 6243SOL    HW119628   6.658   0.574   5.625
 6243SOL    HW219629   6.683   0.624   5.778
 6244SOL     OW19630   4.989   3.889   3.259
 6244SOL    HW119631   4.945   3.949   3.192
 6244SOL    HW219632   4.978   3.794   3.232
 6245SOL     OW19633   0.986   5.124   1.715
 6245SOL    HW119634   0.949   5.105   1.624
 6245SOL    HW219635   0.931   5.196   1.758
 6246SOL     OW19636   0.555   0.927   4.444
 6246SOL    HW119637   0.579   0.975   4.360
 6246SOL    HW219638   0.464   0.886   4.435
 6247SOL     OW19639   1.725   6.550   3.081
 6247SOL    HW119640   1.798   6.513   3.138
 6247SOL    HW219641   1.644   6.567   3.137
 6248SOL     OW19642   3.243   4.031   0.082
 6248SOL    HW119643   3.261   4.041   0.179
 6248SOL    HW219644   3.322   3.988   0.038
 6249SOL     OW19645   0.290   2.818   1.269
 6249SOL    HW119646   0.364   2.850   1.210
 6249SOL    HW219647   0.295   2.866   1.357
 6250SOL     OW19648   6.805   6.509   0.741
 6250SOL    HW119649   6.758   6.569   0.805
 6250SOL    HW219650   6.759   6.513   0.652
 6251SOL     OW19651   3.727   5.736   4.598
 6251SOL    HW119652   3.827   5.728   4.589
 6251SOL    HW219653   3.686   5.645   4.591
 6252SOL     OW19654   2.862   5.192   0.226
 6252SOL    HW119655   2.917   5.254   0.169
 6252SOL    HW219656   2.906   5.102   0.230
 6253SOL     OW19657   2.237   5.108   5.032
 6253SOL    HW119658   2.207   5.027   4.982
 6253SOL    HW219659   2.165   5.177   5.031
 6254SOL     OW19660   0.327   6.311   1.277
 6254SOL    HW119661   0.297   6.259   1.197
 6254SOL    HW219662   0.265   6.387   1.294
 6255SOL     OW19663   2.092   2.482   0.512
 6255SOL    HW119664   2.141   2.427   0.444
 6255SOL    HW219665   2.072   2.572   0.473
 6256SOL     OW19666   4.262   4.943   2.261
 6256SOL    HW119667   4.176   4.901   2.288
 6256SOL    HW219668   4.268   5.035   2.301
 6257SOL     OW19669   4.025   3.062   0.230
 6257SOL    HW119670   4.023   3.035   0.326
 6257SOL    HW219671   4.033   3.162   0.223
 6258SOL     OW19672   3.214   0.258   5.423
 6258SOL    HW119673   3.275   0.179   5.425
 6258SOL    HW219674   3.223   0.309   5.508
 6259SOL     OW19675   1.968   0.765   6.442
 6259SOL    HW119676   2.055   0.769   6.489
 6259SOL    HW219677   1.981   0.727   6.350
 6260SOL     OW19678   1.977   0.730   0.697
 6260SOL    HW119679   1.922   0.772   0.769
 6260SOL    HW219680   1.925   0.657   0.653
 6261SOL     OW19681   4.393   6.474   0.944
 6261SOL    HW119682   4.420   6.397   1.003
 6261SOL    HW219683   4.347   6.439   0.862
 6262SOL     OW19684   0.906   5.828   2.271
 6262SOL    HW119685   0.868   5.920   2.260
 6262SOL    HW219686   0.837   5.768   2.311
 6263SOL     OW19687   0.184   6.244   5.096
 6263SOL    HW119688   0.164   6.341   5.113
 6263SOL    HW219689   0.230   6.205   5.175
 6264SOL     OW19690   1.450   0.027   1.398
 6264SOL    HW119691   1.458   0.109   1.341
 6264SOL    HW219692   1.529   0.022   1.459
 6265SOL     OW19693   3.910   2.742   0.938
 6265SOL    HW119694   3.824   2.705   0.902
 6265SOL    HW219695   3.922   2.712   1.033
 6266SOL     OW19696   4.242   6.958   3.342
 6266SOL    HW119697   4.240   0.004   3.270
 6266SOL    HW219698   4.281   6.998   3.425
 6267SOL     OW19699   1.565   0.014   5.113
 6267SOL    HW119700   1.557   6.946   5.073
 6267SOL    HW219701   1.662   0.037   5.125
 6268SOL     OW19702   2.834   0.818   1.983
 6268SOL    HW119703   2.799   0.795   2.073
 6268SOL    HW219704   2.931   0.842   1.990
 6269SOL     OW19705   5.747   6.805   1.365
 6269SOL    HW119706   5.696   6.865   1.304
 6269SOL    HW219707   5.834   6.781   1.324
 6270SOL     OW19708   0.860   6.586   0.207
 6270SOL    HW119709   0.849   6.553   0.300
 6270SOL    HW219710   0.771   6.589   0.162
 6271SOL     OW19711   5.817   2.828   6.494
 6271SOL    HW119712   5.813   2.858   6.398
 6271SOL    HW219713   5.765   2.744   6.504
 6272SOL     OW19714   0.740   0.790   0.570
 6272SOL    HW119715   0.798   0.759   0.645
 6272SOL    HW219716   0.782   0.766   0.483
 6273SOL     OW19717   0.340   5.616   3.169
 6273SOL    HW119718   0.308   5.707   3.194
 6273SOL    HW219719   0.321   5.552   3.243
 6274SOL     OW19720   2.856   6.994   4.825
 6274SOL    HW119721   2.861   0.067   4.797
 6274SOL    HW219722   2.869   6.988   4.924
 6275SOL     OW19723   2.225   5.826   0.880
 6275SOL    HW119724   2.127   5.819   0.895
 6275SOL    HW219725   2.251   5.774   0.799
 6276SOL     OW19726   3.848   5.758   3.777
 6276SOL    HW119727   3.760   5.712   3.792
 6276SOL    HW219728   3.873   5.809   3.859
 6277SOL     OW19729   5.235   2.390   0.932
 6277SOL    HW119730   5.233   2.348   1.023
 6277SOL    HW219731   5.329   2.403   0.903
 6278SOL     OW19732   3.450   0.728   5.860
 6278SOL    HW119733   3.426   0.747   5.765
 6278SOL    HW219734   3.531   0.780   5.886
 6279SOL     OW19735   4.072   5.759   0.731
 6279SOL    HW119736   4.167   5.737   0.707
 6279SOL    HW219737   4.046   5.846   0.689
 6280SOL     OW19738   0.222   0.920   6.627
 6280SOL    HW119739   0.250   1.008   6.666
 6280SOL    HW219740   0.129   0.898   6.657
 6281SOL     OW19741   6.075   4.919   3.755
 6281SOL    HW119742   6.157   4.896   3.807
 6281SOL    HW219743   6.101   4.945   3.662
 6282SOL     OW19744   6.104   3.341   5.267
 6282SOL    HW119745   6.088   3.409   5.339
 6282SOL    HW219746   6.153   3.384   5.191
 6283SOL     OW19747   0.968   4.412   4.242
 6283SOL    HW119748   0.932   4.504   4.228
 6283SOL    HW219749   1.058   4.404   4.197
 6284SOL     OW19750   1.155   5.512   6.760
 6284SOL    HW119751   1.197   5.558   6.681
 6284SOL    HW219752   1.199   5.543   6.844
 6285SOL     OW19753   1.609   3.334   3.646
 6285SOL    HW119754   1.530   3.298   3.697
 6285SOL    HW219755   1.665   3.258   3.613
 6286SOL     OW19756   6.433   3.479   4.147
 6286SOL    HW119757   6.478   3.410   4.091
 6286SOL    HW219758   6.478   3.484   4.237
 6287SOL     OW19759   4.232   5.064   5.056
 6287SOL    HW119760   4.241   4.966   5.041
 6287SOL    HW219761   4.323   5.106   5.055
 6288SOL     OW19762   4.743   4.718   1.319
 6288SOL    HW119763   4.669   4.784   1.319
 6288SOL    HW219764   4.735   4.659   1.238
 6289SOL     OW19765   2.747   4.744   6.675
 6289SOL    HW119766   2.705   4.659   6.644
 6289SOL    HW219767   2.842   4.747   6.646
 6290SOL     OW19768   6.035   5.246   6.224
 6290SOL    HW119769   6.041   5.197   6.137
 6290SOL    HW219770   6.028   5.344   6.207
 6291SOL     OW19771   4.064   3.235   3.346
 6291SOL    HW119772   3.973   3.244   3.386
 6291SOL    HW219773   4.071   3.147   3.299
 6292SOL     OW19774   2.038   2.295   4.546
 6292SOL    HW119775   2.082   2.379   4.577
 6292SOL    HW219776   2.101   2.219   4.556
 6293SOL     OW19777   4.488   1.461   0.323
 6293SOL    HW119778   4.527   1.529   0.385
 6293SOL    HW219779   4.482   1.373   0.370
 6294SOL     OW19780   4.438   0.469   3.110
 6294SOL    HW119781   4.491   0.524   3.174
 6294SOL    HW219782   4.371   0.415   3.160
 6295SOL     OW19783   5.232   4.921   5.101
 6295SOL    HW119784   5.244   5.020   5.105
 6295SOL    HW219785   5.316   4.879   5.066
 6296SOL     OW19786   0.372   4.421   5.757
 6296SOL    HW119787   0.324   4.434   5.844
 6296SOL    HW219788   0.310   4.443   5.681
 6297SOL     OW19789   6.643   0.145   5.476
 6297SOL    HW119790   6.638   0.216   5.406
 6297SOL    HW219791   6.670   0.058   5.433
 6298SOL     OW19792   6.690   4.846   6.106
 6298SOL    HW119793   6.784   4.810   6.109
 6298SOL    HW219794   6.627   4.778   6.143
 6299SOL     OW19795   5.886   2.679   2.186
 6299SOL    HW119796   5.812   2.612   2.175
 6299SOL    HW219797   5.973   2.637   2.161
 6300SOL     OW19798   4.694   0.720   6.904
 6300SOL    HW119799   4.721   0.784   6.831
 6300SOL    HW219800   4.648   0.642   6.863
 6301SOL     OW19801   3.225   6.941   6.354
 6301SOL    HW119802   3.273   6.889   6.425
 6301SOL    HW219803   3.288   7.003   6.308
 6302SOL     OW19804   2.379   1.638   5.357
 6302SOL    HW119805   2.457   1.632   5.294
 6302SOL    HW219806   2.405   1.692   5.437
 6303SOL     OW19807   0.488   6.307   6.001
 6303SOL    HW119808   0.436   6.330   6.083
 6303SOL    HW219809   0.433   6.326   5.920
 6304SOL     OW19810   3.789   1.606   3.461
 6304SOL    HW119811   3.727   1.662   3.516
 6304SOL    HW219812   3.739   1.526   3.427
 6305SOL     OW19813   5.939   5.863   0.074
 6305SOL    HW119814   5.987   5.807   0.007
 6305SOL    HW219815   5.977   5.956   0.072
 6306SOL     OW19816   0.138   3.535   4.129
 6306SOL    HW119817   0.195   3.504   4.206
 6306SOL    HW219818   0.073   3.463   4.106
 6307SOL     OW19819   3.237   2.954   4.220
 6307SOL    HW119820   3.297   2.929   4.295
 6307SOL    HW219821   3.276   2.923   4.133
 6308SOL     OW19822   0.904   2.218   5.896
 6308SOL    HW119823   0.912   2.281   5.819
 6308SOL    HW219824   0.844   2.142   5.871
 6309SOL     OW19825   0.362   0.290   4.050
 6309SOL    HW119826   0.315   0.358   3.993
 6309SOL    HW219827   0.459   0.313   4.054
 6310SOL     OW19828   2.223   6.344   2.909
 6310SOL    HW119829   2.272   6.258   2.892
 6310SOL    HW219830   2.241   6.408   2.835
 6311SOL     OW19831   4.849   1.252   6.808
 6311SOL    HW119832   4.789   1.247   6.888
 6311SOL    HW219833   4.936   1.294   6.833
 6312SOL     OW19834   1.786   6.914   6.516
 6312SOL    HW119835   1.759   6.945   6.425
 6312SOL    HW219836   1.715   6.940   6.582
 6313SOL     OW19837   5.510   6.572   2.989
 6313SOL    HW119838   5.515   6.651   2.928
 6313SOL    HW219839   5.534   6.489   2.939
 6314SOL     OW19840   3.757   0.405   1.952
 6314SOL    HW119841   3.765   0.486   1.894
 6314SOL    HW219842   3.715   0.430   2.039
 6315SOL     OW19843   2.139   2.022   4.640
 6315SOL    HW119844   2.228   2.032   4.684
 6315SOL    HW219845   2.069   2.005   4.709
 6316SOL     OW19846   4.860   1.442   5.940
 6316SOL    HW119847   4.794   1.517   5.947
 6316SOL    HW219848   4.826   1.363   5.992
 6317SOL     OW19849   5.215   3.845   2.804
 6317SOL    HW119850   5.153   3.878   2.733
 6317SOL    HW219851   5.288   3.791   2.762
 6318SOL     OW19852   4.613   7.014   6.909
 6318SOL    HW119853   4.635   6.957   6.830
 6318SOL    HW219854   4.553   0.066   6.880
 6319SOL     OW19855   6.106   2.283   4.348
 6319SOL    HW119856   6.115   2.382   4.351
 6319SOL    HW219857   6.074   2.256   4.257
 6320SOL     OW19858   0.203   0.080   3.757
 6320SOL    HW119859   0.148   0.163   3.752
 6320SOL    HW219860   0.252   0.077   3.844
 6321SOL     OW19861   5.079   3.448   0.110
 6321SOL    HW119862   5.146   3.460   0.183
 6321SOL    HW219863   5.106   3.372   0.052
 6322SOL     OW19864   2.981   1.493   0.554
 6322SOL    HW119865   2.884   1.497   0.534
 6322SOL    HW219866   3.030   1.451   0.478
 6323SOL     OW19867   1.803   2.054   1.131
 6323SOL    HW119868   1.751   1.970   1.116
 6323SOL    HW219869   1.758   2.130   1.085
 6324SOL     OW19870   3.842   1.337   0.894
 6324SOL    HW119871   3.934   1.314   0.924
 6324SOL    HW219872   3.845   1.415   0.831
 6325SOL     OW19873   2.188   2.577   3.209
 6325SOL    HW119874   2.282   2.607   3.193
 6325SOL    HW219875   2.147   2.634   3.281
 6326SOL     OW19876   5.265   5.793   5.808
 6326SOL    HW119877   5.358   5.827   5.795
 6326SOL    HW219878   5.266   5.693   5.808
 6327SOL     OW19879   6.835   1.226   3.767
 6327SOL    HW119880   6.797   1.192   3.853
 6327SOL    HW219881   6.926   1.264   3.784
 6328SOL     OW19882   4.682   3.714   6.997
 6328SOL    HW119883   4.596   3.722   6.947
 6328SOL    HW219884   4.662   3.696   0.071
 6329SOL     OW19885   0.604   2.737   5.059
 6329SOL    HW119886   0.560   2.793   4.989
 6329SOL    HW219887   0.693   2.775   5.082
 6330SOL     OW19888   5.351   0.215   2.397
 6330SOL    HW119889   5.408   0.198   2.316
 6330SOL    HW219890   5.257   0.187   2.379
 6331SOL     OW19891   6.475   3.039   4.705
 6331SOL    HW119892   6.510   3.097   4.779
 6331SOL    HW219893   6.375   3.040   4.705
 6332SOL     OW19894   1.409   2.819   1.534
 6332SOL    HW119895   1.431   2.755   1.461
 6332SOL    HW219896   1.388   2.768   1.618
 6333SOL     OW19897   4.842   6.897   6.478
 6333SOL    HW119898   4.857   6.836   6.556
 6333SOL    HW219899   4.836   6.843   6.395
 6334SOL     OW19900   2.544   1.386   2.309
 6334SOL    HW119901   2.578   1.437   2.387
 6334SOL    HW219902   2.475   1.440   2.261
 6335SOL     OW19903   4.864   1.101   0.680
 6335SOL    HW119904   4.896   1.069   0.770
 6335SOL    HW219905   4.804   1.180   0.693
 6336SOL     OW19906   0.037   4.049   6.620
 6336SOL    HW119907   0.095   3.981   6.664
 6336SOL    HW219908   6.966   4.040   6.652
 6337SOL     OW19909   4.064   5.805   4.893
 6337SOL    HW119910   4.086   5.832   4.800
 6337SOL    HW219911   4.149   5.786   4.943
 6338SOL     OW19912   3.162   1.629   4.393
 6338SOL    HW119913   3.227   1.705   4.393
 6338SOL    HW219914   3.075   1.661   4.430
 6339SOL     OW19915   1.286   3.818   3.215
 6339SOL    HW119916   1.188   3.810   3.235
 6339SOL    HW219917   1.311   3.754   3.143
 6340SOL     OW19918   2.313   3.367   0.976
 6340SOL    HW119919   2.243   3.426   1.018
 6340SOL    HW219920   2.355   3.310   1.047
 6341SOL     OW19921   1.020   3.532   3.774
 6341SOL    HW119922   1.090   3.485   3.720
 6341SOL    HW219923   1.064   3.590   3.842
 6342SOL     OW19924   3.312   1.271   0.670
 6342SOL    HW119925   3.233   1.244   0.615
 6342SOL    HW219926   3.380   1.197   0.668
 6343SOL     OW19927   3.888   6.624   6.659
 6343SOL    HW119928   3.916   6.707   6.707
 6343SOL    HW219929   3.840   6.563   6.722
 6344SOL     OW19930   5.710   2.187   4.231
 6344SOL    HW119931   5.718   2.128   4.150
 6344SOL    HW219932   5.734   2.281   4.207
 6345SOL     OW19933   4.890   2.906   1.805
 6345SOL    HW119934   4.830   2.922   1.884
 6345SOL    HW219935   4.909   2.992   1.759
 6346SOL     OW19936   6.715   4.487   4.787
 6346SOL    HW119937   6.651   4.555   4.750
 6346SOL    HW219938   6.668   4.430   4.854
 6347SOL     OW19939   2.677   1.817   1.647
 6347SOL    HW119940   2.740   1.789   1.719
 6347SOL    HW219941   2.609   1.745   1.632
 6348SOL     OW19942   0.943   2.294   6.144
 6348SOL    HW119943   1.027   2.260   6.186
 6348SOL    HW219944   0.921   2.239   6.064
 6349SOL     OW19945   1.367   0.487   0.404
 6349SOL    HW119946   1.398   0.582   0.409
 6349SOL    HW219947   1.341   0.456   0.495
 6350SOL     OW19948   1.005   5.141   2.715
 6350SOL    HW119949   0.910   5.172   2.714
 6350SOL    HW219950   1.011   5.054   2.764
 6351SOL     OW19951   6.693   4.443   3.806
 6351SOL    HW119952   6.776   4.411   3.852
 6351SOL    HW219953   6.653   4.519   3.858
 6352SOL     OW19954   2.699   0.206   3.980
 6352SOL    HW119955   2.601   0.193   3.962
 6352SOL    HW219956   2.723   0.158   4.065
 6353SOL     OW19957   2.452   5.365   0.334
 6353SOL    HW119958   2.524   5.402   0.275
 6353SOL    HW219959   2.487   5.287   0.385
 6354SOL     OW19960   3.504   5.969   2.868
 6354SOL    HW119961   3.530   5.961   2.964
 6354SOL    HW219962   3.423   5.914   2.851
 6355SOL     OW19963   2.908   5.745   0.442
 6355SOL    HW119964   2.898   5.837   0.405
 6355SOL    HW219965   2.817   5.705   0.459
 6356SOL     OW19966   5.585   5.324   0.090
 6356SOL    HW119967   5.591   5.225   0.089
 6356SOL    HW219968   5.653   5.361   0.155
 6357SOL     OW19969   5.895   2.524   1.888
 6357SOL    HW119970   5.920   2.607   1.938
 6357SOL    HW219971   5.848   2.550   1.803
 6358SOL     OW19972   0.826   2.138   0.008
 6358SOL    HW119973   0.811   2.236   7.019
 6358SOL    HW219974   0.741   2.089   7.015
 6359SOL     OW19975   6.188   6.276   0.730
 6359SOL    HW119976   6.104   6.321   0.760
 6359SOL    HW219977   6.265   6.339   0.738
 6360SOL     OW19978   0.332   3.721   4.048
 6360SOL    HW119979   0.410   3.691   3.994
 6360SOL    HW219980   0.260   3.651   4.044
 6361SOL     OW19981   0.781   0.687   1.012
 6361SOL    HW119982   0.843   0.708   0.937
 6361SOL    HW219983   0.753   0.591   1.007
 6362SOL     OW19984   1.649   6.170   0.069
 6362SOL    HW119985   1.605   6.237   0.008
 6362SOL    HW219986   1.601   6.083   0.062
 6363SOL     OW19987   2.993   4.814   3.911
 6363SOL    HW119988   2.949   4.793   3.824
 6363SOL    HW219989   2.932   4.787   3.986
 6364SOL     OW19990   2.263   2.511   5.355
 6364SOL    HW119991   2.342   2.540   5.301
 6364SOL    HW219992   2.183   2.563   5.328
 6365SOL     OW19993   5.722   5.962   4.852
 6365SOL    HW119994   5.684   6.037   4.798
 6365SOL    HW219995   5.765   5.999   4.935
 6366SOL     OW19996   6.915   6.735   4.807
 6366SOL    HW119997   6.874   6.700   4.722
 6366SOL    HW219998   6.963   6.820   4.787
 6367SOL     OW19999   3.387   2.134   2.752
 6367SOL    HW120000   3.337   2.159   2.669
 6367SOL    HW220001   3.397   2.214   2.810
 6368SOL     OW20002   4.143   4.758   4.213
 6368SOL    HW120003   4.175   4.682   4.268
 6368SOL    HW220004   4.126   4.838   4.271
 6369SOL     OW20005   2.062   0.062   4.283
 6369SOL    HW120006   1.967   0.093   4.279
 6369SOL    HW220007   2.098   0.075   4.375
 6370SOL     OW20008   5.408   4.232   3.459
 6370SOL    HW120009   5.453   4.186   3.535
 6370SOL    HW220010   5.317   4.194   3.446
 6371SOL     OW20011   5.313   3.836   1.764
 6371SOL    HW120012   5.297   3.893   1.683
 6371SOL    HW220013   5.330   3.894   1.843
 6372SOL     OW20014   0.691   1.179   1.655
 6372SOL    HW120015   0.625   1.156   1.583
 6372SOL    HW220016   0.650   1.160   1.744
 6373SOL     OW20017   5.988   3.673   2.327
 6373SOL    HW120018   5.926   3.729   2.273
 6373SOL    HW220019   5.957   3.578   2.325
 6374SOL     OW20020   4.346   2.743   0.348
 6374SOL    HW120021   4.368   2.831   0.305
 6374SOL    HW220022   4.422   2.714   0.406
 6375SOL     OW20023   0.998   2.554   1.723
 6375SOL    HW120024   0.930   2.612   1.678
 6375SOL    HW220025   1.036   2.490   1.656
 6376SOL     OW20026   3.919   1.806   5.414
 6376SOL    HW120027   3.880   1.761   5.334
 6376SOL    HW220028   3.852   1.871   5.451
 6377SOL     OW20029   6.640   1.485   5.470
 6377SOL    HW120030   6.672   1.408   5.415
 6377SOL    HW220031   6.563   1.529   5.424
 6378SOL     OW20032   4.911   5.506   3.211
 6378SOL    HW120033   4.864   5.451   3.280
 6378SOL    HW220034   4.862   5.592   3.198
 6379SOL     OW20035   0.858   4.731   5.384
 6379SOL    HW120036   0.940   4.738   5.327
 6379SOL    HW220037   0.883   4.695   5.474
 6380SOL     OW20038   6.902   3.184   4.375
 6380SOL    HW120039   6.943   3.191   4.466
 6380SOL    HW220040   6.936   3.102   4.330
 6381SOL     OW20041   4.287   2.987   0.229
 6381SOL    HW120042   4.196   2.948   0.246
 6381SOL    HW220043   4.291   3.020   0.135
 6382SOL     OW20044   3.478   1.746   1.148
 6382SOL    HW120045   3.505   1.777   1.239
 6382SOL    HW220046   3.439   1.822   1.096
 6383SOL     OW20047   1.643   2.432   2.228
 6383SOL    HW120048   1.634   2.353   2.289
 6383SOL    HW220049   1.598   2.511   2.270
 6384SOL     OW20050   5.550   2.930   1.941
 6384SOL    HW120051   5.600   3.010   1.975
 6384SOL    HW220052   5.542   2.936   1.841
 6385SOL     OW20053   6.783   3.875   1.836
 6385SOL    HW120054   6.859   3.869   1.771
 6385SOL    HW220055   6.697   3.881   1.785
 6386SOL     OW20056   2.097   3.573   0.249
 6386SOL    HW120057   2.177   3.528   0.209
 6386SOL    HW220058   2.068   3.524   0.331
 6387SOL     OW20059   6.182   1.436   0.168
 6387SOL    HW120060   6.230   1.520   0.192
 6387SOL    HW220061   6.150   1.441   0.073
 6388SOL     OW20062   5.944   4.687   2.078
 6388SOL    HW120063   5.879   4.611   2.079
 6388SOL    HW220064   5.931   4.743   2.160
 6389SOL     OW20065   1.364   6.819   1.282
 6389SOL    HW120066   1.284   6.814   1.222
 6389SOL    HW220067   1.366   6.908   1.328
 6390SOL     OW20068   6.362   0.503   5.863
 6390SOL    HW120069   6.423   0.438   5.818
 6390SOL    HW220070   6.353   0.585   5.807
 6391SOL     OW20071   1.451   1.266   6.193
 6391SOL    HW120072   1.511   1.344   6.209
 6391SOL    HW220073   1.459   1.202   6.269
 6392SOL     OW20074   2.956   6.316   3.688
 6392SOL    HW120075   3.052   6.330   3.713
 6392SOL    HW220076   2.929   6.223   3.713
 6393SOL     OW20077   5.578   5.957   1.424
 6393SOL    HW120078   5.556   6.049   1.457
 6393SOL    HW220079   5.676   5.950   1.407
 6394SOL     OW20080   1.551   4.617   1.312
 6394SOL    HW120081   1.487   4.555   1.267
 6394SOL    HW220082   1.628   4.636   1.250
 6395SOL     OW20083   0.137   3.122   2.339
 6395SOL    HW120084   0.193   3.039   2.344
 6395SOL    HW220085   0.050   3.101   2.294
 6396SOL     OW20086   6.293   3.832   5.662
 6396SOL    HW120087   6.285   3.837   5.762
 6396SOL    HW220088   6.292   3.737   5.633
 6397SOL     OW20089   6.317   1.051   2.122
 6397SOL    HW120090   6.350   1.057   2.028
 6397SOL    HW220091   6.391   1.075   2.185
 6398SOL     OW20092   1.134   6.688   1.579
 6398SOL    HW120093   1.130   6.706   1.677
 6398SOL    HW220094   1.229   6.684   1.550
 6399SOL     OW20095   1.536   0.033   6.934
 6399SOL    HW120096   1.516   6.995   6.858
 6399SOL    HW220097   1.480   0.007   7.013
 6400SOL     OW20098   2.011   4.979   2.644
 6400SOL    HW120099   2.013   5.079   2.656
 6400SOL    HW220100   2.001   4.936   2.734
 6401SOL     OW20101   5.372   5.181   3.311
 6401SOL    HW120102   5.439   5.238   3.263
 6401SOL    HW220103   5.417   5.135   3.387
 6402SOL     OW20104   2.195   3.113   3.605
 6402SOL    HW120105   2.118   3.139   3.547
 6402SOL    HW220106   2.189   3.161   3.692
 6403SOL     OW20107   5.615   6.312   5.877
 6403SOL    HW120108   5.576   6.220   5.877
 6403SOL    HW220109   5.703   6.311   5.830
 6404SOL     OW20110   3.991   1.318   2.618
 6404SOL    HW120111   3.928   1.303   2.694
 6404SOL    HW220112   4.082   1.339   2.654
 6405SOL     OW20113   4.547   1.458   3.697
 6405SOL    HW120114   4.448   1.443   3.695
 6405SOL    HW220115   4.576   1.475   3.792
 6406SOL     OW20116   1.485   3.193   2.221
 6406SOL    HW120117   1.396   3.232   2.244
 6406SOL    HW220118   1.557   3.255   2.251
 6407SOL     OW20119   1.999   6.890   3.149
 6407SOL    HW120120   2.028   6.799   3.180
 6407SOL    HW220121   2.079   6.945   3.128
 6408SOL     OW20122   6.294   0.749   0.856
 6408SOL    HW120123   6.294   0.777   0.760
 6408SOL    HW220124   6.364   0.680   0.871
 6409SOL     OW20125   0.217   4.842   3.187
 6409SOL    HW120126   0.260   4.776   3.248
 6409SOL    HW220127   0.119   4.848   3.208
 6410SOL     OW20128   1.912   0.759   6.968
 6410SOL    HW120129   1.994   0.703   6.984
 6410SOL    HW220130   1.937   0.839   6.912
 6411SOL     OW20131   1.040   3.212   2.386
 6411SOL    HW120132   1.065   3.166   2.470
 6411SOL    HW220133   1.123   3.240   2.337
 6412SOL     OW20134   2.623   0.625   0.016
 6412SOL    HW120135   2.652   0.532   0.039
 6412SOL    HW220136   2.536   0.621   6.989
 6413SOL     OW20137   4.110   4.803   4.705
 6413SOL    HW120138   4.152   4.883   4.749
 6413SOL    HW220139   4.138   4.720   4.753
 6414SOL     OW20140   6.308   6.451   6.652
 6414SOL    HW120141   6.383   6.385   6.649
 6414SOL    HW220142   6.221   6.402   6.660
 6415SOL     OW20143   1.443   3.241   4.049
 6415SOL    HW120144   1.469   3.162   3.994
 6415SOL    HW220145   1.456   3.324   3.995
 6416SOL     OW20146   2.958   6.999   6.486
 6416SOL    HW120147   2.997   7.014   6.577
 6416SOL    HW220148   3.030   6.966   6.425
 6417SOL     OW20149   5.356   2.453   0.600
 6417SOL    HW120150   5.332   2.363   0.562
 6417SOL    HW220151   5.411   2.441   0.683
 6418SOL     OW20152   5.090   4.307   2.705
 6418SOL    HW120153   5.150   4.317   2.626
 6418SOL    HW220154   5.038   4.222   2.698
 6419SOL     OW20155   0.396   5.360   5.057
 6419SOL    HW120156   0.386   5.365   4.957
 6419SOL    HW220157   0.437   5.444   5.090
 6420SOL     OW20158   1.815   1.668   3.767
 6420SOL    HW120159   1.775   1.648   3.856
 6420SOL    HW220160   1.743   1.668   3.697
 6421SOL     OW20161   4.863   0.580   1.167
 6421SOL    HW120162   4.781   0.629   1.136
 6421SOL    HW220163   4.882   0.504   1.105
 6422SOL     OW20164   6.424   1.558   5.285
 6422SOL    HW120165   6.361   1.628   5.320
 6422SOL    HW220166   6.437   1.571   5.187
 6423SOL     OW20167   4.824   5.192   4.877
 6423SOL    HW120168   4.866   5.155   4.795
 6423SOL    HW220169   4.772   5.275   4.854
 6424SOL     OW20170   1.323   3.706   4.702
 6424SOL    HW120171   1.378   3.717   4.784
 6424SOL    HW220172   1.258   3.632   4.715
 6425SOL     OW20173   0.086   5.523   2.642
 6425SOL    HW120174   0.132   5.436   2.660
 6425SOL    HW220175   0.090   5.580   2.724
 6426SOL     OW20176   5.534   5.137   3.754
 6426SOL    HW120177   5.611   5.088   3.797
 6426SOL    HW220178   5.450   5.086   3.770
 6427SOL     OW20179   2.947   3.644   3.160
 6427SOL    HW120180   2.966   3.741   3.145
 6427SOL    HW220181   2.917   3.630   3.255
 6428SOL     OW20182   5.724   3.296   0.293
 6428SOL    HW120183   5.677   3.239   0.361
 6428SOL    HW220184   5.823   3.288   0.306
 6429SOL     OW20185   1.144   0.428   5.443
 6429SOL    HW120186   1.070   0.463   5.386
 6429SOL    HW220187   1.148   0.482   5.528
 6430SOL     OW20188   6.451   0.824   4.842
 6430SOL    HW120189   6.492   0.906   4.803
 6430SOL    HW220190   6.370   0.849   4.895
 6431SOL     OW20191   4.403   5.208   2.659
 6431SOL    HW120192   4.421   5.110   2.666
 6431SOL    HW220193   4.427   5.253   2.745
 6432SOL     OW20194   3.535   4.293   6.542
 6432SOL    HW120195   3.627   4.256   6.525
 6432SOL    HW220196   3.528   4.384   6.501
 6433SOL     OW20197   3.490   5.006   0.092
 6433SOL    HW120198   3.458   4.929   0.037
 6433SOL    HW220199   3.412   5.053   0.133
 6434SOL     OW20200   2.490   6.600   5.873
 6434SOL    HW120201   2.537   6.514   5.850
 6434SOL    HW220202   2.466   6.648   5.789
 6435SOL     OW20203   6.495   0.192   0.865
 6435SOL    HW120204   6.565   0.236   0.808
 6435SOL    HW220205   6.521   0.096   0.880
 6436SOL     OW20206   0.968   3.386   3.446
 6436SOL    HW120207   1.029   3.329   3.501
 6436SOL    HW220208   0.997   3.383   3.350
 6437SOL     OW20209   1.484   2.323   5.946
 6437SOL    HW120210   1.437   2.358   6.026
 6437SOL    HW220211   1.417   2.297   5.876
 6438SOL     OW20212   1.370   4.764   6.447
 6438SOL    HW120213   1.282   4.801   6.416
 6438SOL    HW220214   1.354   4.686   6.508
 6439SOL     OW20215   6.124   0.827   3.237
 6439SOL    HW120216   6.089   0.917   3.213
 6439SOL    HW220217   6.221   0.834   3.260
 6440SOL     OW20218   3.202   0.881   5.906
 6440SOL    HW120219   3.269   0.812   5.933
 6440SOL    HW220220   3.114   0.836   5.888
 6441SOL     OW20221   0.063   1.198   1.950
 6441SOL    HW120222   0.009   1.265   2.000
 6441SOL    HW220223   0.158   1.202   1.980
 6442SOL     OW20224   2.340   2.107   4.821
 6442SOL    HW120225   2.371   2.050   4.897
 6442SOL    HW220226   2.302   2.192   4.857
 6443SOL     OW20227   3.380   2.424   6.025
 6443SOL    HW120228   3.296   2.475   6.005
 6443SOL    HW220229   3.359   2.327   6.031
 6444SOL     OW20230   6.504   2.772   4.820
 6444SOL    HW120231   6.509   2.867   4.789
 6444SOL    HW220232   6.425   2.727   4.779
 6445SOL     OW20233   4.132   3.508   3.189
 6445SOL    HW120234   4.144   3.410   3.208
 6445SOL    HW220235   4.140   3.559   3.274
 6446SOL     OW20236   0.911   2.071   0.259
 6446SOL    HW120237   0.901   2.097   0.163
 6446SOL    HW220238   0.990   2.010   0.269
 6447SOL     OW20239   6.151   4.379   1.965
 6447SOL    HW120240   6.063   4.360   2.008
 6447SOL    HW220241   6.136   4.421   1.875
 6448SOL     OW20242   4.942   4.913   1.291
 6448SOL    HW120243   4.976   4.918   1.197
 6448SOL    HW220244   4.870   4.844   1.298
 6449SOL     OW20245   2.754   4.954   2.260
 6449SOL    HW120246   2.807   4.878   2.224
 6449SOL    HW220247   2.812   5.035   2.266
 6450SOL     OW20248   1.127   3.817   0.281
 6450SOL    HW120249   1.171   3.773   0.203
 6450SOL    HW220250   1.028   3.819   0.267
 6451SOL     OW20251   2.772   1.924   5.943
 6451SOL    HW120252   2.869   1.900   5.939
 6451SOL    HW220253   2.755   1.976   6.027
 6452SOL     OW20254   5.053   3.588   2.630
 6452SOL    HW120255   5.003   3.638   2.701
 6452SOL    HW220256   5.011   3.498   2.618
 6453SOL     OW20257   2.927   6.859   1.568
 6453SOL    HW120258   2.849   6.919   1.586
 6453SOL    HW220259   2.895   6.765   1.560
 6454SOL     OW20260   0.451   1.685   2.096
 6454SOL    HW120261   0.517   1.610   2.091
 6454SOL    HW220262   0.474   1.754   2.027
 6455SOL     OW20263   6.913   3.955   3.567
 6455SOL    HW120264   6.922   3.951   3.467
 6455SOL    HW220265   6.819   3.930   3.592
 6456SOL     OW20266   1.245   0.834   2.803
 6456SOL    HW120267   1.341   0.857   2.818
 6456SOL    HW220268   1.192   0.858   2.884
 6457SOL     OW20269   4.877   6.418   1.574
 6457SOL    HW120270   4.927   6.368   1.644
 6457SOL    HW220271   4.796   6.366   1.547
 6458SOL     OW20272   1.628   5.271   5.035
 6458SOL    HW120273   1.640   5.312   5.126
 6458SOL    HW220274   1.687   5.317   4.969
 6459SOL     OW20275   5.820   2.464   2.882
 6459SOL    HW120276   5.818   2.364   2.880
 6459SOL    HW220277   5.828   2.495   2.977
 6460SOL     OW20278   5.546   6.061   5.862
 6460SOL    HW120279   5.532   6.048   5.960
 6460SOL    HW220280   5.528   5.976   5.814
 6461SOL     OW20281   2.962   4.948   0.234
 6461SOL    HW120282   2.881   4.942   0.176
 6461SOL    HW220283   3.021   4.870   0.217
 6462SOL     OW20284   0.523   2.897   4.471
 6462SOL    HW120285   0.430   2.897   4.508
 6462SOL    HW220286   0.570   2.981   4.498
 6463SOL     OW20287   5.282   6.555   0.768
 6463SOL    HW120288   5.306   6.534   0.673
 6463SOL    HW220289   5.361   6.541   0.827
 6464SOL     OW20290   1.497   5.952   5.474
 6464SOL    HW120291   1.556   5.977   5.551
 6464SOL    HW220292   1.410   5.917   5.510
 6465SOL     OW20293   6.578   2.480   2.522
 6465SOL    HW120294   6.494   2.441   2.559
 6465SOL    HW220295   6.649   2.409   2.518
 6466SOL     OW20296   6.970   1.761   6.607
 6466SOL    HW120297   0.013   1.797   6.673
 6466SOL    HW220298   6.888   1.818   6.607
 6467SOL     OW20299   4.476   0.526   0.820
 6467SOL    HW120300   4.520   0.536   0.731
 6467SOL    HW220301   4.408   0.452   0.816
 6468SOL     OW20302   3.550   6.229   1.805
 6468SOL    HW120303   3.635   6.266   1.842
 6468SOL    HW220304   3.569   6.142   1.760
 6469SOL     OW20305   3.398   1.885   4.035
 6469SOL    HW120306   3.354   1.918   4.118
 6469SOL    HW220307   3.335   1.825   3.985
 6470SOL     OW20308   6.180   2.499   6.920
 6470SOL    HW120309   6.131   2.587   6.923
 6470SOL    HW220310   6.248   2.496   6.992
 6471SOL     OW20311   0.962   6.390   5.154
 6471SOL    HW120312   1.026   6.424   5.223
 6471SOL    HW220313   0.924   6.467   5.103
 6472SOL     OW20314   6.021   5.685   3.203
 6472SOL    HW120315   5.949   5.698   3.135
 6472SOL    HW220316   6.110   5.681   3.158
 6473SOL     OW20317   1.915   2.077   5.272
 6473SOL    HW120318   1.988   2.010   5.281
 6473SOL    HW220319   1.855   2.072   5.352
 6474SOL     OW20320   3.753   5.611   5.614
 6474SOL    HW120321   3.825   5.566   5.666
 6474SOL    HW220322   3.791   5.687   5.562
 6475SOL     OW20323   5.869   5.194   3.663
 6475SOL    HW120324   5.874   5.167   3.567
 6475SOL    HW220325   5.853   5.293   3.669
 6476SOL     OW20326   4.734   3.114   6.388
 6476SOL    HW120327   4.784   3.198   6.367
 6476SOL    HW220328   4.638   3.126   6.362
 6477SOL     OW20329   6.331   5.148   0.668
 6477SOL    HW120330   6.372   5.233   0.701
 6477SOL    HW220331   6.300   5.159   0.574
 6478SOL     OW20332   3.305   6.718   2.318
 6478SOL    HW120333   3.282   6.814   2.301
 6478SOL    HW220334   3.245   6.659   2.264
 6479SOL     OW20335   3.177   5.026   3.972
 6479SOL    HW120336   3.180   5.058   4.067
 6479SOL    HW220337   3.119   4.945   3.967
 6480SOL     OW20338   2.521   1.323   6.979
 6480SOL    HW120339   2.575   1.301   6.897
 6480SOL    HW220340   2.582   1.333   0.034
 6481SOL     OW20341   3.396   2.538   1.737
 6481SOL    HW120342   3.448   2.465   1.691
 6481SOL    HW220343   3.460   2.604   1.777
 6482SOL     OW20344   6.605   2.254   6.087
 6482SOL    HW120345   6.654   2.172   6.056
 6482SOL    HW220346   6.564   2.300   6.008
 6483SOL     OW20347   0.838   6.598   3.953
 6483SOL    HW120348   0.781   6.678   3.934
 6483SOL    HW220349   0.855   6.592   4.052
 6484SOL     OW20350   2.741   1.928   2.850
 6484SOL    HW120351   2.646   1.926   2.817
 6484SOL    HW220352   2.763   1.838   2.889
 6485SOL     OW20353   1.534   5.681   3.970
 6485SOL    HW120354   1.617   5.737   3.962
 6485SOL    HW220355   1.550   5.592   3.927
 6486SOL     OW20356   0.773   5.248   2.697
 6486SOL    HW120357   0.792   5.334   2.652
 6486SOL    HW220358   0.690   5.257   2.753
 6487SOL     OW20359   0.814   6.567   5.027
 6487SOL    HW120360   0.759   6.640   5.067
 6487SOL    HW220361   0.754   6.495   4.993
 6488SOL     OW20362   4.335   5.815   4.959
 6488SOL    HW120363   4.385   5.901   4.968
 6488SOL    HW220364   4.393   5.740   4.990
 6489SOL     OW20365   3.247   3.577   6.311
 6489SOL    HW120366   3.152   3.604   6.328
 6489SOL    HW220367   3.250   3.517   6.231
 6490SOL     OW20368   2.749   1.589   6.397
 6490SOL    HW120369   2.846   1.612   6.387
 6490SOL    HW220370   2.729   1.505   6.347
 6491SOL     OW20371   2.756   0.831   1.691
 6491SOL    HW120372   2.759   0.929   1.668
 6491SOL    HW220373   2.804   0.816   1.777
 6492SOL     OW20374   3.984   3.479   5.357
 6492SOL    HW120375   4.017   3.569   5.330
 6492SOL    HW220376   3.937   3.485   5.445
 6493SOL     OW20377   1.323   4.528   6.579
 6493SOL    HW120378   1.345   4.475   6.498
 6493SOL    HW220379   1.384   4.502   6.654
 6494SOL     OW20380   6.860   6.467   2.572
 6494SOL    HW120381   6.887   6.373   2.592
 6494SOL    HW220382   6.841   6.515   2.657
 6495SOL     OW20383   6.655   0.434   4.212
 6495SOL    HW120384   6.562   0.409   4.184
 6495SOL    HW220385   6.720   0.368   4.173
 6496SOL     OW20386   5.757   6.845   1.647
 6496SOL    HW120387   5.748   6.852   1.548
 6496SOL    HW220388   5.712   6.923   1.690
 6497SOL     OW20389   1.211   0.236   1.161
 6497SOL    HW120390   1.151   0.238   1.241
 6497SOL    HW220391   1.242   0.328   1.140
 6498SOL     OW20392   0.589   4.077   4.352
 6498SOL    HW120393   0.607   4.174   4.334
 6498SOL    HW220394   0.524   4.042   4.285
 6499SOL     OW20395   5.491   3.763   4.444
 6499SOL    HW120396   5.473   3.722   4.533
 6499SOL    HW220397   5.433   3.844   4.432
 6500SOL     OW20398   0.175   4.151   2.311
 6500SOL    HW120399   0.228   4.235   2.297
 6500SOL    HW220400   0.232   4.072   2.288
 6501SOL     OW20401   0.146   1.262   1.539
 6501SOL    HW120402   0.217   1.310   1.590
 6501SOL    HW220403   0.188   1.190   1.483
 6502SOL     OW20404   6.830   3.587   1.670
 6502SOL    HW120405   6.828   3.629   1.579
 6502SOL    HW220406   6.925   3.572   1.697
 6503SOL     OW20407   5.437   0.914   3.709
 6503SOL    HW120408   5.521   0.860   3.720
 6503SOL    HW220409   5.370   0.884   3.776
 6504SOL     OW20410   4.085   5.953   0.327
 6504SOL    HW120411   4.175   5.922   0.299
 6504SOL    HW220412   4.078   6.052   0.315
 6505SOL     OW20413   4.385   6.544   6.155
 6505SOL    HW120414   4.389   6.622   6.218
 6505SOL    HW220415   4.391   6.577   6.061
 6506SOL     OW20416   0.083   3.101   3.430
 6506SOL    HW120417   0.132   3.153   3.360
 6506SOL    HW220418   0.148   3.052   3.488
 6507SOL     OW20419   2.813   5.821   6.170
 6507SOL    HW120420   2.732   5.879   6.156
 6507SOL    HW220421   2.785   5.737   6.216
 6508SOL     OW20422   1.458   0.403   2.611
 6508SOL    HW120423   1.503   0.319   2.579
 6508SOL    HW220424   1.518   0.481   2.596
 6509SOL     OW20425   4.951   1.933   4.820
 6509SOL    HW120426   5.042   1.943   4.862
 6509SOL    HW220427   4.881   1.957   4.886
 6510SOL     OW20428   4.994   4.984   6.834
 6510SOL    HW120429   5.036   4.965   6.922
 6510SOL    HW220430   5.049   5.053   6.785
 6511SOL     OW20431   4.114   1.101   5.149
 6511SOL    HW120432   4.189   1.072   5.209
 6511SOL    HW220433   4.043   1.147   5.203
 6512SOL     OW20434   3.418   6.887   2.624
 6512SOL    HW120435   3.395   6.795   2.592
 6512SOL    HW220436   3.374   6.955   2.564
 6513SOL     OW20437   2.113   5.977   4.065
 6513SOL    HW120438   2.072   5.963   3.975
 6513SOL    HW220439   2.146   6.072   4.071
 6514SOL     OW20440   5.840   0.607   4.667
 6514SOL    HW120441   5.772   0.628   4.597
 6514SOL    HW220442   5.798   0.552   4.739
 6515SOL     OW20443   1.272   3.544   2.419
 6515SOL    HW120444   1.359   3.591   2.402
 6515SOL    HW220445   1.225   3.588   2.496
 6516SOL     OW20446   6.725   3.347   1.324
 6516SOL    HW120447   6.782   3.388   1.395
 6516SOL    HW220448   6.768   3.361   1.235
 6517SOL     OW20449   0.299   1.928   1.136
 6517SOL    HW120450   0.204   1.948   1.111
 6517SOL    HW220451   0.307   1.832   1.162
 6518SOL     OW20452   0.029   0.318   2.258
 6518SOL    HW120453   0.034   0.391   2.326
 6518SOL    HW220454   7.011   0.237   2.300
 6519SOL     OW20455   0.440   1.725   2.903
 6519SOL    HW120456   0.378   1.653   2.933
 6519SOL    HW220457   0.523   1.685   2.866
 6520SOL     OW20458   6.720   5.285   6.924
 6520SOL    HW120459   6.679   5.357   6.981
 6520SOL    HW220460   6.660   5.265   6.847
 6521SOL     OW20461   2.063   2.642   3.813
 6521SOL    HW120462   2.069   2.629   3.912
 6521SOL    HW220463   2.007   2.569   3.774
 6522SOL     OW20464   2.533   4.586   5.486
 6522SOL    HW120465   2.546   4.511   5.421
 6522SOL    HW220466   2.442   4.626   5.473
 6523SOL     OW20467   3.800   0.388   6.810
 6523SOL    HW120468   3.898   0.409   6.802
 6523SOL    HW220469   3.764   0.361   6.721
 6524SOL     OW20470   2.780   2.600   1.547
 6524SOL    HW120471   2.779   2.577   1.450
 6524SOL    HW220472   2.861   2.656   1.567
 6525SOL     OW20473   2.022   5.043   3.218
 6525SOL    HW120474   2.067   5.117   3.267
 6525SOL    HW220475   1.947   5.081   3.163
 6526SOL     OW20476   0.923   0.536   1.246
 6526SOL    HW120477   0.969   0.578   1.168
 6526SOL    HW220478   0.832   0.575   1.256
 6527SOL     OW20479   6.734   1.980   0.432
 6527SOL    HW120480   6.828   1.947   0.428
 6527SOL    HW220481   6.702   1.976   0.526
 6528SOL     OW20482   6.402   1.839   5.502
 6528SOL    HW120483   6.310   1.820   5.468
 6528SOL    HW220484   6.458   1.877   5.428
 6529SOL     OW20485   1.171   0.860   2.198
 6529SOL    HW120486   1.247   0.857   2.263
 6529SOL    HW220487   1.202   0.898   2.111
 6530SOL     OW20488   0.296   1.822   0.799
 6530SOL    HW120489   0.278   1.920   0.808
 6530SOL    HW220490   0.382   1.799   0.845
 6531SOL     OW20491   4.779   3.672   5.440
 6531SOL    HW120492   4.733   3.638   5.358
 6531SOL    HW220493   4.733   3.636   5.522
 6532SOL     OW20494   1.800   1.215   1.229
 6532SOL    HW120495   1.867   1.289   1.229
 6532SOL    HW220496   1.723   1.240   1.171
 6533SOL     OW20497   4.015   6.015   0.601
 6533SOL    HW120498   3.968   5.980   0.519
 6533SOL    HW220499   4.112   6.024   0.582
 6534SOL     OW20500   4.940   5.105   1.979
 6534SOL    HW120501   4.934   5.139   2.073
 6534SOL    HW220502   4.860   5.136   1.927
 6535SOL     OW20503   6.055   4.458   4.560
 6535SOL    HW120504   6.151   4.465   4.588
 6535SOL    HW220505   6.044   4.496   4.468
 6536SOL     OW20506   0.411   1.710   4.941
 6536SOL    HW120507   0.471   1.790   4.952
 6536SOL    HW220508   0.425   1.647   5.017
 6537SOL     OW20509   6.709   5.054   5.226
 6537SOL    HW120510   6.722   4.988   5.301
 6537SOL    HW220511   6.704   5.006   5.139
 6538SOL     OW20512   1.121   3.507   5.839
 6538SOL    HW120513   1.069   3.550   5.913
 6538SOL    HW220514   1.217   3.502   5.865
 6539SOL     OW20515   4.396   0.573   0.097
 6539SOL    HW120516   4.401   0.667   0.064
 6539SOL    HW220517   4.489   0.540   0.116
 6540SOL     OW20518   3.338   2.791   5.891
 6540SOL    HW120519   3.388   2.731   5.828
 6540SOL    HW220520   3.264   2.837   5.842
 6541SOL     OW20521   5.634   2.088   5.907
 6541SOL    HW120522   5.563   2.030   5.866
 6541SOL    HW220523   5.593   2.146   5.977
 6542SOL     OW20524   1.060   3.014   4.433
 6542SOL    HW120525   1.042   2.925   4.475
 6542SOL    HW220526   1.155   3.018   4.401
 6543SOL     OW20527   3.919   2.692   5.547
 6543SOL    HW120528   4.012   2.724   5.530
 6543SOL    HW220529   3.867   2.694   5.461
 6544SOL     OW20530   1.237   6.240   2.823
 6544SOL    HW120531   1.331   6.268   2.839
 6544SOL    HW220532   1.204   6.282   2.739
 6545SOL     OW20533   4.140   0.356   0.355
 6545SOL    HW120534   4.066   0.325   0.296
 6545SOL    HW220535   4.228   0.336   0.311
 6546SOL     OW20536   3.802   4.023   6.162
 6546SOL    HW120537   3.758   3.949   6.212
 6546SOL    HW220538   3.760   4.031   6.071
 6547SOL     OW20539   4.816   0.937   6.282
 6547SOL    HW120540   4.779   1.002   6.216
 6547SOL    HW220541   4.902   0.971   6.319
 6548SOL     OW20542   1.568   2.910   0.255
 6548SOL    HW120543   1.486   2.873   0.299
 6548SOL    HW220544   1.644   2.845   0.266
 6549SOL     OW20545   4.261   0.346   2.245
 6549SOL    HW120546   4.222   0.317   2.332
 6549SOL    HW220547   4.221   0.292   2.171
 6550SOL     OW20548   0.369   6.707   3.815
 6550SOL    HW120549   0.345   6.732   3.909
 6550SOL    HW220550   0.426   6.624   3.816
 6551SOL     OW20551   2.385   3.633   1.639
 6551SOL    HW120552   2.290   3.662   1.626
 6551SOL    HW220553   2.390   3.566   1.712
 6552SOL     OW20554   2.244   6.862   0.924
 6552SOL    HW120555   2.316   6.794   0.941
 6552SOL    HW220556   2.172   6.852   0.994
 6553SOL     OW20557   1.070   2.219   3.012
 6553SOL    HW120558   1.077   2.318   3.025
 6553SOL    HW220559   1.021   2.200   2.927
 6554SOL     OW20560   2.428   0.577   4.422
 6554SOL    HW120561   2.433   0.662   4.371
 6554SOL    HW220562   2.477   0.587   4.509
 6555SOL     OW20563   5.712   2.205   3.663
 6555SOL    HW120564   5.673   2.203   3.571
 6555SOL    HW220565   5.640   2.189   3.730
 6556SOL     OW20566   6.171   3.150   3.034
 6556SOL    HW120567   6.223   3.235   3.041
 6556SOL    HW220568   6.104   3.157   2.961
 6557SOL     OW20569   2.684   0.688   3.393
 6557SOL    HW120570   2.588   0.670   3.412
 6557SOL    HW220571   2.724   0.739   3.470
 6558SOL     OW20572   6.201   5.765   0.620
 6558SOL    HW120573   6.194   5.743   0.523
 6558SOL    HW220574   6.133   5.835   0.643
 6559SOL     OW20575   6.992   3.745   6.150
 6559SOL    HW120576   0.026   3.785   6.222
 6559SOL    HW220577   6.918   3.808   6.126
 6560SOL     OW20578   3.778   4.800   1.178
 6560SOL    HW120579   3.732   4.842   1.256
 6560SOL    HW220580   3.838   4.867   1.135
 6561SOL     OW20581   3.429   4.450   1.103
 6561SOL    HW120582   3.341   4.475   1.144
 6561SOL    HW220583   3.424   4.465   1.004
 6562SOL     OW20584   5.719   1.817   0.498
 6562SOL    HW120585   5.634   1.825   0.551
 6562SOL    HW220586   5.796   1.802   0.560
 6563SOL     OW20587   4.935   6.509   5.949
 6563SOL    HW120588   4.860   6.466   5.999
 6563SOL    HW220589   5.007   6.535   6.013
 6564SOL     OW20590   6.366   3.433   1.662
 6564SOL    HW120591   6.317   3.419   1.575
 6564SOL    HW220592   6.307   3.483   1.725
 6565SOL     OW20593   6.201   6.677   3.040
 6565SOL    HW120594   6.284   6.630   3.011
 6565SOL    HW220595   6.194   6.765   2.994
 6566SOL     OW20596   3.519   6.190   2.683
 6566SOL    HW120597   3.509   6.105   2.735
 6566SOL    HW220598   3.531   6.266   2.747
 6567SOL     OW20599   5.049   1.083   2.068
 6567SOL    HW120600   5.046   1.090   2.168
 6567SOL    HW220601   5.052   0.987   2.041
 6568SOL     OW20602   3.657   1.843   3.267
 6568SOL    HW120603   3.750   1.836   3.302
 6568SOL    HW220604   3.646   1.782   3.189
 6569SOL     OW20605   2.270   2.609   6.754
 6569SOL    HW120606   2.307   2.693   6.793
 6569SOL    HW220607   2.263   2.540   6.826
 6570SOL     OW20608   3.106   1.131   2.673
 6570SOL    HW120609   3.037   1.136   2.746
 6570SOL    HW220610   3.188   1.182   2.701
 6571SOL     OW20611   2.687   5.100   2.544
 6571SOL    HW120612   2.692   5.012   2.591
 6571SOL    HW220613   2.771   5.114   2.492
 6572SOL     OW20614   7.014   4.728   3.939
 6572SOL    HW120615   0.001   4.629   3.946
 6572SOL    HW220616   7.000   4.767   4.030
 6573SOL     OW20617   0.584   1.495   3.128
 6573SOL    HW120618   0.497   1.520   3.087
 6573SOL    HW220619   0.574   1.489   3.227
 6574SOL     OW20620   2.674   5.550   2.994
 6574SOL    HW120621   2.653   5.517   2.902
 6574SOL    HW220622   2.770   5.579   2.998
 6575SOL     OW20623   0.406   6.341   3.195
 6575SOL    HW120624   0.381   6.435   3.171
 6575SOL    HW220625   0.327   6.296   3.237
 6576SOL     OW20626   3.221   6.106   0.857
 6576SOL    HW120627   3.141   6.157   0.887
 6576SOL    HW220628   3.200   6.059   0.771
 6577SOL     OW20629   1.448   1.944   3.407
 6577SOL    HW120630   1.424   1.969   3.500
 6577SOL    HW220631   1.454   2.026   3.350
 6578SOL     OW20632   1.112   6.147   2.003
 6578SOL    HW120633   1.084   6.146   2.099
 6578SOL    HW220634   1.112   6.241   1.969
 6579SOL     OW20635   6.716   2.947   4.003
 6579SOL    HW120636   6.693   2.868   3.946
 6579SOL    HW220637   6.640   2.968   4.064
 6580SOL     OW20638   0.586   1.987   0.025
 6580SOL    HW120639   0.554   2.017   0.115
 6580SOL    HW220640   0.516   2.009   6.979
 6581SOL     OW20641   2.102   0.988   0.833
 6581SOL    HW120642   2.067   0.983   0.740
 6581SOL    HW220643   2.199   0.961   0.834
 6582SOL     OW20644   6.920   0.925   2.935
 6582SOL    HW120645   6.998   0.980   2.964
 6582SOL    HW220646   6.921   0.916   2.836
 6583SOL     OW20647   4.666   6.391   5.249
 6583SOL    HW120648   4.704   6.349   5.167
 6583SOL    HW220649   4.740   6.426   5.306
 6584SOL     OW20650   4.051   1.856   0.394
 6584SOL    HW120651   4.117   1.782   0.378
 6584SOL    HW220652   3.961   1.828   0.362
 6585SOL     OW20653   6.387   6.057   0.066
 6585SOL    HW120654   6.333   6.139   0.084
 6585SOL    HW220655   6.338   5.997   0.004
 6586SOL     OW20656   6.758   1.724   5.904
 6586SOL    HW120657   6.699   1.659   5.856
 6586SOL    HW220658   6.729   1.817   5.884
 6587SOL     OW20659   1.577   4.804   6.680
 6587SOL    HW120660   1.608   4.898   6.690
 6587SOL    HW220661   1.506   4.800   6.609
 6588SOL     OW20662   0.600   2.849   1.920
 6588SOL    HW120663   0.657   2.791   1.978
 6588SOL    HW220664   0.506   2.815   1.921
 6589SOL     OW20665   4.468   0.913   1.883
 6589SOL    HW120666   4.476   0.921   1.983
 6589SOL    HW220667   4.485   1.002   1.841
 6590SOL     OW20668   0.762   0.556   6.256
 6590SOL    HW120669   0.859   0.558   6.280
 6590SOL    HW220670   0.716   0.483   6.307
 6591SOL     OW20671   5.328   5.878   4.171
 6591SOL    HW120672   5.287   5.926   4.250
 6591SOL    HW220673   5.272   5.895   4.090
 6592SOL     OW20674   5.108   6.009   2.972
 6592SOL    HW120675   5.114   6.109   2.974
 6592SOL    HW220676   5.014   5.981   2.953
 6593SOL     OW20677   2.723   2.353   2.335
 6593SOL    HW120678   2.696   2.266   2.377
 6593SOL    HW220679   2.818   2.346   2.303
 6594SOL     OW20680   3.477   1.455   5.606
 6594SOL    HW120681   3.382   1.451   5.635
 6594SOL    HW220682   3.515   1.545   5.629
 6595SOL     OW20683   1.188   4.047   6.632
 6595SOL    HW120684   1.206   4.145   6.634
 6595SOL    HW220685   1.263   3.999   6.679
 6596SOL     OW20686   3.536   6.996   4.075
 6596SOL    HW120687   3.454   0.020   4.108
 6596SOL    HW220688   3.515   6.899   4.060
 6597SOL     OW20689   2.059   5.073   1.978
 6597SOL    HW120690   2.066   5.009   2.055
 6597SOL    HW220691   1.965   5.074   1.944
 6598SOL     OW20692   1.901   4.882   3.401
 6598SOL    HW120693   1.926   4.941   3.477
 6598SOL    HW220694   1.911   4.932   3.315
 6599SOL     OW20695   4.437   6.007   6.620
 6599SOL    HW120696   4.495   5.944   6.672
 6599SOL    HW220697   4.419   5.969   6.529
 6600SOL     OW20698   4.112   6.458   4.517
 6600SOL    HW120699   4.173   6.516   4.462
 6600SOL    HW220700   4.017   6.484   4.500
 6601SOL     OW20701   0.844   1.898   3.910
 6601SOL    HW120702   0.912   1.857   3.970
 6601SOL    HW220703   0.792   1.826   3.864
 6602SOL     OW20704   1.828   0.552   1.340
 6602SOL    HW120705   1.747   0.570   1.394
 6602SOL    HW220706   1.803   0.541   1.244
 6603SOL     OW20707   0.798   3.056   3.671
 6603SOL    HW120708   0.783   3.153   3.651
 6603SOL    HW220709   0.729   3.024   3.736
 6604SOL     OW20710   2.094   6.754   1.843
 6604SOL    HW120711   2.123   6.823   1.777
 6604SOL    HW220712   1.994   6.745   1.839
 6605SOL     OW20713   5.657   5.333   2.561
 6605SOL    HW120714   5.584   5.265   2.570
 6605SOL    HW220715   5.623   5.413   2.512
 6606SOL     OW20716   6.674   4.993   2.353
 6606SOL    HW120717   6.593   4.968   2.300
 6606SOL    HW220718   6.671   5.091   2.375
 6607SOL     OW20719   0.508   5.004   3.526
 6607SOL    HW120720   0.510   4.924   3.467
 6607SOL    HW220721   0.546   5.082   3.477
 6608SOL     OW20722   6.978   6.390   6.824
 6608SOL    HW120723   0.053   6.379   6.808
 6608SOL    HW220724   6.933   6.301   6.819
 6609SOL     OW20725   5.342   1.213   6.973
 6609SOL    HW120726   5.376   1.226   0.044
 6609SOL    HW220727   5.412   1.239   6.908
 6610SOL     OW20728   2.557   6.624   0.220
 6610SOL    HW120729   2.652   6.638   0.246
 6610SOL    HW220730   2.514   6.712   0.200
 6611SOL     OW20731   4.731   2.855   3.292
 6611SOL    HW120732   4.679   2.937   3.317
 6611SOL    HW220733   4.764   2.865   3.198
 6612SOL     OW20734   0.168   2.252   6.338
 6612SOL    HW120735   0.087   2.196   6.322
 6612SOL    HW220736   0.144   2.349   6.330
 6613SOL     OW20737   6.375   6.431   5.656
 6613SOL    HW120738   6.337   6.422   5.564
 6613SOL    HW220739   6.377   6.341   5.700
 6614SOL     OW20740   4.434   6.401   6.846
 6614SOL    HW120741   4.473   6.309   6.841
 6614SOL    HW220742   4.491   6.458   6.905
 6615SOL     OW20743   1.278   5.500   1.712
 6615SOL    HW120744   1.184   5.533   1.716
 6615SOL    HW220745   1.283   5.407   1.750
 6616SOL     OW20746   4.653   0.442   6.241
 6616SOL    HW120747   4.708   0.524   6.257
 6616SOL    HW220748   4.610   0.415   6.327
 6617SOL     OW20749   4.383   6.040   3.493
 6617SOL    HW120750   4.312   6.054   3.561
 6617SOL    HW220751   4.445   5.968   3.523
 6618SOL     OW20752   1.353   1.662   2.646
 6618SOL    HW120753   1.255   1.650   2.659
 6618SOL    HW220754   1.388   1.729   2.711
 6619SOL     OW20755   4.990   0.507   4.122
 6619SOL    HW120756   4.970   0.576   4.191
 6619SOL    HW220757   5.003   0.419   4.166
 6620SOL     OW20758   1.854   3.487   5.166
 6620SOL    HW120759   1.855   3.398   5.121
 6620SOL    HW220760   1.931   3.542   5.134
 6621SOL     OW20761   3.789   2.993   5.388
 6621SOL    HW120762   3.880   2.966   5.357
 6621SOL    HW220763   3.768   3.085   5.355
 6622SOL     OW20764   6.127   5.994   2.000
 6622SOL    HW120765   6.116   5.978   1.902
 6622SOL    HW220766   6.049   5.956   2.049
 6623SOL     OW20767   3.396   3.567   5.327
 6623SOL    HW120768   3.450   3.504   5.271
 6623SOL    HW220769   3.325   3.609   5.270
 6624SOL     OW20770   0.629   4.109   5.289
 6624SOL    HW120771   0.555   4.045   5.307
 6624SOL    HW220772   0.688   4.116   5.369
 6625SOL     OW20773   4.998   1.682   5.107
 6625SOL    HW120774   5.065   1.658   5.036
 6625SOL    HW220775   5.027   1.764   5.155
 6626SOL     OW20776   3.297   6.940   5.662
 6626SOL    HW120777   3.312   6.855   5.713
 6626SOL    HW220778   3.272   7.013   5.726
 6627SOL     OW20779   1.813   6.603   3.762
 6627SOL    HW120780   1.803   6.698   3.793
 6627SOL    HW220781   1.829   6.544   3.841
 6628SOL     OW20782   5.758   4.754   4.197
 6628SOL    HW120783   5.765   4.772   4.099
 6628SOL    HW220784   5.778   4.839   4.247
 6629SOL     OW20785   5.033   5.864   6.263
 6629SOL    HW120786   5.002   5.773   6.289
 6629SOL    HW220787   4.988   5.892   6.178
 6630SOL     OW20788   3.690   2.337   1.356
 6630SOL    HW120789   3.766   2.393   1.321
 6630SOL    HW220790   3.712   2.240   1.345
 6631SOL     OW20791   2.265   5.759   4.060
 6631SOL    HW120792   2.324   5.731   3.985
 6631SOL    HW220793   2.207   5.835   4.031
 6632SOL     OW20794   0.810   0.966   1.077
 6632SOL    HW120795   0.771   0.875   1.089
 6632SOL    HW220796   0.909   0.960   1.080
 6633SOL     OW20797   2.229   5.348   6.124
 6633SOL    HW120798   2.193   5.418   6.186
 6633SOL    HW220799   2.183   5.261   6.142
 6634SOL     OW20800   5.077   1.886   5.249
 6634SOL    HW120801   5.038   1.936   5.327
 6634SOL    HW220802   5.167   1.924   5.227
 6635SOL     OW20803   4.721   4.823   3.855
 6635SOL    HW120804   4.730   4.922   3.842
 6635SOL    HW220805   4.626   4.800   3.877
 6636SOL     OW20806   4.259   1.699   0.354
 6636SOL    HW120807   4.285   1.649   0.271
 6636SOL    HW220808   4.338   1.749   0.389
 6637SOL     OW20809   1.864   6.840   6.876
 6637SOL    HW120810   1.850   6.780   6.955
 6637SOL    HW220811   1.934   6.802   6.816
 6638SOL     OW20812   2.991   3.211   3.089
 6638SOL    HW120813   2.944   3.278   3.031
 6638SOL    HW220814   2.989   3.243   3.184
 6639SOL     OW20815   3.943   4.371   6.998
 6639SOL    HW120816   3.887   4.364   0.059
 6639SOL    HW220817   4.010   4.297   6.998
 6640SOL     OW20818   0.148   1.995   5.287
 6640SOL    HW120819   0.062   1.999   5.339
 6640SOL    HW220820   0.138   1.929   5.212
 6641SOL     OW20821   3.264   1.731   0.303
 6641SOL    HW120822   3.243   1.707   0.208
 6641SOL    HW220823   3.362   1.726   0.318
 6642SOL     OW20824   3.074   5.799   6.342
 6642SOL    HW120825   3.098   5.881   6.289
 6642SOL    HW220826   2.984   5.812   6.383
 6643SOL     OW20827   6.254   6.305   0.005
 6643SOL    HW120828   6.240   6.361   6.946
 6643SOL    HW220829   6.249   6.363   0.086
 6644SOL     OW20830   2.247   5.826   2.324
 6644SOL    HW120831   2.190   5.745   2.340
 6644SOL    HW220832   2.246   5.848   2.227
 6645SOL     OW20833   5.241   3.730   0.614
 6645SOL    HW120834   5.225   3.634   0.637
 6645SOL    HW220835   5.319   3.737   0.552
 6646SOL     OW20836   4.654   1.357   5.235
 6646SOL    HW120837   4.594   1.343   5.157
 6646SOL    HW220838   4.665   1.455   5.252
 6647SOL     OW20839   4.358   7.014   0.229
 6647SOL    HW120840   4.447   6.970   0.216
 6647SOL    HW220841   4.298   6.953   0.281
 6648SOL     OW20842   3.256   6.641   4.634
 6648SOL    HW120843   3.218   6.686   4.553
 6648SOL    HW220844   3.220   6.685   4.717
 6649SOL     OW20845   6.069   2.015   5.838
 6649SOL    HW120846   6.144   2.032   5.773
 6649SOL    HW220847   6.032   2.103   5.869
 6650SOL     OW20848   3.747   1.891   4.768
 6650SOL    HW120849   3.811   1.831   4.816
 6650SOL    HW220850   3.653   1.861   4.786
 6651SOL     OW20851   1.571   1.401   5.977
 6651SOL    HW120852   1.514   1.325   6.007
 6651SOL    HW220853   1.540   1.485   6.022
 6652SOL     OW20854   0.413   4.690   6.641
 6652SOL    HW120855   0.421   4.593   6.617
 6652SOL    HW220856   0.335   4.730   6.594
 6653SOL     OW20857   4.261   2.924   1.050
 6653SOL    HW120858   4.297   2.914   0.957
 6653SOL    HW220859   4.319   2.872   1.114
 6654SOL     OW20860   1.799   5.509   2.213
 6654SOL    HW120861   1.742   5.490   2.134
 6654SOL    HW220862   1.744   5.501   2.297
 6655SOL     OW20863   6.436   6.231   2.773
 6655SOL    HW120864   6.502   6.276   2.833
 6655SOL    HW220865   6.478   6.215   2.684
 6656SOL     OW20866   6.051   2.177   3.136
 6656SOL    HW120867   5.980   2.209   3.198
 6656SOL    HW220868   6.074   2.250   3.071
 6657SOL     OW20869   6.086   3.558   4.874
 6657SOL    HW120870   6.111   3.654   4.889
 6657SOL    HW220871   6.046   3.548   4.783
 6658SOL     OW20872   5.292   0.066   5.821
 6658SOL    HW120873   5.269   0.139   5.756
 6658SOL    HW220874   5.215   0.003   5.828
 6659SOL     OW20875   1.633   2.895   1.223
 6659SOL    HW120876   1.558   2.955   1.247
 6659SOL    HW220877   1.688   2.875   1.304
 6660SOL     OW20878   1.317   5.062   1.620
 6660SOL    HW120879   1.320   5.121   1.701
 6660SOL    HW220880   1.406   5.018   1.607
 6661SOL     OW20881   2.463   0.089   5.206
 6661SOL    HW120882   2.558   0.121   5.201
 6661SOL    HW220883   2.451   0.029   5.285
 6662SOL     OW20884   1.540   0.979   0.349
 6662SOL    HW120885   1.625   1.013   0.389
 6662SOL    HW220886   1.467   0.983   0.417
 6663SOL     OW20887   6.538   6.570   4.800
 6663SOL    HW120888   6.611   6.508   4.827
 6663SOL    HW220889   6.453   6.518   4.786
 6664SOL     OW20890   2.043   6.870   1.122
 6664SOL    HW120891   1.986   6.952   1.109
 6664SOL    HW220892   2.052   6.851   1.220
 6665SOL     OW20893   1.849   0.010   5.063
 6665SOL    HW120894   1.847   0.066   4.980
 6665SOL    HW220895   1.943   0.007   5.098
 6666SOL     OW20896   6.372   6.047   5.456
 6666SOL    HW120897   6.410   5.955   5.469
 6666SOL    HW220898   6.393   6.103   5.536
 6667SOL     OW20899   6.874   6.624   5.435
 6667SOL    HW120900   6.850   6.596   5.528
 6667SOL    HW220901   6.932   6.554   5.392
 6668SOL     OW20902   6.443   6.404   0.821
 6668SOL    HW120903   6.382   6.431   0.895
 6668SOL    HW220904   6.527   6.366   0.859
 6669SOL     OW20905   3.122   2.129   1.963
 6669SOL    HW120906   3.202   2.146   2.021
 6669SOL    HW220907   3.051   2.196   1.985
 6670SOL     OW20908   3.011   1.082   5.983
 6670SOL    HW120909   3.025   1.127   6.071
 6670SOL    HW220910   3.067   0.999   5.979
 6671SOL     OW20911   5.197   6.790   6.875
 6671SOL    HW120912   5.256   6.741   6.939
 6671SOL    HW220913   5.248   6.865   6.834
 6672SOL     OW20914   0.127   1.903   0.589
 6672SOL    HW120915   0.151   1.999   0.600
 6672SOL    HW220916   0.156   1.851   0.669
 6673SOL     OW20917   4.719   4.218   3.537
 6673SOL    HW120918   4.770   4.138   3.507
 6673SOL    HW220919   4.706   4.214   3.636
 6674SOL     OW20920   6.821   4.196   0.444
 6674SOL    HW120921   6.802   4.118   0.504
 6674SOL    HW220922   6.864   4.163   0.360
 6675SOL     OW20923   6.277   2.815   7.007
 6675SOL    HW120924   6.187   2.784   6.977
 6675SOL    HW220925   6.297   2.778   0.075
 6676SOL     OW20926   0.433   3.343   4.737
 6676SOL    HW120927   0.450   3.304   4.827
 6676SOL    HW220928   0.458   3.440   4.738
 6677SOL     OW20929   0.485   1.502   6.594
 6677SOL    HW120930   0.542   1.452   6.529
 6677SOL    HW220931   0.536   1.517   6.678
 6678SOL     OW20932   2.996   4.373   0.697
 6678SOL    HW120933   3.056   4.334   0.627
 6678SOL    HW220934   3.018   4.332   0.786
 6679SOL     OW20935   3.941   0.248   3.919
 6679SOL    HW120936   3.949   0.303   3.836
 6679SOL    HW220937   3.963   0.303   3.999
 6680SOL     OW20938   4.324   6.546   6.529
 6680SOL    HW120939   4.280   6.470   6.481
 6680SOL    HW220940   4.296   6.546   6.625
 6681SOL     OW20941   4.776   6.046   0.509
 6681SOL    HW120942   4.846   6.090   0.565
 6681SOL    HW220943   4.807   5.955   0.481
 6682SOL     OW20944   2.079   4.967   6.913
 6682SOL    HW120945   2.094   5.026   6.992
 6682SOL    HW220946   2.107   4.874   6.936
 6683SOL     OW20947   5.836   3.305   5.169
 6683SOL    HW120948   5.918   3.332   5.220
 6683SOL    HW220949   5.757   3.304   5.230
 6684SOL     OW20950   4.101   6.641   2.337
 6684SOL    HW120951   4.022   6.703   2.334
 6684SOL    HW220952   4.099   6.589   2.422
 6685SOL     OW20953   4.699   2.787   6.037
 6685SOL    HW120954   4.644   2.871   6.040
 6685SOL    HW220955   4.796   2.811   6.035
 6686SOL     OW20956   5.558   5.788   4.082
 6686SOL    HW120957   5.474   5.819   4.126
 6686SOL    HW220958   5.592   5.706   4.128
 6687SOL     OW20959   0.738   2.897   2.196
 6687SOL    HW120960   0.826   2.944   2.200
 6687SOL    HW220961   0.696   2.899   2.287
 6688SOL     OW20962   3.730   5.127   1.093
 6688SOL    HW120963   3.757   5.145   1.187
 6688SOL    HW220964   3.805   5.151   1.032
 6689SOL     OW20965   4.999   4.326   5.587
 6689SOL    HW120966   5.053   4.256   5.541
 6689SOL    HW220967   4.903   4.318   5.558
 6690SOL     OW20968   0.428   0.066   1.140
 6690SOL    HW120969   0.426   7.006   1.084
 6690SOL    HW220970   0.494   0.055   1.215
 6691SOL     OW20971   1.991   0.613   2.479
 6691SOL    HW120972   1.925   0.634   2.550
 6691SOL    HW220973   2.055   0.690   2.470
 6692SOL     OW20974   3.986   3.926   3.141
 6692SOL    HW120975   4.029   3.836   3.133
 6692SOL    HW220976   3.987   3.971   3.051
 6693SOL     OW20977   4.509   2.382   4.864
 6693SOL    HW120978   4.492   2.378   4.766
 6693SOL    HW220979   4.423   2.371   4.913
 6694SOL     OW20980   4.181   6.251   1.664
 6694SOL    HW120981   4.160   6.347   1.680
 6694SOL    HW220982   4.118   6.194   1.716
 6695SOL     OW20983   2.663   2.212   6.301
 6695SOL    HW120984   2.702   2.158   6.376
 6695SOL    HW220985   2.707   2.186   6.215
 6696SOL     OW20986   3.799   3.070   4.032
 6696SOL    HW120987   3.801   3.041   3.936
 6696SOL    HW220988   3.889   3.106   4.057
 6697SOL     OW20989   4.736   1.895   3.099
 6697SOL    HW120990   4.834   1.881   3.103
 6697SOL    HW220991   4.690   1.830   3.160
 6698SOL     OW20992   2.718   3.110   1.023
 6698SOL    HW120993   2.719   3.177   1.097
 6698SOL    HW220994   2.782   3.138   0.952
 6699SOL     OW20995   2.028   6.584   5.638
 6699SOL    HW120996   2.082   6.554   5.717
 6699SOL    HW220997   2.085   6.640   5.578
 6700SOL     OW20998   6.913   1.670   1.292
 6700SOL    HW120999   6.928   1.644   1.197
 6700SOL    HW221000   6.996   1.714   1.328
 6701SOL     OW21001   5.334   5.220   1.498
 6701SOL    HW121002   5.381   5.234   1.585
 6701SOL    HW221003   5.400   5.188   1.430
 6702SOL     OW21004   1.971   2.665   1.473
 6702SOL    HW121005   1.886   2.622   1.502
 6702SOL    HW221006   2.047   2.631   1.529
 6703SOL     OW21007   6.726   0.247   0.715
 6703SOL    HW121008   6.825   0.255   0.715
 6703SOL    HW221009   6.693   0.232   0.621
 6704SOL     OW21010   3.967   2.154   3.346
 6704SOL    HW121011   3.963   2.177   3.248
 6704SOL    HW221012   4.044   2.202   3.388
 6705SOL     OW21013   5.757   2.604   0.366
 6705SOL    HW121014   5.732   2.695   0.333
 6705SOL    HW221015   5.675   2.558   0.401
 6706SOL     OW21016   0.878   5.749   0.861
 6706SOL    HW121017   0.888   5.844   0.833
 6706SOL    HW221018   0.936   5.732   0.941
 6707SOL     OW21019   5.571   6.396   3.307
 6707SOL    HW121020   5.586   6.361   3.399
 6707SOL    HW221021   5.511   6.476   3.311
 6708SOL     OW21022   5.755   5.272   1.421
 6708SOL    HW121023   5.672   5.220   1.439
 6708SOL    HW221024   5.730   5.364   1.390
 6709SOL     OW21025   1.205   5.436   2.837
 6709SOL    HW121026   1.111   5.455   2.868
 6709SOL    HW221027   1.206   5.427   2.738
 6710SOL     OW21028   3.969   0.647   6.353
 6710SOL    HW121029   3.890   0.694   6.313
 6710SOL    HW221030   3.937   0.575   6.415
 6711SOL     OW21031   4.994   6.274   5.798
 6711SOL    HW121032   4.958   6.346   5.857
 6711SOL    HW221033   5.015   6.193   5.854
 6712SOL     OW21034   5.418   3.639   1.388
 6712SOL    HW121035   5.424   3.544   1.358
 6712SOL    HW221036   5.500   3.663   1.440
 6713SOL     OW21037   0.841   0.762   3.479
 6713SOL    HW121038   0.755   0.782   3.431
 6713SOL    HW221039   0.903   0.839   3.469
 6714SOL     OW21040   6.899   1.540   6.200
 6714SOL    HW121041   6.999   1.544   6.195
 6714SOL    HW221042   6.872   1.494   6.284
 6715SOL     OW21043   1.752   0.618   1.040
 6715SOL    HW121044   1.672   0.571   1.002
 6715SOL    HW221045   1.797   0.670   0.968
 6716SOL     OW21046   7.007   5.842   1.881
 6716SOL    HW121047   0.060   5.899   1.849
 6716SOL    HW221048   0.021   5.765   1.933
 6717SOL     OW21049   3.201   3.192   6.315
 6717SOL    HW121050   3.135   3.117   6.320
 6717SOL    HW221051   3.170   3.267   6.372
 6718SOL     OW21052   4.515   0.046   0.837
 6718SOL    HW121053   4.506   0.093   0.749
 6718SOL    HW221054   4.464   6.983   0.834
 6719SOL     OW21055   2.268   6.881   0.306
 6719SOL    HW121056   2.230   6.862   0.397
 6719SOL    HW221057   2.367   6.891   0.313
 6720SOL     OW21058   1.975   0.660   3.625
 6720SOL    HW121059   1.880   0.661   3.654
 6720SOL    HW221060   1.981   0.689   3.529
 6721SOL     OW21061   0.228   6.490   0.557
 6721SOL    HW121062   0.141   6.442   0.566
 6721SOL    HW221063   0.295   6.430   0.512
 6722SOL     OW21064   6.608   2.419   0.497
 6722SOL    HW121065   6.579   2.487   0.430
 6722SOL    HW221066   6.561   2.332   0.478
 6723SOL     OW21067   1.477   0.238   4.930
 6723SOL    HW121068   1.388   0.219   4.888
 6723SOL    HW221069   1.495   0.170   5.002
 6724SOL     OW21070   2.358   3.091   6.366
 6724SOL    HW121071   2.409   3.062   6.284
 6724SOL    HW221072   2.287   3.024   6.386
 6725SOL     OW21073   6.839   2.315   1.641
 6725SOL    HW121074   6.838   2.335   1.543
 6725SOL    HW221075   6.763   2.363   1.685
 6726SOL     OW21076   0.651   2.714   3.807
 6726SOL    HW121077   0.706   2.722   3.890
 6726SOL    HW221078   0.573   2.776   3.814
 6727SOL     OW21079   0.222   4.912   5.519
 6727SOL    HW121080   0.297   4.855   5.552
 6727SOL    HW221081   0.255   5.005   5.504
 6728SOL     OW21082   3.796   2.097   2.750
 6728SOL    HW121083   3.870   2.081   2.684
 6728SOL    HW221084   3.833   2.096   2.843
 6729SOL     OW21085   0.380   1.338   0.675
 6729SOL    HW121086   0.345   1.254   0.633
 6729SOL    HW221087   0.416   1.398   0.603
 6730SOL     OW21088   1.754   6.654   1.122
 6730SOL    HW121089   1.738   6.748   1.154
 6730SOL    HW221090   1.798   6.658   1.032
 6731SOL     OW21091   1.484   6.615   1.111
 6731SOL    HW121092   1.441   6.654   1.193
 6731SOL    HW221093   1.580   6.642   1.108
 6732SOL     OW21094   6.017   4.193   4.646
 6732SOL    HW121095   6.037   4.283   4.606
 6732SOL    HW221096   6.029   4.122   4.577
 6733SOL     OW21097   3.811   5.647   6.430
 6733SOL    HW121098   3.757   5.642   6.514
 6733SOL    HW221099   3.842   5.741   6.415
 6734SOL     OW21100   6.041   2.612   5.326
 6734SOL    HW121101   6.095   2.638   5.246
 6734SOL    HW221102   6.000   2.693   5.367
 6735SOL     OW21103   6.024   3.582   4.620
 6735SOL    HW121104   5.937   3.627   4.603
 6735SOL    HW221105   6.041   3.515   4.547
 6736SOL     OW21106   2.830   3.333   6.766
 6736SOL    HW121107   2.758   3.390   6.805
 6736SOL    HW221108   2.916   3.384   6.767
 6737SOL     OW21109   1.971   3.176   0.881
 6737SOL    HW121110   1.917   3.160   0.963
 6737SOL    HW221111   2.060   3.131   0.890
 6738SOL     OW21112   1.950   5.951   3.842
 6738SOL    HW121113   1.967   5.889   3.766
 6738SOL    HW221114   1.853   5.953   3.863
 6739SOL     OW21115   5.533   6.630   4.094
 6739SOL    HW121116   5.581   6.554   4.049
 6739SOL    HW221117   5.436   6.626   4.070
 6740SOL     OW21118   6.825   0.356   5.547
 6740SOL    HW121119   6.901   0.303   5.508
 6740SOL    HW221120   6.738   0.315   5.518
 6741SOL     OW21121   3.376   2.864   5.500
 6741SOL    HW121122   3.393   2.902   5.409
 6741SOL    HW221123   3.364   2.765   5.494
 6742SOL     OW21124   5.835   5.605   3.037
 6742SOL    HW121125   5.771   5.598   3.113
 6742SOL    HW221126   5.794   5.564   2.955
 6743SOL     OW21127   3.676   4.784   6.488
 6743SOL    HW121128   3.676   4.764   6.586
 6743SOL    HW221129   3.770   4.785   6.455
 6744SOL     OW21130   6.900   5.517   5.472
 6744SOL    HW121131   6.973   5.453   5.494
 6744SOL    HW221132   6.847   5.483   5.394
 6745SOL     OW21133   6.959   6.369   3.406
 6745SOL    HW121134   7.010   6.452   3.426
 6745SOL    HW221135   6.878   6.392   3.351
 6746SOL     OW21136   0.635   0.188   3.706
 6746SOL    HW121137   0.568   0.145   3.646
 6746SOL    HW221138   0.623   0.153   3.799
 6747SOL     OW21139   5.986   0.931   6.420
 6747SOL    HW121140   5.914   0.862   6.416
 6747SOL    HW221141   5.955   1.014   6.374
 6748SOL     OW21142   3.682   1.645   3.055
 6748SOL    HW121143   3.658   1.579   2.984
 6748SOL    HW221144   3.691   1.736   3.015
 6749SOL     OW21145   3.871   4.272   0.643
 6749SOL    HW121146   3.865   4.182   0.685
 6749SOL    HW221147   3.833   4.341   0.705
 6750SOL     OW21148   3.780   1.929   4.024
 6750SOL    HW121149   3.739   1.843   3.995
 6750SOL    HW221150   3.777   1.994   3.948
 6751SOL     OW21151   5.195   0.096   3.209
 6751SOL    HW121152   5.214   0.093   3.307
 6751SOL    HW221153   5.120   0.161   3.192
 6752SOL     OW21154   1.998   6.692   2.634
 6752SOL    HW121155   2.073   6.627   2.651
 6752SOL    HW221156   2.001   6.722   2.539
 6753SOL     OW21157   3.188   1.391   6.201
 6753SOL    HW121158   3.253   1.443   6.256
 6753SOL    HW221159   3.228   1.371   6.112
 6754SOL     OW21160   6.896   0.800   0.123
 6754SOL    HW121161   6.976   0.810   0.064
 6754SOL    HW221162   6.843   0.885   0.123
 6755SOL     OW21163   4.310   2.367   1.617
 6755SOL    HW121164   4.347   2.449   1.659
 6755SOL    HW221165   4.317   2.290   1.681
 6756SOL     OW21166   3.632   6.683   5.014
 6756SOL    HW121167   3.670   6.614   4.952
 6756SOL    HW221168   3.602   6.762   4.961
 6757SOL     OW21169   2.890   2.121   0.295
 6757SOL    HW121170   2.871   2.154   0.387
 6757SOL    HW221171   2.971   2.063   0.296
 6758SOL     OW21172   6.187   2.229   1.621
 6758SOL    HW121173   6.174   2.237   1.720
 6758SOL    HW221174   6.237   2.145   1.601
 6759SOL     OW21175   1.244   4.061   2.869
 6759SOL    HW121176   1.327   4.005   2.878
 6759SOL    HW221177   1.190   4.027   2.791
 6760SOL     OW21178   0.177   3.331   2.126
 6760SOL    HW121179   0.212   3.341   2.219
 6760SOL    HW221180   0.079   3.352   2.125
 6761SOL     OW21181   6.389   2.506   4.949
 6761SOL    HW121182   6.397   2.599   4.914
 6761SOL    HW221183   6.393   2.441   4.874
 6762SOL     OW21184   0.737   4.249   4.806
 6762SOL    HW121185   0.669   4.198   4.753
 6762SOL    HW221186   0.820   4.262   4.750
 6763SOL     OW21187   6.780   5.667   3.771
 6763SOL    HW121188   6.752   5.710   3.857
 6763SOL    HW221189   6.827   5.581   3.790
 6764SOL     OW21190   2.030   5.488   1.572
 6764SOL    HW121191   1.964   5.560   1.596
 6764SOL    HW221192   2.058   5.499   1.477
 6765SOL     OW21193   5.805   4.979   3.816
 6765SOL    HW121194   5.824   5.062   3.764
 6765SOL    HW221195   5.884   4.918   3.812
 6766SOL     OW21196   5.099   6.173   5.567
 6766SOL    HW121197   5.072   6.206   5.658
 6766SOL    HW221198   5.195   6.145   5.569
 6767SOL     OW21199   2.283   0.973   1.322
 6767SOL    HW121200   2.284   0.985   1.422
 6767SOL    HW221201   2.204   0.919   1.296
 6768SOL     OW21202   1.664   0.386   4.816
 6768SOL    HW121203   1.588   0.344   4.865
 6768SOL    HW221204   1.651   0.373   4.717
 6769SOL     OW21205   3.236   0.958   6.720
 6769SOL    HW121206   3.303   0.996   6.655
 6769SOL    HW221207   3.174   0.897   6.671
 6770SOL     OW21208   6.940   1.248   2.256
 6770SOL    HW121209   6.929   1.292   2.167
 6770SOL    HW221210   7.009   1.296   2.310
 6771SOL     OW21211   5.072   1.895   3.310
 6771SOL    HW121212   5.136   1.870   3.383
 6771SOL    HW221213   4.991   1.939   3.350
 6772SOL     OW21214   3.945   2.031   2.546
 6772SOL    HW121215   3.918   2.089   2.470
 6772SOL    HW221216   3.924   1.936   2.525
 6773SOL     OW21217   6.316   5.037   2.518
 6773SOL    HW121218   6.290   4.945   2.489
 6773SOL    HW221219   6.252   5.069   2.588
 6774SOL     OW21220   1.004   3.334   5.316
 6774SOL    HW121221   0.981   3.298   5.225
 6774SOL    HW221222   0.924   3.330   5.375
 6775SOL     OW21223   2.391   2.588   1.782
 6775SOL    HW121224   2.485   2.571   1.813
 6775SOL    HW221225   2.329   2.522   1.824
 6776SOL     OW21226   5.041   3.965   0.022
 6776SOL    HW121227   4.975   4.029   7.004
 6776SOL    HW221228   5.000   3.874   0.029
 6777SOL     OW21229   4.506   4.551   0.554
 6777SOL    HW121230   4.491   4.468   0.606
 6777SOL    HW221231   4.432   4.616   0.572
 6778SOL     OW21232   6.222   5.557   2.048
 6778SOL    HW121233   6.251   5.481   2.107
 6778SOL    HW221234   6.227   5.643   2.099
 6779SOL     OW21235   5.575   5.563   6.977
 6779SOL    HW121236   5.536   5.535   6.889
 6779SOL    HW221237   5.549   5.497   0.024
 6780SOL     OW21238   0.963   2.669   2.183
 6780SOL    HW121239   1.045   2.694   2.234
 6780SOL    HW221240   0.904   2.749   2.174
 6781SOL     OW21241   6.676   1.747   3.807
 6781SOL    HW121242   6.734   1.666   3.793
 6781SOL    HW221243   6.603   1.725   3.871
 6782SOL     OW21244   0.062   0.716   3.067
 6782SOL    HW121245   0.109   0.630   3.089
 6782SOL    HW221246   6.993   0.697   3.034
 6783SOL     OW21247   6.192   1.769   5.308
 6783SOL    HW121248   6.164   1.730   5.220
 6783SOL    HW221249   6.133   1.847   5.330
 6784SOL     OW21250   1.870   3.113   0.393
 6784SOL    HW121251   1.779   3.119   0.434
 6784SOL    HW221252   1.863   3.074   0.301
 6785SOL     OW21253   6.038   5.517   4.061
 6785SOL    HW121254   6.121   5.463   4.078
 6785SOL    HW221255   6.011   5.562   4.146
 6786SOL     OW21256   1.391   2.386   0.066
 6786SOL    HW121257   1.420   2.290   0.075
 6786SOL    HW221258   1.456   2.445   0.115
 6787SOL     OW21259   2.248   2.526   0.726
 6787SOL    HW121260   2.172   2.523   0.661
 6787SOL    HW221261   2.253   2.439   0.774
 6788SOL     OW21262   0.966   3.889   1.394
 6788SOL    HW121263   1.064   3.874   1.381
 6788SOL    HW221264   0.918   3.868   1.309
 6789SOL     OW21265   0.292   5.519   2.897
 6789SOL    HW121266   0.333   5.528   2.988
 6789SOL    HW221267   0.353   5.557   2.828
 6790SOL     OW21268   0.179   3.562   0.975
 6790SOL    HW121269   0.263   3.600   0.936
 6790SOL    HW221270   0.165   3.599   1.067
 6791SOL     OW21271   4.187   2.297   1.932
 6791SOL    HW121272   4.258   2.239   1.892
 6791SOL    HW221273   4.107   2.298   1.872
 6792SOL     OW21274   6.427   6.300   4.999
 6792SOL    HW121275   6.431   6.389   5.045
 6792SOL    HW221276   6.342   6.293   4.947
 6793SOL     OW21277   1.868   2.231   0.533
 6793SOL    HW121278   1.947   2.262   0.586
 6793SOL    HW221279   1.784   2.256   0.581
 6794SOL     OW21280   4.466   1.142   6.021
 6794SOL    HW121281   4.414   1.211   5.970
 6794SOL    HW221282   4.463   1.164   6.119
 6795SOL     OW21283   2.440   6.685   0.970
 6795SOL    HW121284   2.379   6.610   0.997
 6795SOL    HW221285   2.522   6.647   0.928
 6796SOL     OW21286   0.006   0.019   2.261
 6796SOL    HW121287   6.929   0.021   2.260
 6796SOL    HW221288   0.039   0.040   2.353
 6797SOL     OW21289   6.464   1.988   1.391
 6797SOL    HW121290   6.416   1.966   1.306
 6797SOL    HW221291   6.525   2.066   1.376
 6798SOL     OW21292   5.093   0.134   2.301
 6798SOL    HW121293   5.093   0.233   2.290
 6798SOL    HW221294   5.028   0.093   2.237
 6799SOL     OW21295   6.876   6.532   1.973
 6799SOL    HW121296   6.900   6.459   2.037
 6799SOL    HW221297   6.803   6.589   2.013
 6800SOL     OW21298   2.107   3.670   2.137
 6800SOL    HW121299   2.156   3.599   2.087
 6800SOL    HW221300   2.123   3.658   2.236
 6801SOL     OW21301   1.180   6.831   3.110
 6801SOL    HW121302   1.090   6.875   3.106
 6801SOL    HW221303   1.182   6.754   3.046
 6802SOL     OW21304   2.837   6.081   1.086
 6802SOL    HW121305   2.895   6.155   1.053
 6802SOL    HW221306   2.755   6.119   1.130
 6803SOL     OW21307   4.599   2.908   5.708
 6803SOL    HW121308   4.527   2.861   5.759
 6803SOL    HW221309   4.575   2.909   5.611
 6804SOL     OW21310   3.218   5.447   3.619
 6804SOL    HW121311   3.153   5.459   3.544
 6804SOL    HW221312   3.304   5.492   3.595
 6805SOL     OW21313   7.019   5.053   5.991
 6805SOL    HW121314   0.089   5.039   6.025
 6805SOL    HW221315   7.004   5.150   5.973
 6806SOL     OW21316   5.610   0.716   3.719
 6806SOL    HW121317   5.540   0.670   3.774
 6806SOL    HW221318   5.701   0.693   3.754
 6807SOL     OW21319   3.319   3.562   1.079
 6807SOL    HW121320   3.380   3.491   1.043
 6807SOL    HW221321   3.307   3.549   1.178
 6808SOL     OW21322   6.554   2.352   5.134
 6808SOL    HW121323   6.508   2.416   5.072
 6808SOL    HW221324   6.486   2.308   5.193
 6809SOL     OW21325   0.832   2.968   1.383
 6809SOL    HW121326   0.760   3.002   1.444
 6809SOL    HW221327   0.906   3.036   1.378
 6810SOL     OW21328   1.330   0.810   2.484
 6810SOL    HW121329   1.343   0.908   2.496
 6810SOL    HW221330   1.299   0.770   2.571
 6811SOL     OW21331   5.864   3.655   1.323
 6811SOL    HW121332   5.917   3.719   1.379
 6811SOL    HW221333   5.868   3.683   1.227
 6812SOL     OW21334   2.899   3.657   3.876
 6812SOL    HW121335   2.880   3.698   3.965
 6812SOL    HW221336   2.824   3.677   3.813
 6813SOL     OW21337   5.125   2.584   2.385
 6813SOL    HW121338   5.073   2.669   2.382
 6813SOL    HW221339   5.164   2.566   2.294
 6814SOL     OW21340   3.479   1.850   6.338
 6814SOL    HW121341   3.524   1.918   6.280
 6814SOL    HW221342   3.546   1.784   6.371
 6815SOL     OW21343   3.336   6.846   1.378
 6815SOL    HW121344   3.359   6.814   1.286
 6815SOL    HW221345   3.363   6.777   1.445
 6816SOL     OW21346   6.600   6.989   6.549
 6816SOL    HW121347   6.517   0.023   6.546
 6816SOL    HW221348   6.662   7.018   6.477
 6817SOL     OW21349   2.440   2.671   3.133
 6817SOL    HW121350   2.451   2.765   3.167
 6817SOL    HW221351   2.526   2.621   3.145
 6818SOL     OW21352   2.523   6.280   2.170
 6818SOL    HW121353   2.429   6.308   2.189
 6818SOL    HW221354   2.580   6.361   2.158
 6819SOL     OW21355   5.342   1.665   3.568
 6819SOL    HW121356   5.246   1.662   3.595
 6819SOL    HW221357   5.355   1.607   3.487
 6820SOL     OW21358   2.463   5.240   2.132
 6820SOL    HW121359   2.535   5.309   2.123
 6820SOL    HW221360   2.386   5.279   2.182
 6821SOL     OW21361   3.559   2.075   4.830
 6821SOL    HW121362   3.655   2.052   4.815
 6821SOL    HW221363   3.541   2.082   4.928
 6822SOL     OW21364   5.101   2.418   6.441
 6822SOL    HW121365   5.011   2.461   6.439
 6822SOL    HW221366   5.097   2.330   6.394
 6823SOL     OW21367   4.328   3.222   5.746
 6823SOL    HW121368   4.318   3.267   5.834
 6823SOL    HW221369   4.381   3.279   5.685
 6824SOL     OW21370   0.784   1.993   6.601
 6824SOL    HW121371   0.869   2.026   6.641
 6824SOL    HW221372   0.711   2.059   6.619
 6825SOL     OW21373   5.277   6.379   1.489
 6825SOL    HW121374   5.213   6.448   1.458
 6825SOL    HW221375   5.310   6.402   1.581
 6826SOL     OW21376   1.712   3.385   3.160
 6826SOL    HW121377   1.750   3.313   3.102
 6826SOL    HW221378   1.614   3.394   3.143
 6827SOL     OW21379   4.529   5.803   6.007
 6827SOL    HW121380   4.602   5.785   5.941
 6827SOL    HW221381   4.535   5.737   6.082
 6828SOL     OW21382   3.095   1.787   1.693
 6828SOL    HW121383   3.152   1.861   1.658
 6828SOL    HW221384   3.061   1.733   1.616
 6829SOL     OW21385   4.537   6.495   4.883
 6829SOL    HW121386   4.455   6.552   4.879
 6829SOL    HW221387   4.600   6.521   4.810
 6830SOL     OW21388   5.034   1.454   3.427
 6830SOL    HW121389   5.097   1.385   3.393
 6830SOL    HW221390   4.955   1.409   3.470
 6831SOL     OW21391   1.311   0.445   6.876
 6831SOL    HW121392   1.315   0.439   6.776
 6831SOL    HW221393   1.351   0.531   6.906
 6832SOL     OW21394   2.608   4.353   1.116
 6832SOL    HW121395   2.675   4.296   1.069
 6832SOL    HW221396   2.534   4.296   1.152
 6833SOL     OW21397   3.294   4.676   6.260
 6833SOL    HW121398   3.262   4.689   6.167
 6833SOL    HW221399   3.250   4.742   6.321
 6834SOL     OW21400   4.984   6.705   1.092
 6834SOL    HW121401   4.967   6.609   1.068
 6834SOL    HW221402   4.911   6.738   1.151
 6835SOL     OW21403   3.993   0.474   4.427
 6835SOL    HW121404   4.010   0.436   4.518
 6835SOL    HW221405   3.918   0.540   4.432
 6836SOL     OW21406   2.566   5.142   0.486
 6836SOL    HW121407   2.651   5.190   0.506
 6836SOL    HW221408   2.535   5.094   0.569
 6837SOL     OW21409   0.430   2.152   2.205
 6837SOL    HW121410   0.431   2.148   2.305
 6837SOL    HW221411   0.522   2.136   2.170
 6838SOL     OW21412   3.335   6.226   0.206
 6838SOL    HW121413   3.253   6.275   0.176
 6838SOL    HW221414   3.365   6.262   0.294
 6839SOL     OW21415   5.282   1.210   6.677
 6839SOL    HW121416   5.286   1.187   6.774
 6839SOL    HW221417   5.261   1.128   6.624
 6840SOL     OW21418   3.502   0.901   4.913
 6840SOL    HW121419   3.462   0.974   4.857
 6840SOL    HW221420   3.483   0.813   4.870
 6841SOL     OW21421   4.112   4.564   0.067
 6841SOL    HW121422   4.041   4.498   0.042
 6841SOL    HW221423   4.071   4.639   0.118
 6842SOL     OW21424   2.277   4.545   1.065
 6842SOL    HW121425   2.357   4.540   1.005
 6842SOL    HW221426   2.300   4.599   1.146
 6843SOL     OW21427   5.967   6.747   1.229
 6843SOL    HW121428   6.047   6.785   1.275
 6843SOL    HW221429   5.989   6.656   1.193
 6844SOL     OW21430   5.491   0.625   3.961
 6844SOL    HW121431   5.398   0.601   3.989
 6844SOL    HW221432   5.554   0.608   4.037
 6845SOL     OW21433   6.318   3.381   2.993
 6845SOL    HW121434   6.352   3.448   2.928
 6845SOL    HW221435   6.391   3.358   3.058
 6846SOL     OW21436   3.808   2.992   6.869
 6846SOL    HW121437   3.903   2.978   6.900
 6846SOL    HW221438   3.809   3.028   6.776
 6847SOL     OW21439   0.224   3.275   4.558
 6847SOL    HW121440   0.276   3.305   4.638
 6847SOL    HW221441   0.256   3.185   4.529
 6848SOL     OW21442   4.884   5.112   3.638
 6848SOL    HW121443   4.784   5.117   3.638
 6848SOL    HW221444   4.917   5.083   3.549
 6849SOL     OW21445   4.728   5.262   5.267
 6849SOL    HW121446   4.770   5.175   5.291
 6849SOL    HW221447   4.629   5.250   5.262
 6850SOL     OW21448   5.497   3.157   2.326
 6850SOL    HW121449   5.586   3.140   2.367
 6850SOL    HW221450   5.444   3.072   2.324
 6851SOL     OW21451   0.246   1.549   3.027
 6851SOL    HW121452   0.220   1.583   3.117
 6851SOL    HW221453   0.224   1.451   3.021
 6852SOL     OW21454   2.575   4.708   1.246
 6852SOL    HW121455   2.547   4.763   1.167
 6852SOL    HW221456   2.528   4.740   1.328
 6853SOL     OW21457   5.546   4.684   6.980
 6853SOL    HW121458   5.463   4.645   7.019
 6853SOL    HW221459   5.600   4.611   6.937
 6854SOL     OW21460   5.277   1.293   5.796
 6854SOL    HW121461   5.187   1.262   5.767
 6854SOL    HW221462   5.289   1.389   5.772
 6855SOL     OW21463   4.633   6.512   4.162
 6855SOL    HW121464   4.607   6.540   4.069
 6855SOL    HW221465   4.557   6.462   4.204
 6856SOL     OW21466   6.997   2.753   5.430
 6856SOL    HW121467   0.002   2.657   5.423
 6856SOL    HW221468   0.002   2.802   5.348
 6857SOL     OW21469   2.263   2.172   6.670
 6857SOL    HW121470   2.307   2.191   6.583
 6857SOL    HW221471   2.244   2.074   6.678
 6858SOL     OW21472   4.095   3.415   2.310
 6858SOL    HW121473   4.056   3.394   2.399
 6858SOL    HW221474   4.177   3.359   2.295
 6859SOL     OW21475   0.972   1.367   0.954
 6859SOL    HW121476   1.071   1.361   0.940
 6859SOL    HW221477   0.954   1.423   1.035
 6860SOL     OW21478   6.950   5.255   1.253
 6860SOL    HW121479   6.893   5.308   1.190
 6860SOL    HW221480   6.903   5.170   1.278
 6861SOL     OW21481   4.095   4.674   0.336
 6861SOL    HW121482   4.066   4.744   0.401
 6861SOL    HW221483   4.022   4.607   0.325
 6862SOL     OW21484   1.173   5.155   5.995
 6862SOL    HW121485   1.245   5.121   6.056
 6862SOL    HW221486   1.120   5.226   6.043
 6863SOL     OW21487   5.367   6.871   5.976
 6863SOL    HW121488   5.339   6.940   5.910
 6863SOL    HW221489   5.367   6.911   6.068
 6864SOL     OW21490   2.125   4.641   4.898
 6864SOL    HW121491   2.164   4.552   4.877
 6864SOL    HW221492   2.082   4.679   4.816
 6865SOL     OW21493   1.101   5.984   4.360
 6865SOL    HW121494   1.095   6.072   4.407
 6865SOL    HW221495   1.062   5.912   4.418
 6866SOL     OW21496   5.655   5.682   3.227
 6866SOL    HW121497   5.726   5.650   3.289
 6866SOL    HW221498   5.570   5.699   3.278
 6867SOL     OW21499   2.175   4.090   2.381
 6867SOL    HW121500   2.193   4.044   2.293
 6867SOL    HW221501   2.155   4.021   2.450
 6868SOL     OW21502   1.690   6.195   6.717
 6868SOL    HW121503   1.601   6.151   6.708
 6868SOL    HW221504   1.714   6.204   6.813
 6869SOL     OW21505   4.969   1.210   6.277
 6869SOL    HW121506   5.002   1.247   6.364
 6869SOL    HW221507   5.008   1.263   6.201
 6870SOL     OW21508   0.027   4.445   1.586
 6870SOL    HW121509   0.045   4.517   1.653
 6870SOL    HW221510   0.061   4.358   1.621
 6871SOL     OW21511   6.318   4.143   3.126
 6871SOL    HW121512   6.308   4.208   3.201
 6871SOL    HW221513   6.333   4.051   3.164
 6872SOL     OW21514   0.734   2.469   1.122
 6872SOL    HW121515   0.688   2.488   1.035
 6872SOL    HW221516   0.776   2.553   1.157
 6873SOL     OW21517   6.628   3.818   3.952
 6873SOL    HW121518   6.676   3.818   4.039
 6873SOL    HW221519   6.666   3.889   3.893
 6874SOL     OW21520   6.724   5.566   2.897
 6874SOL    HW121521   6.780   5.637   2.855
 6874SOL    HW221522   6.766   5.477   2.883
 6875SOL     OW21523   2.262   2.750   2.605
 6875SOL    HW121524   2.293   2.762   2.699
 6875SOL    HW221525   2.322   2.685   2.559
 6876SOL     OW21526   4.231   0.335   4.150
 6876SOL    HW121527   4.151   0.396   4.148
 6876SOL    HW221528   4.293   0.364   4.223
 6877SOL     OW21529   2.653   4.188   0.861
 6877SOL    HW121530   2.596   4.118   0.818
 6877SOL    HW221531   2.748   4.155   0.866
 6878SOL     OW21532   4.045   1.155   4.173
 6878SOL    HW121533   3.961   1.109   4.205
 6878SOL    HW221534   4.072   1.116   4.085
 6879SOL     OW21535   1.171   2.935   1.231
 6879SOL    HW121536   1.143   2.946   1.135
 6879SOL    HW221537   1.240   3.004   1.254
 6880SOL     OW21538   1.860   5.490   5.710
 6880SOL    HW121539   1.914   5.571   5.733
 6880SOL    HW221540   1.885   5.458   5.619
 6881SOL     OW21541   2.034   3.642   1.388
 6881SOL    HW121542   2.071   3.661   1.479
 6881SOL    HW221543   1.972   3.716   1.361
 6882SOL     OW21544   2.976   0.791   0.216
 6882SOL    HW121545   3.021   0.704   0.195
 6882SOL    HW221546   2.896   0.802   0.157
 6883SOL     OW21547   4.869   1.650   6.847
 6883SOL    HW121548   4.824   1.590   6.782
 6883SOL    HW221549   4.925   1.717   6.798
 6884SOL     OW21550   1.074   4.468   3.519
 6884SOL    HW121551   1.037   4.443   3.430
 6884SOL    HW221552   1.162   4.513   3.507
 6885SOL     OW21553   4.490   4.868   4.188
 6885SOL    HW121554   4.584   4.897   4.170
 6885SOL    HW221555   4.487   4.813   4.271
 6886SOL     OW21556   6.570   1.421   4.096
 6886SOL    HW121557   6.627   1.347   4.131
 6886SOL    HW221558   6.558   1.490   4.167
 6887SOL     OW21559   5.031   5.516   5.899
 6887SOL    HW121560   4.991   5.608   5.899
 6887SOL    HW221561   5.043   5.486   5.804
 6888SOL     OW21562   5.559   5.333   6.464
 6888SOL    HW121563   5.578   5.431   6.469
 6888SOL    HW221564   5.549   5.306   6.369
 6889SOL     OW21565   1.187   3.091   6.014
 6889SOL    HW121566   1.127   3.048   5.945
 6889SOL    HW221567   1.269   3.125   5.969
 6890SOL     OW21568   3.631   6.221   2.192
 6890SOL    HW121569   3.598   6.178   2.277
 6890SOL    HW221570   3.730   6.231   2.197
 6891SOL     OW21571   2.196   3.947   2.837
 6891SOL    HW121572   2.171   3.994   2.922
 6891SOL    HW221573   2.213   3.850   2.856
 6892SOL     OW21574   3.740   2.110   3.809
 6892SOL    HW121575   3.803   2.187   3.821
 6892SOL    HW221576   3.710   2.106   3.714
 6893SOL     OW21577   4.212   4.056   6.803
 6893SOL    HW121578   4.206   4.139   6.746
 6893SOL    HW221579   4.303   4.016   6.793
 6894SOL     OW21580   6.095   4.883   0.477
 6894SOL    HW121581   6.006   4.921   0.453
 6894SOL    HW221582   6.158   4.895   0.400
 6895SOL     OW21583   2.494   4.557   0.907
 6895SOL    HW121584   2.564   4.549   0.978
 6895SOL    HW221585   2.519   4.501   0.829
 6896SOL     OW21586   3.180   1.384   3.922
 6896SOL    HW121587   3.155   1.451   3.852
 6896SOL    HW221588   3.139   1.410   4.009
 6897SOL     OW21589   4.930   3.820   4.988
 6897SOL    HW121590   4.889   3.729   4.989
 6897SOL    HW221591   4.930   3.858   5.081
 6898SOL     OW21592   4.086   1.538   1.366
 6898SOL    HW121593   4.046   1.526   1.275
 6898SOL    HW221594   4.052   1.468   1.428
 6899SOL     OW21595   4.678   6.178   1.808
 6899SOL    HW121596   4.774   6.187   1.833
 6899SOL    HW221597   4.621   6.230   1.872
 6900SOL     OW21598   5.935   5.711   5.141
 6900SOL    HW121599   5.957   5.777   5.069
 6900SOL    HW221600   5.904   5.760   5.223
 6901SOL     OW21601   6.262   5.975   6.235
 6901SOL    HW121602   6.198   5.903   6.208
 6901SOL    HW221603   6.352   5.955   6.196
 6902SOL     OW21604   6.735   6.002   0.156
 6902SOL    HW121605   6.701   5.986   0.063
 6902SOL    HW221606   6.752   6.099   0.169
 6903SOL     OW21607   2.858   5.122   5.543
 6903SOL    HW121608   2.821   5.031   5.562
 6903SOL    HW221609   2.957   5.121   5.558
 6904SOL     OW21610   6.324   0.565   5.296
 6904SOL    HW121611   6.340   0.494   5.228
 6904SOL    HW221612   6.270   0.528   5.372
 6905SOL     OW21613   5.560   6.075   0.026
 6905SOL    HW121614   5.557   5.985   0.070
 6905SOL    HW221615   5.468   6.104   0.003
 6906SOL     OW21616   3.700   1.376   4.227
 6906SOL    HW121617   3.735   1.362   4.320
 6906SOL    HW221618   3.694   1.474   4.208
 6907SOL     OW21619   5.653   2.274   1.593
 6907SOL    HW121620   5.582   2.234   1.650
 6907SOL    HW221621   5.726   2.207   1.578
 6908SOL     OW21622   1.512   5.383   6.962
 6908SOL    HW121623   1.456   5.321   6.906
 6908SOL    HW221624   1.453   5.449   7.008
 6909SOL     OW21625   4.690   3.934   1.456
 6909SOL    HW121626   4.785   3.914   1.482
 6909SOL    HW221627   4.640   3.967   1.535
 6910SOL     OW21628   1.038   2.976   3.615
 6910SOL    HW121629   1.023   2.881   3.588
 6910SOL    HW221630   0.950   3.017   3.640
 6911SOL     OW21631   4.367   6.694   4.578
 6911SOL    HW121632   4.345   6.687   4.481
 6911SOL    HW221633   4.451   6.642   4.597
 6912SOL     OW21634   2.993   3.566   6.294
 6912SOL    HW121635   2.931   3.629   6.341
 6912SOL    HW221636   2.957   3.545   6.204
 6913SOL     OW21637   5.796   6.244   3.980
 6913SOL    HW121638   5.841   6.190   3.909
 6913SOL    HW221639   5.764   6.183   4.053
 6914SOL     OW21640   6.158   4.582   3.453
 6914SOL    HW121641   6.119   4.622   3.371
 6914SOL    HW221642   6.085   4.539   3.507
 6915SOL     OW21643   6.015   2.668   1.614
 6915SOL    HW121644   6.108   2.635   1.629
 6915SOL    HW221645   6.003   2.755   1.661
 6916SOL     OW21646   5.368   1.895   6.798
 6916SOL    HW121647   5.405   1.985   6.820
 6916SOL    HW221648   5.271   1.904   6.775
 6917SOL     OW21649   3.410   6.359   1.467
 6917SOL    HW121650   3.373   6.437   1.416
 6917SOL    HW221651   3.386   6.275   1.419
 6918SOL     OW21652   0.701   2.370   4.055
 6918SOL    HW121653   0.635   2.328   3.992
 6918SOL    HW221654   0.768   2.301   4.082
 6919SOL     OW21655   5.581   6.107   4.656
 6919SOL    HW121656   5.578   6.182   4.590
 6919SOL    HW221657   5.544   6.024   4.615
 6920SOL     OW21658   4.555   6.828   5.821
 6920SOL    HW121659   4.563   6.885   5.903
 6920SOL    HW221660   4.632   6.765   5.818
 6921SOL     OW21661   4.777   5.962   4.095
 6921SOL    HW121662   4.858   5.925   4.141
 6921SOL    HW221663   4.788   6.060   4.082
 6922SOL     OW21664   1.655   6.424   4.686
 6922SOL    HW121665   1.587   6.370   4.636
 6922SOL    HW221666   1.650   6.519   4.656
 6923SOL     OW21667   5.241   5.654   2.772
 6923SOL    HW121668   5.305   5.718   2.816
 6923SOL    HW221669   5.195   5.599   2.842
 6924SOL     OW21670   2.110   4.112   6.680
 6924SOL    HW121671   2.163   4.173   6.738
 6924SOL    HW221672   2.029   4.160   6.646
 6925SOL     OW21673   5.112   6.034   4.316
 6925SOL    HW121674   5.130   6.044   4.413
 6925SOL    HW221675   5.067   6.117   4.281
 6926SOL     OW21676   2.809   2.632   0.842
 6926SOL    HW121677   2.843   2.687   0.918
 6926SOL    HW221678   2.740   2.568   0.875
 6927SOL     OW21679   3.811   2.871   5.762
 6927SOL    HW121680   3.809   2.791   5.702
 6927SOL    HW221681   3.743   2.938   5.732
 6928SOL     OW21682   5.754   5.870   0.775
 6928SOL    HW121683   5.844   5.911   0.757
 6928SOL    HW221684   5.698   5.876   0.692
 6929SOL     OW21685   4.946   5.769   1.572
 6929SOL    HW121686   4.959   5.677   1.536
 6929SOL    HW221687   5.036   5.812   1.588
 6930SOL     OW21688   1.349   0.680   1.691
 6930SOL    HW121689   1.344   0.604   1.627
 6930SOL    HW221690   1.445   0.705   1.707
 6931SOL     OW21691   2.030   1.416   2.478
 6931SOL    HW121692   1.998   1.508   2.504
 6931SOL    HW221693   2.002   1.396   2.385
 6932SOL     OW21694   4.330   6.862   6.867
 6932SOL    HW121695   4.282   6.937   6.913
 6932SOL    HW221696   4.263   6.800   6.826
 6933SOL     OW21697   3.664   6.092   5.514
 6933SOL    HW121698   3.709   6.106   5.425
 6933SOL    HW221699   3.700   6.009   5.556
 6934SOL     OW21700   4.498   3.163   6.292
 6934SOL    HW121701   4.488   3.259   6.265
 6934SOL    HW221702   4.459   3.104   6.221
 6935SOL     OW21703   4.490   5.461   2.521
 6935SOL    HW121704   4.492   5.426   2.614
 6935SOL    HW221705   4.514   5.558   2.521
 6936SOL     OW21706   6.145   2.888   3.632
 6936SOL    HW121707   6.104   2.798   3.616
 6936SOL    HW221708   6.085   2.959   3.595
 6937SOL     OW21709   6.128   6.292   0.460
 6937SOL    HW121710   6.200   6.306   0.528
 6937SOL    HW221711   6.043   6.268   0.507
 6938SOL     OW21712   6.410   2.959   5.123
 6938SOL    HW121713   6.332   2.928   5.070
 6938SOL    HW221714   6.487   2.976   5.062
 6939SOL     OW21715   0.735   5.422   2.190
 6939SOL    HW121716   0.787   5.349   2.146
 6939SOL    HW221717   0.641   5.392   2.205
 6940SOL     OW21718   3.428   0.413   6.151
 6940SOL    HW121719   3.527   0.426   6.148
 6940SOL    HW221720   3.407   0.335   6.210
 6941SOL     OW21721   3.083   4.108   1.749
 6941SOL    HW121722   3.072   4.019   1.704
 6941SOL    HW221723   3.133   4.096   1.835
 6942SOL     OW21724   6.157   6.648   2.056
 6942SOL    HW121725   6.119   6.629   2.146
 6942SOL    HW221726   6.177   6.562   2.009
 6943SOL     OW21727   3.546   5.709   0.860
 6943SOL    HW121728   3.478   5.648   0.817
 6943SOL    HW221729   3.635   5.663   0.862
 6944SOL     OW21730   0.641   4.761   6.553
 6944SOL    HW121731   0.682   4.823   6.620
 6944SOL    HW221732   0.549   4.735   6.582
 6945SOL     OW21733   6.759   1.348   0.376
 6945SOL    HW121734   6.703   1.293   0.439
 6945SOL    HW221735   6.750   1.313   0.283
 6946SOL     OW21736   4.163   6.781   1.207
 6946SOL    HW121737   4.125   6.717   1.141
 6946SOL    HW221738   4.160   6.874   1.169
 6947SOL     OW21739   3.340   5.446   6.971
 6947SOL    HW121740   3.268   5.513   6.950
 6947SOL    HW221741   3.408   5.488   0.008
 6948SOL     OW21742   0.737   6.733   1.049
 6948SOL    HW121743   0.810   6.691   0.995
 6948SOL    HW221744   0.769   6.820   1.086
 6949SOL     OW21745   4.202   0.213   3.528
 6949SOL    HW121746   4.152   0.148   3.586
 6949SOL    HW221747   4.220   0.297   3.580
 6950SOL     OW21748   1.074   1.662   4.887
 6950SOL    HW121749   1.019   1.586   4.920
 6950SOL    HW221750   1.163   1.627   4.854
 6951SOL     OW21751   6.439   5.784   5.675
 6951SOL    HW121752   6.441   5.692   5.636
 6951SOL    HW221753   6.522   5.799   5.730
 6952SOL     OW21754   0.864   5.954   3.205
 6952SOL    HW121755   0.885   6.018   3.279
 6952SOL    HW221756   0.767   5.928   3.210
 6953SOL     OW21757   4.120   6.523   1.697
 6953SOL    HW121758   4.188   6.594   1.682
 6953SOL    HW221759   4.062   6.548   1.774
 6954SOL     OW21760   0.281   3.845   2.010
 6954SOL    HW121761   0.203   3.844   1.948
 6954SOL    HW221762   0.342   3.922   1.986
 6955SOL     OW21763   5.634   0.680   1.750
 6955SOL    HW121764   5.598   0.600   1.702
 6955SOL    HW221765   5.574   0.703   1.827
 6956SOL     OW21766   5.371   5.979   3.510
 6956SOL    HW121767   5.381   6.042   3.586
 6956SOL    HW221768   5.365   6.030   3.424
 6957SOL     OW21769   5.849   5.484   1.011
 6957SOL    HW121770   5.943   5.455   0.997
 6957SOL    HW221771   5.810   5.517   0.925
 6958SOL     OW21772   3.663   3.299   4.827
 6958SOL    HW121773   3.580   3.255   4.861
 6958SOL    HW221774   3.732   3.299   4.899
 6959SOL     OW21775   2.284   2.900   3.475
 6959SOL    HW121776   2.267   2.994   3.502
 6959SOL    HW221777   2.290   2.842   3.556
 6960SOL     OW21778   1.210   3.943   1.284
 6960SOL    HW121779   1.261   3.877   1.228
 6960SOL    HW221780   1.236   4.036   1.258
 6961SOL     OW21781   6.066   0.690   4.516
 6961SOL    HW121782   6.011   0.637   4.580
 6961SOL    HW221783   6.047   0.660   4.422
 6962SOL     OW21784   4.411   6.093   1.744
 6962SOL    HW121785   4.339   6.163   1.735
 6962SOL    HW221786   4.495   6.136   1.776
 6963SOL     OW21787   5.213   5.833   1.512
 6963SOL    HW121788   5.215   5.890   1.430
 6963SOL    HW221789   5.253   5.744   1.492
 6964SOL     OW21790   3.791   1.410   5.488
 6964SOL    HW121791   3.883   1.401   5.451
 6964SOL    HW221792   3.748   1.493   5.452
 6965SOL     OW21793   1.383   1.104   6.822
 6965SOL    HW121794   1.466   1.076   6.775
 6965SOL    HW221795   1.385   1.071   6.917
 6966SOL     OW21796   0.974   2.034   2.145
 6966SOL    HW121797   1.063   2.079   2.141
 6966SOL    HW221798   0.980   1.952   2.202
 6967SOL     OW21799   3.158   0.977   6.359
 6967SOL    HW121800   3.226   0.970   6.286
 6967SOL    HW221801   3.067   0.962   6.321
 6968SOL     OW21802   4.210   0.607   3.365
 6968SOL    HW121803   4.127   0.664   3.369
 6968SOL    HW221804   4.248   0.609   3.272
 6969SOL     OW21805   2.896   2.230   1.694
 6969SOL    HW121806   2.908   2.304   1.760
 6969SOL    HW221807   2.957   2.154   1.717
 6970SOL     OW21808   3.930   3.835   5.878
 6970SOL    HW121809   4.004   3.880   5.927
 6970SOL    HW221810   3.916   3.743   5.915
 6971SOL     OW21811   6.236   4.501   0.686
 6971SOL    HW121812   6.235   4.406   0.718
 6971SOL    HW221813   6.280   4.559   0.755
 6972SOL     OW21814   5.817   4.573   3.269
 6972SOL    HW121815   5.851   4.568   3.363
 6972SOL    HW221816   5.787   4.666   3.249
 6973SOL     OW21817   0.549   3.359   3.231
 6973SOL    HW121818   0.479   3.335   3.164
 6973SOL    HW221819   0.615   3.284   3.239
 6974SOL     OW21820   2.973   3.786   2.415
 6974SOL    HW121821   2.998   3.766   2.320
 6974SOL    HW221822   3.009   3.715   2.475
 6975SOL     OW21823   1.430   6.669   5.558
 6975SOL    HW121824   1.342   6.632   5.588
 6975SOL    HW221825   1.454   6.748   5.614
 6976SOL     OW21826   6.505   5.482   6.101
 6976SOL    HW121827   6.598   5.444   6.102
 6976SOL    HW221828   6.439   5.407   6.102
 6977SOL     OW21829   3.542   2.884   1.161
 6977SOL    HW121830   3.598   2.926   1.232
 6977SOL    HW221831   3.596   2.816   1.112
 6978SOL     OW21832   5.575   2.159   2.059
 6978SOL    HW121833   5.621   2.137   2.145
 6978SOL    HW221834   5.497   2.219   2.077
 6979SOL     OW21835   0.998   4.400   1.318
 6979SOL    HW121836   0.991   4.300   1.310
 6979SOL    HW221837   0.943   4.430   1.396
 6980SOL     OW21838   1.228   0.759   3.393
 6980SOL    HW121839   1.134   0.772   3.361
 6980SOL    HW221840   1.227   0.723   3.486
 6981SOL     OW21841   3.608   3.739   5.827
 6981SOL    HW121842   3.599   3.684   5.744
 6981SOL    HW221843   3.679   3.700   5.885
 6982SOL     OW21844   0.952   1.395   4.457
 6982SOL    HW121845   1.044   1.425   4.433
 6982SOL    HW221846   0.947   1.295   4.454
 6983SOL     OW21847   4.142   2.094   3.822
 6983SOL    HW121848   4.125   2.009   3.871
 6983SOL    HW221849   4.076   2.104   3.748
 6984SOL     OW21850   1.816   1.561   3.320
 6984SOL    HW121851   1.784   1.654   3.304
 6984SOL    HW221852   1.743   1.496   3.297
 6985SOL     OW21853   5.906   4.855   1.364
 6985SOL    HW121854   5.871   4.815   1.279
 6985SOL    HW221855   5.910   4.954   1.355
 6986SOL     OW21856   2.674   6.909   6.400
 6986SOL    HW121857   2.742   6.982   6.396
 6986SOL    HW221858   2.665   6.867   6.310
 6987SOL     OW21859   6.199   1.086   5.968
 6987SOL    HW121860   6.292   1.114   5.992
 6987SOL    HW221861   6.171   1.009   6.026
 6988SOL     OW21862   0.973   6.831   6.747
 6988SOL    HW121863   0.948   6.851   6.652
 6988SOL    HW221864   0.926   6.748   6.777
 6989SOL     OW21865   0.851   4.589   3.099
 6989SOL    HW121866   0.937   4.615   3.055
 6989SOL    HW221867   0.846   4.632   3.190
 6990SOL     OW21868   4.391   2.692   1.181
 6990SOL    HW121869   4.359   2.605   1.144
 6990SOL    HW221870   4.487   2.683   1.209
 6991SOL     OW21871   4.724   4.503   3.569
 6991SOL    HW121872   4.734   4.525   3.666
 6991SOL    HW221873   4.722   4.404   3.557
 6992SOL     OW21874   5.390   0.511   6.444
 6992SOL    HW121875   5.361   0.471   6.357
 6992SOL    HW221876   5.352   0.458   6.519
 6993SOL     OW21877   6.138   6.933   2.840
 6993SOL    HW121878   6.106   6.975   2.756
 6993SOL    HW221879   6.229   6.966   2.862
 6994SOL     OW21880   0.337   2.270   3.844
 6994SOL    HW121881   0.320   2.255   3.746
 6994SOL    HW221882   0.426   2.232   3.869
 6995SOL     OW21883   0.728   4.366   6.403
 6995SOL    HW121884   0.757   4.458   6.431
 6995SOL    HW221885   0.670   4.326   6.474
 6996SOL     OW21886   1.818   0.107   6.904
 6996SOL    HW121887   1.735   0.054   6.925
 6996SOL    HW221888   1.898   0.046   6.908
 6997SOL     OW21889   0.431   5.313   5.808
 6997SOL    HW121890   0.360   5.258   5.764
 6997SOL    HW221891   0.430   5.405   5.770
 6998SOL     OW21892   1.494   1.287   1.418
 6998SOL    HW121893   1.549   1.215   1.460
 6998SOL    HW221894   1.526   1.376   1.451
 6999SOL     OW21895   2.322   2.669   6.480
 6999SOL    HW121896   2.326   2.646   6.577
 6999SOL    HW221897   2.228   2.690   6.454
 7000SOL     OW21898   5.633   6.424   1.800
 7000SOL    HW121899   5.569   6.488   1.758
 7000SOL    HW221900   5.718   6.472   1.821
 7001SOL     OW21901   1.802   3.885   5.770
 7001SOL    HW121902   1.789   3.789   5.745
 7001SOL    HW221903   1.789   3.943   5.689
 7002SOL     OW21904   1.492   5.630   4.229
 7002SOL    HW121905   1.407   5.678   4.250
 7002SOL    HW221906   1.524   5.657   4.139
 7003SOL     OW21907   4.424   5.423   1.007
 7003SOL    HW121908   4.400   5.450   0.914
 7003SOL    HW221909   4.360   5.466   1.071
 7004SOL     OW21910   0.458   5.552   1.602
 7004SOL    HW121911   0.503   5.580   1.517
 7004SOL    HW221912   0.462   5.453   1.612
 7005SOL     OW21913   0.966   0.235   0.945
 7005SOL    HW121914   1.036   0.209   1.012
 7005SOL    HW221915   0.930   0.152   0.902
 7006SOL     OW21916   5.241   5.364   4.030
 7006SOL    HW121917   5.339   5.370   4.011
 7006SOL    HW221918   5.201   5.291   3.973
 7007SOL     OW21919   4.587   0.712   4.571
 7007SOL    HW121920   4.631   0.661   4.498
 7007SOL    HW221921   4.490   0.689   4.575
 7008SOL     OW21922   0.490   4.634   4.191
 7008SOL    HW121923   0.456   4.541   4.180
 7008SOL    HW221924   0.412   4.697   4.192
 7009SOL     OW21925   4.175   6.217   2.546
 7009SOL    HW121926   4.083   6.178   2.543
 7009SOL    HW221927   4.216   6.211   2.455
 7010SOL     OW21928   5.685   4.414   3.641
 7010SOL    HW121929   5.629   4.331   3.644
 7010SOL    HW221930   5.678   4.461   3.729
 7011SOL     OW21931   3.323   6.378   6.553
 7011SOL    HW121932   3.271   6.306   6.507
 7011SOL    HW221933   3.417   6.377   6.520
 7012SOL     OW21934   1.086   2.157   1.082
 7012SOL    HW121935   1.175   2.148   1.126
 7012SOL    HW221936   1.046   2.245   1.106
 7013SOL     OW21937   0.936   6.344   0.054
 7013SOL    HW121938   0.916   6.345   6.979
 7013SOL    HW221939   0.935   6.437   0.090
 7014SOL     OW21940   4.732   3.291   0.724
 7014SOL    HW121941   4.716   3.320   0.818
 7014SOL    HW221942   4.718   3.368   0.662
 7015SOL     OW21943   5.604   4.061   1.622
 7015SOL    HW121944   5.596   4.054   1.523
 7015SOL    HW221945   5.666   4.136   1.645
 7016SOL     OW21946   3.526   5.485   1.224
 7016SOL    HW121947   3.573   5.469   1.311
 7016SOL    HW221948   3.584   5.540   1.165
 7017SOL     OW21949   2.685   5.073   3.503
 7017SOL    HW121950   2.779   5.104   3.517
 7017SOL    HW221951   2.675   5.037   3.410
 7018SOL     OW21952   5.473   3.389   4.123
 7018SOL    HW121953   5.404   3.381   4.194
 7018SOL    HW221954   5.510   3.298   4.102
 7019SOL     OW21955   4.011   4.963   0.461
 7019SOL    HW121956   4.047   5.014   0.382
 7019SOL    HW221957   3.912   4.969   0.462
 7020SOL     OW21958   6.631   4.342   5.826
 7020SOL    HW121959   6.549   4.296   5.858
 7020SOL    HW221960   6.606   4.419   5.768
 7021SOL     OW21961   1.761   2.171   4.743
 7021SOL    HW121962   1.840   2.205   4.795
 7021SOL    HW221963   1.684   2.156   4.806
 7022SOL     OW21964   4.624   0.516   6.730
 7022SOL    HW121965   4.620   0.578   6.652
 7022SOL    HW221966   4.706   0.459   6.723
 7023SOL     OW21967   1.572   2.898   3.032
 7023SOL    HW121968   1.611   2.962   2.966
 7023SOL    HW221969   1.637   2.824   3.050
 7024SOL     OW21970   3.290   3.718   4.658
 7024SOL    HW121971   3.365   3.784   4.655
 7024SOL    HW221972   3.292   3.661   4.576
 7025SOL     OW21973   3.816   0.651   1.043
 7025SOL    HW121974   3.736   0.704   1.072
 7025SOL    HW221975   3.883   0.712   1.001
 7026SOL     OW21976   3.459   2.091   2.178
 7026SOL    HW121977   3.499   2.161   2.119
 7026SOL    HW221978   3.531   2.038   2.221
 7027SOL     OW21979   2.349   5.316   4.229
 7027SOL    HW121980   2.270   5.377   4.227
 7027SOL    HW221981   2.429   5.367   4.261
 7028SOL     OW21982   3.537   1.234   2.638
 7028SOL    HW121983   3.535   1.301   2.564
 7028SOL    HW221984   3.607   1.165   2.619
 7029SOL     OW21985   4.084   4.506   5.327
 7029SOL    HW121986   4.157   4.501   5.259
 7029SOL    HW221987   4.122   4.488   5.418
 7030SOL     OW21988   0.351   0.984   5.091
 7030SOL    HW121989   0.279   1.001   5.159
 7030SOL    HW221990   0.437   1.022   5.124
 7031SOL     OW21991   3.766   6.092   6.785
 7031SOL    HW121992   3.667   6.088   6.771
 7031SOL    HW221993   3.785   6.108   6.882
 7032SOL     OW21994   4.690   1.520   3.958
 7032SOL    HW121995   4.681   1.453   4.032
 7032SOL    HW221996   4.702   1.611   3.996
 7033SOL     OW21997   1.498   2.535   3.423
 7033SOL    HW121998   1.514   2.629   3.455
 7033SOL    HW221999   1.456   2.481   3.496
 7034SOL     OW22000   7.009   1.748   2.950
 7034SOL    HW122001   6.994   1.688   3.029
 7034SOL    HW222002   0.019   1.694   2.873
 7035SOL     OW22003   1.488   0.258   0.656
 7035SOL    HW122004   1.536   0.191   0.599
 7035SOL    HW222005   1.526   0.256   0.749
 7036SOL     OW22006   6.752   1.095   2.122
 7036SOL    HW122007   6.790   1.007   2.093
 7036SOL    HW222008   6.807   1.133   2.196
 7037SOL     OW22009   1.069   1.289   6.636
 7037SOL    HW122010   1.155   1.304   6.588
 7037SOL    HW222011   1.027   1.377   6.657
 7038SOL     OW22012   2.270   4.268   5.110
 7038SOL    HW122013   2.360   4.307   5.130
 7038SOL    HW222014   2.281   4.173   5.081
 7039SOL     OW22015   0.680   6.033   2.579
 7039SOL    HW122016   0.617   6.104   2.609
 7039SOL    HW222017   0.684   6.032   2.479
 7040SOL     OW22018   5.749   2.507   5.561
 7040SOL    HW122019   5.735   2.432   5.625
 7040SOL    HW222020   5.785   2.471   5.475
 7041SOL     OW22021   6.706   1.543   1.818
 7041SOL    HW122022   6.701   1.642   1.806
 7041SOL    HW222023   6.792   1.509   1.781
 7042SOL     OW22024   4.419   5.764   4.694
 7042SOL    HW122025   4.431   5.844   4.636
 7042SOL    HW222026   4.356   5.786   4.769
 7043SOL     OW22027   2.414   4.654   3.471
 7043SOL    HW122028   2.347   4.595   3.516
 7043SOL    HW222029   2.366   4.725   3.420
 7044SOL     OW22030   5.754   5.061   5.123
 7044SOL    HW122031   5.691   5.000   5.172
 7044SOL    HW222032   5.835   5.010   5.095
 7045SOL     OW22033   5.024   5.078   2.555
 7045SOL    HW122034   4.997   4.994   2.602
 7045SOL    HW222035   5.044   5.149   2.623
 7046SOL     OW22036   3.030   1.689   3.479
 7046SOL    HW122037   3.081   1.721   3.559
 7046SOL    HW222038   3.094   1.653   3.411
 7047SOL     OW22039   6.418   0.612   2.062
 7047SOL    HW122040   6.501   0.600   2.116
 7047SOL    HW222041   6.389   0.524   2.026
 7048SOL     OW22042   6.169   6.800   4.056
 7048SOL    HW122043   6.191   6.877   4.115
 7048SOL    HW222044   6.123   6.833   3.973
 7049SOL     OW22045   4.101   1.834   0.901
 7049SOL    HW122046   4.004   1.815   0.881
 7049SOL    HW222047   4.158   1.764   0.857
 7050SOL     OW22048   4.161   3.575   1.262
 7050SOL    HW122049   4.074   3.561   1.309
 7050SOL    HW222050   4.231   3.516   1.304
 7051SOL     OW22051   0.288   6.483   1.058
 7051SOL    HW122052   0.300   6.424   0.978
 7051SOL    HW222053   0.374   6.528   1.080
 7052SOL     OW22054   6.737   1.308   3.471
 7052SOL    HW122055   6.779   1.267   3.391
 7052SOL    HW222056   6.808   1.343   3.532
 7053SOL     OW22057   1.865   3.602   4.593
 7053SOL    HW122058   1.803   3.523   4.592
 7053SOL    HW222059   1.843   3.663   4.516
 7054SOL     OW22060   0.037   6.685   0.737
 7054SOL    HW122061   6.976   6.634   0.754
 7054SOL    HW222062   0.105   6.624   0.696
 7055SOL     OW22063   2.648   0.277   6.887
 7055SOL    HW122064   2.714   0.282   6.963
 7055SOL    HW222065   2.566   0.229   6.917
 7056SOL     OW22066   6.438   5.081   1.563
 7056SOL    HW122067   6.470   5.127   1.480
 7056SOL    HW222068   6.339   5.087   1.569
 7057SOL     OW22069   2.835   5.112   3.936
 7057SOL    HW122070   2.900   5.046   3.900
 7057SOL    HW222071   2.748   5.067   3.955
 7058SOL     OW22072   5.332   2.547   6.024
 7058SOL    HW122073   5.301   2.632   6.068
 7058SOL    HW222074   5.426   2.558   5.993
 7059SOL     OW22075   0.805   0.986   3.757
 7059SOL    HW122076   0.904   0.980   3.745
 7059SOL    HW222077   0.765   1.047   3.689
 7060SOL     OW22078   3.454   0.434   0.955
 7060SOL    HW122079   3.441   0.521   0.907
 7060SOL    HW222080   3.368   0.383   0.955
 7061SOL     OW22081   0.500   3.233   4.020
 7061SOL    HW122082   0.531   3.228   4.115
 7061SOL    HW222083   0.400   3.238   4.019
 7062SOL     OW22084   3.336   2.038   5.037
 7062SOL    HW122085   3.298   1.989   5.116
 7062SOL    HW222086   3.298   2.130   5.034
 7063SOL     OW22087   1.413   6.697   1.560
 7063SOL    HW122088   1.453   6.756   1.630
 7063SOL    HW222089   1.456   6.716   1.471
 7064SOL     OW22090   3.765   2.275   0.051
 7064SOL    HW122091   3.781   2.365   0.011
 7064SOL    HW222092   3.688   2.231   0.005
 7065SOL     OW22093   3.337   3.960   5.493
 7065SOL    HW122094   3.396   3.925   5.420
 7065SOL    HW222095   3.367   4.051   5.520
 7066SOL     OW22096   3.459   0.212   5.936
 7066SOL    HW122097   3.443   0.289   5.999
 7066SOL    HW222098   3.557   0.207   5.914
 7067SOL     OW22099   1.188   3.239   5.516
 7067SOL    HW122100   1.287   3.233   5.503
 7067SOL    HW222101   1.145   3.275   5.433
 7068SOL     OW22102   6.063   4.097   4.896
 7068SOL    HW122103   6.137   4.165   4.895
 7068SOL    HW222104   5.999   4.117   4.822
 7069SOL     OW22105   5.750   1.321   4.918
 7069SOL    HW122106   5.752   1.278   4.828
 7069SOL    HW222107   5.752   1.421   4.908
 7070SOL     OW22108   0.883   6.650   4.520
 7070SOL    HW122109   0.819   6.723   4.543
 7070SOL    HW222110   0.896   6.591   4.599
 7071SOL     OW22111   3.410   6.057   7.002
 7071SOL    HW122112   3.391   6.097   0.069
 7071SOL    HW222113   3.381   5.961   7.001
 7072SOL     OW22114   1.912   5.564   0.343
 7072SOL    HW122115   1.888   5.613   0.259
 7072SOL    HW222116   2.000   5.517   0.330
 7073SOL     OW22117   4.964   0.083   3.542
 7073SOL    HW122118   4.911   0.113   3.622
 7073SOL    HW222119   5.057   0.119   3.548
 7074SOL     OW22120   6.164   3.247   2.055
 7074SOL    HW122121   6.105   3.256   1.975
 7074SOL    HW222122   6.156   3.154   2.092
 7075SOL     OW22123   1.643   4.266   4.653
 7075SOL    HW122124   1.578   4.191   4.640
 7075SOL    HW222125   1.719   4.255   4.589
 7076SOL     OW22126   5.529   2.995   0.305
 7076SOL    HW122127   5.596   2.929   0.270
 7076SOL    HW222128   5.440   2.978   0.263
 7077SOL     OW22129   2.178   4.032   3.636
 7077SOL    HW122130   2.201   4.058   3.542
 7077SOL    HW222131   2.118   3.952   3.635
 7078SOL     OW22132   6.333   6.267   1.153
 7078SOL    HW122133   6.287   6.326   1.087
 7078SOL    HW222134   6.393   6.323   1.211
 7079SOL     OW22135   0.928   6.564   3.702
 7079SOL    HW122136   0.854   6.607   3.650
 7079SOL    HW222137   0.916   6.584   3.799
 7080SOL     OW22138   3.520   1.307   4.547
 7080SOL    HW122139   3.447   1.359   4.592
 7080SOL    HW222140   3.602   1.363   4.543
 7081SOL     OW22141   1.475   5.647   0.629
 7081SOL    HW122142   1.557   5.593   0.612
 7081SOL    HW222143   1.395   5.587   0.623
 7082SOL     OW22144   6.897   4.436   0.315
 7082SOL    HW122145   6.853   4.360   0.364
 7082SOL    HW222146   6.882   4.426   0.217
 7083SOL     OW22147   0.467   1.410   1.902
 7083SOL    HW122148   0.510   1.402   1.992
 7083SOL    HW222149   0.509   1.485   1.851
 7084SOL     OW22150   1.081   5.023   5.598
 7084SOL    HW122151   1.069   5.012   5.697
 7084SOL    HW222152   1.027   5.102   5.567
 7085SOL     OW22153   0.039   2.020   2.354
 7085SOL    HW122154   0.027   1.970   2.268
 7085SOL    HW222155   0.038   1.955   2.430
 7086SOL     OW22156   5.393   1.109   5.955
 7086SOL    HW122157   5.442   1.052   5.889
 7086SOL    HW222158   5.350   1.186   5.908
 7087SOL     OW22159   6.010   4.575   2.681
 7087SOL    HW122160   6.042   4.648   2.742
 7087SOL    HW222161   5.995   4.492   2.734
 7088SOL     OW22162   5.110   2.387   5.385
 7088SOL    HW122163   5.053   2.401   5.466
 7088SOL    HW222164   5.141   2.476   5.352
 7089SOL     OW22165   2.287   2.772   3.724
 7089SOL    HW122166   2.207   2.712   3.731
 7089SOL    HW222167   2.333   2.776   3.813
 7090SOL     OW22168   2.734   1.403   0.434
 7090SOL    HW122169   2.793   1.396   0.354
 7090SOL    HW222170   2.663   1.471   0.418
 7091SOL     OW22171   0.550   1.023   0.916
 7091SOL    HW122172   0.566   1.045   0.820
 7091SOL    HW222173   0.633   1.040   0.969
 7092SOL     OW22174   4.295   2.876   5.655
 7092SOL    HW122175   4.375   2.841   5.605
 7092SOL    HW222176   4.278   2.971   5.628
 7093SOL     OW22177   3.435   4.172   1.813
 7093SOL    HW122178   3.354   4.130   1.853
 7093SOL    HW222179   3.511   4.106   1.814
 7094SOL     OW22180   0.398   6.380   5.740
 7094SOL    HW122181   0.301   6.364   5.723
 7094SOL    HW222182   0.452   6.303   5.705
 7095SOL     OW22183   2.890   4.851   5.848
 7095SOL    HW122184   2.859   4.830   5.941
 7095SOL    HW222185   2.986   4.878   5.850
 7096SOL     OW22186   6.243   6.819   1.786
 7096SOL    HW122187   6.165   6.831   1.848
 7096SOL    HW222188   6.211   6.823   1.691
 7097SOL     OW22189   4.926   0.695   2.225
 7097SOL    HW122190   4.862   0.713   2.300
 7097SOL    HW222191   4.895   0.616   2.173
 7098SOL     OW22192   1.634   5.309   5.730
 7098SOL    HW122193   1.665   5.366   5.806
 7098SOL    HW222194   1.619   5.215   5.763
 7099SOL     OW22195   3.746   2.066   4.549
 7099SOL    HW122196   3.761   1.986   4.607
 7099SOL    HW222197   3.738   2.147   4.608
 7100SOL     OW22198   6.328   3.434   0.393
 7100SOL    HW122199   6.402   3.501   0.404
 7100SOL    HW222200   6.367   3.342   0.391
 7101SOL     OW22201   2.751   1.261   5.101
 7101SOL    HW122202   2.652   1.257   5.086
 7101SOL    HW222203   2.774   1.343   5.152
 7102SOL     OW22204   5.803   6.816   0.465
 7102SOL    HW122205   5.864   6.846   0.538
 7102SOL    HW222206   5.723   6.770   0.505
 7103SOL     OW22207   5.597   5.236   1.837
 7103SOL    HW122208   5.677   5.265   1.891
 7103SOL    HW222209   5.594   5.136   1.833
 7104SOL     OW22210   6.721   3.545   2.844
 7104SOL    HW122211   6.722   3.547   2.944
 7104SOL    HW222212   6.626   3.537   2.812
 7105SOL     OW22213   3.222   3.561   4.867
 7105SOL    HW122214   3.303   3.504   4.878
 7105SOL    HW222215   3.231   3.616   4.785
 7106SOL     OW22216   3.702   3.045   1.725
 7106SOL    HW122217   3.740   3.137   1.741
 7106SOL    HW222218   3.608   3.053   1.693
 7107SOL     OW22219   4.854   0.250   0.602
 7107SOL    HW122220   4.822   0.158   0.582
 7107SOL    HW222221   4.913   0.282   0.528
 7108SOL     OW22222   3.000   5.745   2.712
 7108SOL    HW122223   3.036   5.806   2.783
 7108SOL    HW222224   2.935   5.796   2.655
 7109SOL     OW22225   1.913   0.339   6.985
 7109SOL    HW122226   1.900   0.246   6.952
 7109SOL    HW222227   1.829   0.392   6.972
 7110SOL     OW22228   3.080   5.989   3.959
 7110SOL    HW122229   3.051   5.986   4.054
 7110SOL    HW222230   3.142   5.913   3.940
 7111SOL     OW22231   1.655   2.664   4.210
 7111SOL    HW122232   1.635   2.726   4.286
 7111SOL    HW222233   1.746   2.684   4.174
 7112SOL     OW22234   2.148   5.044   4.683
 7112SOL    HW122235   2.129   5.029   4.780
 7112SOL    HW222236   2.247   5.052   4.669
 7113SOL     OW22237   3.564   4.204   4.890
 7113SOL    HW122238   3.659   4.181   4.908
 7113SOL    HW222239   3.560   4.288   4.835
 7114SOL     OW22240   4.965   5.562   0.980
 7114SOL    HW122241   4.871   5.566   0.946
 7114SOL    HW222242   4.965   5.569   1.080
 7115SOL     OW22243   4.602   2.985   6.894
 7115SOL    HW122244   4.633   2.900   6.936
 7115SOL    HW222245   4.622   3.062   6.955
 7116SOL     OW22246   5.228   4.498   3.327
 7116SOL    HW122247   5.240   4.414   3.381
 7116SOL    HW222248   5.308   4.511   3.268
 7117SOL     OW22249   0.321   0.280   4.723
 7117SOL    HW122250   0.354   0.199   4.675
 7117SOL    HW222251   0.396   0.347   4.731
 7118SOL     OW22252   3.746   4.647   6.030
 7118SOL    HW122253   3.658   4.687   6.055
 7118SOL    HW222254   3.769   4.672   5.936
 7119SOL     OW22255   5.268   0.966   4.853
 7119SOL    HW122256   5.243   1.021   4.933
 7119SOL    HW222257   5.294   0.874   4.883
 7120SOL     OW22258   4.020   1.861   1.392
 7120SOL    HW122259   4.033   1.762   1.385
 7120SOL    HW222260   3.971   1.883   1.476
 7121SOL     OW22261   0.576   6.675   3.201
 7121SOL    HW122262   0.578   6.686   3.300
 7121SOL    HW222263   0.486   6.640   3.173
 7122SOL     OW22264   1.763   0.582   5.890
 7122SOL    HW122265   1.794   0.626   5.806
 7122SOL    HW222266   1.746   0.651   5.960
 7123SOL     OW22267   1.200   4.894   3.975
 7123SOL    HW122268   1.190   4.848   4.063
 7123SOL    HW222269   1.215   4.991   3.989
 7124SOL     OW22270   0.781   2.730   1.651
 7124SOL    HW122271   0.784   2.812   1.707
 7124SOL    HW222272   0.703   2.673   1.679
 7125SOL     OW22273   0.647   1.029   0.660
 7125SOL    HW122274   0.661   0.940   0.617
 7125SOL    HW222275   0.734   1.063   0.696
 7126SOL     OW22276   4.333   5.692   0.684
 7126SOL    HW122277   4.338   5.756   0.607
 7126SOL    HW222278   4.277   5.613   0.658
 7127SOL     OW22279   3.156   5.672   6.925
 7127SOL    HW122280   3.062   5.643   6.940
 7127SOL    HW222281   3.162   5.724   6.840
 7128SOL     OW22282   3.234   4.306   6.646
 7128SOL    HW122283   3.311   4.366   6.666
 7128SOL    HW222284   3.148   4.357   6.654
 7129SOL     OW22285   2.091   1.268   0.912
 7129SOL    HW122286   2.101   1.170   0.897
 7129SOL    HW222287   2.055   1.284   1.004
 7130SOL     OW22288   3.618   6.352   3.990
 7130SOL    HW122289   3.689   6.389   4.050
 7130SOL    HW222290   3.592   6.261   4.024
 7131SOL     OW22291   3.326   1.335   1.617
 7131SOL    HW122292   3.397   1.404   1.600
 7131SOL    HW222293   3.289   1.349   1.709
 7132SOL     OW22294   4.283   4.089   0.552
 7132SOL    HW122295   4.294   4.188   0.562
 7132SOL    HW222296   4.302   4.063   0.457
 7133SOL     OW22297   3.782   5.033   5.106
 7133SOL    HW122298   3.727   5.106   5.148
 7133SOL    HW222299   3.767   4.948   5.156
 7134SOL     OW22300   5.239   0.005   1.792
 7134SOL    HW122301   5.265   6.932   1.800
 7134SOL    HW222302   5.265   0.054   1.876
 7135SOL     OW22303   2.617   2.530   3.361
 7135SOL    HW122304   2.616   2.530   3.461
 7135SOL    HW222305   2.704   2.493   3.328
 7136SOL     OW22306   3.485   1.466   0.617
 7136SOL    HW122307   3.504   1.522   0.698
 7136SOL    HW222308   3.409   1.404   0.635
 7137SOL     OW22309   2.649   2.126   0.188
 7137SOL    HW122310   2.742   2.126   0.227
 7137SOL    HW222311   2.587   2.174   0.250
 7138SOL     OW22312   2.165   1.459   0.725
 7138SOL    HW122313   2.140   1.379   0.780
 7138SOL    HW222314   2.262   1.480   0.739
 7139SOL     OW22315   4.906   4.690   2.412
 7139SOL    HW122316   4.945   4.696   2.503
 7139SOL    HW222317   4.930   4.602   2.371
 7140SOL     OW22318   6.179   3.882   0.734
 7140SOL    HW122319   6.272   3.917   0.743
 7140SOL    HW222320   6.164   3.851   0.640
 7141SOL     OW22321   3.699   6.857   1.223
 7141SOL    HW122322   3.720   6.888   1.315
 7141SOL    HW222323   3.738   6.921   1.156
 7142SOL     OW22324   4.136   6.869   4.210
 7142SOL    HW122325   4.105   6.897   4.301
 7142SOL    HW222326   4.110   6.938   4.143
 7143SOL     OW22327   2.405   3.499   6.994
 7143SOL    HW122328   2.325   3.466   6.944
 7143SOL    HW222329   2.383   3.508   0.068
 7144SOL     OW22330   0.915   1.330   2.738
 7144SOL    HW122331   0.886   1.332   2.642
 7144SOL    HW222332   0.848   1.277   2.792
 7145SOL     OW22333   4.186   0.371   6.517
 7145SOL    HW122334   4.215   0.275   6.515
 7145SOL    HW222335   4.241   0.421   6.583
 7146SOL     OW22336   1.571   0.765   6.313
 7146SOL    HW122337   1.614   0.690   6.263
 7146SOL    HW222338   1.534   0.832   6.249
 7147SOL     OW22339   6.981   6.098   3.426
 7147SOL    HW122340   6.966   6.197   3.421
 7147SOL    HW222341   0.056   6.079   3.436
 7148SOL     OW22342   5.837   5.919   1.637
 7148SOL    HW122343   5.840   6.016   1.657
 7148SOL    HW222344   5.787   5.871   1.709
 7149SOL     OW22345   0.655   5.311   3.724
 7149SOL    HW122346   0.714   5.362   3.662
 7149SOL    HW222347   0.708   5.237   3.768
 7150SOL     OW22348   3.380   3.343   0.293
 7150SOL    HW122349   3.437   3.403   0.238
 7150SOL    HW222350   3.338   3.273   0.234
 7151SOL     OW22351   2.500   6.997   0.895
 7151SOL    HW122352   2.407   6.962   0.892
 7151SOL    HW222353   2.559   6.933   0.943
 7152SOL     OW22354   6.492   0.305   5.671
 7152SOL    HW122355   6.561   0.378   5.681
 7152SOL    HW222356   6.532   0.230   5.619
 7153SOL     OW22357   3.333   5.149   1.910
 7153SOL    HW122358   3.401   5.212   1.949
 7153SOL    HW222359   3.379   5.067   1.877
 7154SOL     OW22360   4.373   6.615   2.941
 7154SOL    HW122361   4.394   6.594   2.846
 7154SOL    HW222362   4.287   6.666   2.946
 7155SOL     OW22363   3.301   3.468   1.754
 7155SOL    HW122364   3.389   3.509   1.778
 7155SOL    HW222365   3.291   3.381   1.802
 7156SOL     OW22366   5.303   3.340   2.292
 7156SOL    HW122367   5.307   3.375   2.199
 7156SOL    HW222368   5.379   3.276   2.308
 7157SOL     OW22369   6.643   5.213   1.792
 7157SOL    HW122370   6.544   5.213   1.805
 7157SOL    HW222371   6.688   5.179   1.875
 7158SOL     OW22372   0.894   6.897   3.057
 7158SOL    HW122373   0.818   6.896   3.122
 7158SOL    HW222374   0.870   6.952   2.977
 7159SOL     OW22375   1.467   5.018   4.205
 7159SOL    HW122376   1.443   4.924   4.229
 7159SOL    HW222377   1.400   5.081   4.244
 7160SOL     OW22378   6.227   6.218   2.945
 7160SOL    HW122379   6.134   6.246   2.922
 7160SOL    HW222380   6.288   6.239   2.869
 7161SOL     OW22381   3.267   3.973   2.543
 7161SOL    HW122382   3.248   3.902   2.611
 7161SOL    HW222383   3.191   3.979   2.479
 7162SOL     OW22384   0.759   4.919   6.055
 7162SOL    HW122385   0.792   4.970   6.134
 7162SOL    HW222386   0.779   4.971   5.972
 7163SOL     OW22387   2.907   0.731   2.494
 7163SOL    HW122388   2.967   0.811   2.486
 7163SOL    HW222389   2.958   0.655   2.534
 7164SOL     OW22390   2.498   0.278   4.816
 7164SOL    HW122391   2.430   0.215   4.853
 7164SOL    HW222392   2.576   0.283   4.879
 7165SOL     OW22393   5.762   6.289   1.986
 7165SOL    HW122394   5.753   6.190   1.984
 7165SOL    HW222395   5.703   6.329   1.915
 7166SOL     OW22396   5.276   2.144   0.052
 7166SOL    HW122397   5.372   2.123   0.070
 7166SOL    HW222398   5.249   2.107   6.986
 7167SOL     OW22399   4.986   3.138   5.031
 7167SOL    HW122400   5.075   3.121   5.071
 7167SOL    HW222401   4.996   3.151   4.932
 7168SOL     OW22402   3.016   2.218   3.222
 7168SOL    HW122403   2.967   2.147   3.171
 7168SOL    HW222404   3.092   2.252   3.166
 7169SOL     OW22405   6.903   4.460   5.004
 7169SOL    HW122406   6.900   4.387   5.073
 7169SOL    HW222407   6.827   4.448   4.940
 7170SOL     OW22408   4.595   6.800   2.469
 7170SOL    HW122409   4.638   6.817   2.558
 7170SOL    HW222410   4.633   6.863   2.401
 7171SOL     OW22411   5.947   3.643   0.280
 7171SOL    HW122412   5.936   3.613   0.375
 7171SOL    HW222413   5.885   3.592   0.222
 7172SOL     OW22414   2.106   1.041   5.327
 7172SOL    HW122415   2.201   1.010   5.328
 7172SOL    HW222416   2.095   1.119   5.389
 7173SOL     OW22417   6.200   4.750   6.282
 7173SOL    HW122418   6.197   4.670   6.222
 7173SOL    HW222419   6.295   4.778   6.296
 7174SOL     OW22420   6.858   4.490   0.668
 7174SOL    HW122421   6.887   4.563   0.729
 7174SOL    HW222422   6.929   4.473   0.599
 7175SOL     OW22423   0.092   3.107   5.439
 7175SOL    HW122424   0.174   3.150   5.402
 7175SOL    HW222425   0.084   3.128   5.536
 7176SOL     OW22426   6.763   1.760   4.070
 7176SOL    HW122427   6.861   1.742   4.067
 7176SOL    HW222428   6.738   1.819   3.994
 7177SOL     OW22429   1.527   4.616   5.610
 7177SOL    HW122430   1.455   4.588   5.673
 7177SOL    HW222431   1.509   4.709   5.577
 7178SOL     OW22432   0.448   1.676   6.383
 7178SOL    HW122433   0.356   1.667   6.345
 7178SOL    HW222434   0.463   1.607   6.453
 7179SOL     OW22435   1.142   3.449   4.723
 7179SOL    HW122436   1.123   3.351   4.715
 7179SOL    HW222437   1.078   3.489   4.789
 7180SOL     OW22438   2.481   4.099   0.403
 7180SOL    HW122439   2.505   4.065   0.312
 7180SOL    HW222440   2.543   4.060   0.471
 7181SOL     OW22441   2.294   0.290   0.290
 7181SOL    HW122442   2.275   0.377   0.243
 7181SOL    HW222443   2.253   0.215   0.239
 7182SOL     OW22444   0.811   3.699   3.884
 7182SOL    HW122445   0.815   3.797   3.866
 7182SOL    HW222446   0.876   3.652   3.825
 7183SOL     OW22447   1.948   5.507   1.895
 7183SOL    HW122448   1.861   5.537   1.932
 7183SOL    HW222449   2.023   5.558   1.939
 7184SOL     OW22450   0.052   0.853   3.829
 7184SOL    HW122451   0.137   0.905   3.844
 7184SOL    HW222452   0.006   0.839   3.917
 7185SOL     OW22453   5.701   1.309   5.532
 7185SOL    HW122454   5.679   1.322   5.629
 7185SOL    HW222455   5.670   1.219   5.502
 7186SOL     OW22456   6.776   1.478   1.463
 7186SOL    HW122457   6.714   1.556   1.461
 7186SOL    HW222458   6.855   1.495   1.404
 7187SOL     OW22459   3.109   4.137   5.318
 7187SOL    HW122460   3.132   4.170   5.410
 7187SOL    HW222461   3.010   4.132   5.308
 7188SOL     OW22462   4.610   5.929   0.244
 7188SOL    HW122463   4.603   5.902   0.340
 7188SOL    HW222464   4.573   5.856   0.186
 7189SOL     OW22465   6.364   2.727   6.001
 7189SOL    HW122466   6.455   2.750   6.035
 7189SOL    HW222467   6.331   2.800   5.940
 7190SOL     OW22468   6.154   6.120   1.342
 7190SOL    HW122469   6.089   6.188   1.376
 7190SOL    HW222470   6.186   6.148   1.251
 7191SOL     OW22471   0.882   4.525   2.723
 7191SOL    HW122472   0.854   4.477   2.640
 7191SOL    HW222473   0.954   4.473   2.769
 7192SOL     OW22474   1.568   4.120   6.605
 7192SOL    HW122475   1.627   4.053   6.648
 7192SOL    HW222476   1.546   4.090   6.512
 7193SOL     OW22477   2.317   2.287   2.376
 7193SOL    HW122478   2.285   2.346   2.302
 7193SOL    HW222479   2.370   2.211   2.338
 7194SOL     OW22480   2.019   2.926   6.802
 7194SOL    HW122481   2.088   2.959   6.738
 7194SOL    HW222482   1.961   3.003   6.831
 7195SOL     OW22483   6.663   4.274   6.670
 7195SOL    HW122484   6.640   4.275   6.767
 7195SOL    HW222485   6.603   4.338   6.621
 7196SOL     OW22486   2.550   3.828   1.676
 7196SOL    HW122487   2.526   3.919   1.710
 7196SOL    HW222488   2.467   3.773   1.664
 7197SOL     OW22489   1.368   3.509   5.928
 7197SOL    HW122490   1.463   3.488   5.949
 7197SOL    HW222491   1.350   3.606   5.948
 7198SOL     OW22492   0.683   1.285   0.099
 7198SOL    HW122493   0.753   1.263   0.167
 7198SOL    HW222494   0.607   1.333   0.143
 7199SOL     OW22495   1.018   0.211   2.640
 7199SOL    HW122496   1.071   0.283   2.597
 7199SOL    HW222497   1.055   0.190   2.730
 7200SOL     OW22498   2.491   2.789   6.738
 7200SOL    HW122499   2.499   2.833   6.827
 7200SOL    HW222500   2.580   2.755   6.709
 7201SOL     OW22501   0.887   5.897   4.200
 7201SOL    HW122502   0.901   5.820   4.137
 7201SOL    HW222503   0.969   5.909   4.256
 7202SOL     OW22504   4.605   6.582   6.600
 7202SOL    HW122505   4.542   6.505   6.602
 7202SOL    HW222506   4.667   6.573   6.522
 7203SOL     OW22507   6.979   1.078   1.722
 7203SOL    HW122508   6.950   1.122   1.637
 7203SOL    HW222509   7.000   1.147   1.791
 7204SOL     OW22510   0.061   1.331   6.444
 7204SOL    HW122511   0.119   1.296   6.371
 7204SOL    HW222512   0.103   1.412   6.485
 7205SOL     OW22513   1.326   4.171   5.464
 7205SOL    HW122514   1.337   4.104   5.391
 7205SOL    HW222515   1.402   4.164   5.528
 7206SOL     OW22516   1.593   1.030   2.115
 7206SOL    HW122517   1.653   1.086   2.057
 7206SOL    HW222518   1.499   1.037   2.082
 7207SOL     OW22519   3.618   0.399   4.563
 7207SOL    HW122520   3.661   0.395   4.473
 7207SOL    HW222521   3.543   0.333   4.566
 7208SOL     OW22522   4.784   0.252   3.357
 7208SOL    HW122523   4.792   0.315   3.280
 7208SOL    HW222524   4.870   0.204   3.371
 7209SOL     OW22525   2.338   3.082   1.636
 7209SOL    HW122526   2.433   3.106   1.654
 7209SOL    HW222527   2.281   3.163   1.642
 7210SOL     OW22528   4.009   2.034   3.592
 7210SOL    HW122529   3.972   2.072   3.507
 7210SOL    HW222530   3.952   1.958   3.623
 7211SOL     OW22531   2.255   6.112   5.008
 7211SOL    HW122532   2.242   6.148   4.915
 7211SOL    HW222533   2.170   6.070   5.039
 7212SOL     OW22534   0.275   5.965   5.607
 7212SOL    HW122535   0.247   6.026   5.681
 7212SOL    HW222536   0.299   6.020   5.526
 7213SOL     OW22537   3.562   6.331   6.991
 7213SOL    HW122538   3.577   6.371   0.059
 7213SOL    HW222539   3.547   6.233   7.001
 7214SOL     OW22540   6.143   0.232   5.582
 7214SOL    HW122541   6.046   0.224   5.608
 7214SOL    HW222542   6.171   0.328   5.588
 7215SOL     OW22543   6.051   3.176   4.202
 7215SOL    HW122544   6.042   3.098   4.263
 7215SOL    HW222545   6.130   3.162   4.142
 7216SOL     OW22546   2.806   0.311   2.249
 7216SOL    HW122547   2.861   0.300   2.332
 7216SOL    HW222548   2.743   0.388   2.260
 7217SOL     OW22549   1.862   3.483   3.379
 7217SOL    HW122550   1.816   3.434   3.305
 7217SOL    HW222551   1.873   3.579   3.353
 7218SOL     OW22552   6.599   2.822   4.483
 7218SOL    HW122553   6.684   2.862   4.518
 7218SOL    HW222554   6.546   2.787   4.560
 7219SOL     OW22555   3.207   0.870   2.634
 7219SOL    HW122556   3.142   0.924   2.686
 7219SOL    HW222557   3.267   0.931   2.582
 7220SOL     OW22558   6.618   4.667   3.964
 7220SOL    HW122559   6.636   4.688   4.060
 7220SOL    HW222560   6.631   4.749   3.908
 7221SOL     OW22561   3.941   6.093   4.710
 7221SOL    HW122562   3.892   6.088   4.623
 7221SOL    HW222563   3.972   6.002   4.736
 7222SOL     OW22564   6.292   6.491   3.734
 7222SOL    HW122565   6.288   6.472   3.636
 7222SOL    HW222566   6.265   6.409   3.785
 7223SOL     OW22567   3.217   1.442   0.859
 7223SOL    HW122568   3.250   1.366   0.803
 7223SOL    HW222569   3.133   1.479   0.819
 7224SOL     OW22570   5.163   2.682   4.255
 7224SOL    HW122571   5.120   2.696   4.344
 7224SOL    HW222572   5.100   2.632   4.196
 7225SOL     OW22573   1.433   6.401   0.592
 7225SOL    HW122574   1.373   6.469   0.550
 7225SOL    HW222575   1.395   6.309   0.577
 7226SOL     OW22576   5.826   6.800   0.943
 7226SOL    HW122577   5.921   6.784   0.918
 7226SOL    HW222578   5.821   6.836   1.036
 7227SOL     OW22579   2.621   2.084   1.272
 7227SOL    HW122580   2.625   2.167   1.327
 7227SOL    HW222581   2.676   2.012   1.316
 7228SOL     OW22582   1.417   1.061   2.510
 7228SOL    HW122583   1.430   1.061   2.609
 7228SOL    HW222584   1.492   1.109   2.465
 7229SOL     OW22585   0.995   6.456   5.494
 7229SOL    HW122586   0.935   6.383   5.529
 7229SOL    HW222587   1.045   6.497   5.571
 7230SOL     OW22588   3.246   5.769   3.920
 7230SOL    HW122589   3.310   5.830   3.873
 7230SOL    HW222590   3.247   5.680   3.876
 7231SOL     OW22591   3.894   0.429   6.505
 7231SOL    HW122592   3.976   0.372   6.492
 7231SOL    HW222593   3.815   0.381   6.467
 7232SOL     OW22594   4.862   5.562   2.771
 7232SOL    HW122595   4.772   5.526   2.795
 7232SOL    HW222596   4.891   5.524   2.683
 7233SOL     OW22597   1.458   1.466   4.216
 7233SOL    HW122598   1.467   1.427   4.125
 7233SOL    HW222599   1.488   1.400   4.285
 7234SOL     OW22600   5.771   3.013   2.823
 7234SOL    HW122601   5.847   2.981   2.766
 7234SOL    HW222602   5.775   3.113   2.830
 7235SOL     OW22603   6.874   4.342   2.209
 7235SOL    HW122604   6.793   4.392   2.239
 7235SOL    HW222605   6.890   4.264   2.270
 7236SOL     OW22606   2.575   2.125   2.526
 7236SOL    HW122607   2.503   2.056   2.523
 7236SOL    HW222608   2.548   2.199   2.588
 7237SOL     OW22609   4.052   0.253   5.172
 7237SOL    HW122610   4.125   0.207   5.221
 7237SOL    HW222611   4.028   0.201   5.090
 7238SOL     OW22612   4.208   2.072   6.267
 7238SOL    HW122613   4.237   1.991   6.317
 7238SOL    HW222614   4.288   2.118   6.228
 7239SOL     OW22615   0.971   2.176   1.429
 7239SOL    HW122616   1.039   2.107   1.404
 7239SOL    HW222617   0.918   2.202   1.348
 7240SOL     OW22618   6.921   1.161   5.631
 7240SOL    HW122619   6.936   1.081   5.689
 7240SOL    HW222620   6.869   1.229   5.681
 7241SOL     OW22621   2.638   0.340   1.239
 7241SOL    HW122622   2.656   0.259   1.183
 7241SOL    HW222623   2.669   0.323   1.333
 7242SOL     OW22624   6.278   5.882   6.889
 7242SOL    HW122625   6.202   5.915   6.833
 7242SOL    HW222626   6.327   5.810   6.840
 7243SOL     OW22627   6.595   4.536   6.310
 7243SOL    HW122628   6.529   4.512   6.239
 7243SOL    HW222629   6.676   4.478   6.301
 7244SOL     OW22630   0.140   0.496   1.594
 7244SOL    HW122631   0.078   0.573   1.607
 7244SOL    HW222632   0.150   0.477   1.496
 7245SOL     OW22633   1.361   3.165   5.119
 7245SOL    HW122634   1.420   3.137   5.043
 7245SOL    HW222635   1.401   3.244   5.165
 7246SOL     OW22636   1.286   0.294   3.388
 7246SOL    HW122637   1.329   0.381   3.364
 7246SOL    HW222638   1.288   0.282   3.488
 7247SOL     OW22639   2.373   1.517   4.940
 7247SOL    HW122640   2.349   1.614   4.946
 7247SOL    HW222641   2.347   1.482   4.850
 7248SOL     OW22642   3.294   1.339   2.755
 7248SOL    HW122643   3.385   1.313   2.723
 7248SOL    HW222644   3.284   1.438   2.750
 7249SOL     OW22645   5.017   4.928   2.249
 7249SOL    HW122646   5.085   4.948   2.320
 7249SOL    HW222647   4.948   4.866   2.285
 7250SOL     OW22648   5.369   6.163   5.614
 7250SOL    HW122649   5.355   6.225   5.691
 7250SOL    HW222650   5.445   6.195   5.558
 7251SOL     OW22651   0.422   6.657   5.779
 7251SOL    HW122652   0.479   6.695   5.707
 7251SOL    HW222653   0.416   6.558   5.768
 7252SOL     OW22654   3.611   3.406   2.306
 7252SOL    HW122655   3.691   3.369   2.258
 7252SOL    HW222656   3.537   3.339   2.304
 7253SOL     OW22657   2.142   5.981   0.138
 7253SOL    HW122658   2.214   6.046   0.163
 7253SOL    HW222659   2.055   6.029   0.126
 7254SOL     OW22660   5.458   5.318   4.561
 7254SOL    HW122661   5.469   5.273   4.649
 7254SOL    HW222662   5.538   5.301   4.504
 7255SOL     OW22663   3.818   3.859   0.285
 7255SOL    HW122664   3.824   3.867   0.384
 7255SOL    HW222665   3.796   3.949   0.246
 7256SOL     OW22666   3.155   5.839   4.885
 7256SOL    HW122667   3.145   5.778   4.807
 7256SOL    HW222668   3.124   5.931   4.860
 7257SOL     OW22669   6.749   1.985   3.698
 7257SOL    HW122670   6.709   1.980   3.607
 7257SOL    HW222671   6.738   1.896   3.744
 7258SOL     OW22672   4.920   2.157   2.622
 7258SOL    HW122673   4.918   2.172   2.721
 7258SOL    HW222674   4.962   2.236   2.578
 7259SOL     OW22675   1.859   3.683   1.740
 7259SOL    HW122676   1.845   3.758   1.676
 7259SOL    HW222677   1.791   3.612   1.724
 7260SOL     OW22678   5.244   1.603   1.586
 7260SOL    HW122679   5.337   1.640   1.578
 7260SOL    HW222680   5.202   1.634   1.671
 7261SOL     OW22681   1.523   4.223   1.705
 7261SOL    HW122682   1.530   4.254   1.800
 7261SOL    HW222683   1.434   4.179   1.692
 7262SOL     OW22684   5.205   2.666   6.435
 7262SOL    HW122685   5.296   2.663   6.475
 7262SOL    HW222686   5.176   2.573   6.411
 7263SOL     OW22687   0.559   6.401   6.897
 7263SOL    HW122688   0.492   6.450   6.841
 7263SOL    HW222689   0.531   6.306   6.908
 7264SOL     OW22690   5.030   1.842   6.790
 7264SOL    HW122691   5.022   1.935   6.753
 7264SOL    HW222692   5.036   1.847   6.890
 7265SOL     OW22693   5.433   4.898   6.380
 7265SOL    HW122694   5.435   4.836   6.459
 7265SOL    HW222695   5.506   4.967   6.390
 7266SOL     OW22696   5.511   0.314   2.634
 7266SOL    HW122697   5.430   0.277   2.587
 7266SOL    HW222698   5.506   0.413   2.635
 7267SOL     OW22699   6.070   6.212   5.104
 7267SOL    HW122700   6.111   6.282   5.164
 7267SOL    HW222701   6.021   6.258   5.029
 7268SOL     OW22702   0.058   5.733   4.019
 7268SOL    HW122703   7.022   5.780   4.084
 7268SOL    HW222704   0.037   5.763   3.926
 7269SOL     OW22705   1.131   5.805   6.065
 7269SOL    HW122706   1.109   5.875   5.997
 7269SOL    HW222707   1.226   5.816   6.095
 7270SOL     OW22708   0.863   2.987   4.745
 7270SOL    HW122709   0.902   2.938   4.823
 7270SOL    HW222710   0.771   3.019   4.769
 7271SOL     OW22711   1.278   5.187   4.597
 7271SOL    HW122712   1.320   5.276   4.614
 7271SOL    HW222713   1.252   5.144   4.684
 7272SOL     OW22714   6.079   5.223   2.683
 7272SOL    HW122715   6.087   5.186   2.776
 7272SOL    HW222716   6.155   5.285   2.665
 7273SOL     OW22717   6.406   3.966   1.336
 7273SOL    HW122718   6.386   3.888   1.396
 7273SOL    HW222719   6.359   4.047   1.370
 7274SOL     OW22720   0.658   5.439   6.112
 7274SOL    HW122721   0.620   5.350   6.136
 7274SOL    HW222722   0.585   5.498   6.079
 7275SOL     OW22723   0.579   5.780   2.624
 7275SOL    HW122724   0.503   5.793   2.689
 7275SOL    HW222725   0.602   5.867   2.582
 7276SOL     OW22726   5.060   0.787   3.144
 7276SOL    HW122727   5.081   0.880   3.175
 7276SOL    HW222728   5.139   0.751   3.094
 7277SOL     OW22729   5.225   0.889   4.105
 7277SOL    HW122730   5.257   0.881   4.199
 7277SOL    HW222731   5.268   0.969   4.062
 7278SOL     OW22732   3.901   2.488   1.252
 7278SOL    HW122733   3.972   2.520   1.315
 7278SOL    HW222734   3.944   2.454   1.168
 7279SOL     OW22735   3.972   4.755   5.475
 7279SOL    HW122736   3.974   4.734   5.573
 7279SOL    HW222737   3.969   4.670   5.422
 7280SOL     OW22738   0.028   1.731   4.022
 7280SOL    HW122739   0.050   1.766   3.931
 7280SOL    HW222740   0.064   1.638   4.031
 7281SOL     OW22741   2.724   1.573   6.884
 7281SOL    HW122742   2.653   1.555   6.953
 7281SOL    HW222743   2.686   1.629   6.811
 7282SOL     OW22744   6.359   4.800   3.074
 7282SOL    HW122745   6.327   4.888   3.111
 7282SOL    HW222746   6.297   4.727   3.103
 7283SOL     OW22747   4.831   0.962   2.493
 7283SOL    HW122748   4.908   1.004   2.444
 7283SOL    HW222749   4.833   0.990   2.589
 7284SOL     OW22750   0.350   2.519   6.166
 7284SOL    HW122751   0.437   2.474   6.182
 7284SOL    HW222752   0.298   2.522   6.252
 7285SOL     OW22753   5.333   2.926   2.357
 7285SOL    HW122754   5.237   2.915   2.330
 7285SOL    HW222755   5.387   2.853   2.316
 7286SOL     OW22756   2.400   1.364   0.541
 7286SOL    HW122757   2.450   1.356   0.454
 7286SOL    HW222758   2.432   1.444   0.591
 7287SOL     OW22759   0.470   2.299   5.927
 7287SOL    HW122760   0.484   2.207   5.891
 7287SOL    HW222761   0.432   2.358   5.856
 7288SOL     OW22762   2.122   1.086   0.474
 7288SOL    HW122763   2.039   1.101   0.420
 7288SOL    HW222764   2.153   0.992   0.463
 7289SOL     OW22765   5.072   2.348   4.292
 7289SOL    HW122766   4.983   2.387   4.315
 7289SOL    HW222767   5.142   2.392   4.349
 7290SOL     OW22768   3.481   0.978   5.167
 7290SOL    HW122769   3.480   0.939   5.075
 7290SOL    HW222770   3.430   0.919   5.229
 7291SOL     OW22771   2.135   6.526   0.804
 7291SOL    HW122772   2.065   6.590   0.835
 7291SOL    HW222773   2.113   6.434   0.837
 7292SOL     OW22774   3.649   0.910   4.072
 7292SOL    HW122775   3.598   0.824   4.070
 7292SOL    HW222776   3.602   0.977   4.014
 7293SOL     OW22777   1.288   1.876   4.745
 7293SOL    HW122778   1.330   1.931   4.818
 7293SOL    HW222779   1.194   1.855   4.770
 7294SOL     OW22780   2.626   5.246   6.727
 7294SOL    HW122781   2.590   5.292   6.809
 7294SOL    HW222782   2.683   5.311   6.675
 7295SOL     OW22783   6.304   2.726   1.234
 7295SOL    HW122784   6.227   2.782   1.263
 7295SOL    HW222785   6.271   2.636   1.203
 7296SOL     OW22786   3.333   5.920   2.237
 7296SOL    HW122787   3.385   5.980   2.177
 7296SOL    HW222788   3.273   5.975   2.295
 7297SOL     OW22789   3.945   0.200   1.556
 7297SOL    HW122790   3.996   0.169   1.477
 7297SOL    HW222791   3.858   0.152   1.562
 7298SOL     OW22792   5.332   5.271   5.942
 7298SOL    HW122793   5.250   5.228   5.902
 7298SOL    HW222794   5.351   5.231   6.031
 7299SOL     OW22795   1.062   2.207   0.745
 7299SOL    HW122796   1.026   2.294   0.711
 7299SOL    HW222797   1.064   2.208   0.845
 7300SOL     OW22798   0.931   6.313   3.575
 7300SOL    HW122799   0.899   6.399   3.614
 7300SOL    HW222800   0.928   6.241   3.644
 7301SOL     OW22801   5.789   1.636   4.513
 7301SOL    HW122802   5.878   1.679   4.528
 7301SOL    HW222803   5.792   1.583   4.428
 7302SOL     OW22804   0.794   2.260   5.501
 7302SOL    HW122805   0.868   2.293   5.560
 7302SOL    HW222806   0.713   2.242   5.556
 7303SOL     OW22807   3.883   0.286   0.258
 7303SOL    HW122808   3.821   0.262   0.332
 7303SOL    HW222809   3.868   0.381   0.231
 7304SOL     OW22810   3.225   5.785   1.639
 7304SOL    HW122811   3.136   5.788   1.594
 7304SOL    HW222812   3.233   5.861   1.703
 7305SOL     OW22813   4.428   0.892   0.464
 7305SOL    HW122814   4.510   0.947   0.480
 7305SOL    HW222815   4.447   0.796   0.488
 7306SOL     OW22816   5.038   1.396   0.630
 7306SOL    HW122817   4.998   1.392   0.722
 7306SOL    HW222818   5.018   1.484   0.588
 7307SOL     OW22819   2.882   6.250   2.186
 7307SOL    HW122820   2.945   6.253   2.263
 7307SOL    HW222821   2.825   6.332   2.185
 7308SOL     OW22822   0.094   2.847   5.780
 7308SOL    HW122823   0.166   2.831   5.848
 7308SOL    HW222824   0.090   2.944   5.757
 7309SOL     OW22825   4.273   5.263   1.467
 7309SOL    HW122826   4.260   5.174   1.510
 7309SOL    HW222827   4.197   5.324   1.491
 7310SOL     OW22828   2.368   3.779   1.191
 7310SOL    HW122829   2.422   3.789   1.107
 7310SOL    HW222830   2.352   3.868   1.232
 7311SOL     OW22831   2.344   1.643   1.421
 7311SOL    HW122832   2.369   1.686   1.507
 7311SOL    HW222833   2.282   1.703   1.370
 7312SOL     OW22834   0.884   3.835   4.785
 7312SOL    HW122835   0.789   3.835   4.755
 7312SOL    HW222836   0.936   3.768   4.732
 7313SOL     OW22837   2.292   0.815   0.151
 7313SOL    HW122838   2.193   0.827   0.164
 7313SOL    HW222839   2.320   0.857   0.065
 7314SOL     OW22840   6.954   5.508   5.750
 7314SOL    HW122841   0.007   5.573   5.755
 7314SOL    HW222842   6.925   5.497   5.655
 7315SOL     OW22843   6.079   0.050   2.041
 7315SOL    HW122844   6.064   6.982   2.001
 7315SOL    HW222845   6.037   0.119   1.984
 7316SOL     OW22846   2.919   3.935   6.878
 7316SOL    HW122847   3.001   3.951   6.823
 7316SOL    HW222848   2.838   3.949   6.821
 7317SOL     OW22849   5.423   1.146   2.887
 7317SOL    HW122850   5.506   1.199   2.905
 7317SOL    HW222851   5.362   1.199   2.828
 7318SOL     OW22852   1.848   0.476   1.820
 7318SOL    HW122853   1.931   0.437   1.861
 7318SOL    HW222854   1.870   0.567   1.783
 7319SOL     OW22855   0.308   3.448   6.331
 7319SOL    HW122856   0.380   3.385   6.302
 7319SOL    HW222857   0.284   3.429   6.426
 7320SOL     OW22858   0.418   3.736   2.910
 7320SOL    HW122859   0.408   3.835   2.911
 7320SOL    HW222860   0.495   3.710   2.851
 7321SOL     OW22861   1.939   0.365   5.837
 7321SOL    HW122862   1.898   0.455   5.852
 7321SOL    HW222863   1.934   0.341   5.740
 7322SOL     OW22864   6.820   3.010   3.547
 7322SOL    HW122865   6.799   2.920   3.586
 7322SOL    HW222866   6.918   3.019   3.532
 7323SOL     OW22867   1.383   2.623   1.986
 7323SOL    HW122868   1.369   2.707   2.038
 7323SOL    HW222869   1.297   2.594   1.945
 7324SOL     OW22870   4.342   5.838   2.035
 7324SOL    HW122871   4.326   5.825   1.938
 7324SOL    HW222872   4.258   5.869   2.079
 7325SOL     OW22873   3.019   0.114   0.225
 7325SOL    HW122874   3.034   0.038   0.287
 7325SOL    HW222875   3.071   0.194   0.256
 7326SOL     OW22876   2.573   6.072   6.461
 7326SOL    HW122877   2.499   6.089   6.525
 7326SOL    HW222878   2.541   6.087   6.367
 7327SOL     OW22879   6.283   1.556   6.044
 7327SOL    HW122880   6.195   1.577   6.088
 7327SOL    HW222881   6.357   1.586   6.104
 7328SOL     OW22882   3.168   1.179   5.699
 7328SOL    HW122883   3.158   1.194   5.798
 7328SOL    HW222884   3.116   1.098   5.672
 7329SOL     OW22885   6.572   4.174   1.566
 7329SOL    HW122886   6.580   4.232   1.485
 7329SOL    HW222887   6.582   4.230   1.648
 7330SOL     OW22888   2.622   2.419   6.808
 7330SOL    HW122889   2.597   2.501   6.756
 7330SOL    HW222890   2.718   2.424   6.835
 7331SOL     OW22891   5.251   6.475   1.759
 7331SOL    HW122892   5.165   6.510   1.796
 7331SOL    HW222893   5.326   6.535   1.786
 7332SOL     OW22894   2.594   5.743   0.416
 7332SOL    HW122895   2.582   5.842   0.418
 7332SOL    HW222896   2.557   5.707   0.331
 7333SOL     OW22897   0.103   2.710   2.053
 7333SOL    HW122898   0.119   2.657   2.136
 7333SOL    HW222899   0.061   2.652   1.984
 7334SOL     OW22900   2.634   5.604   6.716
 7334SOL    HW122901   2.706   5.673   6.722
 7334SOL    HW222902   2.669   5.525   6.665
 7335SOL     OW22903   2.164   2.298   3.268
 7335SOL    HW122904   2.259   2.279   3.292
 7335SOL    HW222905   2.158   2.389   3.226
 7336SOL     OW22906   1.877   6.468   2.864
 7336SOL    HW122907   1.938   6.535   2.905
 7336SOL    HW222908   1.800   6.451   2.924
 7337SOL     OW22909   0.505   3.241   1.284
 7337SOL    HW122910   0.560   3.211   1.206
 7337SOL    HW222911   0.566   3.276   1.356
 7338SOL     OW22912   5.663   1.797   1.434
 7338SOL    HW122913   5.740   1.795   1.371
 7338SOL    HW222914   5.605   1.876   1.413
 7339SOL     OW22915   6.035   6.956   3.871
 7339SOL    HW122916   6.052   0.030   3.888
 7339SOL    HW222917   5.949   6.946   3.820
 7340SOL     OW22918   3.111   1.760   0.537
 7340SOL    HW122919   3.077   1.669   0.560
 7340SOL    HW222920   3.171   1.754   0.457
 7341SOL     OW22921   1.146   4.078   6.363
 7341SOL    HW122922   1.150   4.042   6.457
 7341SOL    HW222923   1.054   4.113   6.345
 7342SOL     OW22924   0.423   1.787   0.556
 7342SOL    HW122925   0.379   1.779   0.466
 7342SOL    HW222926   0.353   1.800   0.626
 7343SOL     OW22927   6.159   3.541   1.460
 7343SOL    HW122928   6.083   3.527   1.523
 7343SOL    HW222929   6.185   3.453   1.419
 7344SOL     OW22930   1.522   1.072   6.372
 7344SOL    HW122931   1.611   1.067   6.418
 7344SOL    HW222932   1.449   1.051   6.437
 7345SOL     OW22933   4.003   4.726   5.188
 7345SOL    HW122934   3.912   4.764   5.203
 7345SOL    HW222935   4.001   4.628   5.208
 7346SOL     OW22936   3.977   4.771   2.154
 7346SOL    HW122937   4.024   4.749   2.239
 7346SOL    HW222938   3.890   4.722   2.150
 7347SOL     OW22939   0.742   2.190   0.431
 7347SOL    HW122940   0.800   2.135   0.370
 7347SOL    HW222941   0.719   2.137   0.512
 7348SOL     OW22942   1.807   3.722   4.254
 7348SOL    HW122943   1.795   3.725   4.155
 7348SOL    HW222944   1.749   3.649   4.292
 7349SOL     OW22945   4.959   1.467   1.349
 7349SOL    HW122946   4.999   1.417   1.272
 7349SOL    HW222947   4.925   1.402   1.417
 7350SOL     OW22948   2.350   2.658   5.596
 7350SOL    HW122949   2.284   2.583   5.600
 7350SOL    HW222950   2.357   2.691   5.501
 7351SOL     OW22951   5.473   5.644   4.906
 7351SOL    HW122952   5.438   5.675   4.994
 7351SOL    HW222953   5.397   5.636   4.841
 7352SOL     OW22954   1.981   1.330   3.266
 7352SOL    HW122955   2.071   1.330   3.223
 7352SOL    HW222956   1.951   1.424   3.281
 7353SOL     OW22957   0.974   6.813   6.228
 7353SOL    HW122958   0.900   6.877   6.208
 7353SOL    HW222959   0.938   6.735   6.279
 7354SOL     OW22960   0.819   2.370   4.790
 7354SOL    HW122961   0.885   2.352   4.718
 7354SOL    HW222962   0.742   2.307   4.782
 7355SOL     OW22963   1.509   0.535   0.975
 7355SOL    HW122964   1.454   0.575   0.901
 7355SOL    HW222965   1.457   0.537   1.060
 7356SOL     OW22966   3.994   3.801   6.431
 7356SOL    HW122967   4.010   3.900   6.433
 7356SOL    HW222968   3.998   3.765   6.524
 7357SOL     OW22969   3.176   0.201   2.017
 7357SOL    HW122970   3.199   0.188   1.921
 7357SOL    HW222971   3.133   0.290   2.029
 7358SOL     OW22972   6.317   3.497   2.579
 7358SOL    HW122973   6.383   3.432   2.541
 7358SOL    HW222974   6.316   3.580   2.524
 7359SOL     OW22975   3.903   2.107   5.682
 7359SOL    HW122976   3.825   2.103   5.745
 7359SOL    HW222977   3.873   2.084   5.590
 7360SOL     OW22978   3.084   3.325   5.609
 7360SOL    HW122979   2.988   3.307   5.628
 7360SOL    HW222980   3.092   3.375   5.523
 7361SOL     OW22981   4.514   0.442   2.002
 7361SOL    HW122982   4.479   0.393   1.922
 7361SOL    HW222983   4.523   0.379   2.079
 7362SOL     OW22984   1.412   5.062   6.117
 7362SOL    HW122985   1.483   5.129   6.095
 7362SOL    HW222986   1.409   5.048   6.216
 7363SOL     OW22987   4.587   1.709   1.555
 7363SOL    HW122988   4.610   1.663   1.641
 7363SOL    HW222989   4.553   1.642   1.489
 7364SOL     OW22990   4.701   0.595   1.416
 7364SOL    HW122991   4.767   0.591   1.341
 7364SOL    HW222992   4.671   0.689   1.430
 7365SOL     OW22993   0.269   5.927   1.809
 7365SOL    HW122994   0.298   5.881   1.892
 7365SOL    HW222995   0.249   6.023   1.829
 7366SOL     OW22996   2.560   5.993   0.010
 7366SOL    HW122997   2.520   5.910   6.995
 7366SOL    HW222998   2.494   6.038   0.071
 7367SOL     OW22999   5.548   2.333   1.330
 7367SOL    HW123000   5.575   2.429   1.327
 7367SOL    HW223001   5.560   2.297   1.422
 7368SOL     OW23002   3.687   2.967   2.791
 7368SOL    HW123003   3.726   2.985   2.882
 7368SOL    HW223004   3.625   3.041   2.766
 7369SOL     OW23005   3.667   2.148   0.575
 7369SOL    HW123006   3.735   2.184   0.511
 7369SOL    HW223007   3.611   2.223   0.610
 7370SOL     OW23008   2.764   1.076   4.509
 7370SOL    HW123009   2.828   1.112   4.440
 7370SOL    HW223010   2.815   1.051   4.591
 7371SOL     OW23011   2.594   6.636   3.669
 7371SOL    HW123012   2.503   6.647   3.627
 7371SOL    HW223013   2.588   6.655   3.767
 7372SOL     OW23014   5.095   1.137   4.321
 7372SOL    HW123015   5.031   1.102   4.390
 7372SOL    HW223016   5.185   1.095   4.335
 7373SOL     OW23017   5.930   2.038   3.771
 7373SOL    HW123018   5.842   2.027   3.725
 7373SOL    HW223019   5.954   1.953   3.818
 7374SOL     OW23020   2.971   1.870   5.021
 7374SOL    HW123021   2.971   1.960   5.065
 7374SOL    HW223022   2.978   1.882   4.922
 7375SOL     OW23023   2.545   2.520   2.901
 7375SOL    HW123024   2.572   2.507   2.806
 7375SOL    HW223025   2.459   2.471   2.918
 7376SOL     OW23026   1.982   2.203   0.279
 7376SOL    HW123027   2.077   2.231   0.298
 7376SOL    HW223028   1.933   2.194   0.366
 7377SOL     OW23029   5.587   4.725   0.624
 7377SOL    HW123030   5.492   4.752   0.641
 7377SOL    HW223031   5.630   4.699   0.710
 7378SOL     OW23032   0.271   0.761   5.624
 7378SOL    HW123033   0.371   0.764   5.620
 7378SOL    HW223034   0.241   0.666   5.639
 7379SOL     OW23035   3.236   2.111   2.533
 7379SOL    HW123036   3.259   2.136   2.439
 7379SOL    HW223037   3.208   2.015   2.535
 7380SOL     OW23038   6.983   4.374   3.846
 7380SOL    HW123039   6.955   4.280   3.825
 7380SOL    HW223040   0.058   4.375   3.869
 7381SOL     OW23041   4.004   3.051   0.776
 7381SOL    HW123042   3.961   2.971   0.818
 7381SOL    HW223043   4.080   3.083   0.833
 7382SOL     OW23044   0.726   0.222   5.220
 7382SOL    HW123045   0.687   0.301   5.173
 7382SOL    HW223046   0.779   0.254   5.299
 7383SOL     OW23047   2.618   6.457   0.924
 7383SOL    HW123048   2.675   6.481   1.002
 7383SOL    HW223049   2.580   6.365   0.937
 7384SOL     OW23050   6.040   6.359   2.808
 7384SOL    HW123051   6.016   6.421   2.882
 7384SOL    HW223052   5.962   6.348   2.747
 7385SOL     OW23053   3.305   5.762   2.833
 7385SOL    HW123054   3.321   5.689   2.899
 7385SOL    HW223055   3.222   5.813   2.859
 7386SOL     OW23056   0.304   2.778   0.066
 7386SOL    HW123057   0.318   2.877   0.063
 7386SOL    HW223058   0.207   2.758   0.047
 7387SOL     OW23059   6.046   6.092   5.727
 7387SOL    HW123060   5.997   6.173   5.757
 7387SOL    HW223061   6.115   6.067   5.795
 7388SOL     OW23062   1.469   5.692   2.111
 7388SOL    HW123063   1.445   5.627   2.183
 7388SOL    HW223064   1.394   5.755   2.097
 7389SOL     OW23065   5.777   4.216   5.843
 7389SOL    HW123066   5.796   4.171   5.756
 7389SOL    HW223067   5.834   4.298   5.851
 7390SOL     OW23068   1.834   2.498   1.186
 7390SOL    HW123069   1.809   2.545   1.271
 7390SOL    HW223070   1.804   2.553   1.108
 7391SOL     OW23071   4.121   3.400   3.588
 7391SOL    HW123072   4.128   3.371   3.684
 7391SOL    HW223073   4.138   3.322   3.528
 7392SOL     OW23074   2.987   5.988   6.699
 7392SOL    HW123075   3.055   5.918   6.680
 7392SOL    HW223076   3.032   6.078   6.702
 7393SOL     OW23077   6.519   4.688   2.304
 7393SOL    HW123078   6.492   4.783   2.290
 7393SOL    HW223079   6.469   4.649   2.381
 7394SOL     OW23080   2.077   2.902   5.625
 7394SOL    HW123081   2.039   2.812   5.646
 7394SOL    HW223082   2.137   2.931   5.699
 7395SOL     OW23083   1.510   3.259   1.385
 7395SOL    HW123084   1.467   3.325   1.324
 7395SOL    HW223085   1.606   3.283   1.398
 7396SOL     OW23086   1.783   6.518   1.353
 7396SOL    HW123087   1.770   6.548   1.258
 7396SOL    HW223088   1.856   6.451   1.357
 7397SOL     OW23089   4.523   5.597   4.489
 7397SOL    HW123090   4.575   5.514   4.509
 7397SOL    HW223091   4.508   5.648   4.573
 7398SOL     OW23092   1.436   4.349   3.510
 7398SOL    HW123093   1.400   4.437   3.540
 7398SOL    HW223094   1.378   4.276   3.545
 7399SOL     OW23095   0.645   2.650   4.418
 7399SOL    HW123096   0.577   2.715   4.451
 7399SOL    HW223097   0.602   2.589   4.351
 7400SOL     OW23098   4.435   3.023   6.079
 7400SOL    HW123099   4.488   3.082   6.019
 7400SOL    HW223100   4.344   3.008   6.041
 7401SOL     OW23101   1.270   2.769   3.698
 7401SOL    HW123102   1.309   2.838   3.637
 7401SOL    HW223103   1.233   2.693   3.645
 7402SOL     OW23104   3.029   5.299   6.308
 7402SOL    HW123105   3.116   5.302   6.257
 7402SOL    HW223106   3.048   5.304   6.406
 7403SOL     OW23107   1.837   3.696   2.275
 7403SOL    HW123108   1.909   3.725   2.212
 7403SOL    HW223109   1.749   3.700   2.229
 7404SOL     OW23110   2.598   4.801   1.955
 7404SOL    HW123111   2.670   4.732   1.949
 7404SOL    HW223112   2.539   4.781   2.034
 7405SOL     OW23113   3.482   4.935   4.417
 7405SOL    HW123114   3.392   4.904   4.447
 7405SOL    HW223115   3.500   4.902   4.325
 7406SOL     OW23116   0.205   2.553   3.417
 7406SOL    HW123117   0.145   2.623   3.378
 7406SOL    HW223118   0.196   2.469   3.364
 7407SOL     OW23119   0.624   6.692   5.186
 7407SOL    HW123120   0.561   6.751   5.238
 7407SOL    HW223121   0.664   6.625   5.248
 7408SOL     OW23122   3.171   4.259   6.986
 7408SOL    HW123123   3.179   4.166   7.021
 7408SOL    HW223124   3.262   4.294   6.964
 7409SOL     OW23125   5.260   2.991   0.209
 7409SOL    HW123126   5.286   2.998   0.112
 7409SOL    HW223127   5.161   2.983   0.216
 7410SOL     OW23128   0.454   0.359   0.578
 7410SOL    HW123129   0.395   0.415   0.520
 7410SOL    HW223130   0.533   0.414   0.607
 7411SOL     OW23131   1.987   0.567   6.748
 7411SOL    HW123132   1.895   0.606   6.752
 7411SOL    HW223133   2.051   0.629   6.794
 7412SOL     OW23134   4.757   0.511   1.780
 7412SOL    HW123135   4.836   0.511   1.719
 7412SOL    HW223136   4.696   0.586   1.756
 7413SOL     OW23137   4.670   5.296   3.642
 7413SOL    HW123138   4.622   5.211   3.618
 7413SOL    HW223139   4.603   5.368   3.660
 7414SOL     OW23140   0.786   1.305   3.146
 7414SOL    HW123141   0.883   1.327   3.142
 7414SOL    HW223142   0.733   1.390   3.150
 7415SOL     OW23143   1.307   4.612   4.547
 7415SOL    HW123144   1.345   4.529   4.505
 7415SOL    HW223145   1.382   4.673   4.573
 7416SOL     OW23146   2.125   1.168   2.518
 7416SOL    HW123147   2.072   1.118   2.587
 7416SOL    HW223148   2.103   1.265   2.525
 7417SOL     OW23149   2.082   1.998   1.476
 7417SOL    HW123150   2.159   2.061   1.461
 7417SOL    HW223151   1.998   2.042   1.444
 7418SOL     OW23152   1.859   5.847   0.646
 7418SOL    HW123153   1.788   5.917   0.635
 7418SOL    HW223154   1.879   5.835   0.743
 7419SOL     OW23155   7.021   3.628   4.356
 7419SOL    HW123156   6.977   3.562   4.418
 7419SOL    HW223157   0.047   3.578   4.284
 7420SOL     OW23158   0.644   6.086   1.611
 7420SOL    HW123159   0.654   6.151   1.687
 7420SOL    HW223160   0.577   6.016   1.637
 7421SOL     OW23161   4.178   3.859   1.224
 7421SOL    HW123162   4.105   3.901   1.171
 7421SOL    HW223163   4.178   3.760   1.209
 7422SOL     OW23164   0.416   4.323   2.054
 7422SOL    HW123165   0.395   4.336   2.151
 7422SOL    HW223166   0.429   4.412   2.011
 7423SOL     OW23167   6.268   2.947   5.869
 7423SOL    HW123168   6.335   3.018   5.888
 7423SOL    HW223169   6.243   2.949   5.773
 7424SOL     OW23170   6.743   0.624   5.481
 7424SOL    HW123171   6.801   0.665   5.551
 7424SOL    HW223172   6.782   0.537   5.452
 7425SOL     OW23173   4.314   6.332   0.195
 7425SOL    HW123174   4.366   6.251   0.170
 7425SOL    HW223175   4.290   6.383   0.112
 7426SOL     OW23176   3.112   1.745   5.429
 7426SOL    HW123177   3.038   1.749   5.362
 7426SOL    HW223178   3.094   1.670   5.493
 7427SOL     OW23179   4.980   0.566   3.363
 7427SOL    HW123180   4.930   0.638   3.313
 7427SOL    HW223181   5.057   0.607   3.412
 7428SOL     OW23182   4.386   1.859   5.190
 7428SOL    HW123183   4.459   1.910   5.144
 7428SOL    HW223184   4.325   1.922   5.238
 7429SOL     OW23185   0.261   6.390   3.974
 7429SOL    HW123186   0.344   6.414   3.925
 7429SOL    HW223187   0.190   6.459   3.954
 7430SOL     OW23188   1.553   3.407   0.945
 7430SOL    HW123189   1.565   3.318   0.902
 7430SOL    HW223190   1.520   3.473   0.877
 7431SOL     OW23191   0.998   2.610   2.597
 7431SOL    HW123192   0.973   2.693   2.547
 7431SOL    HW223193   1.010   2.632   2.694
 7432SOL     OW23194   1.033   0.413   3.102
 7432SOL    HW123195   1.083   0.334   3.137
 7432SOL    HW223196   1.072   0.441   3.014
 7433SOL     OW23197   4.109   5.690   6.159
 7433SOL    HW123198   4.156   5.727   6.080
 7433SOL    HW223199   4.030   5.636   6.129
 7434SOL     OW23200   4.800   4.896   4.959
 7434SOL    HW123201   4.896   4.869   4.959
 7434SOL    HW223202   4.792   4.994   4.942
 7435SOL     OW23203   4.084   5.928   1.553
 7435SOL    HW123204   4.173   5.912   1.510
 7435SOL    HW223205   4.053   6.021   1.530
 7436SOL     OW23206   3.923   4.477   6.740
 7436SOL    HW123207   3.875   4.428   6.667
 7436SOL    HW223208   3.897   4.439   6.829
 7437SOL     OW23209   2.137   5.773   7.009
 7437SOL    HW123210   2.175   5.691   0.029
 7437SOL    HW223211   2.148   5.851   0.047
 7438SOL     OW23212   1.098   6.310   0.409
 7438SOL    HW123213   1.107   6.382   0.478
 7438SOL    HW223214   1.150   6.335   0.328
 7439SOL     OW23215   1.819   6.438   6.048
 7439SOL    HW123216   1.764   6.482   5.977
 7439SOL    HW223217   1.794   6.474   6.137
 7440SOL     OW23218   0.279   3.107   3.812
 7440SOL    HW123219   0.329   3.183   3.769
 7440SOL    HW223220   0.251   3.134   3.904
 7441SOL     OW23221   5.452   6.695   4.432
 7441SOL    HW123222   5.436   6.691   4.531
 7441SOL    HW223223   5.435   6.605   4.392
 7442SOL     OW23224   6.195   1.282   6.298
 7442SOL    HW123225   6.282   1.287   6.249
 7442SOL    HW223226   6.187   1.359   6.361
 7443SOL     OW23227   6.241   6.298   1.675
 7443SOL    HW123228   6.170   6.347   1.624
 7443SOL    HW223229   6.298   6.247   1.611
 7444SOL     OW23230   5.528   2.543   6.834
 7444SOL    HW123231   5.544   2.478   6.909
 7444SOL    HW223232   5.441   2.521   6.789
 7445SOL     OW23233   3.690   0.399   1.111
 7445SOL    HW123234   3.626   0.421   1.038
 7445SOL    HW223235   3.744   0.480   1.134
 7446SOL     OW23236   5.364   2.981   0.763
 7446SOL    HW123237   5.359   2.889   0.802
 7446SOL    HW223238   5.272   3.019   0.757
 7447SOL     OW23239   6.853   3.607   6.915
 7447SOL    HW123240   6.788   3.587   6.841
 7447SOL    HW223241   6.897   3.695   6.898
 7448SOL     OW23242   6.406   6.878   5.076
 7448SOL    HW123243   6.451   6.844   4.994
 7448SOL    HW223244   6.332   6.816   5.102
 7449SOL     OW23245   0.680   4.544   1.812
 7449SOL    HW123246   0.628   4.486   1.749
 7449SOL    HW223247   0.773   4.556   1.777
 7450SOL     OW23248   5.602   2.866   5.264
 7450SOL    HW123249   5.682   2.865   5.204
 7450SOL    HW223250   5.591   2.776   5.306
 7451SOL     OW23251   6.586   5.726   2.650
 7451SOL    HW123252   6.661   5.660   2.654
 7451SOL    HW223253   6.501   5.678   2.631
 7452SOL     OW23254   6.023   6.116   4.184
 7452SOL    HW123255   6.001   6.210   4.212
 7452SOL    HW223256   5.938   6.065   4.171
 7453SOL     OW23257   5.670   5.151   4.731
 7453SOL    HW123258   5.585   5.147   4.782
 7453SOL    HW223259   5.742   5.191   4.788
 7454SOL     OW23260   1.530   2.271   0.953
 7454SOL    HW123261   1.625   2.280   0.922
 7454SOL    HW223262   1.517   2.181   0.994
 7455SOL     OW23263   6.844   2.807   1.151
 7455SOL    HW123264   6.755   2.777   1.185
 7455SOL    HW223265   6.858   2.903   1.175
 7456SOL     OW23266   0.995   0.878   4.749
 7456SOL    HW123267   1.046   0.796   4.773
 7456SOL    HW223268   0.979   0.880   4.651
 7457SOL     OW23269   3.254   0.907   5.387
 7457SOL    HW123270   3.157   0.911   5.363
 7457SOL    HW223271   3.298   0.835   5.333
 7458SOL     OW23272   2.232   6.591   6.173
 7458SOL    HW123273   2.327   6.609   6.199
 7458SOL    HW223274   2.187   6.677   6.149
 7459SOL     OW23275   5.249   0.322   2.048
 7459SOL    HW123276   5.163   0.343   2.001
 7459SOL    HW223277   5.254   0.374   2.133
 7460SOL     OW23278   0.644   4.984   0.569
 7460SOL    HW123279   0.592   5.056   0.614
 7460SOL    HW223280   0.583   4.926   0.515
 7461SOL     OW23281   6.483   6.749   6.822
 7461SOL    HW123282   6.400   6.800   6.843
 7461SOL    HW223283   6.497   6.677   6.891
 7462SOL     OW23284   1.360   4.458   2.087
 7462SOL    HW123285   1.390   4.553   2.085
 7462SOL    HW223286   1.260   4.455   2.094
 7463SOL     OW23287   2.585   4.600   0.506
 7463SOL    HW123288   2.624   4.548   0.582
 7463SOL    HW223289   2.636   4.686   0.495
 7464SOL     OW23290   5.149   6.962   6.584
 7464SOL    HW123291   5.079   6.891   6.599
 7464SOL    HW223292   5.108   0.015   6.533
 7465SOL     OW23293   2.475   5.745   6.581
 7465SOL    HW123294   2.409   5.798   6.634
 7465SOL    HW223295   2.542   5.704   6.642
 7466SOL     OW23296   0.018   0.294   5.179
 7466SOL    HW123297   6.990   0.379   5.169
 7466SOL    HW223298   0.072   0.278   5.096
 7467SOL     OW23299   0.089   1.171   6.720
 7467SOL    HW123300   0.052   1.147   6.631
 7467SOL    HW223301   0.164   1.237   6.708
 7468SOL     OW23302   6.043   3.329   3.598
 7468SOL    HW123303   6.032   3.284   3.509
 7468SOL    HW223304   5.994   3.416   3.597
 7469SOL     OW23305   0.117   0.253   0.219
 7469SOL    HW123306   0.134   0.157   0.241
 7469SOL    HW223307   0.085   0.301   0.301
 7470SOL     OW23308   6.165   3.615   3.175
 7470SOL    HW123309   6.144   3.649   3.084
 7470SOL    HW223310   6.097   3.547   3.202
 7471SOL     OW23311   5.034   6.713   5.634
 7471SOL    HW123312   5.036   6.761   5.546
 7471SOL    HW223313   5.113   6.652   5.640
 7472SOL     OW23314   5.818   0.849   6.000
 7472SOL    HW123315   5.835   0.942   6.032
 7472SOL    HW223316   5.729   0.818   6.032
 7473SOL     OW23317   5.191   5.592   3.844
 7473SOL    HW123318   5.285   5.564   3.824
 7473SOL    HW223319   5.130   5.513   3.831
 7474SOL     OW23320   0.093   1.727   5.531
 7474SOL    HW123321   0.039   1.644   5.524
 7474SOL    HW223322   0.191   1.704   5.532
 7475SOL     OW23323   5.091   2.223   2.253
 7475SOL    HW123324   5.105   2.252   2.347
 7475SOL    HW223325   5.003   2.257   2.220
 7476SOL     OW23326   3.577   1.279   3.477
 7476SOL    HW123327   3.504   1.211   3.483
 7476SOL    HW223328   3.614   1.280   3.384
 7477SOL     OW23329   6.713   2.160   4.998
 7477SOL    HW123330   6.648   2.223   5.040
 7477SOL    HW223331   6.799   2.161   5.050
 7478SOL     OW23332   6.637   3.840   5.817
 7478SOL    HW123333   6.545   3.835   5.857
 7478SOL    HW223334   6.661   3.751   5.779
 7479SOL     OW23335   4.159   2.069   2.306
 7479SOL    HW123336   4.236   2.060   2.368
 7479SOL    HW223337   4.189   2.055   2.212
 7480SOL     OW23338   1.143   5.053   2.155
 7480SOL    HW123339   1.214   5.123   2.147
 7480SOL    HW223340   1.170   4.972   2.104
 7481SOL     OW23341   5.609   5.210   1.137
 7481SOL    HW123342   5.562   5.298   1.146
 7481SOL    HW223343   5.676   5.201   1.210
 7482SOL     OW23344   4.503   2.506   2.764
 7482SOL    HW123345   4.506   2.555   2.677
 7482SOL    HW223346   4.550   2.419   2.756
 7483SOL     OW23347   4.951   3.411   4.237
 7483SOL    HW123348   4.934   3.370   4.147
 7483SOL    HW223349   4.956   3.338   4.305
 7484SOL     OW23350   1.538   6.307   4.054
 7484SOL    HW123351   1.495   6.345   3.972
 7484SOL    HW223352   1.489   6.337   4.135
 7485SOL     OW23353   3.046   0.181   4.441
 7485SOL    HW123354   2.987   0.104   4.464
 7485SOL    HW223355   2.999   0.241   4.377
 7486SOL     OW23356   1.233   5.962   0.410
 7486SOL    HW123357   1.243   6.058   0.439
 7486SOL    HW223358   1.323   5.918   0.410
 7487SOL     OW23359   2.294   0.658   2.962
 7487SOL    HW123360   2.368   0.683   3.025
 7487SOL    HW223361   2.230   0.597   3.009
 7488SOL     OW23362   2.542   5.596   4.959
 7488SOL    HW123363   2.495   5.680   4.931
 7488SOL    HW223364   2.602   5.615   5.036
 7489SOL     OW23365   5.991   2.649   6.163
 7489SOL    HW123366   5.924   2.617   6.096
 7489SOL    HW223367   6.020   2.742   6.138
 7490SOL     OW23368   1.222   0.171   3.166
 7490SOL    HW123369   1.242   0.212   3.256
 7490SOL    HW223370   1.290   0.100   3.146
 7491SOL     OW23371   4.232   3.410   6.509
 7491SOL    HW123372   4.174   3.387   6.587
 7491SOL    HW223373   4.228   3.509   6.492
 7492SOL     OW23374   1.695   0.715   3.620
 7492SOL    HW123375   1.680   0.729   3.522
 7492SOL    HW223376   1.617   0.751   3.671
 7493SOL     OW23377   0.794   2.871   6.241
 7493SOL    HW123378   0.894   2.864   6.238
 7493SOL    HW223379   0.759   2.891   6.149
 7494SOL     OW23380   5.872   1.289   3.106
 7494SOL    HW123381   5.927   1.355   3.056
 7494SOL    HW223382   5.843   1.329   3.193
 7495SOL     OW23383   1.714   2.260   6.843
 7495SOL    HW123384   1.783   2.284   6.775
 7495SOL    HW223385   1.758   2.252   6.933
 7496SOL     OW23386   6.662   3.889   3.651
 7496SOL    HW123387   6.675   3.798   3.612
 7496SOL    HW223388   6.569   3.920   3.633
 7497SOL     OW23389   1.936   4.414   1.751
 7497SOL    HW123390   1.972   4.325   1.781
 7497SOL    HW223391   1.841   4.403   1.722
 7498SOL     OW23392   2.964   1.137   5.185
 7498SOL    HW123393   3.003   1.206   5.245
 7498SOL    HW223394   2.881   1.172   5.143
 7499SOL     OW23395   4.229   1.974   2.978
 7499SOL    HW123396   4.309   1.924   3.011
 7499SOL    HW223397   4.148   1.941   3.026
 7500SOL     OW23398   3.697   6.014   3.474
 7500SOL    HW123399   3.638   5.946   3.432
 7500SOL    HW223400   3.756   6.056   3.405
 7501SOL     OW23401   5.047   4.163   4.726
 7501SOL    HW123402   5.102   4.099   4.780
 7501SOL    HW223403   4.955   4.125   4.713
 7502SOL     OW23404   2.951   1.201   4.337
 7502SOL    HW123405   3.029   1.208   4.274
 7502SOL    HW223406   2.980   1.230   4.428
 7503SOL     OW23407   2.391   6.687   1.678
 7503SOL    HW123408   2.297   6.690   1.712
 7503SOL    HW223409   2.392   6.649   1.586
 7504SOL     OW23410   0.742   6.350   3.891
 7504SOL    HW123411   0.783   6.279   3.948
 7504SOL    HW223412   0.793   6.436   3.903
 7505SOL     OW23413   1.343   2.924   5.637
 7505SOL    HW123414   1.349   2.829   5.607
 7505SOL    HW223415   1.248   2.955   5.632
 7506SOL     OW23416   5.534   2.201   3.437
 7506SOL    HW123417   5.494   2.233   3.351
 7506SOL    HW223418   5.474   2.133   3.479
 7507SOL     OW23419   6.208   1.737   2.642
 7507SOL    HW123420   6.138   1.757   2.573
 7507SOL    HW223421   6.195   1.644   2.677
 7508SOL     OW23422   1.700   5.620   1.103
 7508SOL    HW123423   1.678   5.707   1.059
 7508SOL    HW223424   1.684   5.628   1.201
 7509SOL     OW23425   6.142   3.526   0.772
 7509SOL    HW123426   6.174   3.612   0.812
 7509SOL    HW223427   6.089   3.476   0.841
 7510SOL     OW23428   3.170   3.598   5.170
 7510SOL    HW123429   3.167   3.581   5.071
 7510SOL    HW223430   3.144   3.693   5.188
 7511SOL     OW23431   2.773   5.789   3.320
 7511SOL    HW123432   2.694   5.752   3.369
 7511SOL    HW223433   2.831   5.714   3.290
 7512SOL     OW23434   3.023   0.606   6.434
 7512SOL    HW123435   2.947   0.670   6.451
 7512SOL    HW223436   3.003   0.519   6.480
 7513SOL     OW23437   1.055   1.540   1.794
 7513SOL    HW123438   1.085   1.569   1.885
 7513SOL    HW223439   1.092   1.602   1.725
 7514SOL     OW23440   2.253   4.894   2.712
 7514SOL    HW123441   2.171   4.951   2.707
 7514SOL    HW223442   2.284   4.872   2.620
 7515SOL     OW23443   6.888   5.375   4.505
 7515SOL    HW123444   6.826   5.452   4.491
 7515SOL    HW223445   6.910   5.334   4.416
 7516SOL     OW23446   6.732   5.314   6.089
 7516SOL    HW123447   6.830   5.304   6.108
 7516SOL    HW223448   6.681   5.247   6.142
 7517SOL     OW23449   0.198   1.933   0.186
 7517SOL    HW123450   0.238   1.846   0.215
 7517SOL    HW223451   0.125   1.959   0.249
 7518SOL     OW23452   4.974   3.979   4.187
 7518SOL    HW123453   4.920   3.959   4.269
 7518SOL    HW223454   4.972   3.901   4.125
 7519SOL     OW23455   6.841   6.605   4.597
 7519SOL    HW123456   6.772   6.641   4.534
 7519SOL    HW223457   6.905   6.546   4.547
 7520SOL     OW23458   2.409   0.501   2.698
 7520SOL    HW123459   2.335   0.530   2.760
 7520SOL    HW223460   2.375   0.497   2.604
 7521SOL     OW23461   4.822   2.714   5.578
 7521SOL    HW123462   4.807   2.675   5.488
 7521SOL    HW223463   4.740   2.764   5.607
 7522SOL     OW23464   1.527   1.152   5.820
 7522SOL    HW123465   1.619   1.114   5.822
 7522SOL    HW223466   1.529   1.245   5.785
 7523SOL     OW23467   4.825   0.651   6.329
 7523SOL    HW123468   4.914   0.608   6.347
 7523SOL    HW223469   4.836   0.751   6.328
 7524SOL     OW23470   0.929   2.507   4.993
 7524SOL    HW123471   0.890   2.598   5.004
 7524SOL    HW223472   0.886   2.461   4.915
 7525SOL     OW23473   3.569   0.405   7.006
 7525SOL    HW123474   3.520   0.490   6.986
 7525SOL    HW223475   3.656   0.404   6.956
 7526SOL     OW23476   2.806   3.034   1.348
 7526SOL    HW123477   2.865   3.037   1.267
 7526SOL    HW223478   2.746   3.113   1.349
 7527SOL     OW23479   3.290   6.352   3.755
 7527SOL    HW123480   3.337   6.330   3.670
 7527SOL    HW223481   3.341   6.423   3.805
 7528SOL     OW23482   6.450   2.026   6.573
 7528SOL    HW123483   6.423   1.931   6.588
 7528SOL    HW223484   6.393   2.086   6.627
 7529SOL     OW23485   5.613   1.518   4.705
 7529SOL    HW123486   5.626   1.420   4.688
 7529SOL    HW223487   5.688   1.569   4.661
 7530SOL     OW23488   6.548   2.149   2.515
 7530SOL    HW123489   6.613   2.084   2.553
 7530SOL    HW223490   6.596   2.234   2.490
 7531SOL     OW23491   5.681   3.354   4.351
 7531SOL    HW123492   5.606   3.415   4.374
 7531SOL    HW223493   5.645   3.270   4.311
 7532SOL     OW23494   4.626   6.415   0.642
 7532SOL    HW123495   4.538   6.426   0.689
 7532SOL    HW223496   4.685   6.493   0.662
 7533SOL     OW23497   3.646   2.022   1.576
 7533SOL    HW123498   3.694   1.942   1.613
 7533SOL    HW223499   3.570   2.046   1.636
 7534SOL     OW23500   4.763   5.937   4.970
 7534SOL    HW123501   4.844   5.969   5.018
 7534SOL    HW223502   4.781   5.936   4.872
 7535SOL     OW23503   1.883   0.220   4.897
 7535SOL    HW123504   1.802   0.276   4.879
 7535SOL    HW223505   1.903   0.163   4.817
 7536SOL     OW23506   5.244   4.310   4.246
 7536SOL    HW123507   5.310   4.238   4.228
 7536SOL    HW223508   5.151   4.273   4.240
 7537SOL     OW23509   1.700   4.962   2.368
 7537SOL    HW123510   1.715   5.023   2.446
 7537SOL    HW223511   1.737   5.003   2.285
 7538SOL     OW23512   1.924   2.323   1.831
 7538SOL    HW123513   1.881   2.384   1.898
 7538SOL    HW223514   1.856   2.258   1.797
 7539SOL     OW23515   1.639   3.538   4.353
 7539SOL    HW123516   1.550   3.520   4.312
 7539SOL    HW223517   1.666   3.461   4.411
 7540SOL     OW23518   4.527   0.761   5.059
 7540SOL    HW123519   4.589   0.732   4.986
 7540SOL    HW223520   4.433   0.740   5.032
 7541SOL     OW23521   0.363   3.842   4.837
 7541SOL    HW123522   0.281   3.786   4.848
 7541SOL    HW223523   0.349   3.907   4.762
 7542SOL     OW23524   0.642   5.519   6.947
 7542SOL    HW123525   0.548   5.539   6.922
 7542SOL    HW223526   0.645   5.472   0.012
 7543SOL     OW23527   3.635   1.157   5.270
 7543SOL    HW123528   3.596   1.213   5.343
 7543SOL    HW223529   3.566   1.093   5.237
 7544SOL     OW23530   6.482   2.500   4.300
 7544SOL    HW123531   6.553   2.556   4.258
 7544SOL    HW223532   6.403   2.558   4.322
 7545SOL     OW23533   0.831   6.188   6.307
 7545SOL    HW123534   0.737   6.167   6.333
 7545SOL    HW223535   0.891   6.180   6.387
 7546SOL     OW23536   4.337   1.913   1.412
 7546SOL    HW123537   4.360   1.938   1.507
 7546SOL    HW223538   4.252   1.958   1.385
 7547SOL     OW23539   5.154   1.765   0.864
 7547SOL    HW123540   5.109   1.851   0.887
 7547SOL    HW223541   5.091   1.708   0.811
 7548SOL     OW23542   4.289   2.402   6.419
 7548SOL    HW123543   4.283   2.465   6.342
 7548SOL    HW223544   4.318   2.312   6.387
 7549SOL     OW23545   3.280   3.508   6.615
 7549SOL    HW123546   3.322   3.585   6.664
 7549SOL    HW223547   3.284   3.525   6.517
 7550SOL     OW23548   1.964   4.710   4.077
 7550SOL    HW123549   2.035   4.711   4.147
 7550SOL    HW223550   2.007   4.715   3.987
 7551SOL     OW23551   6.024   3.083   5.591
 7551SOL    HW123552   5.971   3.047   5.668
 7551SOL    HW223553   5.968   3.083   5.508
 7552SOL     OW23554   1.300   6.136   3.624
 7552SOL    HW123555   1.235   6.074   3.668
 7552SOL    HW223556   1.255   6.222   3.602
 7553SOL     OW23557   4.365   0.368   5.904
 7553SOL    HW123558   4.275   0.326   5.888
 7553SOL    HW223559   4.406   0.391   5.816
 7554SOL     OW23560   5.112   0.990   6.561
 7554SOL    HW123561   5.058   1.068   6.592
 7554SOL    HW223562   5.098   0.913   6.622
 7555SOL     OW23563   3.278   5.360   6.133
 7555SOL    HW123564   3.348   5.296   6.163
 7555SOL    HW223565   3.315   5.420   6.062
 7556SOL     OW23566   2.734   2.563   0.566
 7556SOL    HW123567   2.716   2.579   0.469
 7556SOL    HW223568   2.787   2.639   0.603
 7557SOL     OW23569   5.182   0.900   6.325
 7557SOL    HW123570   5.154   0.945   6.410
 7557SOL    HW223571   5.191   0.969   6.253
 7558SOL     OW23572   1.772   2.857   4.430
 7558SOL    HW123573   1.701   2.928   4.424
 7558SOL    HW223574   1.835   2.879   4.504
 7559SOL     OW23575   3.890   2.877   6.022
 7559SOL    HW123576   3.886   2.973   6.048
 7559SOL    HW223577   3.864   2.867   5.926
 7560SOL     OW23578   4.795   6.669   0.401
 7560SOL    HW123579   4.701   6.677   0.369
 7560SOL    HW223580   4.798   6.675   0.500
 7561SOL     OW23581   7.019   3.296   6.092
 7561SOL    HW123582   0.005   3.220   6.027
 7561SOL    HW223583   7.013   3.260   6.185
 7562SOL     OW23584   0.279   5.477   5.396
 7562SOL    HW123585   0.354   5.534   5.430
 7562SOL    HW223586   0.213   5.462   5.469
 7563SOL     OW23587   3.022   0.150   1.726
 7563SOL    HW123588   3.024   0.055   1.757
 7563SOL    HW223589   3.073   0.158   1.640
 7564SOL     OW23590   4.144   0.771   3.943
 7564SOL    HW123591   4.062   0.716   3.960
 7564SOL    HW223592   4.184   0.802   4.029
 7565SOL     OW23593   5.582   3.591   6.804
 7565SOL    HW123594   5.638   3.604   6.723
 7565SOL    HW223595   5.620   3.518   6.860
 7566SOL     OW23596   5.508   5.069   2.679
 7566SOL    HW123597   5.441   5.143   2.680
 7566SOL    HW223598   5.540   5.054   2.585
 7567SOL     OW23599   1.813   1.421   5.886
 7567SOL    HW123600   1.845   1.516   5.889
 7567SOL    HW223601   1.715   1.419   5.905
 7568SOL     OW23602   5.456   4.549   3.169
 7568SOL    HW123603   5.490   4.540   3.263
 7568SOL    HW223604   5.527   4.590   3.112
 7569SOL     OW23605   3.264   4.386   5.962
 7569SOL    HW123606   3.332   4.313   5.968
 7569SOL    HW223607   3.291   4.450   5.889
 7570SOL     OW23608   5.242   3.964   4.241
 7570SOL    HW123609   5.143   3.971   4.228
 7570SOL    HW223610   5.265   3.989   4.335
 7571SOL     OW23611   4.634   4.304   3.251
 7571SOL    HW123612   4.635   4.269   3.345
 7571SOL    HW223613   4.710   4.266   3.200
 7572SOL     OW23614   5.130   0.853   2.335
 7572SOL    HW123615   5.074   0.785   2.288
 7572SOL    HW223616   5.084   0.942   2.333
 7573SOL     OW23617   0.427   6.907   5.249
 7573SOL    HW123618   0.347   6.931   5.194
 7573SOL    HW223619   0.508   6.952   5.211
 7574SOL     OW23620   5.390   0.902   5.538
 7574SOL    HW123621   5.349   0.992   5.555
 7574SOL    HW223622   5.346   0.859   5.459
 7575SOL     OW23623   5.314   0.046   6.952
 7575SOL    HW123624   5.358   0.099   6.880
 7575SOL    HW223625   5.223   0.084   6.971
 7576SOL     OW23626   4.962   3.448   0.611
 7576SOL    HW123627   4.962   3.517   0.539
 7576SOL    HW223628   4.877   3.452   0.663
 7577SOL     OW23629   0.560   6.643   6.495
 7577SOL    HW123630   0.582   6.590   6.577
 7577SOL    HW223631   0.479   6.700   6.513
 7578SOL     OW23632   3.085   5.388   3.015
 7578SOL    HW123633   3.059   5.312   3.074
 7578SOL    HW223634   3.148   5.357   2.945
 7579SOL     OW23635   0.447   1.876   1.856
 7579SOL    HW123636   0.511   1.826   1.797
 7579SOL    HW223637   0.471   1.973   1.857
 7580SOL     OW23638   0.996   3.893   3.723
 7580SOL    HW123639   0.921   3.960   3.724
 7580SOL    HW223640   1.068   3.925   3.661
 7581SOL     OW23641   0.830   2.242   1.195
 7581SOL    HW123642   0.797   2.165   1.140
 7581SOL    HW223643   0.791   2.327   1.160
 7582SOL     OW23644   3.985   1.399   3.247
 7582SOL    HW123645   3.966   1.497   3.257
 7582SOL    HW223646   4.048   1.370   3.320
 7583SOL     OW23647   4.883   2.415   2.107
 7583SOL    HW123648   4.816   2.362   2.057
 7583SOL    HW223649   4.894   2.505   2.063
 7584SOL     OW23650   2.188   1.045   3.168
 7584SOL    HW123651   2.210   1.014   3.260
 7584SOL    HW223652   2.118   0.984   3.129
 7585SOL     OW23653   2.305   2.863   6.092
 7585SOL    HW123654   2.248   2.807   6.152
 7585SOL    HW223655   2.395   2.820   6.081
 7586SOL     OW23656   2.042   6.533   3.587
 7586SOL    HW123657   1.955   6.528   3.636
 7586SOL    HW223658   2.116   6.548   3.652
 7587SOL     OW23659   2.185   0.863   6.645
 7587SOL    HW123660   2.089   0.854   6.674
 7587SOL    HW223661   2.237   0.910   6.717
 7588SOL     OW23662   2.059   2.244   3.519
 7588SOL    HW123663   2.105   2.171   3.570
 7588SOL    HW223664   2.104   2.255   3.430
 7589SOL     OW23665   0.476   0.473   2.507
 7589SOL    HW123666   0.544   0.449   2.438
 7589SOL    HW223667   0.443   0.566   2.490
 7590SOL     OW23668   4.405   1.919   0.010
 7590SOL    HW123669   4.482   1.882   6.980
 7590SOL    HW223670   4.367   1.998   6.985
 7591SOL     OW23671   5.294   4.310   0.571
 7591SOL    HW123672   5.345   4.375   0.628
 7591SOL    HW223673   5.283   4.224   0.621
 7592SOL     OW23674   6.314   5.783   4.575
 7592SOL    HW123675   6.377   5.734   4.515
 7592SOL    HW223676   6.291   5.724   4.653
 7593SOL     OW23677   6.642   3.436   6.548
 7593SOL    HW123678   6.669   3.524   6.508
 7593SOL    HW223679   6.606   3.452   6.640
 7594SOL     OW23680   1.758   4.740   2.018
 7594SOL    HW123681   1.842   4.687   2.009
 7594SOL    HW223682   1.774   4.834   1.989
 7595SOL     OW23683   5.598   3.389   6.130
 7595SOL    HW123684   5.616   3.456   6.059
 7595SOL    HW223685   5.626   3.298   6.099
 7596SOL     OW23686   3.694   6.430   4.730
 7596SOL    HW123687   3.759   6.502   4.756
 7596SOL    HW223688   3.619   6.470   4.678
 7597SOL     OW23689   1.944   6.433   3.169
 7597SOL    HW123690   1.945   6.410   3.266
 7597SOL    HW223691   2.014   6.379   3.122
 7598SOL     OW23692   6.875   0.880   3.242
 7598SOL    HW123693   6.827   0.819   3.179
 7598SOL    HW223694   6.842   0.973   3.230
 7599SOL     OW23695   5.560   2.405   1.911
 7599SOL    HW123696   5.552   2.471   1.986
 7599SOL    HW223697   5.607   2.447   1.834
 7600SOL     OW23698   0.560   1.329   3.683
 7600SOL    HW123699   0.628   1.374   3.625
 7600SOL    HW223700   0.565   1.230   3.670
 7601SOL     OW23701   2.686   4.651   2.430
 7601SOL    HW123702   2.654   4.745   2.439
 7601SOL    HW223703   2.724   4.620   2.518
 7602SOL     OW23704   1.747   3.502   0.220
 7602SOL    HW123705   1.817   3.562   0.258
 7602SOL    HW223706   1.723   3.533   0.127
 7603SOL     OW23707   2.101   6.278   6.619
 7603SOL    HW123708   2.012   6.279   6.574
 7603SOL    HW223709   2.167   6.329   6.562
 7604SOL     OW23710   0.954   2.792   4.571
 7604SOL    HW123711   0.903   2.713   4.604
 7604SOL    HW223712   0.919   2.876   4.613
 7605SOL     OW23713   1.008   0.462   0.786
 7605SOL    HW123714   1.095   0.453   0.736
 7605SOL    HW223715   1.000   0.388   0.853
 7606SOL     OW23716   5.879   2.954   4.215
 7606SOL    HW123717   5.806   3.004   4.261
 7606SOL    HW223718   5.866   2.961   4.116
 7607SOL     OW23719   4.036   4.823   0.710
 7607SOL    HW123720   3.954   4.767   0.717
 7607SOL    HW223721   4.031   4.881   0.629
 7608SOL     OW23722   4.903   3.356   1.200
 7608SOL    HW123723   4.829   3.336   1.135
 7608SOL    HW223724   4.925   3.453   1.196
 7609SOL     OW23725   1.595   3.040   4.357
 7609SOL    HW123726   1.653   3.102   4.305
 7609SOL    HW223727   1.520   3.008   4.299
 7610SOL     OW23728   3.851   4.735   5.794
 7610SOL    HW123729   3.909   4.786   5.859
 7610SOL    HW223730   3.784   4.798   5.755
 7611SOL     OW23731   5.423   4.204   1.175
 7611SOL    HW123732   5.353   4.137   1.200
 7611SOL    HW223733   5.509   4.182   1.221
 7612SOL     OW23734   4.957   3.008   2.838
 7612SOL    HW123735   5.049   3.032   2.868
 7612SOL    HW223736   4.955   3.002   2.738
 7613SOL     OW23737   0.572   1.622   0.853
 7613SOL    HW123738   0.555   1.567   0.935
 7613SOL    HW223739   0.535   1.574   0.773
 7614SOL     OW23740   5.164   2.874   1.131
 7614SOL    HW123741   5.138   2.818   1.053
 7614SOL    HW223742   5.194   2.815   1.206
 7615SOL     OW23743   4.133   4.647   6.837
 7615SOL    HW123744   4.125   4.636   6.936
 7615SOL    HW223745   4.078   4.577   6.791
 7616SOL     OW23746   6.940   6.339   4.471
 7616SOL    HW123747   7.015   6.273   4.474
 7616SOL    HW223748   6.865   6.307   4.529
 7617SOL     OW23749   3.525   6.354   3.589
 7617SOL    HW123750   3.530   6.291   3.512
 7617SOL    HW223751   3.573   6.439   3.567
 7618SOL     OW23752   0.483   2.732   6.488
 7618SOL    HW123753   0.541   2.654   6.464
 7618SOL    HW223754   0.439   2.715   6.576
 7619SOL     OW23755   6.985   2.883   4.954
 7619SOL    HW123756   6.951   2.975   4.931
 7619SOL    HW223757   6.926   2.842   5.024
 7620SOL     OW23758   4.121   5.649   2.039
 7620SOL    HW123759   4.184   5.677   1.966
 7620SOL    HW223760   4.119   5.718   2.110
 7621SOL     OW23761   6.582   1.048   0.803
 7621SOL    HW123762   6.572   1.067   0.901
 7621SOL    HW223763   6.629   1.124   0.759
 7622SOL     OW23764   4.825   4.203   6.273
 7622SOL    HW123765   4.836   4.208   6.173
 7622SOL    HW223766   4.742   4.152   6.295
 7623SOL     OW23767   4.362   4.242   0.128
 7623SOL    HW123768   4.337   4.244   0.031
 7623SOL    HW223769   4.451   4.287   0.140
 7624SOL     OW23770   6.688   3.604   4.437
 7624SOL    HW123771   6.721   3.610   4.343
 7624SOL    HW223772   6.760   3.564   4.495
 7625SOL     OW23773   5.488   1.235   0.183
 7625SOL    HW123774   5.474   1.298   0.259
 7625SOL    HW223775   5.584   1.207   0.181
 7626SOL     OW23776   5.890   0.491   5.677
 7626SOL    HW123777   5.917   0.396   5.665
 7626SOL    HW223778   5.863   0.507   5.772
 7627SOL     OW23779   3.550   2.658   0.731
 7627SOL    HW123780   3.610   2.606   0.792
 7627SOL    HW223781   3.553   2.617   0.640
 7628SOL     OW23782   3.629   2.775   1.803
 7628SOL    HW123783   3.663   2.866   1.781
 7628SOL    HW223784   3.702   2.707   1.790
 7629SOL     OW23785   0.474   4.253   3.591
 7629SOL    HW123786   0.406   4.326   3.582
 7629SOL    HW223787   0.547   4.267   3.525
 7630SOL     OW23788   0.804   1.081   0.290
 7630SOL    HW123789   0.743   1.023   0.236
 7630SOL    HW223790   0.755   1.118   0.368
 7631SOL     OW23791   1.164   2.060   5.852
 7631SOL    HW123792   1.126   2.150   5.871
 7631SOL    HW223793   1.090   1.997   5.827
 7632SOL     OW23794   4.766   4.635   0.657
 7632SOL    HW123795   4.748   4.711   0.719
 7632SOL    HW223796   4.680   4.605   0.615
 7633SOL     OW23797   5.587   1.010   1.963
 7633SOL    HW123798   5.659   1.049   1.905
 7633SOL    HW223799   5.502   1.060   1.947
 7634SOL     OW23800   2.019   1.110   1.605
 7634SOL    HW123801   2.059   1.022   1.580
 7634SOL    HW223802   2.091   1.179   1.610
 7635SOL     OW23803   3.376   5.293   5.254
 7635SOL    HW123804   3.283   5.267   5.228
 7635SOL    HW223805   3.373   5.368   5.320
 7636SOL     OW23806   1.329   3.492   4.212
 7636SOL    HW123807   1.240   3.499   4.258
 7636SOL    HW223808   1.352   3.395   4.198
 7637SOL     OW23809   2.540   5.888   2.581
 7637SOL    HW123810   2.485   5.805   2.571
 7637SOL    HW223811   2.528   5.946   2.500
 7638SOL     OW23812   2.027   5.282   2.426
 7638SOL    HW123813   2.010   5.274   2.327
 7638SOL    HW223814   1.942   5.308   2.472
 7639SOL     OW23815   0.112   0.851   1.054
 7639SOL    HW123816   0.013   0.841   1.051
 7639SOL    HW223817   0.154   0.766   1.084
 7640SOL     OW23818   2.533   2.064   5.888
 7640SOL    HW123819   2.621   2.018   5.893
 7640SOL    HW223820   2.491   2.065   5.979
 7641SOL     OW23821   0.313   3.266   2.667
 7641SOL    HW123822   0.226   3.217   2.657
 7641SOL    HW223823   0.299   3.363   2.652
 7642SOL     OW23824   3.930   1.462   2.396
 7642SOL    HW123825   3.837   1.494   2.413
 7642SOL    HW223826   3.965   1.416   2.477
 7643SOL     OW23827   5.270   1.735   3.087
 7643SOL    HW123828   5.272   1.816   3.029
 7643SOL    HW223829   5.267   1.653   3.029
 7644SOL     OW23830   4.689   2.715   2.029
 7644SOL    HW123831   4.595   2.682   2.044
 7644SOL    HW223832   4.692   2.814   2.040
 7645SOL     OW23833   4.815   4.031   5.723
 7645SOL    HW123834   4.835   3.973   5.644
 7645SOL    HW223835   4.716   4.047   5.728
 7646SOL     OW23836   0.597   3.153   4.255
 7646SOL    HW123837   0.600   3.151   4.355
 7646SOL    HW223838   0.534   3.082   4.223
 7647SOL     OW23839   6.906   2.659   4.384
 7647SOL    HW123840   6.972   2.593   4.348
 7647SOL    HW223841   6.933   2.687   4.476
 7648SOL     OW23842   2.432   1.791   2.310
 7648SOL    HW123843   2.410   1.699   2.278
 7648SOL    HW223844   2.478   1.843   2.237
 7649SOL     OW23845   1.341   0.183   3.861
 7649SOL    HW123846   1.358   0.181   3.959
 7649SOL    HW223847   1.406   0.123   3.814
 7650SOL     OW23848   5.698   0.838   0.556
 7650SOL    HW123849   5.662   0.782   0.482
 7650SOL    HW223850   5.638   0.915   0.573
 7651SOL     OW23851   2.121   0.385   4.195
 7651SOL    HW123852   2.089   0.342   4.111
 7651SOL    HW223853   2.174   0.319   4.248
 7652SOL     OW23854   5.443   2.359   4.834
 7652SOL    HW123855   5.508   2.283   4.831
 7652SOL    HW223856   5.367   2.335   4.893
 7653SOL     OW23857   0.673   1.505   0.313
 7653SOL    HW123858   0.680   1.583   0.251
 7653SOL    HW223859   0.762   1.459   0.319
 7654SOL     OW23860   4.946   3.081   4.185
 7654SOL    HW123861   4.910   3.160   4.135
 7654SOL    HW223862   4.979   3.013   4.121
 7655SOL     OW23863   4.488   6.790   3.900
 7655SOL    HW123864   4.405   6.816   3.850
 7655SOL    HW223865   4.525   6.706   3.862
 7656SOL     OW23866   4.052   4.068   6.499
 7656SOL    HW123867   3.981   4.093   6.565
 7656SOL    HW223868   4.133   4.124   6.516
 7657SOL     OW23869   1.775   1.996   3.048
 7657SOL    HW123870   1.792   2.090   3.077
 7657SOL    HW223871   1.778   1.935   3.128
 7658SOL     OW23872   2.471   0.299   0.998
 7658SOL    HW123873   2.468   0.303   0.898
 7658SOL    HW223874   2.388   0.340   1.035
 7659SOL     OW23875   4.780   4.503   6.974
 7659SOL    HW123876   4.765   4.585   0.005
 7659SOL    HW223877   4.867   4.461   6.999
 7660SOL     OW23878   6.953   5.983   3.847
 7660SOL    HW123879   6.891   6.046   3.801
 7660SOL    HW223880   7.021   6.035   3.899
 7661SOL     OW23881   5.489   2.599   5.332
 7661SOL    HW123882   5.496   2.509   5.290
 7661SOL    HW223883   5.532   2.598   5.422
 7662SOL     OW23884   1.229   2.429   4.201
 7662SOL    HW123885   1.240   2.487   4.120
 7662SOL    HW223886   1.162   2.472   4.263
 7663SOL     OW23887   5.874   4.645   6.392
 7663SOL    HW123888   5.860   4.651   6.293
 7663SOL    HW223889   5.922   4.726   6.424
 7664SOL     OW23890   4.236   1.138   2.096
 7664SOL    HW123891   4.300   1.074   2.138
 7664SOL    HW223892   4.186   1.188   2.167
 7665SOL     OW23893   6.096   0.859   5.401
 7665SOL    HW123894   6.106   0.881   5.498
 7665SOL    HW223895   6.011   0.900   5.366
 7666SOL     OW23896   0.567   4.771   3.397
 7666SOL    HW123897   0.578   4.752   3.300
 7666SOL    HW223898   0.636   4.720   3.449
 7667SOL     OW23899   4.275   0.625   2.252
 7667SOL    HW123900   4.299   0.531   2.226
 7667SOL    HW223901   4.179   0.628   2.279
 7668SOL     OW23902   2.424   4.988   0.914
 7668SOL    HW123903   2.515   4.999   0.954
 7668SOL    HW223904   2.410   5.059   0.845
 7669SOL     OW23905   4.918   1.283   5.525
 7669SOL    HW123906   4.931   1.382   5.512
 7669SOL    HW223907   4.947   1.258   5.618
 7670SOL     OW23908   1.008   5.294   0.700
 7670SOL    HW123909   1.036   5.296   0.604
 7670SOL    HW223910   1.055   5.218   0.747
 7671SOL     OW23911   3.396   1.027   2.490
 7671SOL    HW123912   3.492   1.015   2.518
 7671SOL    HW223913   3.389   1.108   2.432
 7672SOL     OW23914   0.264   5.880   3.154
 7672SOL    HW123915   0.208   5.911   3.231
 7672SOL    HW223916   0.325   5.954   3.125
 7673SOL     OW23917   1.797   5.407   2.553
 7673SOL    HW123918   1.736   5.369   2.622
 7673SOL    HW223919   1.748   5.478   2.502
 7674SOL     OW23920   5.057   1.094   4.048
 7674SOL    HW123921   5.085   0.999   4.064
 7674SOL    HW223922   5.063   1.145   4.134
 7675SOL     OW23923   5.878   6.228   3.043
 7675SOL    HW123924   5.895   6.130   3.051
 7675SOL    HW223925   5.827   6.246   2.959
 7676SOL     OW23926   3.156   2.360   6.274
 7676SOL    HW123927   3.103   2.316   6.201
 7676SOL    HW223928   3.166   2.457   6.254
 7677SOL     OW23929   0.486   3.885   1.467
 7677SOL    HW123930   0.511   3.800   1.512
 7677SOL    HW223931   0.503   3.962   1.529
 7678SOL     OW23932   2.499   2.565   5.208
 7678SOL    HW123933   2.466   2.654   5.178
 7678SOL    HW223934   2.531   2.512   5.130
 7679SOL     OW23935   2.221   6.212   5.510
 7679SOL    HW123936   2.233   6.209   5.609
 7679SOL    HW223937   2.270   6.135   5.468
 7680SOL     OW23938   1.509   0.247   0.926
 7680SOL    HW123939   1.518   0.345   0.946
 7680SOL    HW223940   1.556   0.194   0.997
 7681SOL     OW23941   2.616   1.070   0.797
 7681SOL    HW123942   2.634   0.983   0.845
 7681SOL    HW223943   2.528   1.064   0.750
 7682SOL     OW23944   4.131   6.877   2.129
 7682SOL    HW123945   4.168   6.798   2.178
 7682SOL    HW223946   4.068   6.926   2.189
 7683SOL     OW23947   0.238   1.651   4.746
 7683SOL    HW123948   0.303   1.704   4.691
 7683SOL    HW223949   0.270   1.646   4.840
 7684SOL     OW23950   4.326   1.440   0.967
 7684SOL    HW123951   4.367   1.401   1.049
 7684SOL    HW223952   4.375   1.407   0.886
 7685SOL     OW23953   2.649   1.302   5.712
 7685SOL    HW123954   2.580   1.369   5.739
 7685SOL    HW223955   2.635   1.275   5.617
 7686SOL     OW23956   6.567   6.758   3.554
 7686SOL    HW123957   6.635   6.761   3.482
 7686SOL    HW223958   6.524   6.848   3.564
 7687SOL     OW23959   5.695   5.167   4.445
 7687SOL    HW123960   5.723   5.083   4.399
 7687SOL    HW223961   5.682   5.149   4.543
 7688SOL     OW23962   0.229   6.124   5.815
 7688SOL    HW123963   0.174   6.081   5.886
 7688SOL    HW223964   0.187   6.211   5.788
 7689SOL     OW23965   5.366   6.385   2.804
 7689SOL    HW123966   5.339   6.378   2.900
 7689SOL    HW223967   5.295   6.345   2.746
 7690SOL     OW23968   5.498   5.585   0.779
 7690SOL    HW123969   5.453   5.573   0.868
 7690SOL    HW223970   5.454   5.660   0.729
 7691SOL     OW23971   6.027   4.354   2.870
 7691SOL    HW123972   6.121   4.322   2.874
 7691SOL    HW223973   5.990   4.359   2.963
 7692SOL     OW23974   0.741   5.674   1.800
 7692SOL    HW123975   0.740   5.702   1.896
 7692SOL    HW223976   0.652   5.694   1.758
 7693SOL     OW23977   2.886   0.561   1.229
 7693SOL    HW123978   2.840   0.473   1.236
 7693SOL    HW223979   2.942   0.576   1.310
 7694SOL     OW23980   5.591   3.232   3.371
 7694SOL    HW123981   5.546   3.261   3.286
 7694SOL    HW223982   5.594   3.309   3.434
 7695SOL     OW23983   5.429   1.033   1.469
 7695SOL    HW123984   5.439   0.935   1.453
 7695SOL    HW223985   5.518   1.073   1.490
 7696SOL     OW23986   6.628   1.745   6.140
 7696SOL    HW123987   6.599   1.840   6.134
 7696SOL    HW223988   6.665   1.716   6.051
 7697SOL     OW23989   2.377   0.473   3.758
 7697SOL    HW123990   2.334   0.549   3.710
 7697SOL    HW223991   2.333   0.387   3.731
 7698SOL     OW23992   5.875   0.865   4.398
 7698SOL    HW123993   5.885   0.768   4.377
 7698SOL    HW223994   5.781   0.883   4.426
 7699SOL     OW23995   2.665   5.642   6.340
 7699SOL    HW123996   2.629   5.678   6.426
 7699SOL    HW223997   2.589   5.620   6.279
 7700SOL     OW23998   4.413   6.084   3.842
 7700SOL    HW123999   4.511   6.063   3.835
 7700SOL    HW224000   4.360   6.005   3.811
 7701SOL     OW24001   0.041   2.916   6.513
 7701SOL    HW124002   7.008   2.964   6.581
 7701SOL    HW224003   7.011   2.842   6.472
 7702SOL     OW24004   4.626   5.372   4.973
 7702SOL    HW124005   4.585   5.284   4.948
 7702SOL    HW224006   4.652   5.371   5.069
 7703SOL     OW24007   6.106   6.172   6.347
 7703SOL    HW124008   6.082   6.219   6.262
 7703SOL    HW224009   6.162   6.092   6.326
 7704SOL     OW24010   5.931   0.588   2.906
 7704SOL    HW124011   5.885   0.618   2.823
 7704SOL    HW224012   5.932   0.488   2.910
 7705SOL     OW24013   2.178   5.761   1.223
 7705SOL    HW124014   2.181   5.828   1.149
 7705SOL    HW224015   2.116   5.793   1.295
 7706SOL     OW24016   3.591   3.259   4.032
 7706SOL    HW124017   3.652   3.334   4.056
 7706SOL    HW224018   3.634   3.172   4.057
 7707SOL     OW24019   0.336   4.827   6.196
 7707SOL    HW124020   0.362   4.738   6.233
 7707SOL    HW224021   0.398   4.851   6.121
 7708SOL     OW24022   1.290   6.450   4.768
 7708SOL    HW124023   1.354   6.488   4.835
 7708SOL    HW224024   1.275   6.353   4.788
 7709SOL     OW24025   6.542   4.865   1.708
 7709SOL    HW124026   6.560   4.894   1.803
 7709SOL    HW224027   6.506   4.943   1.657
 7710SOL     OW24028   2.222   2.175   0.645
 7710SOL    HW124029   2.275   2.227   0.713
 7710SOL    HW224030   2.260   2.083   0.638
 7711SOL     OW24031   5.533   5.794   5.807
 7711SOL    HW124032   5.550   5.778   5.710
 7711SOL    HW224033   5.578   5.724   5.862
 7712SOL     OW24034   6.272   5.470   0.655
 7712SOL    HW124035   6.290   5.569   0.660
 7712SOL    HW224036   6.185   5.454   0.610
 7713SOL     OW24037   1.944   3.469   0.525
 7713SOL    HW124038   2.009   3.393   0.525
 7713SOL    HW224039   1.853   3.434   0.546
 7714SOL     OW24040   6.953   5.132   5.124
 7714SOL    HW124041   6.867   5.135   5.174
 7714SOL    HW224042   7.019   5.195   5.166
 7715SOL     OW24043   2.980   2.353   6.499
 7715SOL    HW124044   3.055   2.347   6.432
 7715SOL    HW224045   2.922   2.431   6.476
 7716SOL     OW24046   6.517   4.354   0.688
 7716SOL    HW124047   6.600   4.364   0.745
 7716SOL    HW224048   6.471   4.443   0.682
 7717SOL     OW24049   1.214   1.322   5.629
 7717SOL    HW124050   1.146   1.381   5.586
 7717SOL    HW224051   1.270   1.375   5.692
 7718SOL     OW24052   6.742   3.568   3.136
 7718SOL    HW124053   6.652   3.569   3.179
 7718SOL    HW224054   6.813   3.567   3.207
 7719SOL     OW24055   0.560   4.111   4.621
 7719SOL    HW124056   0.589   4.092   4.527
 7719SOL    HW224057   0.468   4.150   4.620
 7720SOL     OW24058   6.904   2.414   6.440
 7720SOL    HW124059   6.912   2.339   6.375
 7720SOL    HW224060   6.808   2.426   6.466
 7721SOL     OW24061   0.731   5.686   2.083
 7721SOL    HW124062   0.739   5.594   2.121
 7721SOL    HW224063   0.803   5.744   2.120
 7722SOL     OW24064   1.926   4.209   3.537
 7722SOL    HW124065   1.849   4.273   3.534
 7722SOL    HW224066   2.008   4.257   3.569
 7723SOL     OW24067   3.883   3.425   6.825
 7723SOL    HW124068   3.802   3.399   6.773
 7723SOL    HW224069   3.965   3.398   6.775
 7724SOL     OW24070   3.358   4.654   0.667
 7724SOL    HW124071   3.299   4.735   0.670
 7724SOL    HW224072   3.342   4.600   0.750
 7725SOL     OW24073   6.398   1.704   3.228
 7725SOL    HW124074   6.313   1.664   3.193
 7725SOL    HW224075   6.467   1.633   3.239
 7726SOL     OW24076   1.344   4.305   6.381
 7726SOL    HW124077   1.409   4.231   6.366
 7726SOL    HW224078   1.251   4.268   6.386
 7727SOL     OW24079   6.374   2.499   2.261
 7727SOL    HW124080   6.336   2.541   2.343
 7727SOL    HW224081   6.470   2.527   2.251
 7728SOL     OW24082   2.098   2.925   5.083
 7728SOL    HW124083   2.112   2.938   5.181
 7728SOL    HW224084   2.169   2.975   5.032
 7729SOL     OW24085   5.891   0.781   1.726
 7729SOL    HW124086   5.797   0.755   1.746
 7729SOL    HW224087   5.951   0.703   1.744
 7730SOL     OW24088   0.292   5.087   6.270
 7730SOL    HW124089   0.319   5.146   6.194
 7730SOL    HW224090   0.320   4.993   6.252
 7731SOL     OW24091   6.243   6.991   0.312
 7731SOL    HW124092   6.206   6.929   0.243
 7731SOL    HW224093   6.169   0.020   0.355
 7732SOL     OW24094   3.977   0.117   0.049
 7732SOL    HW124095   3.915   0.095   6.996
 7732SOL    HW224096   3.957   0.208   0.084
 7733SOL     OW24097   5.729   6.009   2.039
 7733SOL    HW124098   5.776   5.994   2.126
 7733SOL    HW224099   5.764   5.945   1.971
 7734SOL     OW24100   1.259   4.886   5.130
 7734SOL    HW124101   1.191   4.900   5.202
 7734SOL    HW224102   1.216   4.837   5.054
 7735SOL     OW24103   5.552   5.553   6.092
 7735SOL    HW124104   5.512   5.642   6.115
 7735SOL    HW224105   5.637   5.541   6.144
 7736SOL     OW24106   2.720   3.048   6.735
 7736SOL    HW124107   2.628   3.065   6.697
 7736SOL    HW224108   2.767   3.136   6.747
 7737SOL     OW24109   3.626   0.556   2.162
 7737SOL    HW124110   3.549   0.493   2.151
 7737SOL    HW224111   3.614   0.607   2.247
 7738SOL     OW24112   2.664   5.442   0.618
 7738SOL    HW124113   2.684   5.479   0.709
 7738SOL    HW224114   2.742   5.389   0.585
 7739SOL     OW24115   1.298   1.901   2.295
 7739SOL    HW124116   1.237   1.825   2.316
 7739SOL    HW224117   1.247   1.987   2.297
 7740SOL     OW24118   2.785   1.522   3.334
 7740SOL    HW124119   2.833   1.490   3.252
 7740SOL    HW224120   2.848   1.521   3.412
 7741SOL     OW24121   0.194   4.145   5.051
 7741SOL    HW124122   0.123   4.159   5.119
 7741SOL    HW224123   0.265   4.215   5.060
 7742SOL     OW24124   4.469   2.475   4.095
 7742SOL    HW124125   4.447   2.426   4.180
 7742SOL    HW224126   4.390   2.472   4.034
 7743SOL     OW24127   4.526   1.570   6.858
 7743SOL    HW124128   4.564   1.585   6.950
 7743SOL    HW224129   4.590   1.516   6.804
 7744SOL     OW24130   0.965   6.934   3.740
 7744SOL    HW124131   0.895   6.883   3.790
 7744SOL    HW224132   1.050   6.882   3.739
 7745SOL     OW24133   3.012   0.156   0.597
 7745SOL    HW124134   3.068   0.078   0.567
 7745SOL    HW224135   3.031   0.234   0.537
 7746SOL     OW24136   0.653   0.192   0.497
 7746SOL    HW124137   0.648   0.106   0.548
 7746SOL    HW224138   0.584   0.255   0.533
 7747SOL     OW24139   6.738   6.495   1.253
 7747SOL    HW124140   6.798   6.510   1.175
 7747SOL    HW224141   6.749   6.571   1.318
 7748SOL     OW24142   3.864   4.059   4.313
 7748SOL    HW124143   3.804   4.083   4.389
 7748SOL    HW224144   3.815   4.072   4.227
 7749SOL     OW24145   3.012   3.489   4.257
 7749SOL    HW124146   3.082   3.423   4.230
 7749SOL    HW224147   2.965   3.457   4.339
 7750SOL     OW24148   6.294   5.467   0.174
 7750SOL    HW124149   6.324   5.561   0.155
 7750SOL    HW224150   6.305   5.447   0.272
 7751SOL     OW24151   1.033   2.708   2.917
 7751SOL    HW124152   0.959   2.710   2.983
 7751SOL    HW224153   1.102   2.776   2.942
 7752SOL     OW24154   5.230   5.709   5.094
 7752SOL    HW124155   5.220   5.785   5.158
 7752SOL    HW224156   5.183   5.628   5.129
 7753SOL     OW24157   2.074   0.252   3.970
 7753SOL    HW124158   2.140   0.207   3.910
 7753SOL    HW224159   2.003   0.296   3.915
 7754SOL     OW24160   5.478   6.642   1.758
 7754SOL    HW124161   5.456   6.682   1.669
 7754SOL    HW224162   5.480   6.713   1.827
 7755SOL     OW24163   1.277   1.511   5.848
 7755SOL    HW124164   1.254   1.465   5.934
 7755SOL    HW224165   1.321   1.598   5.867
 7756SOL     OW24166   3.460   4.963   2.996
 7756SOL    HW124167   3.539   4.923   3.043
 7756SOL    HW224168   3.475   4.959   2.897
 7757SOL     OW24169   5.108   5.987   4.622
 7757SOL    HW124170   5.120   6.037   4.708
 7757SOL    HW224171   5.043   5.912   4.636
 7758SOL     OW24172   1.497   1.795   0.371
 7758SOL    HW124173   1.451   1.776   0.285
 7758SOL    HW224174   1.439   1.853   0.428
 7759SOL     OW24175   1.030   1.949   4.878
 7759SOL    HW124176   0.982   2.024   4.923
 7759SOL    HW224177   1.005   1.862   4.921
 7760SOL     OW24178   5.782   3.286   2.813
 7760SOL    HW124179   5.857   3.321   2.869
 7760SOL    HW224180   5.796   3.312   2.718
 7761SOL     OW24181   1.089   0.194   6.627
 7761SOL    HW124182   1.112   0.151   6.714
 7761SOL    HW224183   1.063   0.123   6.561
 7762SOL     OW24184   4.341   1.019   3.985
 7762SOL    HW124185   4.316   0.954   4.057
 7762SOL    HW224186   4.265   1.029   3.921
 7763SOL     OW24187   0.956   1.562   0.746
 7763SOL    HW124188   0.922   1.493   0.810
 7763SOL    HW224189   0.904   1.647   0.758
 7764SOL     OW24190   3.209   2.983   3.302
 7764SOL    HW124191   3.148   3.023   3.371
 7764SOL    HW224192   3.161   2.980   3.214
 7765SOL     OW24193   5.608   2.754   4.004
 7765SOL    HW124194   5.541   2.807   4.056
 7765SOL    HW224195   5.582   2.752   3.907
 7766SOL     OW24196   5.919   2.149   0.257
 7766SOL    HW124197   6.005   2.112   0.221
 7766SOL    HW224198   5.846   2.133   0.191
 7767SOL     OW24199   4.778   6.625   3.652
 7767SOL    HW124200   4.746   6.720   3.645
 7767SOL    HW224201   4.829   6.601   3.570
 7768SOL     OW24202   3.933   4.908   2.589
 7768SOL    HW124203   3.835   4.911   2.570
 7768SOL    HW224204   3.971   5.000   2.583
 7769SOL     OW24205   5.011   2.386   2.528
 7769SOL    HW124206   4.980   2.436   2.609
 7769SOL    HW224207   5.071   2.446   2.474
 7770SOL     OW24208   0.953   3.816   2.329
 7770SOL    HW124209   0.878   3.840   2.390
 7770SOL    HW224210   0.956   3.717   2.316
 7771SOL     OW24211   2.569   2.098   5.202
 7771SOL    HW124212   2.513   2.180   5.211
 7771SOL    HW224213   2.546   2.051   5.117
 7772SOL     OW24214   5.775   0.930   2.827
 7772SOL    HW124215   5.791   0.837   2.796
 7772SOL    HW224216   5.740   0.985   2.751
 7773SOL     OW24217   3.151   5.614   5.026
 7773SOL    HW124218   3.170   5.705   4.989
 7773SOL    HW224219   3.232   5.557   5.017
 7774SOL     OW24220   5.809   2.426   6.035
 7774SOL    HW124221   5.791   2.384   6.124
 7774SOL    HW224222   5.723   2.453   5.993
 7775SOL     OW24223   4.094   6.493   2.551
 7775SOL    HW124224   4.035   6.513   2.629
 7775SOL    HW224225   4.110   6.394   2.546
 7776SOL     OW24226   2.780   4.932   0.035
 7776SOL    HW124227   2.793   4.985   6.975
 7776SOL    HW224228   2.772   4.835   0.012
 7777SOL     OW24229   0.953   0.621   5.209
 7777SOL    HW124230   0.908   0.709   5.195
 7777SOL    HW224231   1.052   0.632   5.197
 7778SOL     OW24232   4.981   5.299   0.355
 7778SOL    HW124233   5.044   5.372   0.330
 7778SOL    HW224234   4.947   5.253   0.273
 7779SOL     OW24235   2.911   2.782   1.032
 7779SOL    HW124236   2.856   2.860   1.063
 7779SOL    HW224237   2.960   2.743   1.109
 7780SOL     OW24238   0.829   5.503   5.682
 7780SOL    HW124239   0.763   5.444   5.728
 7780SOL    HW224240   0.914   5.453   5.669
 7781SOL     OW24241   1.307   4.848   6.903
 7781SOL    HW124242   1.254   4.899   6.836
 7781SOL    HW224243   1.401   4.836   6.870
 7782SOL     OW24244   0.825   4.734   4.925
 7782SOL    HW124245   0.744   4.732   4.866
 7782SOL    HW224246   0.812   4.670   5.001
 7783SOL     OW24247   1.482   5.924   4.674
 7783SOL    HW124248   1.428   5.935   4.590
 7783SOL    HW224249   1.576   5.899   4.650
 7784SOL     OW24250   3.247   2.993   0.776
 7784SOL    HW124251   3.204   3.049   0.847
 7784SOL    HW224252   3.233   2.896   0.798
 7785SOL     OW24253   1.606   6.713   4.284
 7785SOL    HW124254   1.705   6.710   4.271
 7785SOL    HW224255   1.566   6.773   4.215
 7786SOL     OW24256   3.106   5.939   0.145
 7786SOL    HW124257   3.014   5.947   0.106
 7786SOL    HW224258   3.110   5.991   0.230
 7787SOL     OW24259   2.769   3.188   5.934
 7787SOL    HW124260   2.697   3.145   5.879
 7787SOL    HW224261   2.832   3.117   5.967
 7788SOL     OW24262   1.933   5.950   2.024
 7788SOL    HW124263   1.860   5.936   1.958
 7788SOL    HW224264   1.925   5.882   2.097
 7789SOL     OW24265   2.854   6.851   6.792
 7789SOL    HW124266   2.916   6.928   6.776
 7789SOL    HW224267   2.765   6.871   6.750
 7790SOL     OW24268   5.097   5.230   2.805
 7790SOL    HW124269   5.063   5.307   2.860
 7790SOL    HW224270   5.105   5.149   2.862
 7791SOL     OW24271   2.417   5.909   3.409
 7791SOL    HW124272   2.463   5.991   3.443
 7791SOL    HW224273   2.339   5.888   3.468
 7792SOL     OW24274   1.714   5.415   5.268
 7792SOL    HW124275   1.748   5.508   5.277
 7792SOL    HW224276   1.713   5.371   5.358
 7793SOL     OW24277   3.422   0.624   6.984
 7793SOL    HW124278   3.330   0.608   7.020
 7793SOL    HW224279   3.425   0.714   6.940
 7794SOL     OW24280   5.928   4.969   3.418
 7794SOL    HW124281   5.892   5.016   3.337
 7794SOL    HW224282   6.025   4.993   3.430
 7795SOL     OW24283   2.336   4.056   5.734
 7795SOL    HW124284   2.258   4.051   5.672
 7795SOL    HW224285   2.348   4.151   5.765
 7796SOL     OW24286   3.305   3.805   3.110
 7796SOL    HW124287   3.317   3.755   3.024
 7796SOL    HW224288   3.291   3.740   3.185
 7797SOL     OW24289   1.283   6.989   2.746
 7797SOL    HW124290   1.226   0.039   2.783
 7797SOL    HW224291   1.346   6.958   2.817
 7798SOL     OW24292   1.752   4.252   5.825
 7798SOL    HW124293   1.815   4.176   5.841
 7798SOL    HW224294   1.747   4.271   5.727
 7799SOL     OW24295   1.327   6.057   2.309
 7799SOL    HW124296   1.415   6.084   2.347
 7799SOL    HW224297   1.272   6.010   2.379
 7800SOL     OW24298   1.238   5.484   0.625
 7800SOL    HW124299   1.148   5.527   0.614
 7800SOL    HW224300   1.236   5.393   0.584
 7801SOL     OW24301   2.179   2.140   2.145
 7801SOL    HW124302   2.172   2.234   2.112
 7801SOL    HW224303   2.272   2.124   2.178
 7802SOL     OW24304   5.514   2.388   0.822
 7802SOL    HW124305   5.518   2.373   0.920
 7802SOL    HW224306   5.606   2.375   0.782
 7803SOL     OW24307   3.965   2.179   6.173
 7803SOL    HW124308   3.943   2.256   6.233
 7803SOL    HW224309   4.052   2.138   6.202
 7804SOL     OW24310   5.029   1.834   4.411
 7804SOL    HW124311   5.016   1.752   4.355
 7804SOL    HW224312   5.104   1.889   4.373
 7805SOL     OW24313   5.290   1.704   0.383
 7805SOL    HW124314   5.372   1.654   0.356
 7805SOL    HW224315   5.316   1.789   0.429
 7806SOL     OW24316   5.914   1.892   6.601
 7806SOL    HW124317   5.878   1.951   6.530
 7806SOL    HW224318   6.011   1.873   6.583
 7807SOL     OW24319   0.454   4.425   5.388
 7807SOL    HW124320   0.461   4.370   5.305
 7807SOL    HW224321   0.498   4.377   5.464
 7808SOL     OW24322   6.436   2.989   4.159
 7808SOL    HW124323   6.440   3.044   4.243
 7808SOL    HW224324   6.390   3.040   4.087
 7809SOL     OW24325   2.195   5.543   4.221
 7809SOL    HW124326   2.182   5.559   4.319
 7809SOL    HW224327   2.220   5.628   4.176
 7810SOL     OW24328   3.912   0.491   4.944
 7810SOL    HW124329   4.009   0.469   4.950
 7810SOL    HW224330   3.882   0.481   4.850
 7811SOL     OW24331   1.043   5.219   3.031
 7811SOL    HW124332   0.987   5.285   2.982
 7811SOL    HW224333   1.048   5.134   2.978
 7812SOL     OW24334   1.067   2.322   3.401
 7812SOL    HW124335   1.008   2.254   3.357
 7812SOL    HW224336   1.140   2.349   3.337
 7813SOL     OW24337   3.696   2.450   6.638
 7813SOL    HW124338   3.632   2.512   6.684
 7813SOL    HW224339   3.702   2.473   6.541
 7814SOL     OW24340   6.574   2.851   3.423
 7814SOL    HW124341   6.568   2.855   3.523
 7814SOL    HW224342   6.618   2.933   3.388
 7815SOL     OW24343   4.957   0.434   5.962
 7815SOL    HW124344   4.954   0.469   6.056
 7815SOL    HW224345   4.943   0.509   5.898
 7816SOL     OW24346   1.629   1.780   6.698
 7816SOL    HW124347   1.531   1.792   6.714
 7816SOL    HW224348   1.678   1.860   6.732
 7817SOL     OW24349   5.511   4.499   3.435
 7817SOL    HW124350   5.471   4.407   3.435
 7817SOL    HW224351   5.579   4.505   3.509
 7818SOL     OW24352   4.743   0.715   3.023
 7818SOL    HW124353   4.817   0.746   3.082
 7818SOL    HW224354   4.769   0.729   2.927
 7819SOL     OW24355   6.846   3.291   1.628
 7819SOL    HW124356   6.861   3.387   1.653
 7819SOL    HW224357   6.932   3.241   1.631
 7820SOL     OW24358   1.449   2.491   4.882
 7820SOL    HW124359   1.362   2.472   4.837
 7820SOL    HW224360   1.448   2.584   4.919
 7821SOL     OW24361   5.433   6.599   1.032
 7821SOL    HW124362   5.420   6.687   1.077
 7821SOL    HW224363   5.393   6.526   1.087
 7822SOL     OW24364   0.651   1.589   5.852
 7822SOL    HW124365   0.626   1.549   5.764
 7822SOL    HW224366   0.568   1.615   5.901
 7823SOL     OW24367   2.674   3.873   5.271
 7823SOL    HW124368   2.638   3.782   5.291
 7823SOL    HW224369   2.600   3.932   5.239
 7824SOL     OW24370   5.852   1.159   4.024
 7824SOL    HW124371   5.919   1.111   4.080
 7824SOL    HW224372   5.764   1.162   4.072
 7825SOL     OW24373   1.412   3.020   1.334
 7825SOL    HW124374   1.395   2.959   1.411
 7825SOL    HW224375   1.444   3.109   1.369
 7826SOL     OW24376   6.484   1.343   1.315
 7826SOL    HW124377   6.453   1.252   1.287
 7826SOL    HW224378   6.405   1.404   1.321
 7827SOL     OW24379   1.819   5.038   1.239
 7827SOL    HW124380   1.788   5.074   1.327
 7827SOL    HW224381   1.858   4.947   1.251
 7828SOL     OW24382   0.668   4.415   6.878
 7828SOL    HW124383   0.654   4.387   6.783
 7828SOL    HW224384   0.703   4.337   6.930
 7829SOL     OW24385   2.126   3.728   1.652
 7829SOL    HW124386   2.119   3.828   1.648
 7829SOL    HW224387   2.051   3.691   1.706
 7830SOL     OW24388   2.639   4.733   5.116
 7830SOL    HW124389   2.721   4.708   5.065
 7830SOL    HW224390   2.664   4.759   5.209
 7831SOL     OW24391   2.261   6.720   2.141
 7831SOL    HW124392   2.252   6.655   2.066
 7831SOL    HW224393   2.175   6.728   2.191
 7832SOL     OW24394   5.865   0.753   3.287
 7832SOL    HW124395   5.885   0.670   3.339
 7832SOL    HW224396   5.951   0.793   3.255
 7833SOL     OW24397   0.786   1.382   6.007
 7833SOL    HW124398   0.741   1.447   5.946
 7833SOL    HW224399   0.721   1.346   6.073
 7834SOL     OW24400   6.852   1.548   3.603
 7834SOL    HW124401   6.814   1.530   3.694
 7834SOL    HW224402   6.927   1.485   3.585
 7835SOL     OW24403   3.449   2.214   5.309
 7835SOL    HW124404   3.431   2.115   5.306
 7835SOL    HW224405   3.387   2.261   5.246
 7836SOL     OW24406   3.156   2.999   5.071
 7836SOL    HW124407   3.090   3.070   5.045
 7836SOL    HW224408   3.115   2.942   5.143
 7837SOL     OW24409   5.061   4.888   0.053
 7837SOL    HW124410   5.036   4.793   0.070
 7837SOL    HW224411   5.160   4.894   0.039
 7838SOL     OW24412   4.106   0.014   1.042
 7838SOL    HW124413   4.104   0.043   0.946
 7838SOL    HW224414   4.028   6.978   1.061
 7839SOL     OW24415   5.874   4.285   5.278
 7839SOL    HW124416   5.910   4.213   5.220
 7839SOL    HW224417   5.856   4.366   5.223
 7840SOL     OW24418   6.383   3.022   3.725
 7840SOL    HW124419   6.307   2.985   3.672
 7840SOL    HW224420   6.446   2.949   3.749
 7841SOL     OW24421   3.300   1.847   6.076
 7841SOL    HW124422   3.317   1.945   6.082
 7841SOL    HW224423   3.356   1.799   6.144
 7842SOL     OW24424   3.011   2.196   2.685
 7842SOL    HW124425   2.923   2.153   2.663
 7842SOL    HW224426   3.078   2.174   2.615
 7843SOL     OW24427   0.957   6.123   3.394
 7843SOL    HW124428   0.947   6.192   3.467
 7843SOL    HW224429   1.054   6.115   3.370
 7844SOL     OW24430   3.423   0.562   3.125
 7844SOL    HW124431   3.435   0.473   3.170
 7844SOL    HW224432   3.471   0.632   3.176
 7845SOL     OW24433   5.621   1.751   2.892
 7845SOL    HW124434   5.698   1.788   2.840
 7845SOL    HW224435   5.558   1.825   2.916
 7846SOL     OW24436   0.615   2.321   1.379
 7846SOL    HW124437   0.630   2.341   1.282
 7846SOL    HW224438   0.605   2.223   1.393
 7847SOL     OW24439   6.739   1.130   3.157
 7847SOL    HW124440   6.810   1.183   3.111
 7847SOL    HW224441   6.649   1.160   3.125
 7848SOL     OW24442   3.038   4.592   0.482
 7848SOL    HW124443   3.015   4.520   0.546
 7848SOL    HW224444   3.015   4.681   0.522
 7849SOL     OW24445   6.327   4.479   4.576
 7849SOL    HW124446   6.367   4.396   4.614
 7849SOL    HW224447   6.400   4.534   4.533
 7850SOL     OW24448   0.173   1.272   4.324
 7850SOL    HW124449   0.255   1.326   4.343
 7850SOL    HW224450   0.094   1.316   4.365
 7851SOL     OW24451   6.773   1.137   1.512
 7851SOL    HW124452   6.742   1.045   1.485
 7851SOL    HW224453   6.695   1.189   1.546
 7852SOL     OW24454   3.226   1.786   6.494
 7852SOL    HW124455   3.292   1.818   6.426
 7852SOL    HW224456   3.275   1.739   6.568
 7853SOL     OW24457   5.117   2.314   1.923
 7853SOL    HW124458   5.036   2.363   1.890
 7853SOL    HW224459   5.108   2.298   2.021
 7854SOL     OW24460   3.315   3.735   6.747
 7854SOL    HW124461   3.283   3.714   6.840
 7854SOL    HW224462   3.349   3.829   6.744
 7855SOL     OW24463   4.753   6.932   4.521
 7855SOL    HW124464   4.698   6.901   4.444
 7855SOL    HW224465   4.693   6.968   4.593
 7856SOL     OW24466   6.439   5.819   5.066
 7856SOL    HW124467   6.403   5.726   5.065
 7856SOL    HW224468   6.363   5.884   5.060
 7857SOL     OW24469   4.698   2.517   0.156
 7857SOL    HW124470   4.687   2.421   0.180
 7857SOL    HW224471   4.760   2.561   0.222
 7858SOL     OW24472   6.153   6.533   4.161
 7858SOL    HW124473   6.129   6.480   4.079
 7858SOL    HW224474   6.161   6.630   4.136
 7859SOL     OW24475   4.395   2.808   6.248
 7859SOL    HW124476   4.389   2.898   6.206
 7859SOL    HW224477   4.484   2.797   6.291
 7860SOL     OW24478   4.271   0.696   3.716
 7860SOL    HW124479   4.213   0.709   3.797
 7860SOL    HW224480   4.234   0.747   3.639
 7861SOL     OW24481   3.546   4.660   1.550
 7861SOL    HW124482   3.557   4.625   1.643
 7861SOL    HW224483   3.499   4.592   1.494
 7862SOL     OW24484   2.024   4.653   1.992
 7862SOL    HW124485   2.050   4.664   1.896
 7862SOL    HW224486   2.074   4.720   2.047
 7863SOL     OW24487   0.077   4.081   4.633
 7863SOL    HW124488   0.047   4.012   4.566
 7863SOL    HW224489   0.047   4.171   4.604
 7864SOL     OW24490   0.533   5.643   5.489
 7864SOL    HW124491   0.542   5.704   5.568
 7864SOL    HW224492   0.624   5.615   5.458
 7865SOL     OW24493   6.548   6.322   3.697
 7865SOL    HW124494   6.598   6.406   3.673
 7865SOL    HW224495   6.612   6.245   3.702
 7866SOL     OW24496   0.880   1.753   6.011
 7866SOL    HW124497   0.784   1.730   6.029
 7866SOL    HW224498   0.938   1.675   6.036
 7867SOL     OW24499   5.908   5.973   3.423
 7867SOL    HW124500   5.953   6.042   3.367
 7867SOL    HW224501   5.809   5.985   3.418
 7868SOL     OW24502   4.937   6.387   1.991
 7868SOL    HW124503   4.865   6.372   2.059
 7868SOL    HW224504   4.969   6.299   1.956
 7869SOL     OW24505   5.425   3.753   0.068
 7869SOL    HW124506   5.391   3.836   0.113
 7869SOL    HW224507   5.518   3.734   0.101
 7870SOL     OW24508   4.647   5.951   3.836
 7870SOL    HW124509   4.704   5.952   3.918
 7870SOL    HW224510   4.704   5.969   3.756
 7871SOL     OW24511   4.454   1.864   2.071
 7871SOL    HW124512   4.389   1.934   2.100
 7871SOL    HW224513   4.546   1.889   2.102
 7872SOL     OW24514   2.142   3.667   2.894
 7872SOL    HW124515   2.048   3.648   2.924
 7872SOL    HW224516   2.206   3.639   2.966
 7873SOL     OW24517   5.672   6.689   6.317
 7873SOL    HW124518   5.734   6.726   6.248
 7873SOL    HW224519   5.719   6.616   6.368
 7874SOL     OW24520   4.835   2.658   0.319
 7874SOL    HW124521   4.932   2.649   0.341
 7874SOL    HW224522   4.781   2.617   0.393
 7875SOL     OW24523   4.484   2.943   6.623
 7875SOL    HW124524   4.528   2.947   6.713
 7875SOL    HW224525   4.444   3.033   6.601
 7876SOL     OW24526   1.466   6.751   3.734
 7876SOL    HW124527   1.371   6.773   3.711
 7876SOL    HW224528   1.479   6.652   3.732
 7877SOL     OW24529   0.707   1.648   2.394
 7877SOL    HW124530   0.759   1.647   2.308
 7877SOL    HW224531   0.708   1.740   2.433
 7878SOL     OW24532   4.758   4.157   4.381
 7878SOL    HW124533   4.742   4.183   4.476
 7878SOL    HW224534   4.784   4.060   4.377
 7879SOL     OW24535   4.034   5.535   3.400
 7879SOL    HW124536   3.947   5.552   3.354
 7879SOL    HW224537   4.109   5.573   3.345
 7880SOL     OW24538   1.884   3.781   1.980
 7880SOL    HW124539   1.968   3.743   2.019
 7880SOL    HW224540   1.876   3.754   1.885
 7881SOL     OW24541   5.962   4.917   4.955
 7881SOL    HW124542   5.907   4.927   4.872
 7881SOL    HW224543   6.030   4.990   4.958
 7882SOL     OW24544   1.624   3.444   2.331
 7882SOL    HW124545   1.620   3.368   2.396
 7882SOL    HW224546   1.597   3.529   2.376
 7883SOL     OW24547   1.038   0.479   0.373
 7883SOL    HW124548   1.102   0.500   0.447
 7883SOL    HW224549   0.993   0.392   0.391
 7884SOL     OW24550   2.025   3.869   4.202
 7884SOL    HW124551   1.984   3.893   4.114
 7884SOL    HW224552   1.964   3.808   4.252
 7885SOL     OW24553   6.298   5.494   1.134
 7885SOL    HW124554   6.374   5.555   1.158
 7885SOL    HW224555   6.223   5.548   1.097
 7886SOL     OW24556   3.948   5.070   0.189
 7886SOL    HW124557   3.959   4.985   0.137
 7886SOL    HW224558   3.872   5.123   0.151
 7887SOL     OW24559   3.161   2.337   5.786
 7887SOL    HW124560   3.206   2.288   5.712
 7887SOL    HW224561   3.089   2.397   5.749
 7888SOL     OW24562   6.281   0.475   5.552
 7888SOL    HW124563   6.363   0.428   5.585
 7888SOL    HW224564   6.278   0.568   5.589
 7889SOL     OW24565   1.245   4.177   1.139
 7889SOL    HW124566   1.297   4.257   1.111
 7889SOL    HW224567   1.148   4.193   1.124
 7890SOL     OW24568   1.742   2.687   3.054
 7890SOL    HW124569   1.707   2.597   3.078
 7890SOL    HW224570   1.781   2.685   2.962
 7891SOL     OW24571   1.970   3.286   3.527
 7891SOL    HW124572   1.916   3.234   3.593
 7891SOL    HW224573   1.915   3.360   3.490
 7892SOL     OW24574   2.503   1.488   4.065
 7892SOL    HW124575   2.512   1.580   4.026
 7892SOL    HW224576   2.584   1.434   4.041
 7893SOL     OW24577   0.005   6.230   2.612
 7893SOL    HW124578   0.000   6.132   2.630
 7893SOL    HW224579   0.079   6.270   2.666
 7894SOL     OW24580   3.284   0.203   0.942
 7894SOL    HW124581   3.200   0.246   0.910
 7894SOL    HW224582   3.274   0.178   1.039
 7895SOL     OW24583   6.086   0.880   5.714
 7895SOL    HW124584   6.093   0.980   5.712
 7895SOL    HW224585   5.990   0.853   5.713
 7896SOL     OW24586   4.977   3.689   6.995
 7896SOL    HW124587   4.880   3.716   6.988
 7896SOL    HW224588   4.983   3.592   7.014
 7897SOL     OW24589   2.619   4.007   0.171
 7897SOL    HW124590   2.598   4.055   0.086
 7897SOL    HW224591   2.626   3.909   0.154
 7898SOL     OW24592   4.714   1.697   3.305
 7898SOL    HW124593   4.716   1.704   3.405
 7898SOL    HW224594   4.640   1.635   3.277
 7899SOL     OW24595   5.904   1.068   0.556
 7899SOL    HW124596   5.924   1.018   0.641
 7899SOL    HW224597   5.808   1.058   0.533
 7900SOL     OW24598   1.404   5.378   1.476
 7900SOL    HW124599   1.318   5.329   1.488
 7900SOL    HW224600   1.386   5.470   1.442
 7901SOL     OW24601   5.086   1.337   6.527
 7901SOL    HW124602   5.134   1.420   6.500
 7901SOL    HW224603   5.131   1.296   6.606
 7902SOL     OW24604   5.271   5.821   1.236
 7902SOL    HW124605   5.366   5.830   1.209
 7902SOL    HW224606   5.226   5.752   1.180
 7903SOL     OW24607   5.987   1.332   0.331
 7903SOL    HW124608   5.953   1.251   0.284
 7903SOL    HW224609   6.053   1.380   0.273
 7904SOL     OW24610   5.811   6.460   3.185
 7904SOL    HW124611   5.733   6.443   3.245
 7904SOL    HW224612   5.843   6.373   3.148
 7905SOL     OW24613   4.465   2.757   0.615
 7905SOL    HW124614   4.425   2.669   0.591
 7905SOL    HW224615   4.543   2.742   0.676
 7906SOL     OW24616   0.167   5.476   0.561
 7906SOL    HW124617   0.078   5.438   0.586
 7906SOL    HW224618   0.166   5.575   0.578
 7907SOL     OW24619   5.480   2.596   3.334
 7907SOL    HW124620   5.398   2.610   3.388
 7907SOL    HW224621   5.518   2.685   3.307
 7908SOL     OW24622   0.699   1.792   5.614
 7908SOL    HW124623   0.737   1.705   5.581
 7908SOL    HW224624   0.616   1.813   5.562
 7909SOL     OW24625   5.404   3.763   4.951
 7909SOL    HW124626   5.464   3.828   4.997
 7909SOL    HW224627   5.311   3.770   4.988
 7910SOL     OW24628   2.852   3.516   5.745
 7910SOL    HW124629   2.830   3.433   5.694
 7910SOL    HW224630   2.951   3.529   5.747
 7911SOL     OW24631   1.702   3.142   6.618
 7911SOL    HW124632   1.705   3.171   6.713
 7911SOL    HW224633   1.612   3.102   6.598
 7912SOL     OW24634   6.905   4.942   0.497
 7912SOL    HW124635   6.908   4.842   0.486
 7912SOL    HW224636   6.812   4.974   0.480
 7913SOL     OW24637   1.141   5.095   0.849
 7913SOL    HW124638   1.214   5.069   0.912
 7913SOL    HW224639   1.053   5.068   0.888
 7914SOL     OW24640   6.926   4.669   6.151
 7914SOL    HW124641   6.996   4.676   6.080
 7914SOL    HW224642   6.896   4.575   6.158
 7915SOL     OW24643   4.767   2.794   2.318
 7915SOL    HW124644   4.792   2.698   2.314
 7915SOL    HW224645   4.722   2.821   2.233
 7916SOL     OW24646   0.305   3.710   5.590
 7916SOL    HW124647   0.215   3.742   5.559
 7916SOL    HW224648   0.293   3.644   5.664
 7917SOL     OW24649   3.470   3.669   3.489
 7917SOL    HW124650   3.419   3.634   3.409
 7917SOL    HW224651   3.525   3.748   3.461
 7918SOL     OW24652   0.346   1.537   0.078
 7918SOL    HW124653   0.407   1.595   0.024
 7918SOL    HW224654   0.267   1.512   0.022
 7919SOL     OW24655   1.659   4.566   2.937
 7919SOL    HW124656   1.573   4.515   2.940
 7919SOL    HW224657   1.677   4.605   3.027
 7920SOL     OW24658   0.469   5.218   0.652
 7920SOL    HW124659   0.456   5.312   0.681
 7920SOL    HW224660   0.497   5.216   0.555
 7921SOL     OW24661   4.338   6.588   0.639
 7921SOL    HW124662   4.366   6.538   0.557
 7921SOL    HW224663   4.285   6.528   0.699
 7922SOL     OW24664   6.783   6.293   0.076
 7922SOL    HW124665   6.879   6.274   0.056
 7922SOL    HW224666   6.772   6.390   0.096
 7923SOL     OW24667   3.084   0.903   2.035
 7923SOL    HW124668   3.122   0.937   2.121
 7923SOL    HW224669   3.142   0.830   1.999
 7924SOL     OW24670   4.392   6.412   2.471
 7924SOL    HW124671   4.478   6.460   2.488
 7924SOL    HW224672   4.335   6.414   2.553
 7925SOL     OW24673   0.652   1.747   6.226
 7925SOL    HW124674   0.569   1.786   6.188
 7925SOL    HW224675   0.629   1.678   6.294
 7926SOL     OW24676   5.448   1.569   5.509
 7926SOL    HW124677   5.495   1.561   5.598
 7926SOL    HW224678   5.395   1.653   5.506
 7927SOL     OW24679   4.235   5.289   4.429
 7927SOL    HW124680   4.305   5.218   4.427
 7927SOL    HW224681   4.146   5.249   4.408
 7928SOL     OW24682   1.548   2.465   4.400
 7928SOL    HW124683   1.523   2.369   4.383
 7928SOL    HW224684   1.598   2.500   4.321
 7929SOL     OW24685   3.730   4.017   5.891
 7929SOL    HW124686   3.657   4.011   5.822
 7929SOL    HW224687   3.793   3.940   5.881
 7930SOL     OW24688   4.505   5.743   4.089
 7930SOL    HW124689   4.507   5.825   4.146
 7930SOL    HW224690   4.416   5.699   4.097
 7931SOL     OW24691   1.515   1.948   6.250
 7931SOL    HW124692   1.478   1.887   6.321
 7931SOL    HW224693   1.579   1.897   6.192
 7932SOL     OW24694   2.829   6.376   6.730
 7932SOL    HW124695   2.807   6.362   6.633
 7932SOL    HW224696   2.863   6.469   6.743
 7933SOL     OW24697   0.202   6.106   6.578
 7933SOL    HW124698   0.240   6.171   6.511
 7933SOL    HW224699   0.129   6.053   6.535
 7934SOL     OW24700   2.360   4.893   0.337
 7934SOL    HW124701   2.453   4.913   0.306
 7934SOL    HW224702   2.363   4.855   0.430
 7935SOL     OW24703   5.677   6.389   0.469
 7935SOL    HW124704   5.635   6.408   0.380
 7935SOL    HW224705   5.773   6.420   0.468
 7936SOL     OW24706   3.681   5.195   2.839
 7936SOL    HW124707   3.631   5.114   2.808
 7936SOL    HW224708   3.677   5.265   2.768
 7937SOL     OW24709   6.229   0.170   3.894
 7937SOL    HW124710   6.210   0.175   3.796
 7937SOL    HW224711   6.292   0.094   3.912
 7938SOL     OW24712   6.169   5.290   5.182
 7938SOL    HW124713   6.249   5.304   5.240
 7938SOL    HW224714   6.087   5.286   5.240
 7939SOL     OW24715   1.085   2.685   5.797
 7939SOL    HW124716   1.118   2.602   5.755
 7939SOL    HW224717   0.991   2.702   5.768
 7940SOL     OW24718   1.814   3.510   2.742
 7940SOL    HW124719   1.721   3.473   2.746
 7940SOL    HW224720   1.836   3.536   2.648
 7941SOL     OW24721   6.701   6.554   0.464
 7941SOL    HW124722   6.643   6.629   0.432
 7941SOL    HW224723   6.790   6.561   0.419
 7942SOL     OW24724   6.657   5.590   3.166
 7942SOL    HW124725   6.688   5.561   3.076
 7942SOL    HW224726   6.653   5.690   3.169
 7943SOL     OW24727   5.895   2.980   0.070
 7943SOL    HW124728   5.963   3.011   0.135
 7943SOL    HW224729   5.832   3.055   0.049
 7944SOL     OW24730   0.630   3.373   1.501
 7944SOL    HW124731   0.543   3.416   1.525
 7944SOL    HW224732   0.700   3.443   1.490
 7945SOL     OW24733   5.438   6.411   2.104
 7945SOL    HW124734   5.518   6.356   2.124
 7945SOL    HW224735   5.355   6.359   2.124
 7946SOL     OW24736   2.140   1.842   5.555
 7946SOL    HW124737   2.228   1.819   5.596
 7946SOL    HW224738   2.154   1.913   5.485
 7947SOL     OW24739   3.620   2.283   6.042
 7947SOL    HW124740   3.701   2.335   6.015
 7947SOL    HW224741   3.541   2.344   6.047
 7948SOL     OW24742   0.466   6.057   1.146
 7948SOL    HW124743   0.393   5.999   1.111
 7948SOL    HW224744   0.450   6.076   1.243
 7949SOL     OW24745   4.695   4.496   4.226
 7949SOL    HW124746   4.724   4.445   4.307
 7949SOL    HW224747   4.622   4.560   4.251
 7950SOL     OW24748   5.584   5.190   4.182
 7950SOL    HW124749   5.660   5.195   4.247
 7950SOL    HW224750   5.501   5.161   4.230
 7951SOL     OW24751   1.588   3.693   1.154
 7951SOL    HW124752   1.579   3.696   1.254
 7951SOL    HW224753   1.684   3.708   1.129
 7952SOL     OW24754   0.879   3.334   6.798
 7952SOL    HW124755   0.800   3.387   6.767
 7952SOL    HW224756   0.954   3.344   6.734
 7953SOL     OW24757   1.858   2.893   3.250
 7953SOL    HW124758   1.823   2.864   3.161
 7953SOL    HW224759   1.954   2.918   3.242
 7954SOL     OW24760   4.674   4.443   5.197
 7954SOL    HW124761   4.736   4.513   5.161
 7954SOL    HW224762   4.726   4.359   5.216
 7955SOL     OW24763   1.330   0.012   6.511
 7955SOL    HW124764   1.241   0.053   6.532
 7955SOL    HW224765   1.356   6.972   6.583
 7956SOL     OW24766   3.082   5.918   2.902
 7956SOL    HW124767   3.059   6.012   2.879
 7956SOL    HW224768   3.062   5.901   2.998
 7957SOL     OW24769   1.963   1.214   0.285
 7957SOL    HW124770   1.975   1.312   0.273
 7957SOL    HW224771   1.980   1.168   0.198
 7958SOL     OW24772   3.131   5.538   4.211
 7958SOL    HW124773   3.067   5.614   4.225
 7958SOL    HW224774   3.083   5.461   4.170
 7959SOL     OW24775   4.276   5.860   1.387
 7959SOL    HW124776   4.312   5.928   1.324
 7959SOL    HW224777   4.302   5.768   1.356
 7960SOL     OW24778   3.859   1.771   0.584
 7960SOL    HW124779   3.941   1.824   0.563
 7960SOL    HW224780   3.792   1.783   0.510
 7961SOL     OW24781   0.837   6.394   0.769
 7961SOL    HW124782   0.894   6.323   0.811
 7961SOL    HW224783   0.745   6.390   0.808
 7962SOL     OW24784   2.270   0.112   0.540
 7962SOL    HW124785   2.314   0.149   0.622
 7962SOL    HW224786   2.268   0.182   0.469
 7963SOL     OW24787   0.343   0.518   3.382
 7963SOL    HW124788   0.359   0.504   3.480
 7963SOL    HW224789   0.431   0.511   3.334
 7964SOL     OW24790   0.046   5.331   3.363
 7964SOL    HW124791   0.024   5.266   3.436
 7964SOL    HW224792   6.984   5.363   3.321
 7965SOL     OW24793   3.609   3.178   0.032
 7965SOL    HW124794   3.691   3.135   7.017
 7965SOL    HW224795   3.557   3.221   6.981
 7966SOL     OW24796   0.487   2.876   5.798
 7966SOL    HW124797   0.560   2.837   5.742
 7966SOL    HW224798   0.477   2.823   5.882
 7967SOL     OW24799   2.789   6.133   4.227
 7967SOL    HW124800   2.760   6.170   4.315
 7967SOL    HW224801   2.844   6.201   4.179
 7968SOL     OW24802   2.322   2.104   3.408
 7968SOL    HW124803   2.399   2.092   3.345
 7968SOL    HW224804   2.354   2.090   3.502
 7969SOL     OW24805   4.775   6.863   2.092
 7969SOL    HW124806   4.695   6.851   2.033
 7969SOL    HW224807   4.804   6.774   2.127
 7970SOL     OW24808   0.433   3.452   3.453
 7970SOL    HW124809   0.349   3.484   3.410
 7970SOL    HW224810   0.497   3.422   3.382
 7971SOL     OW24811   4.302   1.243   0.401
 7971SOL    HW124812   4.262   1.273   0.314
 7971SOL    HW224813   4.301   1.143   0.405
 7972SOL     OW24814   1.274   3.833   1.506
 7972SOL    HW124815   1.241   3.880   1.425
 7972SOL    HW224816   1.238   3.739   1.507
 7973SOL     OW24817   4.898   4.290   3.082
 7973SOL    HW124818   4.855   4.252   2.999
 7973SOL    HW224819   4.974   4.232   3.109
 7974SOL     OW24820   5.559   0.729   5.064
 7974SOL    HW124821   5.646   0.746   5.110
 7974SOL    HW224822   5.564   0.761   4.969
 7975SOL     OW24823   6.140   0.257   2.486
 7975SOL    HW124824   6.059   0.316   2.486
 7975SOL    HW224825   6.205   0.290   2.554
 7976SOL     OW24826   0.664   0.834   6.374
 7976SOL    HW124827   0.692   0.762   6.310
 7976SOL    HW224828   0.693   0.923   6.339
 7977SOL     OW24829   4.988   5.504   1.503
 7977SOL    HW124830   4.995   5.425   1.564
 7977SOL    HW224831   4.936   5.479   1.421
 7978SOL     OW24832   5.494   3.763   6.376
 7978SOL    HW124833   5.398   3.761   6.348
 7978SOL    HW224834   5.530   3.669   6.379
 7979SOL     OW24835   3.775   0.483   5.170
 7979SOL    HW124836   3.835   0.452   5.243
 7979SOL    HW224837   3.822   0.475   5.082
 7980SOL     OW24838   2.596   5.493   0.162
 7980SOL    HW124839   2.590   5.435   0.080
 7980SOL    HW224840   2.675   5.554   0.154
 7981SOL     OW24841   0.400   5.685   2.007
 7981SOL    HW124842   0.350   5.667   2.091
 7981SOL    HW224843   0.468   5.756   2.024
 7982SOL     OW24844   0.299   1.312   6.723
 7982SOL    HW124845   0.361   1.237   6.745
 7982SOL    HW224846   0.345   1.377   6.662
 7983SOL     OW24847   5.760   1.853   2.683
 7983SOL    HW124848   5.748   1.852   2.583
 7983SOL    HW224849   5.794   1.942   2.711
 7984SOL     OW24850   1.721   1.481   2.206
 7984SOL    HW124851   1.751   1.575   2.190
 7984SOL    HW224852   1.735   1.457   2.302
 7985SOL     OW24853   2.639   6.252   3.896
 7985SOL    HW124854   2.683   6.250   3.806
 7985SOL    HW224855   2.689   6.192   3.958
 7986SOL     OW24856   3.086   0.365   6.972
 7986SOL    HW124857   3.039   0.408   6.895
 7986SOL    HW224858   3.019   0.334   0.016
 7987SOL     OW24859   1.501   3.389   6.789
 7987SOL    HW124860   1.426   3.329   6.816
 7987SOL    HW224861   1.477   3.438   6.705
 7988SOL     OW24862   1.589   1.851   4.136
 7988SOL    HW124863   1.618   1.931   4.189
 7988SOL    HW224864   1.651   1.774   4.155
 7989SOL     OW24865   3.305   2.598   5.306
 7989SOL    HW124866   3.378   2.550   5.355
 7989SOL    HW224867   3.252   2.532   5.253
 7990SOL     OW24868   6.327   4.341   3.313
 7990SOL    HW124869   6.422   4.366   3.292
 7990SOL    HW224870   6.309   4.354   3.410
 7991SOL     OW24871   6.680   0.966   4.641
 7991SOL    HW124872   6.739   0.951   4.720
 7991SOL    HW224873   6.626   1.049   4.655
 7992SOL     OW24874   1.411   6.008   1.139
 7992SOL    HW124875   1.458   6.029   1.225
 7992SOL    HW224876   1.474   5.960   1.078
 7993SOL     OW24877   1.417   6.184   6.684
 7993SOL    HW124878   1.387   6.239   6.763
 7993SOL    HW224879   1.338   6.163   6.627
 7994SOL     OW24880   4.944   6.930   2.832
 7994SOL    HW124881   4.998   6.879   2.765
 7994SOL    HW224882   4.955   6.889   2.922
 7995SOL     OW24883   4.221   5.378   3.697
 7995SOL    HW124884   4.149   5.446   3.710
 7995SOL    HW224885   4.225   5.318   3.777
 7996SOL     OW24886   3.176   0.075   5.100
 7996SOL    HW124887   3.255   0.027   5.060
 7996SOL    HW224888   3.187   0.173   5.087
 7997SOL     OW24889   6.975   1.141   1.019
 7997SOL    HW124890   0.034   1.198   1.012
 7997SOL    HW224891   7.002   1.046   1.039
 7998SOL     OW24892   3.742   5.644   1.342
 7998SOL    HW124893   3.762   5.635   1.439
 7998SOL    HW224894   3.729   5.741   1.319
 7999SOL     OW24895   1.407   0.044   6.122
 7999SOL    HW124896   1.451   0.012   6.038
 7999SOL    HW224897   1.464   0.113   6.166
 8000SOL     OW24898   5.159   0.422   0.783
 8000SOL    HW124899   5.072   0.471   0.795
 8000SOL    HW224900   5.231   0.469   0.833
 8001SOL     OW24901   3.362   5.825   1.192
 8001SOL    HW124902   3.359   5.765   1.272
 8001SOL    HW224903   3.456   5.859   1.180
 8002SOL     OW24904   0.351   2.364   5.626
 8002SOL    HW124905   0.277   2.324   5.571
 8002SOL    HW224906   0.425   2.297   5.634
 8003SOL     OW24907   2.668   4.702   2.767
 8003SOL    HW124908   2.607   4.776   2.794
 8003SOL    HW224909   2.747   4.739   2.718
 8004SOL     OW24910   1.483   3.761   3.576
 8004SOL    HW124911   1.515   3.839   3.522
 8004SOL    HW224912   1.513   3.676   3.532
 8005SOL     OW24913   3.034   1.589   2.494
 8005SOL    HW124914   3.023   1.494   2.467
 8005SOL    HW224915   2.965   1.645   2.448
 8006SOL     OW24916   2.620   6.851   6.939
 8006SOL    HW124917   2.718   6.837   6.927
 8006SOL    HW224918   2.578   6.876   6.852
 8007SOL     OW24919   0.715   0.566   4.097
 8007SOL    HW124920   0.739   0.536   4.005
 8007SOL    HW224921   0.788   0.541   4.161
 8008SOL     OW24922   4.387   6.617   5.887
 8008SOL    HW124923   4.426   6.707   5.873
 8008SOL    HW224924   4.418   6.555   5.815
 8009SOL     OW24925   6.369   0.360   2.663
 8009SOL    HW124926   6.325   0.345   2.751
 8009SOL    HW224927   6.332   0.444   2.622
 8010SOL     OW24928   1.239   1.346   0.833
 8010SOL    HW124929   1.318   1.300   0.875
 8010SOL    HW224930   1.200   1.287   0.762
 8011SOL     OW24931   3.292   2.497   1.114
 8011SOL    HW124932   3.342   2.518   1.198
 8011SOL    HW224933   3.234   2.574   1.090
 8012SOL     OW24934   2.419   5.650   1.669
 8012SOL    HW124935   2.497   5.602   1.627
 8012SOL    HW224936   2.354   5.583   1.704
 8013SOL     OW24937   0.922   4.665   4.137
 8013SOL    HW124938   0.969   4.708   4.215
 8013SOL    HW224939   0.829   4.700   4.131
 8014SOL     OW24940   0.723   6.340   5.295
 8014SOL    HW124941   0.793   6.351   5.224
 8014SOL    HW224942   0.717   6.424   5.348
 8015SOL     OW24943   3.227   1.224   0.205
 8015SOL    HW124944   3.144   1.168   0.194
 8015SOL    HW224945   3.308   1.167   0.190
 8016SOL     OW24946   4.369   0.433   6.720
 8016SOL    HW124947   4.464   0.464   6.726
 8016SOL    HW224948   4.323   0.449   6.807
 8017SOL     OW24949   6.711   5.593   0.207
 8017SOL    HW124950   6.688   5.680   0.251
 8017SOL    HW224951   6.743   5.528   0.276
 8018SOL     OW24952   3.168   2.610   6.012
 8018SOL    HW124953   3.098   2.648   5.951
 8018SOL    HW224954   3.256   2.653   5.992
 8019SOL     OW24955   2.204   3.733   6.994
 8019SOL    HW124956   2.233   3.637   6.987
 8019SOL    HW224957   2.196   3.771   6.902
 8020SOL     OW24958   6.615   5.932   0.840
 8020SOL    HW124959   6.546   5.916   0.910
 8020SOL    HW224960   6.570   5.963   0.756
 8021SOL     OW24961   1.154   1.977   1.381
 8021SOL    HW124962   1.211   1.992   1.461
 8021SOL    HW224963   1.201   1.916   1.317
 8022SOL     OW24964   4.093   0.269   2.441
 8022SOL    HW124965   4.110   0.309   2.530
 8022SOL    HW224966   4.015   0.314   2.398
 8023SOL     OW24967   5.906   5.210   3.082
 8023SOL    HW124968   5.808   5.218   3.062
 8023SOL    HW224969   5.934   5.286   3.140
 8024SOL     OW24970   3.561   5.098   0.377
 8024SOL    HW124971   3.469   5.112   0.413
 8024SOL    HW224972   3.556   5.035   0.300
 8025SOL     OW24973   2.280   5.886   6.710
 8025SOL    HW124974   2.325   5.889   6.799
 8025SOL    HW224975   2.202   5.824   6.714
 8026SOL     OW24976   0.818   4.666   6.876
 8026SOL    HW124977   0.758   4.587   6.871
 8026SOL    HW224978   0.773   4.745   6.834
 8027SOL     OW24979   3.997   1.873   5.163
 8027SOL    HW124980   3.921   1.808   5.160
 8027SOL    HW224981   3.990   1.936   5.086
 8028SOL     OW24982   2.622   5.251   5.493
 8028SOL    HW124983   2.710   5.204   5.495
 8028SOL    HW224984   2.630   5.338   5.541
 8029SOL     OW24985   5.418   3.450   0.059
 8029SOL    HW124986   5.392   3.439   0.155
 8029SOL    HW224987   5.429   3.548   0.040
 8030SOL     OW24988   4.737   4.037   0.211
 8030SOL    HW124989   4.712   4.133   0.207
 8030SOL    HW224990   4.723   3.995   0.122
 8031SOL     OW24991   4.696   6.015   2.597
 8031SOL    HW124992   4.599   6.011   2.621
 8031SOL    HW224993   4.739   5.927   2.618
 8032SOL     OW24994   5.586   4.427   5.792
 8032SOL    HW124995   5.610   4.333   5.814
 8032SOL    HW224996   5.522   4.428   5.715
 8033SOL     OW24997   5.210   3.788   6.518
 8033SOL    HW124998   5.135   3.801   6.582
 8033SOL    HW224999   5.295   3.823   6.557
 8034SOL     OW25000   6.565   1.235   5.001
 8034SOL    HW125001   6.514   1.244   5.086
 8034SOL    HW225002   6.650   1.288   5.007
 8035SOL     OW25003   4.849   0.912   5.389
 8035SOL    HW125004   4.769   0.949   5.343
 8035SOL    HW225005   4.828   0.896   5.486
 8036SOL     OW25006   0.581   4.139   2.477
 8036SOL    HW125007   0.665   4.192   2.489
 8036SOL    HW225008   0.534   4.130   2.565
 8037SOL     OW25009   1.705   3.454   1.598
 8037SOL    HW125010   1.608   3.448   1.574
 8037SOL    HW225011   1.760   3.413   1.526
 8038SOL     OW25012   4.666   0.714   2.730
 8038SOL    HW125013   4.572   0.679   2.730
 8038SOL    HW225014   4.664   0.814   2.723
 8039SOL     OW25015   1.017   0.341   3.994
 8039SOL    HW125016   1.049   0.272   3.928
 8039SOL    HW225017   0.930   0.378   3.963
 8040SOL     OW25018   1.163   5.968   0.882
 8040SOL    HW125019   1.082   6.014   0.917
 8040SOL    HW225020   1.140   5.873   0.859
 8041SOL     OW25021   3.164   1.856   1.939
 8041SOL    HW125022   3.141   1.827   1.846
 8041SOL    HW225023   3.140   1.953   1.951
 8042SOL     OW25024   3.486   3.070   3.730
 8042SOL    HW125025   3.539   3.117   3.801
 8042SOL    HW225026   3.399   3.118   3.716
 8043SOL     OW25027   3.470   6.985   1.809
 8043SOL    HW125028   3.411   6.928   1.866
 8043SOL    HW225029   3.434   0.055   1.806
 8044SOL     OW25030   3.600   3.483   0.433
 8044SOL    HW125031   3.626   3.577   0.456
 8044SOL    HW225032   3.662   3.447   0.363
 8045SOL     OW25033   5.632   0.531   1.077
 8045SOL    HW125034   5.596   0.561   1.166
 8045SOL    HW225035   5.670   0.439   1.086
 8046SOL     OW25036   6.748   5.167   0.299
 8046SOL    HW125037   6.703   5.105   0.364
 8046SOL    HW225038   6.679   5.206   0.237
 8047SOL     OW25039   3.892   5.246   4.667
 8047SOL    HW125040   3.961   5.221   4.735
 8047SOL    HW225041   3.816   5.182   4.672
 8048SOL     OW25042   5.290   0.516   5.860
 8048SOL    HW125043   5.286   0.580   5.784
 8048SOL    HW225044   5.212   0.531   5.921
 8049SOL     OW25045   1.975   0.402   0.898
 8049SOL    HW125046   1.883   0.364   0.905
 8049SOL    HW225047   1.981   0.485   0.952
 8050SOL     OW25048   1.318   4.154   2.236
 8050SOL    HW125049   1.407   4.123   2.201
 8050SOL    HW225050   1.248   4.086   2.214
 8051SOL     OW25051   4.665   6.067   3.316
 8051SOL    HW125052   4.650   6.150   3.262
 8051SOL    HW225053   4.683   6.091   3.411
 8052SOL     OW25054   4.108   1.721   2.098
 8052SOL    HW125055   4.075   1.768   2.180
 8052SOL    HW225056   4.141   1.630   2.122
 8053SOL     OW25057   3.868   3.910   3.367
 8053SOL    HW125058   3.918   3.839   3.418
 8053SOL    HW225059   3.915   3.928   3.281
 8054SOL     OW25060   5.328   6.966   4.341
 8054SOL    HW125061   5.396   6.904   4.378
 8054SOL    HW225062   5.339   6.972   4.242
 8055SOL     OW25063   6.869   0.669   6.309
 8055SOL    HW125064   6.947   0.730   6.296
 8055SOL    HW225065   6.803   0.683   6.235
 8056SOL     OW25066   4.506   1.815   4.223
 8056SOL    HW125067   4.517   1.733   4.278
 8056SOL    HW225068   4.438   1.799   4.151
 8057SOL     OW25069   2.797   2.314   3.372
 8057SOL    HW125070   2.811   2.309   3.471
 8057SOL    HW225071   2.879   2.284   3.325
 8058SOL     OW25072   4.340   0.427   2.853
 8058SOL    HW125073   4.386   0.474   2.777
 8058SOL    HW225074   4.396   0.436   2.935
 8059SOL     OW25075   4.580   2.511   4.585
 8059SOL    HW125076   4.550   2.415   4.588
 8059SOL    HW225077   4.630   2.527   4.500
 8060SOL     OW25078   0.435   2.387   4.368
 8060SOL    HW125079   0.455   2.368   4.271
 8060SOL    HW225080   0.432   2.301   4.418
 8061SOL     OW25081   6.549   6.870   1.554
 8061SOL    HW125082   6.552   6.930   1.634
 8061SOL    HW225083   6.505   6.917   1.478
 8062SOL     OW25084   2.851   4.787   4.138
 8062SOL    HW125085   2.912   4.825   4.208
 8062SOL    HW225086   2.766   4.756   4.180
 8063SOL     OW25087   1.160   2.550   0.620
 8063SOL    HW125088   1.143   2.533   0.523
 8063SOL    HW225089   1.075   2.539   0.671
 8064SOL     OW25090   0.119   4.891   1.193
 8064SOL    HW125091   0.068   4.830   1.254
 8064SOL    HW225092   0.193   4.936   1.244
 8065SOL     OW25093   4.633   6.535   3.869
 8065SOL    HW125094   4.688   6.548   3.787
 8065SOL    HW225095   4.572   6.457   3.857
 8066SOL     OW25096   0.969   1.932   6.189
 8066SOL    HW125097   1.068   1.944   6.182
 8066SOL    HW225098   0.936   1.884   6.108
 8067SOL     OW25099   4.824   3.145   1.721
 8067SOL    HW125100   4.760   3.096   1.780
 8067SOL    HW225101   4.783   3.232   1.693
 8068SOL     OW25102   5.930   4.317   0.362
 8068SOL    HW125103   5.963   4.258   0.288
 8068SOL    HW225104   5.979   4.404   0.359
 8069SOL     OW25105   1.906   5.734   1.370
 8069SOL    HW125106   1.840   5.717   1.442
 8069SOL    HW225107   1.947   5.647   1.341
 8070SOL     OW25108   2.896   3.198   0.483
 8070SOL    HW125109   2.875   3.256   0.404
 8070SOL    HW225110   2.839   3.116   0.481
 8071SOL     OW25111   3.013   6.088   4.827
 8071SOL    HW125112   2.980   6.127   4.741
 8071SOL    HW225113   3.001   6.155   4.901
 8072SOL     OW25114   3.487   0.454   6.728
 8072SOL    HW125115   3.424   0.510   6.781
 8072SOL    HW225116   3.572   0.504   6.713
 8073SOL     OW25117   4.096   6.111   5.979
 8073SOL    HW125118   4.047   6.148   6.058
 8073SOL    HW225119   4.178   6.165   5.962
 8074SOL     OW25120   3.252   2.678   0.024
 8074SOL    HW125121   3.177   2.614   0.010
 8074SOL    HW225122   3.217   2.772   0.019
 8075SOL     OW25123   6.573   1.048   1.106
 8075SOL    HW125124   6.608   1.132   1.065
 8075SOL    HW225125   6.486   1.067   1.152
 8076SOL     OW25126   5.206   2.439   5.803
 8076SOL    HW125127   5.152   2.366   5.845
 8076SOL    HW225128   5.258   2.488   5.874
 8077SOL     OW25129   1.606   5.391   1.731
 8077SOL    HW125130   1.700   5.355   1.725
 8077SOL    HW225131   1.555   5.363   1.650
 8078SOL     OW25132   6.001   1.226   6.816
 8078SOL    HW125133   6.023   1.129   6.826
 8078SOL    HW225134   6.085   1.279   6.816
 8079SOL     OW25135   5.475   1.323   3.437
 8079SOL    HW125136   5.379   1.347   3.449
 8079SOL    HW225137   5.497   1.242   3.490
 8080SOL     OW25138   0.330   3.982   0.134
 8080SOL    HW125139   0.350   4.069   0.181
 8080SOL    HW225140   0.415   3.944   0.099
 8081SOL     OW25141   4.889   0.161   4.547
 8081SOL    HW125142   4.917   0.167   4.643
 8081SOL    HW225143   4.876   0.065   4.523
 8082SOL     OW25144   6.094   0.876   1.537
 8082SOL    HW125145   5.998   0.863   1.564
 8082SOL    HW225146   6.140   0.788   1.536
 8083SOL     OW25147   5.293   3.661   2.490
 8083SOL    HW125148   5.326   3.671   2.584
 8083SOL    HW225149   5.194   3.654   2.490
 8084SOL     OW25150   5.330   6.857   0.677
 8084SOL    HW125151   5.400   6.846   0.747
 8084SOL    HW225152   5.372   6.854   0.586
 8085SOL     OW25153   6.543   0.157   2.585
 8085SOL    HW125154   6.474   0.209   2.636
 8085SOL    HW225155   6.609   0.117   2.649
 8086SOL     OW25156   4.801   1.123   3.930
 8086SOL    HW125157   4.810   1.193   3.859
 8086SOL    HW225158   4.888   1.115   3.980
 8087SOL     OW25159   2.893   2.111   1.087
 8087SOL    HW125160   2.848   2.022   1.076
 8087SOL    HW225161   2.853   2.158   1.166
 8088SOL     OW25162   5.473   1.986   1.367
 8088SOL    HW125163   5.385   1.941   1.354
 8088SOL    HW225164   5.499   2.035   1.283
 8089SOL     OW25165   5.110   3.108   0.795
 8089SOL    HW125166   5.050   3.100   0.716
 8089SOL    HW225167   5.055   3.106   0.879
 8090SOL     OW25168   4.067   2.489   6.895
 8090SOL    HW125169   4.090   2.406   6.844
 8090SOL    HW225170   4.137   2.559   6.880
 8091SOL     OW25171   2.621   3.718   0.042
 8091SOL    HW125172   2.598   3.706   6.968
 8091SOL    HW225173   2.547   3.680   0.098
 8092SOL     OW25174   0.906   2.177   4.980
 8092SOL    HW125175   0.894   2.197   5.077
 8092SOL    HW225176   0.871   2.253   4.925
 8093SOL     OW25177   4.628   5.881   1.710
 8093SOL    HW125178   4.552   5.817   1.696
 8093SOL    HW225179   4.593   5.965   1.752
 8094SOL     OW25180   2.067   4.115   4.345
 8094SOL    HW125181   2.031   4.037   4.294
 8094SOL    HW225182   2.074   4.090   4.442
 8095SOL     OW25183   5.557   4.369   4.355
 8095SOL    HW125184   5.497   4.371   4.435
 8095SOL    HW225185   5.544   4.283   4.306
 8096SOL     OW25186   3.214   5.482   3.892
 8096SOL    HW125187   3.209   5.478   3.792
 8096SOL    HW225188   3.127   5.451   3.930
 8097SOL     OW25189   5.131   6.848   3.194
 8097SOL    HW125190   5.031   6.849   3.192
 8097SOL    HW225191   5.165   6.939   3.169
 8098SOL     OW25192   2.235   6.754   4.034
 8098SOL    HW125193   2.274   6.828   4.090
 8098SOL    HW225194   2.136   6.751   4.047
 8099SOL     OW25195   5.486   0.257   3.844
 8099SOL    HW125196   5.457   0.165   3.817
 8099SOL    HW225197   5.423   0.325   3.806
 8100SOL     OW25198   0.121   6.628   6.747
 8100SOL    HW125199   0.060   6.690   6.698
 8100SOL    HW225200   0.070   6.546   6.774
 8101SOL     OW25201   1.933   0.026   3.999
 8101SOL    HW125202   1.994   0.104   3.985
 8101SOL    HW225203   1.958   7.002   4.083
 8102SOL     OW25204   1.096   4.768   4.935
 8102SOL    HW125205   1.000   4.790   4.918
 8102SOL    HW225206   1.103   4.679   4.979
 8103SOL     OW25207   4.442   0.590   0.506
 8103SOL    HW125208   4.342   0.589   0.506
 8103SOL    HW225209   4.476   0.504   0.466
 8104SOL     OW25210   2.688   6.413   6.109
 8104SOL    HW125211   2.729   6.387   6.022
 8104SOL    HW225212   2.752   6.468   6.162
 8105SOL     OW25213   1.752   2.328   2.609
 8105SOL    HW125214   1.799   2.416   2.611
 8105SOL    HW225215   1.794   2.266   2.676
 8106SOL     OW25216   2.579   5.705   3.470
 8106SOL    HW125217   2.502   5.754   3.430
 8106SOL    HW225218   2.570   5.607   3.452
 8107SOL     OW25219   1.253   5.932   4.854
 8107SOL    HW125220   1.283   5.968   4.942
 8107SOL    HW225221   1.331   5.926   4.792
 8108SOL     OW25222   5.632   3.410   4.971
 8108SOL    HW125223   5.665   3.503   4.982
 8108SOL    HW225224   5.705   3.345   4.995
 8109SOL     OW25225   1.169   3.763   3.882
 8109SOL    HW125226   1.094   3.790   3.822
 8109SOL    HW225227   1.174   3.825   3.960
 8110SOL     OW25228   3.352   6.549   1.270
 8110SOL    HW125229   3.284   6.604   1.221
 8110SOL    HW225230   3.419   6.513   1.205
 8111SOL     OW25231   4.521   0.755   5.489
 8111SOL    HW125232   4.571   0.820   5.431
 8111SOL    HW225233   4.484   0.681   5.432
 8112SOL     OW25234   1.662   1.353   4.413
 8112SOL    HW125235   1.670   1.453   4.418
 8112SOL    HW225236   1.733   1.317   4.353
 8113SOL     OW25237   2.887   3.584   0.484
 8113SOL    HW125238   2.909   3.614   0.577
 8113SOL    HW225239   2.804   3.528   0.485
 8114SOL     OW25240   1.818   3.320   1.378
 8114SOL    HW125241   1.895   3.368   1.337
 8114SOL    HW225242   1.848   3.230   1.411
 8115SOL     OW25243   4.077   1.379   1.793
 8115SOL    HW125244   4.144   1.452   1.777
 8115SOL    HW225245   3.986   1.411   1.767
 8116SOL     OW25246   4.898   0.490   4.679
 8116SOL    HW125247   4.950   0.546   4.744
 8116SOL    HW225248   4.958   0.464   4.603
 8117SOL     OW25249   2.297   1.290   4.696
 8117SOL    HW125250   2.392   1.258   4.687
 8117SOL    HW225251   2.242   1.216   4.734
 8118SOL     OW25252   6.474   3.120   5.817
 8118SOL    HW125253   6.566   3.104   5.854
 8118SOL    HW225254   6.474   3.100   5.719
 8119SOL     OW25255   6.140   5.560   5.045
 8119SOL    HW125256   6.062   5.620   5.066
 8119SOL    HW225257   6.114   5.465   5.063
 8120SOL     OW25258   3.396   4.521   6.724
 8120SOL    HW125259   3.437   4.536   6.634
 8120SOL    HW225260   3.310   4.572   6.730
 8121SOL     OW25261   0.023   5.057   2.638
 8121SOL    HW125262   0.030   5.074   2.736
 8121SOL    HW225263   0.109   5.016   2.605
 8122SOL     OW25264   0.848   5.486   2.600
 8122SOL    HW125265   0.802   5.552   2.540
 8122SOL    HW225266   0.945   5.483   2.579
 8123SOL     OW25267   0.045   0.239   6.759
 8123SOL    HW125268   0.094   0.289   6.830
 8123SOL    HW225269   6.990   0.191   6.800
 8124SOL     OW25270   0.331   6.300   0.863
 8124SOL    HW125271   0.318   6.278   0.766
 8124SOL    HW225272   0.269   6.244   0.919
 8125SOL     OW25273   1.032   6.463   2.818
 8125SOL    HW125274   1.013   6.561   2.810
 8125SOL    HW225275   1.007   6.418   2.732
 8126SOL     OW25276   6.469   4.049   2.354
 8126SOL    HW125277   6.473   3.995   2.270
 8126SOL    HW225278   6.375   4.079   2.370
 8127SOL     OW25279   2.186   6.079   1.055
 8127SOL    HW125280   2.097   6.119   1.037
 8127SOL    HW225281   2.222   6.036   0.972
 8128SOL     OW25282   2.534   2.953   0.877
 8128SOL    HW125283   2.597   2.998   0.940
 8128SOL    HW225284   2.475   2.890   0.928
 8129SOL     OW25285   4.080   1.585   5.929
 8129SOL    HW125286   4.113   1.577   5.835
 8129SOL    HW225287   4.154   1.618   5.987
 8130SOL     OW25288   0.401   4.575   6.252
 8130SOL    HW125289   0.465   4.499   6.245
 8130SOL    HW225290   0.312   4.541   6.281
 8131SOL     OW25291   2.602   0.545   0.742
 8131SOL    HW125292   2.632   0.637   0.771
 8131SOL    HW225293   2.507   0.549   0.712
 8132SOL     OW25294   5.499   6.292   6.287
 8132SOL    HW125295   5.460   6.345   6.212
 8132SOL    HW225296   5.448   6.311   6.371
 8133SOL     OW25297   3.438   4.909   1.843
 8133SOL    HW125298   3.519   4.857   1.869
 8133SOL    HW225299   3.357   4.870   1.886
 8134SOL     OW25300   0.931   1.597   4.275
 8134SOL    HW125301   0.919   1.511   4.326
 8134SOL    HW225302   1.019   1.637   4.298
 8135SOL     OW25303   2.437   5.480   1.394
 8135SOL    HW125304   2.338   5.469   1.391
 8135SOL    HW225305   2.475   5.421   1.465
 8136SOL     OW25306   4.622   4.339   2.642
 8136SOL    HW125307   4.692   4.405   2.668
 8136SOL    HW225308   4.552   4.335   2.713
 8137SOL     OW25309   2.252   1.368   4.110
 8137SOL    HW125310   2.345   1.401   4.096
 8137SOL    HW225311   2.220   1.398   4.200
 8138SOL     OW25312   5.250   2.217   0.533
 8138SOL    HW125313   5.196   2.184   0.610
 8138SOL    HW225314   5.235   2.158   0.454
 8139SOL     OW25315   1.838   2.358   3.389
 8139SOL    HW125316   1.917   2.304   3.420
 8139SOL    HW225317   1.773   2.367   3.464
 8140SOL     OW25318   3.769   6.877   0.762
 8140SOL    HW125319   3.766   6.931   0.677
 8140SOL    HW225320   3.687   6.820   0.768
 8141SOL     OW25321   4.718   6.763   5.442
 8141SOL    HW125322   4.622   6.753   5.417
 8141SOL    HW225323   4.763   6.674   5.440
 8142SOL     OW25324   2.016   4.899   0.411
 8142SOL    HW125325   2.068   4.965   0.358
 8142SOL    HW225326   2.034   4.912   0.509
 8143SOL     OW25327   5.209   5.218   0.799
 8143SOL    HW125328   5.169   5.134   0.761
 8143SOL    HW225329   5.301   5.199   0.833
 8144SOL     OW25330   0.764   6.008   5.521
 8144SOL    HW125331   0.801   5.922   5.557
 8144SOL    HW225332   0.731   5.993   5.428
 8145SOL     OW25333   5.496   4.954   0.925
 8145SOL    HW125334   5.504   5.054   0.922
 8145SOL    HW225335   5.473   4.919   0.834
 8146SOL     OW25336   5.639   0.295   5.703
 8146SOL    HW125337   5.626   0.283   5.605
 8146SOL    HW225338   5.735   0.276   5.726
 8147SOL     OW25339   6.728   0.613   0.905
 8147SOL    HW125340   6.751   0.584   0.812
 8147SOL    HW225341   6.634   0.586   0.926
 8148SOL     OW25342   4.432   4.841   6.602
 8148SOL    HW125343   4.367   4.873   6.671
 8148SOL    HW225344   4.508   4.906   6.597
 8149SOL     OW25345   1.744   6.831   2.991
 8149SOL    HW125346   1.830   6.860   3.033
 8149SOL    HW225347   1.730   6.733   3.006
 8150SOL     OW25348   0.888   4.003   0.931
 8150SOL    HW125349   0.802   4.050   0.910
 8150SOL    HW225350   0.964   4.067   0.923
 8151SOL     OW25351   5.475   5.395   3.643
 8151SOL    HW125352   5.503   5.301   3.662
 8151SOL    HW225353   5.497   5.453   3.721
 8152SOL     OW25354   6.070   3.153   3.292
 8152SOL    HW125355   5.971   3.164   3.288
 8152SOL    HW225356   6.109   3.161   3.200
 8153SOL     OW25357   1.145   1.471   2.790
 8153SOL    HW125358   1.219   1.462   2.857
 8153SOL    HW225359   1.099   1.383   2.780
 8154SOL     OW25360   3.709   6.418   2.592
 8154SOL    HW125361   3.699   6.491   2.524
 8154SOL    HW225362   3.636   6.424   2.659
 8155SOL     OW25363   1.638   4.107   2.155
 8155SOL    HW125364   1.715   4.096   2.217
 8155SOL    HW225365   1.635   4.030   2.091
 8156SOL     OW25366   4.775   6.203   1.008
 8156SOL    HW125367   4.811   6.152   0.929
 8156SOL    HW225368   4.760   6.140   1.084
 8157SOL     OW25369   6.425   4.407   6.144
 8157SOL    HW125370   6.396   4.455   6.062
 8157SOL    HW225371   6.407   4.309   6.134
 8158SOL     OW25372   4.958   4.300   0.107
 8158SOL    HW125373   4.940   4.359   0.186
 8158SOL    HW225374   5.048   4.321   0.070
 8159SOL     OW25375   3.178   5.642   4.701
 8159SOL    HW125376   3.093   5.625   4.651
 8159SOL    HW225377   3.232   5.557   4.704
 8160SOL     OW25378   4.811   0.400   3.910
 8160SOL    HW125379   4.862   0.466   3.966
 8160SOL    HW225380   4.745   0.449   3.854
 8161SOL     OW25381   5.821   4.241   6.611
 8161SOL    HW125382   5.903   4.207   6.567
 8161SOL    HW225383   5.745   4.177   6.597
 8162SOL     OW25384   6.535   5.261   6.710
 8162SOL    HW125385   6.524   5.307   6.622
 8162SOL    HW225386   6.449   5.215   6.734
 8163SOL     OW25387   2.570   4.830   5.360
 8163SOL    HW125388   2.652   4.887   5.354
 8163SOL    HW225389   2.587   4.752   5.420
 8164SOL     OW25390   4.172   1.314   0.168
 8164SOL    HW125391   4.073   1.320   0.159
 8164SOL    HW225392   4.212   1.405   0.156
 8165SOL     OW25393   6.626   3.942   6.263
 8165SOL    HW125394   6.692   4.001   6.216
 8165SOL    HW225395   6.596   3.987   6.347
 8166SOL     OW25396   1.385   0.562   3.283
 8166SOL    HW125397   1.339   0.640   3.325
 8166SOL    HW225398   1.446   0.595   3.210
 8167SOL     OW25399   0.148   0.981   3.031
 8167SOL    HW125400   0.116   0.887   3.038
 8167SOL    HW225401   0.220   0.987   2.961
 8168SOL     OW25402   2.351   0.249   1.574
 8168SOL    HW125403   2.412   0.180   1.614
 8168SOL    HW225404   2.367   0.255   1.475
 8169SOL     OW25405   4.232   2.253   0.323
 8169SOL    HW125406   4.199   2.164   0.292
 8169SOL    HW225407   4.164   2.323   0.301
 8170SOL     OW25408   6.796   4.726   1.663
 8170SOL    HW125409   6.720   4.764   1.718
 8170SOL    HW225410   6.765   4.642   1.618
 8171SOL     OW25411   2.272   1.233   6.594
 8171SOL    HW125412   2.357   1.285   6.593
 8171SOL    HW225413   2.236   1.227   6.501
 8172SOL     OW25414   6.941   1.945   1.751
 8172SOL    HW125415   6.914   2.039   1.774
 8172SOL    HW225416   0.007   1.926   1.792
 8173SOL     OW25417   5.459   1.620   2.210
 8173SOL    HW125418   5.530   1.688   2.195
 8173SOL    HW225419   5.465   1.586   2.304
 8174SOL     OW25420   0.612   6.849   2.661
 8174SOL    HW125421   0.620   6.948   2.662
 8174SOL    HW225422   0.599   6.818   2.567
 8175SOL     OW25423   0.268   2.883   4.830
 8175SOL    HW125424   0.229   2.796   4.859
 8175SOL    HW225425   0.233   2.957   4.888
 8176SOL     OW25426   2.509   4.856   1.707
 8176SOL    HW125427   2.542   4.856   1.802
 8176SOL    HW225428   2.475   4.764   1.684
 8177SOL     OW25429   5.105   0.722   3.736
 8177SOL    HW125430   5.010   0.739   3.708
 8177SOL    HW225431   5.165   0.725   3.657
 8178SOL     OW25432   3.020   6.890   0.808
 8178SOL    HW125433   3.066   6.925   0.889
 8178SOL    HW225434   3.081   6.827   0.759
 8179SOL     OW25435   5.605   1.111   5.037
 8179SOL    HW125436   5.666   1.165   4.979
 8179SOL    HW225437   5.527   1.167   5.064
 8180SOL     OW25438   6.108   0.565   6.555
 8180SOL    HW125439   6.110   0.598   6.461
 8180SOL    HW225440   6.182   0.500   6.570
 8181SOL     OW25441   1.770   1.234   0.508
 8181SOL    HW125442   1.738   1.328   0.523
 8181SOL    HW225443   1.857   1.236   0.459
 8182SOL     OW25444   2.882   3.151   5.354
 8182SOL    HW125445   2.963   3.109   5.396
 8182SOL    HW225446   2.904   3.178   5.261
 8183SOL     OW25447   6.498   2.065   4.464
 8183SOL    HW125448   6.435   2.139   4.484
 8183SOL    HW225449   6.500   2.048   4.365
 8184SOL     OW25450   0.475   6.823   0.366
 8184SOL    HW125451   0.387   6.807   0.409
 8184SOL    HW225452   0.514   6.735   0.335
 8185SOL     OW25453   1.842   0.185   0.241
 8185SOL    HW125454   1.823   0.088   0.222
 8185SOL    HW225455   1.832   0.238   0.157
 8186SOL     OW25456   2.792   4.428   5.913
 8186SOL    HW125457   2.724   4.466   5.849
 8186SOL    HW225458   2.750   4.418   6.003
 8187SOL     OW25459   2.285   1.035   4.898
 8187SOL    HW125460   2.291   0.940   4.929
 8187SOL    HW225461   2.228   1.040   4.816
 8188SOL     OW25462   4.845   3.076   3.830
 8188SOL    HW125463   4.870   2.988   3.872
 8188SOL    HW225464   4.805   3.060   3.739
 8189SOL     OW25465   5.304   4.782   2.864
 8189SOL    HW125466   5.280   4.705   2.923
 8189SOL    HW225467   5.388   4.760   2.814
 8190SOL     OW25468   5.022   4.083   3.859
 8190SOL    HW125469   5.022   4.069   3.958
 8190SOL    HW225470   5.086   4.157   3.836
 8191SOL     OW25471   3.272   5.331   2.847
 8191SOL    HW125472   3.352   5.388   2.833
 8191SOL    HW225473   3.234   5.304   2.759
 8192SOL     OW25474   2.365   5.638   1.954
 8192SOL    HW125475   2.340   5.569   1.886
 8192SOL    HW225476   2.387   5.724   1.907
 8193SOL     OW25477   6.157   5.791   5.721
 8193SOL    HW125478   6.256   5.795   5.705
 8193SOL    HW225479   6.136   5.833   5.809
 8194SOL     OW25480   5.019   0.512   1.690
 8194SOL    HW125481   5.019   0.604   1.729
 8194SOL    HW225482   5.097   0.461   1.725
 8195SOL     OW25483   6.527   6.941   3.313
 8195SOL    HW125484   6.452   6.907   3.256
 8195SOL    HW225485   6.489   6.997   3.387
 8196SOL     OW25486   3.863   6.010   0.008
 8196SOL    HW125487   3.885   5.916   0.033
 8196SOL    HW225488   3.811   6.053   0.082
 8197SOL     OW25489   3.474   0.995   0.423
 8197SOL    HW125490   3.387   1.009   0.375
 8197SOL    HW225491   3.549   1.003   0.357
 8198SOL     OW25492   3.320   6.586   2.555
 8198SOL    HW125493   3.418   6.565   2.559
 8198SOL    HW225494   3.297   6.621   2.464
 8199SOL     OW25495   5.792   3.367   5.677
 8199SOL    HW125496   5.789   3.286   5.620
 8199SOL    HW225497   5.871   3.362   5.739
 8200SOL     OW25498   6.029   4.122   1.503
 8200SOL    HW125499   6.129   4.125   1.502
 8200SOL    HW225500   5.993   4.213   1.483
 8201SOL     OW25501   6.339   1.039   5.029
 8201SOL    HW125502   6.370   0.964   5.086
 8201SOL    HW225503   6.394   1.121   5.049
 8202SOL     OW25504   0.818   5.542   3.693
 8202SOL    HW125505   0.834   5.634   3.658
 8202SOL    HW225506   0.769   5.548   3.781
 8203SOL     OW25507   3.008   2.289   6.878
 8203SOL    HW125508   2.925   2.240   6.904
 8203SOL    HW225509   3.065   2.230   6.820
 8204SOL     OW25510   3.919   4.806   0.072
 8204SOL    HW125511   3.837   4.749   0.077
 8204SOL    HW225512   3.916   4.862   7.012
 8205SOL     OW25513   0.328   4.791   6.890
 8205SOL    HW125514   0.244   4.741   6.908
 8205SOL    HW225515   0.360   4.770   6.798
 8206SOL     OW25516   4.868   2.190   0.250
 8206SOL    HW125517   4.797   2.216   0.184
 8206SOL    HW225518   4.865   2.253   0.328
 8207SOL     OW25519   2.903   3.388   4.513
 8207SOL    HW125520   2.971   3.338   4.567
 8207SOL    HW225521   2.830   3.326   4.485
 8208SOL     OW25522   0.742   0.838   1.500
 8208SOL    HW125523   0.681   0.829   1.421
 8208SOL    HW225524   0.820   0.897   1.475
 8209SOL     OW25525   0.151   1.351   4.778
 8209SOL    HW125526   0.175   1.434   4.728
 8209SOL    HW225527   0.206   1.275   4.744
 8210SOL     OW25528   2.448   2.010   0.605
 8210SOL    HW125529   2.469   2.102   0.573
 8210SOL    HW225530   2.523   1.976   0.662
 8211SOL     OW25531   3.811   4.529   1.433
 8211SOL    HW125532   3.840   4.514   1.338
 8211SOL    HW225533   3.726   4.582   1.434
 8212SOL     OW25534   1.564   2.512   2.683
 8212SOL    HW125535   1.537   2.525   2.778
 8212SOL    HW225536   1.626   2.434   2.676
 8213SOL     OW25537   6.622   4.276   1.809
 8213SOL    HW125538   6.607   4.342   1.883
 8213SOL    HW225539   6.700   4.218   1.831
 8214SOL     OW25540   5.746   5.571   3.931
 8214SOL    HW125541   5.691   5.491   3.955
 8214SOL    HW225542   5.835   5.566   3.977
 8215SOL     OW25543   3.150   5.703   5.796
 8215SOL    HW125544   3.248   5.722   5.786
 8215SOL    HW225545   3.121   5.728   5.889
 8216SOL     OW25546   5.509   5.338   3.962
 8216SOL    HW125547   5.514   5.277   3.883
 8216SOL    HW225548   5.492   5.285   4.044
 8217SOL     OW25549   1.634   4.637   0.434
 8217SOL    HW125550   1.631   4.550   0.385
 8217SOL    HW225551   1.699   4.698   0.388
 8218SOL     OW25552   0.279   6.780   6.385
 8218SOL    HW125553   0.205   6.714   6.393
 8218SOL    HW225554   0.261   6.841   6.308
 8219SOL     OW25555   4.522   2.349   0.849
 8219SOL    HW125556   4.538   2.331   0.946
 8219SOL    HW225557   4.427   2.327   0.826
 8220SOL     OW25558   3.563   3.094   3.456
 8220SOL    HW125559   3.538   3.068   3.550
 8220SOL    HW225560   3.533   3.023   3.393
 8221SOL     OW25561   5.506   6.300   4.026
 8221SOL    HW125562   5.440   6.334   3.958
 8221SOL    HW225563   5.599   6.310   3.989
 8222SOL     OW25564   5.699   1.124   1.436
 8222SOL    HW125565   5.718   1.122   1.534
 8222SOL    HW225566   5.751   1.198   1.394
 8223SOL     OW25567   1.168   4.711   5.780
 8223SOL    HW125568   1.227   4.647   5.828
 8223SOL    HW225569   1.151   4.791   5.838
 8224SOL     OW25570   6.307   1.088   2.718
 8224SOL    HW125571   6.311   1.092   2.818
 8224SOL    HW225572   6.234   1.026   2.691
 8225SOL     OW25573   3.147   1.049   6.984
 8225SOL    HW125574   3.165   0.979   6.914
 8225SOL    HW225575   3.142   1.138   6.940
 8226SOL     OW25576   4.315   7.020   1.203
 8226SOL    HW125577   4.245   0.009   1.133
 8226SOL    HW225578   4.353   6.928   1.197
 8227SOL     OW25579   6.729   2.067   3.133
 8227SOL    HW125580   6.774   2.017   3.058
 8227SOL    HW225581   6.647   2.113   3.098
 8228SOL     OW25582   6.524   2.259   5.425
 8228SOL    HW125583   6.434   2.287   5.458
 8228SOL    HW225584   6.592   2.275   5.497
 8229SOL     OW25585   3.810   3.278   0.520
 8229SOL    HW125586   3.720   3.248   0.554
 8229SOL    HW225587   3.826   3.372   0.548
 8230SOL     OW25588   4.642   0.013   5.544
 8230SOL    HW125589   4.672   6.940   5.542
 8230SOL    HW225590   4.583   0.027   5.624
 8231SOL     OW25591   3.735   4.784   0.734
 8231SOL    HW125592   3.740   4.787   0.634
 8231SOL    HW225593   3.672   4.855   0.766
 8232SOL     OW25594   4.866   1.246   1.930
 8232SOL    HW125595   4.917   1.327   1.901
 8232SOL    HW225596   4.925   1.189   1.987
 8233SOL     OW25597   1.428   6.311   6.421
 8233SOL    HW125598   1.362   6.383   6.398
 8233SOL    HW225599   1.381   6.236   6.466
 8234SOL     OW25600   2.976   4.451   6.609
 8234SOL    HW125601   2.921   4.370   6.591
 8234SOL    HW225602   2.964   4.517   6.534
 8235SOL     OW25603   0.655   3.779   0.080
 8235SOL    HW125604   0.648   3.870   0.039
 8235SOL    HW225605   0.734   3.731   0.042
 8236SOL     OW25606   0.435   4.823   0.416
 8236SOL    HW125607   0.357   4.829   0.479
 8236SOL    HW225608   0.407   4.857   0.326
 8237SOL     OW25609   4.304   6.645   4.900
 8237SOL    HW125610   4.276   6.682   4.812
 8237SOL    HW225611   4.284   6.712   4.972
 8238SOL     OW25612   0.936   5.443   6.409
 8238SOL    HW125613   0.929   5.396   6.497
 8238SOL    HW225614   0.856   5.501   6.396
 8239SOL     OW25615   6.392   1.344   5.888
 8239SOL    HW125616   6.356   1.397   5.965
 8239SOL    HW225617   6.446   1.268   5.922
 8240SOL     OW25618   3.621   4.146   2.574
 8240SOL    HW125619   3.555   4.165   2.646
 8240SOL    HW225620   3.712   4.134   2.614
 8241SOL     OW25621   3.969   0.434   6.149
 8241SOL    HW125622   4.048   0.376   6.129
 8241SOL    HW225623   3.989   0.489   6.230
 8242SOL     OW25624   0.127   4.730   5.995
 8242SOL    HW125625   0.168   4.800   6.052
 8242SOL    HW225626   0.175   4.726   5.907
 8243SOL     OW25627   0.718   2.557   0.572
 8243SOL    HW125628   0.769   2.633   0.531
 8243SOL    HW225629   0.694   2.490   0.501
 8244SOL     OW25630   0.125   0.592   4.779
 8244SOL    HW125631   0.049   0.586   4.715
 8244SOL    HW225632   0.144   0.688   4.800
 8245SOL     OW25633   4.334   2.118   2.739
 8245SOL    HW125634   4.317   2.089   2.833
 8245SOL    HW225635   4.385   2.047   2.691
 8246SOL     OW25636   1.236   2.680   6.032
 8246SOL    HW125637   1.191   2.661   5.944
 8246SOL    HW225638   1.280   2.770   6.028
 8247SOL     OW25639   1.148   6.869   2.501
 8247SOL    HW125640   1.201   6.880   2.585
 8247SOL    HW225641   1.154   6.775   2.469
 8248SOL     OW25642   5.982   5.041   4.554
 8248SOL    HW125643   5.939   5.104   4.619
 8248SOL    HW225644   6.055   4.990   4.600
 8249SOL     OW25645   1.947   3.138   5.637
 8249SOL    HW125646   1.989   3.049   5.617
 8249SOL    HW225647   1.870   3.125   5.700
 8250SOL     OW25648   3.246   4.003   1.938
 8250SOL    HW125649   3.263   3.909   1.908
 8250SOL    HW225650   3.273   4.013   2.034
 8251SOL     OW25651   5.485   3.631   4.000
 8251SOL    HW125652   5.494   3.537   4.032
 8251SOL    HW225653   5.390   3.661   4.009
 8252SOL     OW25654   2.936   1.316   5.599
 8252SOL    HW125655   3.003   1.272   5.660
 8252SOL    HW225656   2.844   1.297   5.631
 8253SOL     OW25657   4.204   4.884   5.332
 8253SOL    HW125658   4.193   4.841   5.242
 8253SOL    HW225659   4.131   4.852   5.393
 8254SOL     OW25660   4.567   4.750   4.992
 8254SOL    HW125661   4.500   4.822   4.972
 8254SOL    HW225662   4.658   4.780   4.965
 8255SOL     OW25663   2.178   0.123   4.535
 8255SOL    HW125664   2.278   0.133   4.536
 8255SOL    HW225665   2.135   0.213   4.543
 8256SOL     OW25666   6.821   6.685   2.303
 8256SOL    HW125667   6.793   6.735   2.385
 8256SOL    HW225668   6.748   6.690   2.235
 8257SOL     OW25669   5.764   3.843   3.158
 8257SOL    HW125670   5.850   3.823   3.206
 8257SOL    HW225671   5.753   3.942   3.150
 8258SOL     OW25672   5.499   1.982   0.122
 8258SOL    HW125673   5.579   1.968   0.182
 8258SOL    HW225674   5.456   1.894   0.102
 8259SOL     OW25675   3.591   1.760   3.596
 8259SOL    HW125676   3.519   1.690   3.599
 8259SOL    HW225677   3.580   1.822   3.673
 8260SOL     OW25678   2.599   6.743   1.864
 8260SOL    HW125679   2.669   6.812   1.848
 8260SOL    HW225680   2.528   6.749   1.793
 8261SOL     OW25681   5.618   0.455   2.096
 8261SOL    HW125682   5.715   0.460   2.074
 8261SOL    HW225683   5.565   0.451   2.011
 8262SOL     OW25684   0.315   3.321   0.627
 8262SOL    HW125685   0.292   3.351   0.534
 8262SOL    HW225686   0.231   3.319   0.682
 8263SOL     OW25687   0.825   2.424   6.536
 8263SOL    HW125688   0.800   2.436   6.632
 8263SOL    HW225689   0.760   2.475   6.479
 8264SOL     OW25690   2.910   6.677   2.345
 8264SOL    HW125691   2.920   6.697   2.443
 8264SOL    HW225692   2.825   6.627   2.330
 8265SOL     OW25693   0.155   0.148   1.110
 8265SOL    HW125694   0.135   0.191   1.022
 8265SOL    HW225695   0.239   0.095   1.103
 8266SOL     OW25696   2.180   1.012   3.511
 8266SOL    HW125697   2.273   0.983   3.533
 8266SOL    HW225698   2.145   1.072   3.582
 8267SOL     OW25699   1.774   2.809   1.744
 8267SOL    HW125700   1.701   2.764   1.796
 8267SOL    HW225701   1.757   2.907   1.739
 8268SOL     OW25702   1.712   6.219   5.902
 8268SOL    HW125703   1.754   6.271   5.976
 8268SOL    HW225704   1.726   6.121   5.918
 8269SOL     OW25705   4.214   1.460   2.228
 8269SOL    HW125706   4.278   1.532   2.257
 8269SOL    HW225707   4.221   1.382   2.290
 8270SOL     OW25708   2.675   6.352   5.533
 8270SOL    HW125709   2.607   6.387   5.468
 8270SOL    HW225710   2.764   6.392   5.513
 8271SOL     OW25711   0.340   0.419   2.968
 8271SOL    HW125712   0.407   0.448   2.900
 8271SOL    HW225713   0.315   0.323   2.952
 8272SOL     OW25714   5.687   1.816   2.385
 8272SOL    HW125715   5.680   1.794   2.288
 8272SOL    HW225716   5.596   1.836   2.422
 8273SOL     OW25717   2.771   0.834   6.961
 8273SOL    HW125718   2.713   0.756   6.984
 8273SOL    HW225719   2.784   0.838   6.862
 8274SOL     OW25720   5.199   4.769   4.071
 8274SOL    HW125721   5.125   4.833   4.091
 8274SOL    HW225722   5.215   4.710   4.150
 8275SOL     OW25723   5.599   1.312   5.803
 8275SOL    HW125724   5.682   1.281   5.850
 8275SOL    HW225725   5.522   1.256   5.832
 8276SOL     OW25726   0.236   2.351   3.265
 8276SOL    HW125727   0.159   2.292   3.242
 8276SOL    HW225728   0.322   2.301   3.252
 8277SOL     OW25729   6.828   6.139   6.672
 8277SOL    HW125730   6.895   6.084   6.622
 8277SOL    HW225731   6.763   6.179   6.607
 8278SOL     OW25732   2.808   2.212   5.731
 8278SOL    HW125733   2.844   2.147   5.665
 8278SOL    HW225734   2.778   2.163   5.814
 8279SOL     OW25735   1.400   6.865   4.635
 8279SOL    HW125736   1.319   6.815   4.665
 8279SOL    HW225737   1.460   6.802   4.584
 8280SOL     OW25738   2.546   3.589   0.909
 8280SOL    HW125739   2.478   3.527   0.948
 8280SOL    HW225740   2.634   3.543   0.906
 8281SOL     OW25741   3.120   4.568   1.679
 8281SOL    HW125742   3.171   4.484   1.657
 8281SOL    HW225743   3.038   4.544   1.731
 8282SOL     OW25744   4.411   3.735   6.930
 8282SOL    HW125745   4.429   3.826   6.895
 8282SOL    HW225746   4.323   3.702   6.894
 8283SOL     OW25747   1.485   5.365   6.047
 8283SOL    HW125748   1.468   5.412   6.133
 8283SOL    HW225749   1.567   5.402   6.004
 8284SOL     OW25750   1.046   3.654   1.070
 8284SOL    HW125751   1.142   3.680   1.067
 8284SOL    HW225752   0.989   3.736   1.081
 8285SOL     OW25753   2.902   3.661   4.557
 8285SOL    HW125754   2.939   3.655   4.650
 8285SOL    HW225755   2.890   3.569   4.520
 8286SOL     OW25756   5.780   2.123   6.360
 8286SOL    HW125757   5.747   2.216   6.348
 8286SOL    HW225758   5.880   2.123   6.369
 8287SOL     OW25759   1.864   5.471   4.482
 8287SOL    HW125760   1.810   5.395   4.447
 8287SOL    HW225761   1.846   5.553   4.427
 8288SOL     OW25762   3.233   2.019   1.618
 8288SOL    HW125763   3.315   2.054   1.663
 8288SOL    HW225764   3.190   2.093   1.566
 8289SOL     OW25765   0.346   5.649   0.926
 8289SOL    HW125766   0.363   5.576   0.993
 8289SOL    HW225767   0.386   5.734   0.959
 8290SOL     OW25768   5.777   1.344   1.230
 8290SOL    HW125769   5.695   1.394   1.201
 8290SOL    HW225770   5.833   1.323   1.149
 8291SOL     OW25771   5.123   6.402   5.148
 8291SOL    HW125772   5.137   6.463   5.070
 8291SOL    HW225773   5.116   6.456   5.232
 8292SOL     OW25774   2.748   6.515   6.993
 8292SOL    HW125775   2.741   6.427   6.945
 8292SOL    HW225776   2.674   6.575   6.962
 8293SOL     OW25777   3.264   5.905   0.639
 8293SOL    HW125778   3.357   5.870   0.641
 8293SOL    HW225779   3.199   5.831   0.658
 8294SOL     OW25780   5.841   3.633   5.575
 8294SOL    HW125781   5.751   3.676   5.572
 8294SOL    HW225782   5.831   3.539   5.610
 8295SOL     OW25783   5.287   5.382   1.998
 8295SOL    HW125784   5.219   5.395   1.926
 8295SOL    HW225785   5.379   5.394   1.961
 8296SOL     OW25786   1.093   4.644   6.673
 8296SOL    HW125787   1.090   4.639   6.773
 8296SOL    HW225788   1.181   4.608   6.640
 8297SOL     OW25789   6.539   2.974   2.480
 8297SOL    HW125790   6.544   2.977   2.380
 8297SOL    HW225791   6.568   2.884   2.512
 8298SOL     OW25792   6.514   1.336   1.609
 8298SOL    HW125793   6.592   1.368   1.663
 8298SOL    HW225794   6.535   1.343   1.512
 8299SOL     OW25795   6.448   2.766   1.462
 8299SOL    HW125796   6.401   2.773   1.374
 8299SOL    HW225797   6.427   2.679   1.505
 8300SOL     OW25798   0.309   6.123   4.778
 8300SOL    HW125799   0.260   6.055   4.833
 8300SOL    HW225800   0.399   6.139   4.819
 8301SOL     OW25801   3.951   1.579   1.087
 8301SOL    HW125802   4.008   1.521   1.029
 8301SOL    HW225803   3.961   1.675   1.059
 8302SOL     OW25804   6.168   6.757   6.747
 8302SOL    HW125805   6.228   6.758   6.667
 8302SOL    HW225806   6.072   6.759   6.716
 8303SOL     OW25807   6.571   1.020   3.365
 8303SOL    HW125808   6.609   0.989   3.452
 8303SOL    HW225809   6.643   1.064   3.311
 8304SOL     OW25810   0.122   3.348   0.837
 8304SOL    HW125811   0.139   3.262   0.885
 8304SOL    HW225812   0.151   3.424   0.895
 8305SOL     OW25813   5.106   5.119   4.309
 8305SOL    HW125814   5.112   5.035   4.363
 8305SOL    HW225815   5.069   5.193   4.365
 8306SOL     OW25816   6.172   2.521   5.689
 8306SOL    HW125817   6.195   2.530   5.785
 8306SOL    HW225818   6.084   2.566   5.672
 8307SOL     OW25819   3.418   5.293   1.673
 8307SOL    HW125820   3.373   5.229   1.735
 8307SOL    HW225821   3.353   5.365   1.647
 8308SOL     OW25822   3.431   5.662   1.493
 8308SOL    HW125823   3.525   5.681   1.521
 8308SOL    HW225824   3.370   5.727   1.537
 8309SOL     OW25825   6.885   5.275   4.258
 8309SOL    HW125826   6.933   5.277   4.171
 8309SOL    HW225827   6.871   5.180   4.286
 8310SOL     OW25828   6.988   5.102   0.759
 8310SOL    HW125829   6.999   5.040   0.837
 8310SOL    HW225830   7.000   5.050   0.674
 8311SOL     OW25831   0.681   1.385   4.425
 8311SOL    HW125832   0.715   1.478   4.411
 8311SOL    HW225833   0.753   1.330   4.468
 8312SOL     OW25834   5.054   0.614   0.020
 8312SOL    HW125835   4.968   0.660   0.041
 8312SOL    HW225836   5.118   0.625   0.096
 8313SOL     OW25837   5.319   0.239   1.003
 8313SOL    HW125838   5.405   0.196   0.977
 8313SOL    HW225839   5.244   0.199   0.950
 8314SOL     OW25840   4.794   0.652   0.419
 8314SOL    HW125841   4.708   0.696   0.391
 8314SOL    HW225842   4.831   0.700   0.498
 8315SOL     OW25843   4.223   2.702   1.684
 8315SOL    HW125844   4.288   2.648   1.737
 8315SOL    HW225845   4.230   2.799   1.711
 8316SOL     OW25846   1.118   2.287   1.831
 8316SOL    HW125847   1.122   2.364   1.895
 8316SOL    HW225848   1.202   2.233   1.838
 8317SOL     OW25849   1.942   2.687   2.853
 8317SOL    HW125850   1.990   2.774   2.866
 8317SOL    HW225851   1.956   2.655   2.760
 8318SOL     OW25852   4.478   1.312   4.808
 8318SOL    HW125853   4.520   1.370   4.878
 8318SOL    HW225854   4.494   1.216   4.831
 8319SOL     OW25855   1.804   1.682   6.993
 8319SOL    HW125856   1.842   1.666   6.902
 8319SOL    HW225857   1.869   1.734   0.025
 8320SOL     OW25858   3.201   3.466   2.175
 8320SOL    HW125859   3.103   3.488   2.171
 8320SOL    HW225860   3.254   3.551   2.183
 8321SOL     OW25861   6.424   0.229   6.278
 8321SOL    HW125862   6.497   0.294   6.300
 8321SOL    HW225863   6.461   0.155   6.222
 8322SOL     OW25864   6.726   6.886   0.719
 8322SOL    HW125865   6.773   6.798   0.731
 8322SOL    HW225866   6.685   6.913   0.806
 8323SOL     OW25867   5.309   5.298   2.613
 8323SOL    HW125868   5.261   5.294   2.525
 8323SOL    HW225869   5.242   5.301   2.687
 8324SOL     OW25870   5.719   6.979   1.133
 8324SOL    HW125871   5.632   7.006   1.093
 8324SOL    HW225872   5.780   0.035   1.140
 8325SOL     OW25873   2.475   3.687   5.363
 8325SOL    HW125874   2.506   3.595   5.343
 8325SOL    HW225875   2.470   3.700   5.462
 8326SOL     OW25876   5.038   3.567   5.659
 8326SOL    HW125877   5.056   3.533   5.567
 8326SOL    HW225878   4.943   3.548   5.685
 8327SOL     OW25879   6.602   1.226   6.395
 8327SOL    HW125880   6.586   1.129   6.376
 8327SOL    HW225881   6.533   1.259   6.459
 8328SOL     OW25882   2.605   5.967   6.079
 8328SOL    HW125883   2.637   6.003   5.992
 8328SOL    HW225884   2.566   6.041   6.134
 8329SOL     OW25885   0.805   2.976   5.986
 8329SOL    HW125886   0.755   3.056   5.953
 8329SOL    HW225887   0.897   2.977   5.947
 8330SOL     OW25888   2.633   1.055   6.887
 8330SOL    HW125889   2.629   1.105   6.974
 8330SOL    HW225890   2.695   0.977   6.896
 8331SOL     OW25891   3.553   1.317   1.322
 8331SOL    HW125892   3.646   1.347   1.301
 8331SOL    HW225893   3.499   1.394   1.355
 8332SOL     OW25894   4.687   5.089   2.405
 8332SOL    HW125895   4.594   5.124   2.410
 8332SOL    HW225896   4.686   4.989   2.406
 8333SOL     OW25897   0.056   6.338   6.239
 8333SOL    HW125898   0.136   6.381   6.198
 8333SOL    HW225899   6.996   6.369   6.192
 8334SOL     OW25900   4.058   1.015   3.844
 8334SOL    HW125901   4.081   0.924   3.878
 8334SOL    HW225902   4.070   1.018   3.745
 8335SOL     OW25903   5.964   6.429   7.017
 8335SOL    HW125904   5.966   6.496   0.068
 8335SOL    HW225905   5.914   6.348   0.024
 8336SOL     OW25906   6.806   5.327   3.230
 8336SOL    HW125907   6.777   5.270   3.154
 8336SOL    HW225908   6.744   5.406   3.238
 8337SOL     OW25909   2.290   6.029   2.545
 8337SOL    HW125910   2.387   6.033   2.522
 8337SOL    HW225911   2.239   5.992   2.467
 8338SOL     OW25912   2.999   5.398   1.767
 8338SOL    HW125913   3.051   5.463   1.822
 8338SOL    HW225914   2.916   5.443   1.733
 8339SOL     OW25915   6.018   0.702   0.900
 8339SOL    HW125916   6.047   0.714   0.995
 8339SOL    HW225917   6.097   0.714   0.840
 8340SOL     OW25918   4.897   2.898   1.459
 8340SOL    HW125919   4.841   2.924   1.539
 8340SOL    HW225920   4.968   2.834   1.488
 8341SOL     OW25921   2.733   6.429   0.406
 8341SOL    HW125922   2.670   6.395   0.336
 8341SOL    HW225923   2.761   6.522   0.383
 8342SOL     OW25924   4.639   6.579   1.881
 8342SOL    HW125925   4.696   6.643   1.831
 8342SOL    HW225926   4.653   6.591   1.980
 8343SOL     OW25927   1.670   5.811   5.731
 8343SOL    HW125928   1.637   5.742   5.667
 8343SOL    HW225929   1.598   5.878   5.749
 8344SOL     OW25930   4.769   6.446   4.733
 8344SOL    HW125931   4.811   6.421   4.646
 8344SOL    HW225932   4.730   6.364   4.776
 8345SOL     OW25933   4.357   1.589   2.997
 8345SOL    HW125934   4.418   1.602   2.919
 8345SOL    HW225935   4.271   1.548   2.965
 8346SOL     OW25936   3.153   4.913   0.911
 8346SOL    HW125937   3.235   4.876   0.955
 8346SOL    HW225938   3.155   4.892   0.813
 8347SOL     OW25939   3.325   5.426   4.721
 8347SOL    HW125940   3.340   5.336   4.681
 8347SOL    HW225941   3.374   5.433   4.808
 8348SOL     OW25942   2.371   0.434   2.444
 8348SOL    HW125943   2.294   0.421   2.381
 8348SOL    HW225944   2.405   0.344   2.473
 8349SOL     OW25945   5.730   6.184   1.676
 8349SOL    HW125946   5.665   6.137   1.617
 8349SOL    HW225947   5.700   6.279   1.688
 8350SOL     OW25948   4.305   6.839   5.668
 8350SOL    HW125949   4.243   6.842   5.746
 8350SOL    HW225950   4.399   6.854   5.699
 8351SOL     OW25951   5.330   4.787   4.516
 8351SOL    HW125952   5.328   4.732   4.432
 8351SOL    HW225953   5.303   4.731   4.594
 8352SOL     OW25954   0.811   6.882   3.380
 8352SOL    HW125955   0.860   6.953   3.431
 8352SOL    HW225956   0.732   6.923   3.334
 8353SOL     OW25957   6.915   3.064   1.222
 8353SOL    HW125958   6.989   3.073   1.287
 8353SOL    HW225959   6.920   3.138   1.155
 8354SOL     OW25960   3.772   6.803   6.258
 8354SOL    HW125961   3.680   6.841   6.261
 8354SOL    HW225962   3.799   6.789   6.163
 8355SOL     OW25963   2.836   0.809   6.404
 8355SOL    HW125964   2.847   0.801   6.305
 8355SOL    HW225965   2.778   0.888   6.425
 8356SOL     OW25966   0.959   6.118   1.012
 8356SOL    HW125967   1.010   6.092   1.094
 8356SOL    HW225968   0.863   6.133   1.037
 8357SOL     OW25969   4.421   0.282   5.035
 8357SOL    HW125970   4.483   0.349   5.075
 8357SOL    HW225971   4.473   0.217   4.980
 8358SOL     OW25972   1.003   4.397   5.571
 8358SOL    HW125973   1.053   4.417   5.487
 8358SOL    HW225974   0.983   4.482   5.619
 8359SOL     OW25975   2.969   0.920   5.371
 8359SOL    HW125976   2.975   0.983   5.294
 8359SOL    HW225977   2.931   0.968   5.451
 8360SOL     OW25978   2.980   5.842   1.544
 8360SOL    HW125979   3.016   5.829   1.451
 8360SOL    HW225980   2.881   5.855   1.540
 8361SOL     OW25981   3.330   0.353   2.631
 8361SOL    HW125982   3.353   0.450   2.636
 8361SOL    HW225983   3.392   0.300   2.689
 8362SOL     OW25984   4.169   2.090   0.557
 8362SOL    HW125985   4.164   2.152   0.480
 8362SOL    HW225986   4.173   1.995   0.524
 8363SOL     OW25987   6.906   2.689   6.417
 8363SOL    HW125988   6.930   2.592   6.420
 8363SOL    HW225989   6.868   2.711   6.328
 8364SOL     OW25990   1.063   3.192   2.844
 8364SOL    HW125991   1.115   3.274   2.869
 8364SOL    HW225992   1.070   3.124   2.918
 8365SOL     OW25993   2.388   4.169   1.982
 8365SOL    HW125994   2.370   4.245   2.044
 8365SOL    HW225995   2.358   4.084   2.024
 8366SOL     OW25996   2.107   5.773   1.862
 8366SOL    HW125997   2.011   5.793   1.884
 8366SOL    HW225998   2.166   5.812   1.932
 8367SOL     OW25999   4.172   6.387   3.726
 8367SOL    HW126000   4.158   6.437   3.812
 8367SOL    HW226001   4.253   6.423   3.679
 8368SOL     OW26002   2.395   6.385   6.764
 8368SOL    HW126003   2.389   6.372   6.863
 8368SOL    HW226004   2.381   6.297   6.718
 8369SOL     OW26005   2.273   6.656   6.472
 8369SOL    HW126006   2.352   6.639   6.531
 8369SOL    HW226007   2.265   6.582   6.405
 8370SOL     OW26008   2.813   1.886   5.475
 8370SOL    HW126009   2.888   1.946   5.503
 8370SOL    HW226010   2.727   1.937   5.473
 8371SOL     OW26011   1.935   3.984   0.785
 8371SOL    HW126012   1.993   3.975   0.866
 8371SOL    HW226013   1.916   4.081   0.769
 8372SOL     OW26014   0.480   5.323   2.211
 8372SOL    HW126015   0.402   5.307   2.272
 8372SOL    HW226016   0.531   5.238   2.199
 8373SOL     OW26017   1.493   0.001   3.704
 8373SOL    HW126018   1.536   0.019   3.615
 8373SOL    HW226019   1.510   6.929   3.730
 8374SOL     OW26020   6.927   0.799   5.594
 8374SOL    HW126021   6.990   0.802   5.516
 8374SOL    HW226022   6.970   0.842   5.674
 8375SOL     OW26023   3.858   6.985   5.085
 8375SOL    HW126024   3.874   0.002   5.176
 8375SOL    HW226025   3.908   6.899   5.077
 8376SOL     OW26026   1.476   0.889   4.272
 8376SOL    HW126027   1.424   0.857   4.351
 8376SOL    HW226028   1.570   0.912   4.300
 8377SOL     OW26029   5.186   6.132   1.646
 8377SOL    HW126030   5.206   6.227   1.625
 8377SOL    HW226031   5.174   6.081   1.560
 8378SOL     OW26032   4.453   4.935   2.741
 8378SOL    HW126033   4.550   4.932   2.763
 8378SOL    HW226034   4.400   4.907   2.821
 8379SOL     OW26035   5.783   2.281   0.903
 8379SOL    HW126036   5.736   2.236   0.979
 8379SOL    HW226037   5.846   2.350   0.938
 8380SOL     OW26038   0.054   0.128   2.517
 8380SOL    HW126039   0.118   0.183   2.570
 8380SOL    HW226040   6.987   0.130   2.561
 8381SOL     OW26041   0.065   2.886   5.223
 8381SOL    HW126042   0.049   2.916   5.129
 8381SOL    HW226043   0.130   2.948   5.266
 8382SOL     OW26044   2.553   0.741   2.748
 8382SOL    HW126045   2.535   0.786   2.660
 8382SOL    HW226046   2.489   0.665   2.760
 8383SOL     OW26047   2.244   6.922   5.613
 8383SOL    HW126048   2.272   7.018   5.615
 8383SOL    HW226049   2.230   6.889   5.706
 8384SOL     OW26050   6.866   0.881   0.992
 8384SOL    HW126051   6.812   0.917   1.068
 8384SOL    HW226052   6.824   0.796   0.959
 8385SOL     OW26053   6.584   1.527   1.149
 8385SOL    HW126054   6.683   1.536   1.142
 8385SOL    HW226055   6.561   1.454   1.213
 8386SOL     OW26056   1.510   5.043   2.063
 8386SOL    HW126057   1.452   5.121   2.088
 8386SOL    HW226058   1.500   4.970   2.130
 8387SOL     OW26059   1.729   1.418   2.481
 8387SOL    HW126060   1.771   1.423   2.572
 8387SOL    HW226061   1.677   1.333   2.473
 8388SOL     OW26062   2.608   6.370   0.641
 8388SOL    HW126063   2.664   6.374   0.559
 8388SOL    HW226064   2.650   6.425   0.713
 8389SOL     OW26065   6.886   2.967   3.101
 8389SOL    HW126066   6.859   2.892   3.161
 8389SOL    HW226067   6.806   3.021   3.076
 8390SOL     OW26068   4.120   1.275   6.018
 8390SOL    HW126069   4.122   1.215   6.098
 8390SOL    HW226070   4.025   1.290   5.991
 8391SOL     OW26071   6.342   5.066   1.153
 8391SOL    HW126072   6.415   5.132   1.174
 8391SOL    HW226073   6.376   5.001   1.085
 8392SOL     OW26074   6.455   3.492   4.587
 8392SOL    HW126075   6.401   3.413   4.559
 8392SOL    HW226076   6.514   3.520   4.511
 8393SOL     OW26077   6.991   0.117   2.994
 8393SOL    HW126078   6.968   0.173   3.074
 8393SOL    HW226079   6.906   0.090   2.948
 8394SOL     OW26080   6.329   2.277   0.857
 8394SOL    HW126081   6.390   2.223   0.798
 8394SOL    HW226082   6.257   2.217   0.892
 8395SOL     OW26083   3.011   6.765   5.493
 8395SOL    HW126084   3.022   6.734   5.399
 8395SOL    HW226085   3.035   6.862   5.499
 8396SOL     OW26086   4.861   5.855   3.221
 8396SOL    HW126087   4.894   5.828   3.130
 8396SOL    HW226088   4.768   5.891   3.213
 8397SOL     OW26089   1.608   0.784   2.288
 8397SOL    HW126090   1.530   0.793   2.352
 8397SOL    HW226091   1.599   0.853   2.216
 8398SOL     OW26092   3.697   2.041   5.913
 8398SOL    HW126093   3.646   2.101   5.976
 8398SOL    HW226094   3.758   1.982   5.966
 8399SOL     OW26095   5.682   6.932   6.737
 8399SOL    HW126096   5.619   6.872   6.785
 8399SOL    HW226097   5.748   6.878   6.685
 8400SOL     OW26098   2.123   0.903   3.991
 8400SOL    HW126099   2.113   0.871   4.085
 8400SOL    HW226100   2.032   0.918   3.951
 8401SOL     OW26101   2.342   1.398   5.173
 8401SOL    HW126102   2.379   1.472   5.230
 8401SOL    HW226103   2.314   1.435   5.084
 8402SOL     OW26104   4.748   1.834   6.448
 8402SOL    HW126105   4.789   1.751   6.412
 8402SOL    HW226106   4.686   1.810   6.523
 8403SOL     OW26107   6.903   3.473   4.545
 8403SOL    HW126108   6.894   3.374   4.559
 8403SOL    HW226109   6.944   3.514   4.626
 8404SOL     OW26110   3.593   6.657   5.995
 8404SOL    HW126111   3.675   6.657   5.939
 8404SOL    HW226112   3.568   6.562   6.019
 8405SOL     OW26113   2.118   1.592   5.409
 8405SOL    HW126114   2.213   1.597   5.379
 8405SOL    HW226115   2.099   1.666   5.473
 8406SOL     OW26116   3.918   0.825   0.255
 8406SOL    HW126117   4.003   0.815   0.203
 8406SOL    HW226118   3.932   0.892   0.328
 8407SOL     OW26119   3.537   6.469   3.070
 8407SOL    HW126120   3.548   6.371   3.056
 8407SOL    HW226121   3.495   6.486   3.159
 8408SOL     OW26122   5.488   3.924   1.302
 8408SOL    HW126123   5.577   3.938   1.259
 8408SOL    HW226124   5.477   3.828   1.328
 8409SOL     OW26125   4.949   1.633   3.107
 8409SOL    HW126126   4.865   1.656   3.157
 8409SOL    HW226127   5.023   1.618   3.172
 8410SOL     OW26128   5.882   0.689   1.410
 8410SOL    HW126129   5.964   0.669   1.462
 8410SOL    HW226130   5.811   0.622   1.430
 8411SOL     OW26131   0.728   5.145   0.069
 8411SOL    HW126132   0.719   5.059   0.118
 8411SOL    HW226133   0.637   5.179   0.044
 8412SOL     OW26134   3.697   2.650   1.140
 8412SOL    HW126135   3.626   2.593   1.181
 8412SOL    HW226136   3.780   2.644   1.194
 8413SOL     OW26137   4.629   5.899   6.768
 8413SOL    HW126138   4.557   5.846   6.811
 8413SOL    HW226139   4.718   5.874   6.808
 8414SOL     OW26140   3.755   6.834   3.424
 8414SOL    HW126141   3.704   6.865   3.504
 8414SOL    HW226142   3.849   6.867   3.430
 8415SOL     OW26143   0.532   5.991   3.987
 8415SOL    HW126144   0.530   5.941   3.900
 8415SOL    HW226145   0.619   6.040   3.995
 8416SOL     OW26146   5.976   2.692   2.886
 8416SOL    HW126147   5.958   2.597   2.864
 8416SOL    HW226148   6.049   2.697   2.955
 8417SOL     OW26149   0.994   3.324   5.693
 8417SOL    HW126150   1.045   3.392   5.745
 8417SOL    HW226151   1.058   3.267   5.641
 8418SOL     OW26152   6.005   5.473   1.257
 8418SOL    HW126153   5.938   5.480   1.183
 8418SOL    HW226154   6.088   5.430   1.222
 8419SOL     OW26155   5.682   0.109   2.042
 8419SOL    HW126156   5.689   0.153   1.953
 8419SOL    HW226157   5.708   0.174   2.114
 8420SOL     OW26158   4.139   0.059   0.766
 8420SOL    HW126159   4.171   6.998   0.722
 8420SOL    HW226160   4.091   0.116   0.698
 8421SOL     OW26161   3.333   5.811   0.059
 8421SOL    HW126162   3.269   5.881   0.091
 8421SOL    HW226163   3.281   5.736   0.018
 8422SOL     OW26164   4.006   1.387   2.077
 8422SOL    HW126165   4.079   1.422   2.136
 8422SOL    HW226166   4.043   1.364   1.987
 8423SOL     OW26167   3.476   5.109   5.943
 8423SOL    HW126168   3.464   5.123   6.041
 8423SOL    HW226169   3.387   5.100   5.899
 8424SOL     OW26170   1.607   2.205   2.387
 8424SOL    HW126171   1.564   2.122   2.422
 8424SOL    HW226172   1.668   2.243   2.456
 8425SOL     OW26173   4.440   4.679   5.940
 8425SOL    HW126174   4.480   4.596   5.899
 8425SOL    HW226175   4.371   4.653   6.007
 8426SOL     OW26176   3.883   3.337   3.080
 8426SOL    HW126177   3.801   3.332   3.137
 8426SOL    HW226178   3.929   3.425   3.096
 8427SOL     OW26179   3.636   4.051   3.806
 8427SOL    HW126180   3.668   3.981   3.741
 8427SOL    HW226181   3.594   4.126   3.755
 8428SOL     OW26182   0.770   6.189   1.376
 8428SOL    HW126183   0.780   6.114   1.311
 8428SOL    HW226184   0.720   6.157   1.457
 8429SOL     OW26185   1.706   6.262   5.110
 8429SOL    HW126186   1.726   6.355   5.141
 8429SOL    HW226187   1.732   6.197   5.182
 8430SOL     OW26188   3.461   5.351   3.741
 8430SOL    HW126189   3.439   5.385   3.833
 8430SOL    HW226190   3.517   5.419   3.693
 8431SOL     OW26191   3.891   3.523   0.896
 8431SOL    HW126192   3.910   3.553   0.802
 8431SOL    HW226193   3.844   3.435   0.893
 8432SOL     OW26194   5.801   6.303   5.309
 8432SOL    HW126195   5.890   6.308   5.355
 8432SOL    HW226196   5.777   6.207   5.293
 8433SOL     OW26197   4.319   2.978   0.673
 8433SOL    HW126198   4.227   2.951   0.702
 8433SOL    HW226199   4.369   2.897   0.642
 8434SOL     OW26200   2.826   0.251   4.771
 8434SOL    HW126201   2.758   0.284   4.836
 8434SOL    HW226202   2.917   0.281   4.800
 8435SOL     OW26203   6.087   0.628   1.877
 8435SOL    HW126204   6.140   0.544   1.865
 8435SOL    HW226205   6.131   0.685   1.946
 8436SOL     OW26206   3.236   6.372   3.397
 8436SOL    HW126207   3.210   6.276   3.401
 8436SOL    HW226208   3.157   6.427   3.369
 8437SOL     OW26209   2.365   0.951   3.848
 8437SOL    HW126210   2.401   1.035   3.888
 8437SOL    HW226211   2.269   0.941   3.872
 8438SOL     OW26212   2.070   4.284   2.866
 8438SOL    HW126213   2.020   4.320   2.945
 8438SOL    HW226214   2.164   4.318   2.869
 8439SOL     OW26215   6.054   4.886   2.683
 8439SOL    HW126216   5.963   4.912   2.716
 8439SOL    HW226217   6.114   4.867   2.761
 8440SOL     OW26218   2.188   1.447   3.814
 8440SOL    HW126219   2.138   1.385   3.873
 8440SOL    HW226220   2.180   1.541   3.849
 8441SOL     OW26221   5.181   6.997   0.302
 8441SOL    HW126222   5.158   6.978   0.398
 8441SOL    HW226223   5.257   6.939   0.274
 8442SOL     OW26224   3.494   2.459   5.423
 8442SOL    HW126225   3.489   2.364   5.392
 8442SOL    HW226226   3.589   2.488   5.426
 8443SOL     OW26227   2.424   4.363   3.865
 8443SOL    HW126228   2.403   4.460   3.854
 8443SOL    HW226229   2.487   4.334   3.793
 8444SOL     OW26230   3.484   6.483   4.549
 8444SOL    HW126231   3.396   6.512   4.587
 8444SOL    HW226232   3.468   6.426   4.469
 8445SOL     OW26233   2.740   0.302   1.469
 8445SOL    HW126234   2.838   0.279   1.470
 8445SOL    HW226235   2.720   0.365   1.544
 8446SOL     OW26236   5.713   5.797   6.145
 8446SOL    HW126237   5.768   5.735   6.202
 8446SOL    HW226238   5.701   5.883   6.193
 8447SOL     OW26239   4.576   1.743   2.462
 8447SOL    HW126240   4.562   1.747   2.363
 8447SOL    HW226241   4.672   1.761   2.483
 8448SOL     OW26242   4.393   6.122   4.371
 8448SOL    HW126243   4.397   6.171   4.284
 8448SOL    HW226244   4.301   6.125   4.408
 8449SOL     OW26245   6.865   3.551   3.690
 8449SOL    HW126246   6.909   3.462   3.673
 8449SOL    HW226247   6.814   3.579   3.609
 8450SOL     OW26248   0.666   0.140   1.499
 8450SOL    HW126249   0.735   0.176   1.561
 8450SOL    HW226250   0.630   0.214   1.443
 8451SOL     OW26251   3.495   1.697   0.466
 8451SOL    HW126252   3.501   1.620   0.530
 8451SOL    HW226253   3.451   1.774   0.511
 8452SOL     OW26254   6.065   2.287   3.666
 8452SOL    HW126255   6.019   2.220   3.725
 8452SOL    HW226256   6.159   2.256   3.648
 8453SOL     OW26257   0.335   4.865   0.156
 8453SOL    HW126258   0.246   4.901   0.126
 8453SOL    HW226259   0.361   4.788   0.097
 8454SOL     OW26260   6.925   6.061   1.484
 8454SOL    HW126261   6.904   6.063   1.582
 8454SOL    HW226262   7.017   6.025   1.471
 8455SOL     OW26263   0.153   1.688   1.689
 8455SOL    HW126264   0.183   1.595   1.712
 8455SOL    HW226265   0.197   1.753   1.751
 8456SOL     OW26266   3.901   6.112   3.315
 8456SOL    HW126267   3.877   6.174   3.240
 8456SOL    HW226268   3.962   6.158   3.378
 8457SOL     OW26269   0.445   0.244   4.320
 8457SOL    HW126270   0.471   0.224   4.226
 8457SOL    HW226271   0.394   0.166   4.358
 8458SOL     OW26272   2.901   0.617   0.519
 8458SOL    HW126273   2.806   0.638   0.499
 8458SOL    HW226274   2.946   0.698   0.557
 8459SOL     OW26275   2.904   5.682   2.053
 8459SOL    HW126276   2.890   5.629   2.137
 8459SOL    HW226277   2.932   5.775   2.077
 8460SOL     OW26278   4.393   4.461   5.393
 8460SOL    HW126279   4.348   4.474   5.305
 8460SOL    HW226280   4.406   4.364   5.410
 8461SOL     OW26281   0.597   3.840   5.045
 8461SOL    HW126282   0.504   3.863   5.015
 8461SOL    HW226283   0.651   3.923   5.053
 8462SOL     OW26284   2.051   2.578   6.632
 8462SOL    HW126285   1.981   2.538   6.692
 8462SOL    HW226286   2.130   2.606   6.687
 8463SOL     OW26287   0.179   6.906   1.394
 8463SOL    HW126288   0.097   6.850   1.383
 8463SOL    HW226289   0.238   6.895   1.314
 8464SOL     OW26290   5.810   4.419   4.282
 8464SOL    HW126291   5.714   4.411   4.311
 8464SOL    HW226292   5.845   4.509   4.310
 8465SOL     OW26293   0.705   3.359   0.716
 8465SOL    HW126294   0.804   3.352   0.722
 8465SOL    HW226295   0.669   3.283   0.661
 8466SOL     OW26296   0.622   0.290   4.088
 8466SOL    HW126297   0.652   0.381   4.117
 8466SOL    HW226298   0.679   0.221   4.133
 8467SOL     OW26299   3.350   6.555   0.521
 8467SOL    HW126300   3.445   6.579   0.499
 8467SOL    HW226301   3.333   6.460   0.494
 8468SOL     OW26302   3.798   1.831   0.251
 8468SOL    HW126303   3.699   1.834   0.265
 8468SOL    HW226304   3.825   1.739   0.222
 8469SOL     OW26305   3.773   2.011   6.650
 8469SOL    HW126306   3.695   2.073   6.638
 8469SOL    HW226307   3.833   2.017   6.570
 8470SOL     OW26308   1.180   3.443   0.311
 8470SOL    HW126309   1.164   3.435   0.213
 8470SOL    HW226310   1.271   3.410   0.334
 8471SOL     OW26311   3.145   1.454   3.278
 8471SOL    HW126312   3.121   1.448   3.181
 8471SOL    HW226313   3.174   1.364   3.310
 8472SOL     OW26314   0.422   0.533   4.736
 8472SOL    HW126315   0.465   0.598   4.797
 8472SOL    HW226316   0.322   0.541   4.743
 8473SOL     OW26317   6.041   4.848   6.477
 8473SOL    HW126318   6.111   4.803   6.422
 8473SOL    HW226319   6.039   4.945   6.456
 8474SOL     OW26320   3.279   2.999   2.415
 8474SOL    HW126321   3.259   2.966   2.323
 8474SOL    HW226322   3.230   3.085   2.431
 8475SOL     OW26323   0.339   2.031   3.108
 8475SOL    HW126324   0.422   2.083   3.086
 8475SOL    HW226325   0.317   1.971   3.032
 8476SOL     OW26326   6.363   1.093   1.268
 8476SOL    HW126327   6.321   1.085   1.358
 8476SOL    HW226328   6.311   1.040   1.202
 8477SOL     OW26329   4.229   6.419   2.199
 8477SOL    HW126330   4.174   6.496   2.232
 8477SOL    HW226331   4.298   6.395   2.268
 8478SOL     OW26332   1.308   0.879   6.094
 8478SOL    HW126333   1.385   0.935   6.127
 8478SOL    HW226334   1.301   0.796   6.150
 8479SOL     OW26335   6.273   2.555   0.948
 8479SOL    HW126336   6.245   2.530   1.040
 8479SOL    HW226337   6.302   2.473   0.898
 8480SOL     OW26338   3.700   1.197   0.130
 8480SOL    HW126339   3.609   1.237   0.142
 8480SOL    HW226340   3.769   1.267   0.146
 8481SOL     OW26341   4.695   2.126   3.791
 8481SOL    HW126342   4.673   2.174   3.875
 8481SOL    HW226343   4.658   2.176   3.713
 8482SOL     OW26344   4.114   6.727   3.019
 8482SOL    HW126345   4.151   6.820   3.011
 8482SOL    HW226346   4.046   6.725   3.092
 8483SOL     OW26347   3.842   5.703   2.501
 8483SOL    HW126348   3.841   5.773   2.429
 8483SOL    HW226349   3.804   5.742   2.585
 8484SOL     OW26350   0.603   5.591   3.078
 8484SOL    HW126351   0.600   5.495   3.052
 8484SOL    HW226352   0.512   5.620   3.108
 8485SOL     OW26353   3.108   3.558   0.028
 8485SOL    HW126354   3.195   3.596   7.020
 8485SOL    HW226355   3.105   3.560   0.128
 8486SOL     OW26356   4.892   1.174   2.700
 8486SOL    HW126357   4.955   1.252   2.698
 8486SOL    HW226358   4.944   1.090   2.719
 8487SOL     OW26359   5.845   0.626   6.687
 8487SOL    HW126360   5.931   0.644   6.639
 8487SOL    HW226361   5.771   0.616   6.621
 8488SOL     OW26362   5.869   4.486   5.114
 8488SOL    HW126363   5.887   4.581   5.139
 8488SOL    HW226364   5.930   4.458   5.040
 8489SOL     OW26365   6.246   0.921   1.083
 8489SOL    HW126366   6.284   0.874   1.003
 8489SOL    HW226367   6.185   0.859   1.132
 8490SOL     OW26368   4.068   6.967   4.472
 8490SOL    HW126369   4.020   0.027   4.442
 8490SOL    HW226370   4.139   6.991   4.538
 8491SOL     OW26371   1.931   0.118   1.053
 8491SOL    HW126372   1.995   0.195   1.065
 8491SOL    HW226373   1.845   0.140   1.099
 8492SOL     OW26374   3.997   4.039   6.977
 8492SOL    HW126375   4.074   4.055   6.914
 8492SOL    HW226376   4.032   4.029   0.047
 8493SOL     OW26377   2.680   1.855   6.295
 8493SOL    HW126378   2.761   1.912   6.309
 8493SOL    HW226379   2.693   1.767   6.341
 8494SOL     OW26380   2.819   4.820   0.532
 8494SOL    HW126381   2.831   4.748   0.600
 8494SOL    HW226382   2.850   4.907   0.569
 8495SOL     OW26383   6.392   4.046   0.823
 8495SOL    HW126384   6.394   4.041   0.923
 8495SOL    HW226385   6.483   4.069   0.789
 8496SOL     OW26386   0.650   2.314   1.652
 8496SOL    HW126387   0.640   2.329   1.554
 8496SOL    HW226388   0.726   2.252   1.670
 8497SOL     OW26389   6.460   0.839   3.871
 8497SOL    HW126390   6.413   0.807   3.953
 8497SOL    HW226391   6.486   0.935   3.882
 8498SOL     OW26392   0.283   6.048   2.794
 8498SOL    HW126393   0.291   6.068   2.696
 8498SOL    HW226394   0.230   6.120   2.838
 8499SOL     OW26395   2.567   5.312   6.995
 8499SOL    HW126396   2.479   5.321   6.947
 8499SOL    HW226397   2.560   5.241   0.041
 8500SOL     OW26398   2.527   0.320   5.357
 8500SOL    HW126399   2.481   0.263   5.288
 8500SOL    HW226400   2.500   0.291   5.448
 8501SOL     OW26401   0.597   3.000   0.361
 8501SOL    HW126402   0.656   3.060   0.307
 8501SOL    HW226403   0.624   2.905   0.345
 8502SOL     OW26404   1.396   4.918   1.297
 8502SOL    HW126405   1.473   4.862   1.265
 8502SOL    HW226406   1.430   4.994   1.351
 8503SOL     OW26407   1.382   6.396   3.442
 8503SOL    HW126408   1.328   6.401   3.358
 8503SOL    HW226409   1.321   6.395   3.521
 8504SOL     OW26410   2.390   5.589   3.271
 8504SOL    HW126411   2.342   5.579   3.359
 8504SOL    HW226412   2.356   5.521   3.207
 8505SOL     OW26413   5.026   3.880   3.697
 8505SOL    HW126414   5.016   3.942   3.775
 8505SOL    HW226415   4.979   3.794   3.717
 8506SOL     OW26416   6.526   0.691   0.110
 8506SOL    HW126417   6.538   0.728   0.017
 8506SOL    HW226418   6.616   0.669   0.149
 8507SOL     OW26419   3.364   1.138   5.481
 8507SOL    HW126420   3.298   1.165   5.551
 8507SOL    HW226421   3.332   1.056   5.434
 8508SOL     OW26422   6.816   2.500   5.160
 8508SOL    HW126423   6.889   2.470   5.222
 8508SOL    HW226424   6.733   2.447   5.178
 8509SOL     OW26425   4.808   2.023   3.411
 8509SOL    HW126426   4.731   2.086   3.419
 8509SOL    HW226427   4.774   1.930   3.397
 8510SOL     OW26428   5.151   4.200   3.123
 8510SOL    HW126429   5.209   4.127   3.160
 8510SOL    HW226430   5.196   4.241   3.044
 8511SOL     OW26431   5.839   3.855   2.021
 8511SOL    HW126432   5.762   3.879   1.962
 8511SOL    HW226433   5.900   3.793   1.972
 8512SOL     OW26434   3.064   2.273   0.949
 8512SOL    HW126435   3.053   2.236   0.857
 8512SOL    HW226436   3.005   2.223   1.013
 8513SOL     OW26437   4.859   4.009   1.777
 8513SOL    HW126438   4.851   3.988   1.874
 8513SOL    HW226439   4.898   3.931   1.729
 8514SOL     OW26440   3.030   2.063   4.090
 8514SOL    HW126441   3.015   1.976   4.043
 8514SOL    HW226442   3.114   2.057   4.144
 8515SOL     OW26443   6.002   1.501   6.684
 8515SOL    HW126444   5.967   1.594   6.681
 8515SOL    HW226445   5.926   1.437   6.691
 8516SOL     OW26446   6.830   1.291   1.259
 8516SOL    HW126447   6.760   1.308   1.328
 8516SOL    HW226448   6.787   1.284   1.169
 8517SOL     OW26449   1.830   3.318   6.437
 8517SOL    HW126450   1.769   3.270   6.499
 8517SOL    HW226451   1.925   3.290   6.456
 8518SOL     OW26452   5.003   4.398   6.428
 8518SOL    HW126453   4.947   4.375   6.349
 8518SOL    HW226454   5.094   4.428   6.397
 8519SOL     OW26455   1.670   4.671   1.567
 8519SOL    HW126456   1.622   4.661   1.480
 8519SOL    HW226457   1.704   4.581   1.596
 8520SOL     OW26458   3.359   3.648   7.022
 8520SOL    HW126459   3.389   3.743   7.021
 8520SOL    HW226460   3.425   3.593   0.051
 8521SOL     OW26461   2.230   4.801   5.661
 8521SOL    HW126462   2.135   4.813   5.691
 8521SOL    HW226463   2.284   4.764   5.737
 8522SOL     OW26464   1.478   6.114   1.402
 8522SOL    HW126465   1.510   6.095   1.495
 8522SOL    HW226466   1.502   6.208   1.378
 8523SOL     OW26467   2.079   6.389   6.878
 8523SOL    HW126468   2.162   6.387   6.934
 8523SOL    HW226469   2.093   6.332   6.797
 8524SOL     OW26470   0.449   2.400   5.352
 8524SOL    HW126471   0.393   2.318   5.342
 8524SOL    HW226472   0.447   2.430   5.447
 8525SOL     OW26473   6.245   3.959   1.725
 8525SOL    HW126474   6.285   3.972   1.816
 8525SOL    HW226475   6.151   3.992   1.726
 8526SOL     OW26476   4.201   6.419   6.965
 8526SOL    HW126477   4.279   6.423   6.903
 8526SOL    HW226478   4.145   6.340   6.943
 8527SOL     OW26479   2.901   1.121   6.539
 8527SOL    HW126480   2.896   1.209   6.587
 8527SOL    HW226481   2.955   1.131   6.456
 8528SOL     OW26482   3.968   0.722   6.913
 8528SOL    HW126483   3.870   0.733   6.929
 8528SOL    HW226484   3.985   0.633   6.871
 8529SOL     OW26485   1.118   6.984   0.943
 8529SOL    HW126486   1.209   7.021   0.926
 8529SOL    HW226487   1.115   6.944   1.035
 8530SOL     OW26488   3.954   4.186   5.867
 8530SOL    HW126489   3.870   4.135   5.885
 8530SOL    HW226490   3.932   4.284   5.864
 8531SOL     OW26491   6.447   4.955   2.226
 8531SOL    HW126492   6.397   4.934   2.142
 8531SOL    HW226493   6.391   5.013   2.285
 8532SOL     OW26494   4.227   5.060   4.658
 8532SOL    HW126495   4.155   5.097   4.716
 8532SOL    HW226496   4.290   5.134   4.633
 8533SOL     OW26497   1.685   6.472   0.490
 8533SOL    HW126498   1.610   6.445   0.551
 8533SOL    HW226499   1.772   6.460   0.537
 8534SOL     OW26500   6.159   2.554   4.343
 8534SOL    HW126501   6.182   2.641   4.300
 8534SOL    HW226502   6.171   2.561   4.442
 8535SOL     OW26503   6.247   1.173   3.499
 8535SOL    HW126504   6.166   1.156   3.443
 8535SOL    HW226505   6.305   1.092   3.500
 8536SOL     OW26506   7.022   2.255   4.448
 8536SOL    HW126507   7.018   2.324   4.520
 8536SOL    HW226508   0.022   2.299   4.361
 8537SOL     OW26509   5.669   0.546   3.055
 8537SOL    HW126510   5.740   0.555   2.985
 8537SOL    HW226511   5.654   0.635   3.098
 8538SOL     OW26512   1.018   0.998   0.425
 8538SOL    HW126513   0.925   1.020   0.395
 8538SOL    HW226514   1.048   0.914   0.381
 8539SOL     OW26515   6.119   0.930   2.918
 8539SOL    HW126516   6.038   0.973   2.957
 8539SOL    HW226517   6.140   0.847   2.968
 8540SOL     OW26518   5.203   0.665   6.177
 8540SOL    HW126519   5.181   0.734   6.246
 8540SOL    HW226520   5.153   0.686   6.093
 8541SOL     OW26521   2.912   1.636   4.102
 8541SOL    HW126522   2.867   1.712   4.150
 8541SOL    HW226523   2.952   1.670   4.017
 8542SOL     OW26524   3.983   4.771   6.426
 8542SOL    HW126525   4.060   4.745   6.484
 8542SOL    HW226526   4.017   4.799   6.336
 8543SOL     OW26527   2.563   1.701   1.269
 8543SOL    HW126528   2.595   1.620   1.219
 8543SOL    HW226529   2.473   1.682   1.309
 8544SOL     OW26530   5.608   3.187   4.017
 8544SOL    HW126531   5.581   3.205   3.922
 8544SOL    HW226532   5.694   3.235   4.036
 8545SOL     OW26533   4.607   0.010   4.743
 8545SOL    HW126534   4.569   6.975   4.815
 8545SOL    HW226535   4.662   0.082   4.784
 8546SOL     OW26536   6.054   1.709   4.220
 8546SOL    HW126537   5.966   1.695   4.176
 8546SOL    HW226538   6.115   1.760   4.160
 8547SOL     OW26539   1.456   6.615   6.204
 8547SOL    HW126540   1.456   6.646   6.109
 8547SOL    HW226541   1.420   6.687   6.263
 8548SOL     OW26542   5.984   2.272   5.905
 8548SOL    HW126543   6.076   2.312   5.905
 8548SOL    HW226544   5.925   2.326   5.966
 8549SOL     OW26545   1.163   2.906   3.969
 8549SOL    HW126546   1.195   2.832   3.910
 8549SOL    HW226547   1.066   2.924   3.953
 8550SOL     OW26548   1.848   4.531   0.142
 8550SOL    HW126549   1.870   4.627   0.163
 8550SOL    HW226550   1.786   4.495   0.210
 8551SOL     OW26551   3.613   3.861   6.250
 8551SOL    HW126552   3.589   3.764   6.244
 8551SOL    HW226553   3.533   3.914   6.277
 8552SOL     OW26554   2.277   0.234   3.707
 8552SOL    HW126555   2.324   0.146   3.710
 8552SOL    HW226556   2.253   0.256   3.613
 8553SOL     OW26557   4.705   4.666   6.244
 8553SOL    HW126558   4.766   4.725   6.296
 8553SOL    HW226559   4.759   4.604   6.186
 8554SOL     OW26560   0.731   4.913   0.212
 8554SOL    HW126561   0.817   4.885   0.168
 8554SOL    HW226562   0.715   4.855   0.291
 8555SOL     OW26563   1.651   0.573   2.124
 8555SOL    HW126564   1.736   0.556   2.075
 8555SOL    HW226565   1.659   0.657   2.178
 8556SOL     OW26566   1.154   6.732   5.035
 8556SOL    HW126567   1.209   6.653   5.008
 8556SOL    HW226568   1.113   6.774   4.954
 8557SOL     OW26569   5.782   0.252   2.698
 8557SOL    HW126570   5.687   0.281   2.689
 8557SOL    HW226571   5.828   0.260   2.609
 8558SOL     OW26572   2.849   5.476   3.588
 8558SOL    HW126573   2.799   5.546   3.638
 8558SOL    HW226574   2.786   5.428   3.526
 8559SOL     OW26575   6.643   0.515   2.237
 8559SOL    HW126576   6.634   0.434   2.295
 8559SOL    HW226577   6.703   0.495   2.160
 8560SOL     OW26578   0.046   6.032   2.205
 8560SOL    HW126579   0.104   5.983   2.271
 8560SOL    HW226580   6.999   6.084   2.254
 8561SOL     OW26581   3.287   0.707   2.023
 8561SOL    HW126582   3.235   0.635   2.068
 8561SOL    HW226583   3.332   0.670   1.941
 8562SOL     OW26584   3.785   6.136   5.255
 8562SOL    HW126585   3.815   6.227   5.285
 8562SOL    HW226586   3.841   6.108   5.177
 8563SOL     OW26587   2.822   4.513   0.278
 8563SOL    HW126588   2.875   4.534   0.360
 8563SOL    HW226589   2.731   4.479   0.304
 8564SOL     OW26590   3.342   1.027   4.152
 8564SOL    HW126591   3.385   1.117   4.146
 8564SOL    HW226592   3.407   0.957   4.123
 8565SOL     OW26593   4.280   5.660   1.121
 8565SOL    HW126594   4.292   5.748   1.076
 8565SOL    HW226595   4.184   5.649   1.148
 8566SOL     OW26596   1.193   0.690   1.305
 8566SOL    HW126597   1.187   0.666   1.401
 8566SOL    HW226598   1.128   0.764   1.285
 8567SOL     OW26599   6.884   1.721   2.627
 8567SOL    HW126600   6.845   1.737   2.718
 8567SOL    HW226601   6.815   1.743   2.557
 8568SOL     OW26602   5.543   1.175   6.166
 8568SOL    HW126603   5.505   1.266   6.183
 8568SOL    HW226604   5.490   1.129   6.095
 8569SOL     OW26605   5.042   1.665   5.791
 8569SOL    HW126606   4.981   1.607   5.844
 8569SOL    HW226607   5.136   1.634   5.801
 8570SOL     OW26608   0.833   2.675   5.357
 8570SOL    HW126609   0.770   2.611   5.402
 8570SOL    HW226610   0.907   2.698   5.421
 8571SOL     OW26611   1.399   5.022   5.534
 8571SOL    HW126612   1.322   5.082   5.554
 8571SOL    HW226613   1.467   5.028   5.607
 8572SOL     OW26614   3.402   5.272   6.583
 8572SOL    HW126615   3.483   5.287   6.527
 8572SOL    HW226616   3.352   5.358   6.594
 8573SOL     OW26617   3.254   6.372   5.946
 8573SOL    HW126618   3.198   6.294   5.919
 8573SOL    HW226619   3.253   6.440   5.873
 8574SOL     OW26620   6.888   5.752   5.623
 8574SOL    HW126621   6.870   5.675   5.562
 8574SOL    HW226622   6.869   5.837   5.574
 8575SOL     OW26623   2.968   2.460   5.629
 8575SOL    HW126624   2.900   2.386   5.627
 8575SOL    HW226625   2.980   2.496   5.536
 8576SOL     OW26626   1.868   5.659   0.051
 8576SOL    HW126627   1.954   5.709   0.045
 8576SOL    HW226628   1.842   5.629   6.982
 8577SOL     OW26629   0.541   6.226   4.384
 8577SOL    HW126630   0.619   6.289   4.392
 8577SOL    HW226631   0.544   6.161   4.459
 8578SOL     OW26632   5.600   0.889   4.638
 8578SOL    HW126633   5.524   0.826   4.658
 8578SOL    HW226634   5.605   0.903   4.539
 8579SOL     OW26635   1.167   0.181   2.888
 8579SOL    HW126636   1.209   0.272   2.885
 8579SOL    HW226637   1.168   0.146   2.982
 8580SOL     OW26638   2.480   6.607   2.659
 8580SOL    HW126639   2.534   6.644   2.734
 8580SOL    HW226640   2.498   6.660   2.576
 8581SOL     OW26641   3.283   3.294   1.976
 8581SOL    HW126642   3.231   3.359   2.032
 8581SOL    HW226643   3.279   3.203   2.018
 8582SOL     OW26644   4.142   4.718   2.774
 8582SOL    HW126645   4.046   4.746   2.764
 8582SOL    HW226646   4.191   4.787   2.827
 8583SOL     OW26647   5.700   0.292   5.070
 8583SOL    HW126648   5.738   0.332   5.154
 8583SOL    HW226649   5.665   0.201   5.090
 8584SOL     OW26650   0.567   3.708   5.830
 8584SOL    HW126651   0.542   3.700   5.926
 8584SOL    HW226652   0.485   3.729   5.776
 8585SOL     OW26653   1.026   6.209   5.990
 8585SOL    HW126654   0.945   6.263   5.967
 8585SOL    HW226655   1.023   6.122   5.941
 8586SOL     OW26656   3.226   0.295   3.482
 8586SOL    HW126657   3.126   0.298   3.481
 8586SOL    HW226658   3.256   0.220   3.540
 8587SOL     OW26659   1.885   0.080   2.950
 8587SOL    HW126660   1.964   0.026   2.921
 8587SOL    HW226661   1.820   0.021   2.999
 8588SOL     OW26662   2.684   0.434   0.252
 8588SOL    HW126663   2.657   0.339   0.268
 8588SOL    HW226664   2.690   0.481   0.340
 8589SOL     OW26665   5.196   2.622   5.029
 8589SOL    HW126666   5.253   2.686   4.977
 8589SOL    HW226667   5.182   2.538   4.975
 8590SOL     OW26668   6.598   6.732   4.029
 8590SOL    HW126669   6.591   6.689   4.120
 8590SOL    HW226670   6.511   6.719   3.980
 8591SOL     OW26671   0.642   4.412   6.138
 8591SOL    HW126672   0.699   4.471   6.080
 8591SOL    HW226673   0.674   4.419   6.233
 8592SOL     OW26674   0.470   3.026   6.856
 8592SOL    HW126675   0.565   2.996   6.866
 8592SOL    HW226676   0.427   3.031   6.945
 8593SOL     OW26677   2.035   0.490   2.110
 8593SOL    HW126678   2.015   0.398   2.142
 8593SOL    HW226679   2.061   0.548   2.188
 8594SOL     OW26680   3.433   2.967   5.246
 8594SOL    HW126681   3.358   2.985   5.182
 8594SOL    HW226682   3.441   3.044   5.309
 8595SOL     OW26683   1.797   2.355   2.931
 8595SOL    HW126684   1.810   2.296   3.011
 8595SOL    HW226685   1.885   2.394   2.905
 8596SOL     OW26686   6.266   5.295   3.548
 8596SOL    HW126687   6.212   5.377   3.567
 8596SOL    HW226688   6.339   5.286   3.617
 8597SOL     OW26689   4.566   1.095   0.933
 8597SOL    HW126690   4.562   1.148   1.018
 8597SOL    HW226691   4.492   1.027   0.933
 8598SOL     OW26692   6.801   5.904   1.058
 8598SOL    HW126693   6.772   5.907   0.962
 8598SOL    HW226694   6.869   5.976   1.075
 8599SOL     OW26695   1.180   2.459   3.863
 8599SOL    HW126696   1.088   2.477   3.899
 8599SOL    HW226697   1.247   2.507   3.919
 8600SOL     OW26698   5.454   5.029   5.642
 8600SOL    HW126699   5.533   4.978   5.608
 8600SOL    HW226700   5.370   4.995   5.599
 8601SOL     OW26701   0.810   0.579   4.984
 8601SOL    HW126702   0.727   0.531   4.958
 8601SOL    HW226703   0.840   0.547   5.074
 8602SOL     OW26704   3.352   5.718   3.547
 8602SOL    HW126705   3.370   5.801   3.599
 8602SOL    HW226706   3.262   5.723   3.505
 8603SOL     OW26707   4.198   5.450   0.689
 8603SOL    HW126708   4.110   5.426   0.648
 8603SOL    HW226709   4.250   5.366   0.707
 8604SOL     OW26710   0.719   3.371   3.918
 8604SOL    HW126711   0.643   3.339   3.974
 8604SOL    HW226712   0.782   3.424   3.974
 8605SOL     OW26713   3.124   5.098   4.264
 8605SOL    HW126714   3.024   5.091   4.271
 8605SOL    HW226715   3.167   5.036   4.329
 8606SOL     OW26716   1.474   3.998   6.333
 8606SOL    HW126717   1.486   3.915   6.388
 8606SOL    HW226718   1.516   3.985   6.243
 8607SOL     OW26719   3.542   5.861   0.575
 8607SOL    HW126720   3.603   5.830   0.649
 8607SOL    HW226721   3.563   5.812   0.491
 8608SOL     OW26722   4.587   4.812   3.142
 8608SOL    HW126723   4.511   4.752   3.168
 8608SOL    HW226724   4.645   4.828   3.221
 8609SOL     OW26725   5.397   1.129   3.173
 8609SOL    HW126726   5.492   1.117   3.199
 8609SOL    HW226727   5.390   1.142   3.074
 8610SOL     OW26728   1.557   1.665   2.456
 8610SOL    HW126729   1.486   1.685   2.523
 8610SOL    HW226730   1.613   1.588   2.488
 8611SOL     OW26731   2.043   2.083   3.979
 8611SOL    HW126732   1.952   2.051   3.951
 8611SOL    HW226733   2.035   2.165   4.034
 8612SOL     OW26734   3.525   3.202   0.590
 8612SOL    HW126735   3.548   3.196   0.493
 8612SOL    HW226736   3.534   3.111   0.632
 8613SOL     OW26737   2.285   2.182   1.439
 8613SOL    HW126738   2.351   2.220   1.505
 8613SOL    HW226739   2.322   2.191   1.347
 8614SOL     OW26740   0.880   3.490   2.920
 8614SOL    HW126741   0.804   3.529   2.973
 8614SOL    HW226742   0.854   3.400   2.885
 8615SOL     OW26743   4.968   1.536   5.429
 8615SOL    HW126744   4.966   1.583   5.517
 8615SOL    HW226745   4.957   1.603   5.355
 8616SOL     OW26746   2.530   5.154   1.410
 8616SOL    HW126747   2.490   5.168   1.501
 8616SOL    HW226748   2.615   5.208   1.402
 8617SOL     OW26749   6.848   1.016   6.651
 8617SOL    HW126750   6.917   1.046   6.586
 8617SOL    HW226751   6.788   1.093   6.674
 8618SOL     OW26752   5.978   6.475   1.172
 8618SOL    HW126753   5.893   6.470   1.119
 8618SOL    HW226754   5.990   6.391   1.225
 8619SOL     OW26755   3.717   5.008   2.004
 8619SOL    HW126756   3.763   5.045   1.924
 8619SOL    HW226757   3.682   4.916   1.983
 8620SOL     OW26758   0.853   0.075   3.559
 8620SOL    HW126759   0.880   0.008   3.628
 8620SOL    HW226760   0.776   0.128   3.594
 8621SOL     OW26761   6.213   1.345   3.161
 8621SOL    HW126762   6.144   1.405   3.120
 8621SOL    HW226763   6.280   1.319   3.091
 8622SOL     OW26764   4.874   3.358   0.315
 8622SOL    HW126765   4.903   3.376   0.409
 8622SOL    HW226766   4.935   3.406   0.251
 8623SOL     OW26767   0.903   4.109   3.375
 8623SOL    HW126768   0.946   4.148   3.294
 8623SOL    HW226769   0.879   4.014   3.357
 8624SOL     OW26770   1.281   3.751   4.314
 8624SOL    HW126771   1.313   3.664   4.277
 8624SOL    HW226772   1.335   3.776   4.394
 8625SOL     OW26773   4.938   6.758   4.617
 8625SOL    HW126774   4.864   6.810   4.576
 8625SOL    HW226775   4.931   6.762   4.716
 8626SOL     OW26776   3.781   3.099   5.044
 8626SOL    HW126777   3.725   3.017   5.044
 8626SOL    HW226778   3.843   3.097   4.965
 8627SOL     OW26779   0.297   1.068   3.513
 8627SOL    HW126780   0.275   1.165   3.519
 8627SOL    HW226781   0.238   1.025   3.445
 8628SOL     OW26782   5.910   0.114   1.245
 8628SOL    HW126783   6.005   0.121   1.215
 8628SOL    HW226784   5.906   0.116   1.344
 8629SOL     OW26785   1.494   4.951   5.297
 8629SOL    HW126786   1.465   4.976   5.390
 8629SOL    HW226787   1.437   5.000   5.231
 8630SOL     OW26788   5.606   4.485   3.913
 8630SOL    HW126789   5.509   4.506   3.922
 8630SOL    HW226790   5.621   4.388   3.929
 8631SOL     OW26791   2.942   6.107   6.315
 8631SOL    HW126792   2.893   6.030   6.356
 8631SOL    HW226793   2.966   6.085   6.220
 8632SOL     OW26794   3.120   6.830   3.723
 8632SOL    HW126795   3.086   6.737   3.738
 8632SOL    HW226796   3.132   6.875   3.812
 8633SOL     OW26797   6.028   1.770   4.506
 8633SOL    HW126798   6.123   1.750   4.530
 8633SOL    HW226799   6.021   1.785   4.407
 8634SOL     OW26800   5.362   3.268   0.584
 8634SOL    HW126801   5.321   3.185   0.620
 8634SOL    HW226802   5.456   3.250   0.557
 8635SOL     OW26803   6.104   4.267   6.202
 8635SOL    HW126804   6.028   4.329   6.220
 8635SOL    HW226805   6.129   4.272   6.105
 8636SOL     OW26806   5.193   5.939   0.647
 8636SOL    HW126807   5.170   5.964   0.741
 8636SOL    HW226808   5.248   5.855   0.648
 8637SOL     OW26809   1.905   1.225   7.016
 8637SOL    HW126810   1.948   1.261   6.934
 8637SOL    HW226811   1.892   1.299   0.059
 8638SOL     OW26812   3.217   2.915   6.928
 8638SOL    HW126813   3.161   2.981   6.879
 8638SOL    HW226814   3.274   2.962   6.995
 8639SOL     OW26815   5.704   1.904   1.696
 8639SOL    HW126816   5.696   1.842   1.617
 8639SOL    HW226817   5.766   1.979   1.673
 8640SOL     OW26818   4.424   3.920   0.700
 8640SOL    HW126819   4.411   3.823   0.678
 8640SOL    HW226820   4.366   3.976   0.641
 8641SOL     OW26821   5.879   5.202   4.111
 8641SOL    HW126822   5.944   5.189   4.036
 8641SOL    HW226823   5.878   5.298   4.139
 8642SOL     OW26824   3.386   1.204   2.999
 8642SOL    HW126825   3.325   1.241   2.929
 8642SOL    HW226826   3.472   1.256   2.999
 8643SOL     OW26827   3.573   0.655   6.486
 8643SOL    HW126828   3.474   0.642   6.493
 8643SOL    HW226829   3.613   0.657   6.578
 8644SOL     OW26830   4.609   2.483   5.739
 8644SOL    HW126831   4.617   2.443   5.648
 8644SOL    HW226832   4.699   2.480   5.784
 8645SOL     OW26833   4.581   4.311   0.972
 8645SOL    HW126834   4.609   4.368   1.050
 8645SOL    HW226835   4.661   4.282   0.921
 8646SOL     OW26836   6.271   1.317   1.790
 8646SOL    HW126837   6.296   1.242   1.850
 8646SOL    HW226838   6.346   1.336   1.727
 8647SOL     OW26839   2.587   5.551   5.865
 8647SOL    HW126840   2.638   5.525   5.948
 8647SOL    HW226841   2.502   5.499   5.861
 8648SOL     OW26842   6.315   0.681   3.685
 8648SOL    HW126843   6.379   0.725   3.749
 8648SOL    HW226844   6.345   0.697   3.591
 8649SOL     OW26845   5.314   4.458   6.883
 8649SOL    HW126846   5.248   4.471   6.808
 8649SOL    HW226847   5.382   4.390   6.857
 8650SOL     OW26848   2.137   4.209   6.190
 8650SOL    HW126849   2.088   4.290   6.220
 8650SOL    HW226850   2.108   4.185   6.097
 8651SOL     OW26851   3.344   1.048   0.918
 8651SOL    HW126852   3.398   1.042   0.834
 8651SOL    HW226853   3.249   1.070   0.895
 8652SOL     OW26854   1.711   3.892   3.832
 8652SOL    HW126855   1.702   3.972   3.774
 8652SOL    HW226856   1.624   3.843   3.835
 8653SOL     OW26857   5.599   1.175   6.813
 8653SOL    HW126858   5.570   1.080   6.804
 8653SOL    HW226859   5.678   1.192   6.755
 8654SOL     OW26860   1.153   5.052   1.398
 8654SOL    HW126861   1.205   5.056   1.483
 8654SOL    HW226862   1.202   4.997   1.330
 8655SOL     OW26863   6.145   1.573   3.861
 8655SOL    HW126864   6.102   1.594   3.949
 8655SOL    HW226865   6.097   1.497   3.818
 8656SOL     OW26866   6.396   0.774   0.360
 8656SOL    HW126867   6.443   0.859   0.385
 8656SOL    HW226868   6.423   0.747   0.267
 8657SOL     OW26869   5.131   4.738   0.482
 8657SOL    HW126870   5.194   4.745   0.405
 8657SOL    HW226871   5.178   4.762   0.566
 8658SOL     OW26872   4.172   6.658   0.060
 8658SOL    HW126873   4.259   6.698   0.033
 8658SOL    HW226874   4.162   6.567   0.018
 8659SOL     OW26875   4.355   1.805   3.165
 8659SOL    HW126876   4.318   1.766   3.250
 8659SOL    HW226877   4.338   1.742   3.089
 8660SOL     OW26878   5.787   3.686   0.804
 8660SOL    HW126879   5.733   3.608   0.772
 8660SOL    HW226880   5.812   3.743   0.726
 8661SOL     OW26881   5.743   3.923   1.157
 8661SOL    HW126882   5.741   3.970   1.068
 8661SOL    HW226883   5.817   3.856   1.157
 8662SOL     OW26884   4.692   5.869   1.006
 8662SOL    HW126885   4.727   5.787   1.051
 8662SOL    HW226886   4.716   5.950   1.060
 8663SOL     OW26887   2.863   5.728   1.227
 8663SOL    HW126888   2.915   5.814   1.224
 8663SOL    HW226889   2.923   5.652   1.204
 8664SOL     OW26890   3.023   6.572   1.240
 8664SOL    HW126891   3.060   6.639   1.176
 8664SOL    HW226892   3.070   6.485   1.226
 8665SOL     OW26893   5.407   5.975   4.987
 8665SOL    HW126894   5.506   5.963   4.983
 8665SOL    HW226895   5.363   5.912   4.923
 8666SOL     OW26896   4.870   1.370   3.799
 8666SOL    HW126897   4.841   1.427   3.722
 8666SOL    HW226898   4.849   1.417   3.885
 8667SOL     OW26899   5.031   2.316   3.128
 8667SOL    HW126900   4.978   2.293   3.209
 8667SOL    HW226901   5.024   2.415   3.110
 8668SOL     OW26902   5.734   3.484   3.032
 8668SOL    HW126903   5.693   3.407   2.982
 8668SOL    HW226904   5.668   3.558   3.040
 8669SOL     OW26905   2.239   6.315   0.374
 8669SOL    HW126906   2.275   6.408   0.381
 8669SOL    HW226907   2.150   6.318   0.330
 8670SOL     OW26908   3.587   4.572   5.519
 8670SOL    HW126909   3.650   4.567   5.442
 8670SOL    HW226910   3.494   4.587   5.486
 8671SOL     OW26911   5.492   1.833   3.245
 8671SOL    HW126912   5.428   1.837   3.168
 8671SOL    HW226913   5.445   1.857   3.330
 8672SOL     OW26914   1.950   5.030   3.649
 8672SOL    HW126915   1.905   5.018   3.738
 8672SOL    HW226916   2.024   5.097   3.657
 8673SOL     OW26917   6.740   2.442   0.070
 8673SOL    HW126918   6.803   2.439   0.148
 8673SOL    HW226919   6.791   2.459   7.009
 8674SOL     OW26920   5.372   5.299   2.931
 8674SOL    HW126921   5.282   5.285   2.890
 8674SOL    HW226922   5.367   5.373   2.998
 8675SOL     OW26923   3.093   2.122   4.482
 8675SOL    HW126924   3.015   2.174   4.448
 8675SOL    HW226925   3.092   2.123   4.582
 8676SOL     OW26926   4.184   0.012   2.619
 8676SOL    HW126927   4.202   0.110   2.618
 8676SOL    HW226928   4.087   7.019   2.636
 8677SOL     OW26929   2.625   6.081   5.796
 8677SOL    HW126930   2.527   6.084   5.779
 8677SOL    HW226931   2.667   6.009   5.742
 8678SOL     OW26932   0.087   0.166   1.373
 8678SOL    HW126933   0.105   0.071   1.399
 8678SOL    HW226934   0.093   0.174   1.273
 8679SOL     OW26935   6.291   2.334   3.905
 8679SOL    HW126936   6.201   2.378   3.899
 8679SOL    HW226937   6.318   2.328   4.001
 8680SOL     OW26938   1.055   4.205   1.711
 8680SOL    HW126939   1.146   4.168   1.694
 8680SOL    HW226940   1.039   4.213   1.809
 8681SOL     OW26941   4.878   5.297   6.757
 8681SOL    HW126942   4.807   5.227   6.764
 8681SOL    HW226943   4.904   5.308   6.661
 8682SOL     OW26944   5.153   6.793   1.548
 8682SOL    HW126945   5.093   6.821   1.623
 8682SOL    HW226946   5.097   6.758   1.473
 8683SOL     OW26947   2.003   2.528   2.631
 8683SOL    HW126948   1.945   2.564   2.558
 8683SOL    HW226949   2.039   2.439   2.605
 8684SOL     OW26950   0.743   2.625   4.667
 8684SOL    HW126951   0.720   2.628   4.569
 8684SOL    HW226952   0.760   2.530   4.694
 8685SOL     OW26953   0.206   2.008   5.616
 8685SOL    HW126954   0.203   2.100   5.656
 8685SOL    HW226955   0.152   2.007   5.532
 8686SOL     OW26956   6.782   0.697   1.846
 8686SOL    HW126957   6.858   0.728   1.790
 8686SOL    HW226958   6.698   0.699   1.793
 8687SOL     OW26959   3.461   5.329   2.536
 8687SOL    HW126960   3.560   5.337   2.550
 8687SOL    HW226961   3.416   5.413   2.564
 8688SOL     OW26962   2.812   5.931   0.095
 8688SOL    HW126963   2.812   5.947   0.194
 8688SOL    HW226964   2.735   5.979   0.054
 8689SOL     OW26965   3.254   4.336   1.668
 8689SOL    HW126966   3.333   4.308   1.723
 8689SOL    HW226967   3.197   4.257   1.650
 8690SOL     OW26968   1.744   3.101   3.383
 8690SOL    HW126969   1.651   3.073   3.357
 8690SOL    HW226970   1.810   3.040   3.340
 8691SOL     OW26971   3.267   2.081   0.073
 8691SOL    HW126972   3.307   2.030   7.019
 8691SOL    HW226973   3.284   2.179   0.061
 8692SOL     OW26974   2.079   1.187   3.689
 8692SOL    HW126975   2.081   1.172   3.788
 8692SOL    HW226976   2.043   1.278   3.670
 8693SOL     OW26977   6.762   1.036   0.165
 8693SOL    HW126978   6.756   1.041   0.264
 8693SOL    HW226979   6.726   1.120   0.125
 8694SOL     OW26980   3.997   0.938   4.927
 8694SOL    HW126981   3.999   1.001   5.005
 8694SOL    HW226982   3.919   0.877   4.936
 8695SOL     OW26983   3.900   2.698   6.230
 8695SOL    HW126984   3.902   2.772   6.163
 8695SOL    HW226985   3.925   2.612   6.185
 8696SOL     OW26986   2.187   5.635   0.669
 8696SOL    HW126987   2.262   5.577   0.637
 8696SOL    HW226988   2.135   5.669   0.590
 8697SOL     OW26989   6.988   3.028   0.601
 8697SOL    HW126990   6.909   3.010   0.661
 8697SOL    HW226991   0.008   2.941   0.576
 8698SOL     OW26992   5.712   5.721   4.770
 8698SOL    HW126993   5.624   5.680   4.792
 8698SOL    HW226994   5.717   5.813   4.809
 8699SOL     OW26995   2.033   2.662   5.334
 8699SOL    HW126996   2.058   2.755   5.359
 8699SOL    HW226997   1.934   2.657   5.316
 8700SOL     OW26998   1.051   0.912   4.499
 8700SOL    HW126999   1.004   0.852   4.434
 8700SOL    HW227000   1.148   0.888   4.502
 8701SOL     OW27001   1.391   0.775   0.199
 8701SOL    HW127002   1.446   0.827   0.264
 8701SOL    HW227003   1.450   0.737   0.128
 8702SOL     OW27004   5.347   4.547   0.801
 8702SOL    HW127005   5.281   4.512   0.868
 8702SOL    HW227006   5.423   4.483   0.792
 8703SOL     OW27007   3.290   5.582   0.705
 8703SOL    HW127008   3.267   5.605   0.799
 8703SOL    HW227009   3.207   5.576   0.651
 8704SOL     OW27010   0.271   3.537   2.649
 8704SOL    HW127011   0.252   3.612   2.711
 8704SOL    HW227012   0.231   3.557   2.559
 8705SOL     OW27013   5.008   0.970   6.937
 8705SOL    HW127014   4.979   1.009   0.002
 8705SOL    HW227015   5.094   0.921   6.950
 8706SOL     OW27016   4.457   2.211   5.913
 8706SOL    HW127017   4.380   2.147   5.907
 8706SOL    HW227018   4.424   2.298   5.949
 8707SOL     OW27019   0.031   2.806   0.034
 8707SOL    HW127020   0.026   2.754   0.119
 8707SOL    HW227021   6.961   2.830   0.004
 8708SOL     OW27022   4.402   1.967   2.406
 8708SOL    HW127023   4.492   2.008   2.417
 8708SOL    HW227024   4.364   1.945   2.495
 8709SOL     OW27025   6.889   6.044   0.381
 8709SOL    HW127026   6.886   5.991   0.296
 8709SOL    HW227027   6.879   5.983   0.459
 8710SOL     OW27028   2.133   3.082   4.023
 8710SOL    HW127029   2.190   3.002   4.041
 8710SOL    HW227030   2.081   3.105   4.105
 8711SOL     OW27031   1.243   6.169   3.296
 8711SOL    HW127032   1.213   6.145   3.204
 8711SOL    HW227033   1.343   6.163   3.301
 8712SOL     OW27034   4.112   2.179   5.118
 8712SOL    HW127035   4.154   2.267   5.095
 8712SOL    HW227036   4.097   2.175   5.216
 8713SOL     OW27037   0.546   3.601   3.905
 8713SOL    HW127038   0.553   3.502   3.893
 8713SOL    HW227039   0.637   3.642   3.901
 8714SOL     OW27040   1.226   1.373   6.112
 8714SOL    HW127041   1.306   1.325   6.149
 8714SOL    HW227042   1.172   1.310   6.057
 8715SOL     OW27043   4.632   0.661   1.075
 8715SOL    HW127044   4.578   0.689   1.155
 8715SOL    HW227045   4.577   0.600   1.017
 8716SOL     OW27046   0.353   6.805   1.112
 8716SOL    HW127047   0.403   6.816   1.026
 8716SOL    HW227048   0.408   6.751   1.176
 8717SOL     OW27049   3.354   3.284   3.317
 8717SOL    HW127050   3.373   3.257   3.222
 8717SOL    HW227051   3.356   3.203   3.376
 8718SOL     OW27052   0.603   4.429   4.399
 8718SOL    HW127053   0.605   4.489   4.319
 8718SOL    HW227054   0.695   4.397   4.420
 8719SOL     OW27055   2.571   0.219   6.318
 8719SOL    HW127056   2.618   0.208   6.405
 8719SOL    HW227057   2.479   0.256   6.334
 8720SOL     OW27058   6.160   5.389   5.881
 8720SOL    HW127059   6.229   5.322   5.853
 8720SOL    HW227060   6.132   5.443   5.802
 8721SOL     OW27061   6.956   2.603   2.580
 8721SOL    HW127062   6.890   2.543   2.627
 8721SOL    HW227063   7.010   2.653   2.647
 8722SOL     OW27064   3.951   1.392   6.528
 8722SOL    HW127065   3.938   1.367   6.624
 8722SOL    HW227066   4.033   1.346   6.492
 8723SOL     OW27067   4.687   5.531   0.901
 8723SOL    HW127068   4.606   5.524   0.959
 8723SOL    HW227069   4.720   5.439   0.879
 8724SOL     OW27070   5.512   0.202   5.939
 8724SOL    HW127071   5.447   0.126   5.939
 8724SOL    HW227072   5.539   0.222   5.845
 8725SOL     OW27073   2.159   0.069   6.687
 8725SOL    HW127074   2.187   0.049   6.593
 8725SOL    HW227075   2.096   0.146   6.688
 8726SOL     OW27076   6.160   0.256   2.196
 8726SOL    HW127077   6.145   0.261   2.295
 8726SOL    HW227078   6.158   0.161   2.167
 8727SOL     OW27079   0.515   5.995   2.059
 8727SOL    HW127080   0.591   6.018   1.998
 8727SOL    HW227081   0.440   6.061   2.045
 8728SOL     OW27082   4.471   0.480   4.069
 8728SOL    HW127083   4.511   0.489   3.977
 8728SOL    HW227084   4.395   0.415   4.066
 8729SOL     OW27085   5.025   6.115   3.936
 8729SOL    HW127086   5.114   6.115   3.892
 8729SOL    HW227087   5.005   6.023   3.971
 8730SOL     OW27088   6.356   4.146   2.674
 8730SOL    HW127089   6.332   4.053   2.647
 8730SOL    HW227090   6.307   4.212   2.617
 8731SOL     OW27091   2.348   2.752   2.864
 8731SOL    HW127092   2.412   2.688   2.906
 8731SOL    HW227093   2.280   2.780   2.932
 8732SOL     OW27094   5.436   4.360   1.690
 8732SOL    HW127095   5.445   4.398   1.598
 8732SOL    HW227096   5.434   4.434   1.757
 8733SOL     OW27097   2.222   5.283   1.515
 8733SOL    HW127098   2.143   5.343   1.505
 8733SOL    HW227099   2.225   5.245   1.607
 8734SOL     OW27100   1.452   4.911   2.302
 8734SOL    HW127101   1.548   4.912   2.331
 8734SOL    HW227102   1.397   4.962   2.368
 8735SOL     OW27103   1.029   1.944   0.673
 8735SOL    HW127104   0.937   1.906   0.683
 8735SOL    HW227105   1.032   2.036   0.712
 8736SOL     OW27106   0.570   6.042   5.906
 8736SOL    HW127107   0.547   6.131   5.944
 8736SOL    HW227108   0.561   5.972   5.976
 8737SOL     OW27109   2.493   6.649   6.136
 8737SOL    HW127110   2.505   6.609   6.045
 8737SOL    HW227111   2.530   6.742   6.137
 8738SOL     OW27112   1.976   5.057   4.180
 8738SOL    HW127113   2.017   5.037   4.269
 8738SOL    HW227114   1.914   4.983   4.155
 8739SOL     OW27115   5.540   5.292   6.207
 8739SOL    HW127116   5.557   5.367   6.143
 8739SOL    HW227117   5.597   5.214   6.183
 8740SOL     OW27118   5.241   1.148   5.283
 8740SOL    HW127119   5.168   1.097   5.328
 8740SOL    HW227120   5.229   1.246   5.300
 8741SOL     OW27121   2.675   1.252   1.381
 8741SOL    HW127122   2.741   1.178   1.371
 8741SOL    HW227123   2.722   1.335   1.409
 8742SOL     OW27124   5.691   6.463   1.503
 8742SOL    HW127125   5.703   6.505   1.413
 8742SOL    HW227126   5.739   6.516   1.572
 8743SOL     OW27127   1.634   0.607   2.498
 8743SOL    HW127128   1.646   0.666   2.418
 8743SOL    HW227129   1.683   0.646   2.576
 8744SOL     OW27130   3.396   2.737   6.374
 8744SOL    HW127131   3.368   2.805   6.442
 8744SOL    HW227132   3.418   2.783   6.288
 8745SOL     OW27133   5.893   3.075   5.877
 8745SOL    HW127134   5.934   3.165   5.863
 8745SOL    HW227135   5.961   3.013   5.915
 8746SOL     OW27136   5.156   3.964   4.900
 8746SOL    HW127137   5.082   3.910   4.939
 8746SOL    HW227138   5.189   3.921   4.816
 8747SOL     OW27139   0.339   2.508   2.509
 8747SOL    HW127140   0.337   2.512   2.409
 8747SOL    HW227141   0.408   2.441   2.537
 8748SOL     OW27142   6.844   1.782   5.079
 8748SOL    HW127143   6.757   1.822   5.051
 8748SOL    HW227144   6.909   1.788   5.003
 8749SOL     OW27145   2.745   0.738   6.660
 8749SOL    HW127146   2.774   0.752   6.566
 8749SOL    HW227147   2.686   0.657   6.665
 8750SOL     OW27148   3.002   3.481   5.367
 8750SOL    HW127149   2.953   3.564   5.392
 8750SOL    HW227150   3.080   3.504   5.309
 8751SOL     OW27151   6.224   0.340   2.889
 8751SOL    HW127152   6.214   0.346   2.988
 8751SOL    HW227153   6.134   0.329   2.847
 8752SOL     OW27154   2.407   4.544   0.290
 8752SOL    HW127155   2.326   4.597   0.314
 8752SOL    HW227156   2.489   4.592   0.321
 8753SOL     OW27157   4.766   1.901   5.330
 8753SOL    HW127158   4.855   1.906   5.375
 8753SOL    HW227159   4.776   1.925   5.233
 8754SOL     OW27160   1.015   3.007   4.988
 8754SOL    HW127161   1.021   3.096   5.034
 8754SOL    HW227162   1.107   2.976   4.965
 8755SOL     OW27163   2.636   0.605   0.474
 8755SOL    HW127164   2.629   0.575   0.569
 8755SOL    HW227165   2.546   0.633   0.441
 8756SOL     OW27166   1.791   3.118   3.659
 8756SOL    HW127167   1.791   3.090   3.563
 8756SOL    HW227168   1.832   3.046   3.715
 8757SOL     OW27169   4.510   6.234   5.853
 8757SOL    HW127170   4.514   6.311   5.790
 8757SOL    HW227171   4.436   6.249   5.919
 8758SOL     OW27172   4.605   6.586   2.158
 8758SOL    HW127173   4.513   6.621   2.176
 8758SOL    HW227174   4.669   6.623   2.226
 8759SOL     OW27175   4.051   2.308   0.723
 8759SOL    HW127176   3.996   2.344   0.648
 8759SOL    HW227177   4.063   2.209   0.712
 8760SOL     OW27178   0.988   1.405   4.987
 8760SOL    HW127179   0.944   1.358   5.064
 8760SOL    HW227180   0.988   1.346   4.907
 8761SOL     OW27181   5.249   1.989   2.304
 8761SOL    HW127182   5.212   1.919   2.243
 8761SOL    HW227183   5.222   2.079   2.271
 8762SOL     OW27184   0.782   4.408   2.235
 8762SOL    HW127185   0.703   4.453   2.276
 8762SOL    HW227186   0.827   4.471   2.171
 8763SOL     OW27187   6.395   6.074   5.952
 8763SOL    HW127188   6.396   6.165   5.993
 8763SOL    HW227189   6.444   6.010   6.012
 8764SOL     OW27190   5.063   1.441   4.684
 8764SOL    HW127191   5.033   1.536   4.697
 8764SOL    HW227192   5.148   1.440   4.632
 8765SOL     OW27193   6.049   6.510   5.620
 8765SOL    HW127194   5.970   6.562   5.586
 8765SOL    HW227195   6.069   6.435   5.558
 8766SOL     OW27196   4.495   4.614   3.915
 8766SOL    HW127197   4.464   4.620   3.820
 8766SOL    HW227198   4.418   4.632   3.977
 8767SOL     OW27199   4.251   6.945   2.979
 8767SOL    HW127200   4.313   6.963   2.903
 8767SOL    HW227201   4.229   0.008   3.026
 8768SOL     OW27202   1.228   2.993   0.451
 8768SOL    HW127203   1.275   2.908   0.426
 8768SOL    HW227204   1.191   2.985   0.544
 8769SOL     OW27205   1.232   0.218   4.377
 8769SOL    HW127206   1.206   0.312   4.354
 8769SOL    HW227207   1.168   0.182   4.445
 8770SOL     OW27208   5.558   3.833   2.295
 8770SOL    HW127209   5.558   3.756   2.359
 8770SOL    HW227210   5.564   3.799   2.202
 8771SOL     OW27211   1.032   0.502   6.365
 8771SOL    HW127212   1.016   0.509   6.463
 8771SOL    HW227213   1.102   0.432   6.347
 8772SOL     OW27214   5.006   6.747   6.677
 8772SOL    HW127215   4.922   6.699   6.706
 8772SOL    HW227216   5.065   6.762   6.757
 8773SOL     OW27217   4.505   2.516   3.682
 8773SOL    HW127218   4.446   2.565   3.747
 8773SOL    HW227219   4.599   2.514   3.717
 8774SOL     OW27220   2.086   1.215   6.790
 8774SOL    HW127221   2.168   1.212   6.734
 8774SOL    HW227222   2.036   1.300   6.773
 8775SOL     OW27223   6.670   0.059   4.998
 8775SOL    HW127224   6.748   7.020   5.005
 8775SOL    HW227225   6.654   0.082   4.902
 8776SOL     OW27226   3.847   3.495   5.619
 8776SOL    HW127227   3.913   3.479   5.692
 8776SOL    HW227228   3.774   3.426   5.624
 8777SOL     OW27229   7.012   3.922   1.630
 8777SOL    HW127230   6.933   3.940   1.571
 8777SOL    HW227231   0.067   3.894   1.574
 8778SOL     OW27232   6.149   2.049   4.491
 8778SOL    HW127233   6.168   1.973   4.429
 8778SOL    HW227234   6.127   2.131   4.438
 8779SOL     OW27235   3.155   5.096   2.269
 8779SOL    HW127236   3.215   5.172   2.293
 8779SOL    HW227237   3.137   5.097   2.171
 8780SOL     OW27238   0.944   5.436   2.894
 8780SOL    HW127239   0.938   5.505   2.967
 8780SOL    HW227240   0.924   5.478   2.806
 8781SOL     OW27241   6.262   1.852   3.435
 8781SOL    HW127242   6.327   1.820   3.366
 8781SOL    HW227243   6.296   1.829   3.526
 8782SOL     OW27244   4.992   7.015   2.015
 8782SOL    HW127245   4.896   6.989   2.017
 8782SOL    HW227246   5.049   6.934   2.018
 8783SOL     OW27247   6.885   4.103   3.825
 8783SOL    HW127248   6.921   4.058   3.907
 8783SOL    HW227249   6.900   4.044   3.746
 8784SOL     OW27250   5.701   4.442   6.483
 8784SOL    HW127251   5.742   4.375   6.544
 8784SOL    HW227252   5.767   4.516   6.466
 8785SOL     OW27253   6.627   3.695   6.426
 8785SOL    HW127254   6.614   3.711   6.328
 8785SOL    HW227255   6.724   3.685   6.446
 8786SOL     OW27256   2.027   0.225   0.447
 8786SOL    HW127257   1.979   0.232   0.359
 8786SOL    HW227258   2.067   0.133   0.455
 8787SOL     OW27259   2.409   2.832   1.853
 8787SOL    HW127260   2.392   2.735   1.835
 8787SOL    HW227261   2.484   2.864   1.794
 8788SOL     OW27262   0.106   2.205   5.843
 8788SOL    HW127263   0.080   2.163   5.930
 8788SOL    HW227264   0.142   2.297   5.860
 8789SOL     OW27265   6.227   7.013   5.718
 8789SOL    HW127266   6.199   0.072   5.667
 8789SOL    HW227267   6.316   6.982   5.684
 8790SOL     OW27268   6.985   0.818   6.761
 8790SOL    HW127269   6.942   0.899   6.723
 8790SOL    HW227270   6.915   0.749   6.781
 8791SOL     OW27271   6.169   6.754   4.950
 8791SOL    HW127272   6.073   6.767   4.925
 8791SOL    HW227273   6.223   6.741   4.867
 8792SOL     OW27274   3.435   6.556   3.318
 8792SOL    HW127275   3.368   6.483   3.334
 8792SOL    HW227276   3.496   6.563   3.396
 8793SOL     OW27277   1.525   5.384   3.186
 8793SOL    HW127278   1.504   5.292   3.222
 8793SOL    HW227279   1.617   5.410   3.215
 8794SOL     OW27280   4.301   6.807   1.659
 8794SOL    HW127281   4.236   6.814   1.583
 8794SOL    HW227282   4.286   6.882   1.723
 8795SOL     OW27283   1.189   6.456   5.303
 8795SOL    HW127284   1.243   6.538   5.286
 8795SOL    HW227285   1.123   6.475   5.376
 8796SOL     OW27286   4.494   1.545   4.311
 8796SOL    HW127287   4.502   1.526   4.409
 8796SOL    HW227288   4.565   1.495   4.261
 8797SOL     OW27289   0.994   6.944   5.355
 8797SOL    HW127290   1.041   6.935   5.267
 8797SOL    HW227291   0.979   6.853   5.394
 8798SOL     OW27292   5.041   5.363   5.655
 8798SOL    HW127293   5.122   5.396   5.606
 8798SOL    HW227294   4.964   5.358   5.591
 8799SOL     OW27295   2.144   4.470   3.952
 8799SOL    HW127296   2.096   4.424   3.877
 8799SOL    HW227297   2.141   4.413   4.034
 8800SOL     OW27298   6.148   4.257   5.312
 8800SOL    HW127299   6.059   4.299   5.330
 8800SOL    HW227300   6.144   4.160   5.335
 8801SOL     OW27301   1.024   1.734   4.608
 8801SOL    HW127302   1.036   1.722   4.707
 8801SOL    HW227303   0.933   1.702   4.582
 8802SOL     OW27304   1.655   0.122   1.146
 8802SOL    HW127305   1.668   0.028   1.179
 8802SOL    HW227306   1.595   0.171   1.209
 8803SOL     OW27307   0.085   5.397   5.967
 8803SOL    HW127308   0.126   5.475   6.013
 8803SOL    HW227309   0.090   5.410   5.868
 8804SOL     OW27310   3.198   1.032   2.274
 8804SOL    HW127311   3.154   0.990   2.354
 8804SOL    HW227312   3.235   1.121   2.300
 8805SOL     OW27313   2.805   0.043   4.164
 8805SOL    HW127314   2.793   6.967   4.151
 8805SOL    HW227315   2.807   0.064   4.262
 8806SOL     OW27316   2.494   4.967   2.218
 8806SOL    HW127317   2.594   4.966   2.226
 8806SOL    HW227318   2.462   5.061   2.206
 8807SOL     OW27319   5.227   0.301   6.549
 8807SOL    HW127320   5.268   0.253   6.626
 8807SOL    HW227321   5.161   0.241   6.504
 8808SOL     OW27322   5.795   2.397   6.854
 8808SOL    HW127323   5.833   2.342   6.780
 8808SOL    HW227324   5.716   2.448   6.821
 8809SOL     OW27325   4.443   5.484   3.606
 8809SOL    HW127326   4.468   5.529   3.692
 8809SOL    HW227327   4.353   5.442   3.616
 8810SOL     OW27328   5.458   0.796   6.340
 8810SOL    HW127329   5.445   0.703   6.377
 8810SOL    HW227330   5.372   0.846   6.345
 8811SOL     OW27331   2.724   1.436   3.727
 8811SOL    HW127332   2.751   1.522   3.684
 8811SOL    HW227333   2.630   1.413   3.701
 8812SOL     OW27334   2.136   7.013   1.723
 8812SOL    HW127335   2.122   6.984   1.629
 8812SOL    HW227336   2.144   0.090   1.727
 8813SOL     OW27337   1.110   4.603   1.657
 8813SOL    HW127338   1.179   4.635   1.594
 8813SOL    HW227339   1.073   4.680   1.710
 8814SOL     OW27340   5.758   7.002   0.731
 8814SOL    HW127341   5.840   6.994   0.673
 8814SOL    HW227342   5.761   6.932   0.802
 8815SOL     OW27343   0.025   6.369   0.825
 8815SOL    HW127344   0.074   6.294   0.781
 8815SOL    HW227345   6.985   6.411   0.760
 8816SOL     OW27346   1.156   0.744   0.350
 8816SOL    HW127347   1.231   0.774   0.291
 8816SOL    HW227348   1.142   0.646   0.341
 8817SOL     OW27349   1.074   5.912   4.661
 8817SOL    HW127350   1.148   5.909   4.728
 8817SOL    HW227351   1.024   5.998   4.670
 8818SOL     OW27352   0.492   3.598   4.653
 8818SOL    HW127353   0.544   3.681   4.672
 8818SOL    HW227354   0.394   3.619   4.654
 8819SOL     OW27355   5.483   4.866   5.000
 8819SOL    HW127356   5.504   4.899   5.092
 8819SOL    HW227357   5.558   4.890   4.939
 8820SOL     OW27358   1.815   1.026   5.276
 8820SOL    HW127359   1.915   1.023   5.287
 8820SOL    HW227360   1.791   1.100   5.212
 8821SOL     OW27361   2.860   6.022   0.325
 8821SOL    HW127362   2.805   6.024   0.409
 8821SOL    HW227363   2.953   6.051   0.346
 8822SOL     OW27364   0.572   0.094   4.878
 8822SOL    HW127365   0.610   0.006   4.905
 8822SOL    HW227366   0.501   0.121   4.944
 8823SOL     OW27367   2.395   0.880   0.885
 8823SOL    HW127368   2.435   0.923   0.966
 8823SOL    HW227369   2.422   0.930   0.804
 8824SOL     OW27370   0.703   3.440   1.089
 8824SOL    HW127371   0.645   3.379   1.035
 8824SOL    HW227372   0.747   3.506   1.028
 8825SOL     OW27373   1.325   0.414   2.888
 8825SOL    HW127374   1.254   0.479   2.864
 8825SOL    HW227375   1.388   0.402   2.811
 8826SOL     OW27376   6.505   3.017   0.854
 8826SOL    HW127377   6.438   3.022   0.780
 8826SOL    HW227378   6.461   3.044   0.940
 8827SOL     OW27379   3.880   1.035   3.044
 8827SOL    HW127380   3.902   0.945   3.080
 8827SOL    HW227381   3.875   1.101   3.120
 8828SOL     OW27382   4.109   5.147   5.726
 8828SOL    HW127383   4.091   5.157   5.628
 8828SOL    HW227384   4.180   5.212   5.753
 8829SOL     OW27385   6.489   2.109   0.717
 8829SOL    HW127386   6.578   2.131   0.676
 8829SOL    HW227387   6.440   2.045   0.658
 8830SOL     OW27388   0.860   1.683   2.135
 8830SOL    HW127389   0.936   1.635   2.090
 8830SOL    HW227390   0.793   1.710   2.066
 8831SOL     OW27391   5.073   1.594   3.973
 8831SOL    HW127392   5.024   1.644   3.901
 8831SOL    HW227393   5.123   1.518   3.933
 8832SOL     OW27394   6.934   5.803   2.872
 8832SOL    HW127395   6.947   5.889   2.922
 8832SOL    HW227396   6.969   5.727   2.926
 8833SOL     OW27397   2.359   6.193   5.804
 8833SOL    HW127398   2.414   6.257   5.749
 8833SOL    HW227399   2.360   6.222   5.899
 8834SOL     OW27400   5.424   3.679   4.686
 8834SOL    HW127401   5.409   3.708   4.780
 8834SOL    HW227402   5.462   3.587   4.684
 8835SOL     OW27403   5.472   1.126   6.460
 8835SOL    HW127404   5.512   1.089   6.377
 8835SOL    HW227405   5.508   1.218   6.476
 8836SOL     OW27406   4.444   2.437   0.012
 8836SOL    HW127407   4.523   2.492   0.039
 8836SOL    HW227408   4.424   2.452   6.938
 8837SOL     OW27409   0.295   5.971   3.421
 8837SOL    HW127410   0.236   5.890   3.427
 8837SOL    HW227411   0.385   5.949   3.456
 8838SOL     OW27412   2.219   4.634   2.759
 8838SOL    HW127413   2.235   4.733   2.754
 8838SOL    HW227414   2.306   4.586   2.765
 8839SOL     OW27415   4.653   5.064   3.009
 8839SOL    HW127416   4.609   4.977   3.031
 8839SOL    HW227417   4.623   5.135   3.073
 8840SOL     OW27418   6.705   1.824   1.781
 8840SOL    HW127419   6.647   1.862   1.853
 8840SOL    HW227420   6.784   1.884   1.766
 8841SOL     OW27421   0.518   0.661   4.999
 8841SOL    HW127422   0.425   0.659   5.037
 8841SOL    HW227423   0.532   0.746   4.949
 8842SOL     OW27424   3.297   3.059   2.145
 8842SOL    HW127425   3.212   3.037   2.098
 8842SOL    HW227426   3.367   2.992   2.121
 8843SOL     OW27427   2.108   3.460   5.562
 8843SOL    HW127428   2.034   3.396   5.543
 8843SOL    HW227429   2.132   3.508   5.478
 8844SOL     OW27430   6.371   2.512   6.548
 8844SOL    HW127431   6.374   2.558   6.637
 8844SOL    HW227432   6.413   2.571   6.479
 8845SOL     OW27433   3.506   3.841   0.369
 8845SOL    HW127434   3.470   3.935   0.375
 8845SOL    HW227435   3.495   3.808   0.275
 8846SOL     OW27436   3.390   5.930   3.758
 8846SOL    HW127437   3.325   5.992   3.714
 8846SOL    HW227438   3.479   5.975   3.765
 8847SOL     OW27439   2.902   1.843   3.267
 8847SOL    HW127440   2.932   1.789   3.345
 8847SOL    HW227441   2.818   1.892   3.291
 8848SOL     OW27442   2.437   1.106   1.759
 8848SOL    HW127443   2.356   1.084   1.706
 8848SOL    HW227444   2.518   1.074   1.711
 8849SOL     OW27445   3.570   6.210   3.040
 8849SOL    HW127446   3.473   6.185   3.051
 8849SOL    HW227447   3.626   6.128   3.045
 8850SOL     OW27448   1.398   2.733   0.072
 8850SOL    HW127449   1.322   2.797   0.081
 8850SOL    HW227450   1.407   2.679   0.156
 8851SOL     OW27451   1.409   4.040   3.290
 8851SOL    HW127452   1.354   3.959   3.271
 8851SOL    HW227453   1.473   4.020   3.365
 8852SOL     OW27454   0.363   2.376   5.037
 8852SOL    HW127455   0.320   2.461   5.068
 8852SOL    HW227456   0.462   2.380   5.056
 8853SOL     OW27457   2.796   0.633   1.524
 8853SOL    HW127458   2.781   0.719   1.572
 8853SOL    HW227459   2.725   0.568   1.551
 8854SOL     OW27460   1.980   2.662   5.756
 8854SOL    HW127461   1.896   2.663   5.702
 8854SOL    HW227462   2.047   2.602   5.713
 8855SOL     OW27463   6.574   4.891   1.337
 8855SOL    HW127464   6.548   4.918   1.430
 8855SOL    HW227465   6.514   4.817   1.306
 8856SOL     OW27466   1.190   6.500   6.757
 8856SOL    HW127467   1.114   6.485   6.693
 8856SOL    HW227468   1.205   6.598   6.769
 8857SOL     OW27469   6.340   1.879   4.228
 8857SOL    HW127470   6.406   1.954   4.233
 8857SOL    HW227471   6.388   1.792   4.236
 8858SOL     OW27472   0.023   3.887   4.461
 8858SOL    HW127473   0.094   3.930   4.405
 8858SOL    HW227474   0.021   3.789   4.442
 8859SOL     OW27475   1.367   1.734   3.759
 8859SOL    HW127476   1.440   1.747   3.691
 8859SOL    HW227477   1.370   1.808   3.826
 8860SOL     OW27478   6.861   2.090   1.246
 8860SOL    HW127479   6.937   2.150   1.224
 8860SOL    HW227480   6.885   2.035   1.327
 8861SOL     OW27481   3.999   1.368   5.750
 8861SOL    HW127482   4.079   1.417   5.717
 8861SOL    HW227483   3.924   1.432   5.767
 8862SOL     OW27484   5.819   6.960   3.646
 8862SOL    HW127485   5.845   0.018   3.593
 8862SOL    HW227486   5.800   6.884   3.584
 8863SOL     OW27487   2.883   4.850   3.625
 8863SOL    HW127488   2.862   4.943   3.597
 8863SOL    HW227489   2.816   4.787   3.586
 8864SOL     OW27490   3.366   4.979   6.536
 8864SOL    HW127491   3.440   4.980   6.468
 8864SOL    HW227492   3.364   5.065   6.586
 8865SOL     OW27493   3.188   0.717   4.726
 8865SOL    HW127494   3.189   0.816   4.715
 8865SOL    HW227495   3.108   0.679   4.680
 8866SOL     OW27496   5.487   6.831   2.891
 8866SOL    HW127497   5.456   6.846   2.985
 8866SOL    HW227498   5.544   6.908   2.863
 8867SOL     OW27499   5.888   4.558   3.528
 8867SOL    HW127500   5.826   4.481   3.542
 8867SOL    HW227501   5.842   4.643   3.554
 8868SOL     OW27502   0.025   3.063   1.647
 8868SOL    HW127503   6.988   2.992   1.610
 8868SOL    HW227504   0.073   3.029   1.727
 8869SOL     OW27505   3.935   5.885   5.298
 8869SOL    HW127506   3.884   5.892   5.212
 8869SOL    HW227507   3.991   5.967   5.309
 8870SOL     OW27508   2.539   6.660   2.121
 8870SOL    HW127509   2.439   6.671   2.126
 8870SOL    HW227510   2.571   6.693   2.032
 8871SOL     OW27511   1.875   0.201   3.517
 8871SOL    HW127512   1.798   0.235   3.463
 8871SOL    HW227513   1.921   0.278   3.562
 8872SOL     OW27514   1.612   4.992   5.710
 8872SOL    HW127515   1.677   4.930   5.665
 8872SOL    HW227516   1.654   5.028   5.793
 8873SOL     OW27517   1.919   6.934   2.477
 8873SOL    HW127518   1.863   6.934   2.394
 8873SOL    HW227519   2.015   6.944   2.451
 8874SOL     OW27520   2.050   5.659   2.371
 8874SOL    HW127521   2.045   5.654   2.471
 8874SOL    HW227522   1.978   5.602   2.332
 8875SOL     OW27523   6.550   3.484   4.844
 8875SOL    HW127524   6.515   3.512   4.754
 8875SOL    HW227525   6.551   3.563   4.905
 8876SOL     OW27526   2.477   0.596   5.771
 8876SOL    HW127527   2.522   0.610   5.683
 8876SOL    HW227528   2.469   0.498   5.789
 8877SOL     OW27529   2.288   2.363   4.016
 8877SOL    HW127530   2.314   2.345   3.921
 8877SOL    HW227531   2.200   2.319   4.035
 8878SOL     OW27532   3.992   4.837   1.445
 8878SOL    HW127533   3.989   4.764   1.513
 8878SOL    HW227534   3.904   4.841   1.397
 8879SOL     OW27535   4.422   4.693   2.328
 8879SOL    HW127536   4.384   4.707   2.237
 8879SOL    HW227537   4.361   4.734   2.396
 8880SOL     OW27538   4.145   6.423   5.052
 8880SOL    HW127539   4.143   6.499   4.986
 8880SOL    HW227540   4.119   6.339   5.006
 8881SOL     OW27541   5.486   6.162   4.262
 8881SOL    HW127542   5.465   6.238   4.323
 8881SOL    HW227543   5.497   6.197   4.169
 8882SOL     OW27544   4.863   1.110   1.005
 8882SOL    HW127545   4.873   1.013   0.982
 8882SOL    HW227546   4.815   1.118   1.093
 8883SOL     OW27547   2.248   6.377   6.416
 8883SOL    HW127548   2.344   6.404   6.415
 8883SOL    HW227549   2.220   6.346   6.326
 8884SOL     OW27550   5.998   3.331   5.856
 8884SOL    HW127551   5.990   3.421   5.898
 8884SOL    HW227552   6.078   3.330   5.795
 8885SOL     OW27553   5.313   4.808   0.739
 8885SOL    HW127554   5.331   4.712   0.763
 8885SOL    HW227555   5.300   4.861   0.823
 8886SOL     OW27556   2.863   5.851   5.368
 8886SOL    HW127557   2.905   5.780   5.424
 8886SOL    HW227558   2.822   5.920   5.427
 8887SOL     OW27559   4.017   0.641   0.751
 8887SOL    HW127560   4.107   0.619   0.789
 8887SOL    HW227561   3.991   0.734   0.776
 8888SOL     OW27562   1.976   2.265   4.880
 8888SOL    HW127563   1.958   2.300   4.972
 8888SOL    HW227564   2.074   2.273   4.861
 8889SOL     OW27565   6.495   6.502   6.981
 8889SOL    HW127566   6.398   6.526   6.973
 8889SOL    HW227567   6.507   6.404   6.966
 8890SOL     OW27568   0.376   5.579   5.738
 8890SOL    HW127569   0.446   5.642   5.704
 8890SOL    HW227570   0.286   5.610   5.706
 8891SOL     OW27571   3.963   4.242   0.376
 8891SOL    HW127572   3.943   4.159   0.324
 8891SOL    HW227573   3.913   4.240   0.463
 8892SOL     OW27574   3.679   4.938   3.401
 8892SOL    HW127575   3.602   4.906   3.457
 8892SOL    HW227576   3.753   4.969   3.461
 8893SOL     OW27577   0.867   4.960   4.752
 8893SOL    HW127578   0.807   4.916   4.818
 8893SOL    HW227579   0.873   5.058   4.772
 8894SOL     OW27580   3.045   1.986   6.547
 8894SOL    HW127581   3.099   1.903   6.547
 8894SOL    HW227582   3.084   2.052   6.611
 8895SOL     OW27583   6.938   2.023   1.510
 8895SOL    HW127584   6.970   2.114   1.538
 8895SOL    HW227585   6.929   1.964   1.590
 8896SOL     OW27586   2.168   3.082   4.780
 8896SOL    HW127587   2.225   3.085   4.862
 8896SOL    HW227588   2.115   3.167   4.774
 8897SOL     OW27589   2.555   2.570   3.661
 8897SOL    HW127590   2.476   2.519   3.627
 8897SOL    HW227591   2.523   2.651   3.711
 8898SOL     OW27592   5.284   3.295   2.587
 8898SOL    HW127593   5.302   3.310   2.489
 8898SOL    HW227594   5.300   3.199   2.609
 8899SOL     OW27595   1.695   4.376   0.301
 8899SOL    HW127596   1.775   4.336   0.347
 8899SOL    HW227597   1.668   4.317   0.225
 8900SOL     OW27598   5.139   3.294   3.137
 8900SOL    HW127599   5.214   3.267   3.197
 8900SOL    HW227600   5.101   3.381   3.167
 8901SOL     OW27601   0.753   1.141   4.688
 8901SOL    HW127602   0.780   1.124   4.593
 8901SOL    HW227603   0.680   1.077   4.713
 8902SOL     OW27604   1.047   5.586   0.054
 8902SOL    HW127605   0.948   5.596   0.045
 8902SOL    HW227606   1.091   5.676   0.046
 8903SOL     OW27607   0.667   1.978   4.412
 8903SOL    HW127608   0.663   1.881   4.388
 8903SOL    HW227609   0.746   2.020   4.368
 8904SOL     OW27610   0.740   0.795   4.831
 8904SOL    HW127611   0.827   0.810   4.784
 8904SOL    HW227612   0.747   0.711   4.886
 8905SOL     OW27613   2.115   2.887   2.973
 8905SOL    HW127614   2.122   2.888   3.072
 8905SOL    HW227615   2.091   2.978   2.939
 8906SOL     OW27616   0.671   6.168   1.011
 8906SOL    HW127617   0.591   6.122   1.050
 8906SOL    HW227618   0.645   6.259   0.978
 8907SOL     OW27619   2.981   2.920   5.747
 8907SOL    HW127620   2.949   2.988   5.813
 8907SOL    HW227621   3.081   2.923   5.742
 8908SOL     OW27622   1.985   6.250   0.685
 8908SOL    HW127623   1.960   6.205   0.600
 8908SOL    HW227624   1.987   6.349   0.672
 8909SOL     OW27625   2.863   1.319   5.913
 8909SOL    HW127626   2.916   1.243   5.950
 8909SOL    HW227627   2.783   1.284   5.864
 8910SOL     OW27628   0.935   3.012   5.323
 8910SOL    HW127629   0.929   2.937   5.389
 8910SOL    HW227630   1.029   3.022   5.292
 8911SOL     OW27631   4.963   3.163   4.740
 8911SOL    HW127632   4.909   3.247   4.740
 8911SOL    HW227633   4.995   3.144   4.647
 8912SOL     OW27634   2.612   3.590   6.601
 8912SOL    HW127635   2.613   3.655   6.678
 8912SOL    HW227636   2.517   3.568   6.577
 8913SOL     OW27637   4.086   5.463   6.427
 8913SOL    HW127638   4.020   5.524   6.382
 8913SOL    HW227639   4.080   5.372   6.387
 8914SOL     OW27640   4.654   0.412   4.881
 8914SOL    HW127641   4.693   0.477   4.817
 8914SOL    HW227642   4.702   0.325   4.874
 8915SOL     OW27643   1.475   2.227   4.054
 8915SOL    HW127644   1.444   2.225   4.149
 8915SOL    HW227645   1.406   2.186   3.995
 8916SOL     OW27646   6.778   3.233   0.050
 8916SOL    HW127647   6.870   3.197   0.064
 8916SOL    HW227648   6.717   3.159   0.022
 8917SOL     OW27649   5.436   2.679   0.396
 8917SOL    HW127650   5.432   2.681   0.296
 8917SOL    HW227651   5.400   2.591   0.428
 8918SOL     OW27652   0.898   4.994   0.915
 8918SOL    HW127653   0.805   5.026   0.931
 8918SOL    HW227654   0.915   4.911   0.969
 8919SOL     OW27655   5.302   3.995   0.124
 8919SOL    HW127656   5.208   3.985   0.091
 8919SOL    HW227657   5.302   4.007   0.223
 8920SOL     OW27658   6.854   1.897   6.962
 8920SOL    HW127659   6.939   1.845   6.972
 8920SOL    HW227660   6.876   1.994   6.948
 8921SOL     OW27661   1.986   3.052   2.231
 8921SOL    HW127662   1.997   3.150   2.248
 8921SOL    HW227663   2.068   3.004   2.261
 8922SOL     OW27664   4.196   5.181   2.419
 8922SOL    HW127665   4.100   5.205   2.431
 8922SOL    HW227666   4.235   5.157   2.508
 8923SOL     OW27667   1.788   1.550   6.662
 8923SOL    HW127668   1.705   1.602   6.684
 8923SOL    HW227669   1.763   1.457   6.636
 8924SOL     OW27670   4.415   5.393   5.538
 8924SOL    HW127671   4.491   5.348   5.583
 8924SOL    HW227672   4.334   5.335   5.543
 8925SOL     OW27673   0.757   1.046   2.754
 8925SOL    HW127674   0.689   1.080   2.689
 8925SOL    HW227675   0.782   0.952   2.729
 8926SOL     OW27676   6.709   3.038   5.943
 8926SOL    HW127677   6.763   3.058   6.025
 8926SOL    HW227678   6.756   3.072   5.862
 8927SOL     OW27679   6.272   1.017   4.217
 8927SOL    HW127680   6.177   1.014   4.186
 8927SOL    HW227681   6.287   0.945   4.285
 8928SOL     OW27682   1.216   0.287   6.257
 8928SOL    HW127683   1.202   0.189   6.243
 8928SOL    HW227684   1.290   0.319   6.198
 8929SOL     OW27685   5.899   2.030   4.942
 8929SOL    HW127686   5.827   2.088   4.905
 8929SOL    HW227687   5.885   1.935   4.912
 8930SOL     OW27688   0.977   2.733   3.498
 8930SOL    HW127689   1.023   2.646   3.516
 8930SOL    HW227690   0.881   2.725   3.522
 8931SOL     OW27691   2.867   4.011   0.977
 8931SOL    HW127692   2.933   4.000   0.903
 8931SOL    HW227693   2.800   3.937   0.974
 8932SOL     OW27694   5.882   2.140   1.681
 8932SOL    HW127695   5.845   2.159   1.772
 8932SOL    HW227696   5.969   2.091   1.690
 8933SOL     OW27697   2.552   2.374   6.106
 8933SOL    HW127698   2.621   2.359   6.036
 8933SOL    HW227699   2.586   2.340   6.194
 8934SOL     OW27700   2.548   5.241   4.654
 8934SOL    HW127701   2.575   5.215   4.747
 8934SOL    HW227702   2.499   5.164   4.612
 8935SOL     OW27703   0.655   4.682   0.472
 8935SOL    HW127704   0.574   4.726   0.436
 8935SOL    HW227705   0.666   4.592   0.430
 8936SOL     OW27706   1.110   4.401   1.950
 8936SOL    HW127707   1.038   4.469   1.966
 8936SOL    HW227708   1.128   4.394   1.852
 8937SOL     OW27709   0.837   6.923   5.882
 8937SOL    HW127710   0.752   6.873   5.901
 8937SOL    HW227711   0.854   6.988   5.956
 8938SOL     OW27712   0.608   5.885   0.946
 8938SOL    HW127713   0.664   5.825   0.888
 8938SOL    HW227714   0.656   5.973   0.958
 8939SOL     OW27715   5.236   3.039   4.035
 8939SOL    HW127716   5.214   3.013   4.129
 8939SOL    HW227717   5.255   3.137   4.032
 8940SOL     OW27718   0.220   1.568   2.194
 8940SOL    HW127719   0.241   1.627   2.271
 8940SOL    HW227720   0.292   1.574   2.126
 8941SOL     OW27721   6.560   2.584   5.391
 8941SOL    HW127722   6.596   2.664   5.343
 8941SOL    HW227723   6.606   2.502   5.358
 8942SOL     OW27724   6.912   4.721   4.852
 8942SOL    HW127725   6.844   4.662   4.897
 8942SOL    HW227726   6.924   4.690   4.758
 8943SOL     OW27727   3.521   4.819   6.073
 8943SOL    HW127728   3.434   4.771   6.066
 8943SOL    HW227729   3.533   4.877   5.993
 8944SOL     OW27730   5.327   4.536   5.051
 8944SOL    HW127731   5.418   4.527   5.092
 8944SOL    HW227732   5.331   4.508   4.955
 8945SOL     OW27733   0.531   0.720   2.888
 8945SOL    HW127734   0.535   0.712   2.988
 8945SOL    HW227735   0.449   0.771   2.863
 8946SOL     OW27736   3.343   1.355   5.316
 8946SOL    HW127737   3.371   1.354   5.220
 8946SOL    HW227738   3.373   1.271   5.361
 8947SOL     OW27739   1.788   3.565   5.423
 8947SOL    HW127740   1.835   3.524   5.345
 8947SOL    HW227741   1.769   3.661   5.404
 8948SOL     OW27742   6.735   6.766   4.344
 8948SOL    HW127743   6.784   6.694   4.295
 8948SOL    HW227744   6.637   6.746   4.345
 8949SOL     OW27745   2.526   6.838   1.248
 8949SOL    HW127746   2.611   6.889   1.259
 8949SOL    HW227747   2.509   6.821   1.151
 8950SOL     OW27748   4.417   4.324   6.524
 8950SOL    HW127749   4.492   4.375   6.565
 8950SOL    HW227750   4.419   4.336   6.425
 8951SOL     OW27751   1.328   1.942   5.512
 8951SOL    HW127752   1.350   2.016   5.576
 8951SOL    HW227753   1.308   1.981   5.422
 8952SOL     OW27754   1.323   6.932   2.254
 8952SOL    HW127755   1.392   6.864   2.280
 8952SOL    HW227756   1.253   6.937   2.325
 8953SOL     OW27757   1.526   4.328   0.005
 8953SOL    HW127758   1.576   4.375   6.955
 8953SOL    HW227759   1.561   4.235   0.015
 8954SOL     OW27760   0.961   0.469   5.778
 8954SOL    HW127761   0.953   0.441   5.683
 8954SOL    HW227762   0.897   0.416   5.834
 8955SOL     OW27763   0.306   5.278   2.422
 8955SOL    HW127764   0.240   5.309   2.353
 8955SOL    HW227765   0.275   5.191   2.460
 8956SOL     OW27766   1.020   1.568   6.640
 8956SOL    HW127767   1.114   1.602   6.636
 8956SOL    HW227768   0.961   1.638   6.680
 8957SOL     OW27769   2.877   4.271   1.713
 8957SOL    HW127770   2.958   4.212   1.717
 8957SOL    HW227771   2.899   4.359   1.754
 8958SOL     OW27772   7.009   0.584   4.517
 8958SOL    HW127773   6.934   0.523   4.539
 8958SOL    HW227774   6.978   0.652   4.451
 8959SOL     OW27775   1.474   4.714   2.013
 8959SOL    HW127776   1.572   4.716   2.029
 8959SOL    HW227777   1.456   4.707   1.915
 8960SOL     OW27778   4.707   4.666   2.931
 8960SOL    HW127779   4.711   4.720   2.847
 8960SOL    HW227780   4.676   4.723   3.007
 8961SOL     OW27781   2.659   1.522   4.495
 8961SOL    HW127782   2.602   1.604   4.487
 8961SOL    HW227783   2.729   1.523   4.423
 8962SOL     OW27784   6.751   6.117   2.113
 8962SOL    HW127785   6.775   6.150   2.204
 8962SOL    HW227786   6.737   6.195   2.052
 8963SOL     OW27787   4.970   6.269   4.192
 8963SOL    HW127788   4.892   6.266   4.129
 8963SOL    HW227789   5.055   6.271   4.140
 8964SOL     OW27790   4.892   3.403   3.279
 8964SOL    HW127791   4.938   3.319   3.307
 8964SOL    HW227792   4.814   3.421   3.340
 8965SOL     OW27793   2.264   4.780   0.835
 8965SOL    HW127794   2.299   4.699   0.883
 8965SOL    HW227795   2.334   4.851   0.832
 8966SOL     OW27796   6.783   4.153   6.158
 8966SOL    HW127797   6.844   4.089   6.112
 8966SOL    HW227798   6.794   4.244   6.119
 8967SOL     OW27799   3.577   0.160   2.118
 8967SOL    HW127800   3.528   0.246   2.134
 8967SOL    HW227801   3.555   0.095   2.191
 8968SOL     OW27802   5.140   5.036   3.242
 8968SOL    HW127803   5.223   5.092   3.248
 8968SOL    HW227804   5.166   4.939   3.249
 8969SOL     OW27805   6.756   1.292   4.692
 8969SOL    HW127806   6.774   1.244   4.606
 8969SOL    HW227807   6.660   1.279   4.718
 8970SOL     OW27808   2.673   3.422   0.535
 8970SOL    HW127809   2.604   3.490   0.560
 8970SOL    HW227810   2.684   3.356   0.610
 8971SOL     OW27811   4.821   5.595   1.972
 8971SOL    HW127812   4.732   5.550   1.965
 8971SOL    HW227813   4.888   5.532   2.009
 8972SOL     OW27814   5.097   4.505   6.669
 8972SOL    HW127815   5.078   4.452   6.587
 8972SOL    HW227816   5.014   4.553   6.698
 8973SOL     OW27817   1.230   3.308   2.233
 8973SOL    HW127818   1.234   3.316   2.133
 8973SOL    HW227819   1.240   3.398   2.275
 8974SOL     OW27820   1.904   4.503   5.899
 8974SOL    HW127821   1.883   4.551   5.814
 8974SOL    HW227822   1.845   4.423   5.907
 8975SOL     OW27823   2.215   6.942   6.442
 8975SOL    HW127824   2.247   6.863   6.496
 8975SOL    HW227825   2.266   6.946   6.356
 8976SOL     OW27826   0.313   4.783   4.868
 8976SOL    HW127827   0.397   4.771   4.921
 8976SOL    HW227828   0.234   4.759   4.925
 8977SOL     OW27829   6.282   2.432   0.160
 8977SOL    HW127830   6.196   2.479   0.182
 8977SOL    HW227831   6.352   2.459   0.225
 8978SOL     OW27832   5.582   0.295   5.445
 8978SOL    HW127833   5.545   0.277   5.354
 8978SOL    HW227834   5.518   0.354   5.495
 8979SOL     OW27835   1.099   3.157   4.731
 8979SOL    HW127836   1.170   3.112   4.784
 8979SOL    HW227837   1.026   3.092   4.710
 8980SOL     OW27838   2.413   2.905   5.738
 8980SOL    HW127839   2.405   2.818   5.688
 8980SOL    HW227840   2.329   2.922   5.789
 8981SOL     OW27841   4.187   1.984   5.323
 8981SOL    HW127842   4.175   1.932   5.408
 8981SOL    HW227843   4.115   1.959   5.258
 8982SOL     OW27844   1.213   2.570   1.326
 8982SOL    HW127845   1.194   2.668   1.319
 8982SOL    HW227846   1.215   2.529   1.235
 8983SOL     OW27847   1.867   6.464   0.040
 8983SOL    HW127848   1.942   6.431   7.006
 8983SOL    HW227849   1.781   6.458   7.012
 8984SOL     OW27850   0.169   0.329   4.295
 8984SOL    HW127851   0.268   0.332   4.306
 8984SOL    HW227852   0.134   0.244   4.332
 8985SOL     OW27853   2.291   3.399   0.614
 8985SOL    HW127854   2.323   3.320   0.668
 8985SOL    HW227855   2.205   3.432   0.652
 8986SOL     OW27856   5.023   5.259   2.360
 8986SOL    HW127857   5.018   5.176   2.417
 8986SOL    HW227858   4.953   5.254   2.289
 8987SOL     OW27859   4.542   6.718   1.656
 8987SOL    HW127860   4.550   6.647   1.726
 8987SOL    HW227861   4.449   6.753   1.655
 8988SOL     OW27862   1.624   3.429   5.591
 8988SOL    HW127863   1.690   3.470   5.528
 8988SOL    HW227864   1.531   3.452   5.562
 8989SOL     OW27865   5.001   3.918   1.256
 8989SOL    HW127866   5.078   3.961   1.303
 8989SOL    HW227867   4.947   3.988   1.210
 8990SOL     OW27868   1.681   6.283   3.729
 8990SOL    HW127869   1.647   6.191   3.709
 8990SOL    HW227870   1.773   6.276   3.768
 8991SOL     OW27871   1.874   2.501   6.373
 8991SOL    HW127872   1.916   2.415   6.402
 8991SOL    HW227873   1.940   2.555   6.321
 8992SOL     OW27874   5.432   1.735   7.020
 8992SOL    HW127875   5.389   1.809   6.968
 8992SOL    HW227876   5.420   1.649   6.969
 8993SOL     OW27877   5.217   2.517   2.141
 8993SOL    HW127878   5.277   2.577   2.088
 8993SOL    HW227879   5.124   2.522   2.103
 8994SOL     OW27880   1.411   4.369   4.437
 8994SOL    HW127881   1.316   4.344   4.455
 8994SOL    HW227882   1.472   4.298   4.473
 8995SOL     OW27883   1.181   2.994   6.999
 8995SOL    HW127884   1.116   3.031   6.933
 8995SOL    HW227885   1.273   2.995   6.959
 8996SOL     OW27886   6.049   5.349   0.534
 8996SOL    HW127887   5.986   5.300   0.594
 8996SOL    HW227888   6.102   5.283   0.480
 8997SOL     OW27889   4.937   1.598   6.279
 8997SOL    HW127890   4.965   1.645   6.195
 8997SOL    HW227891   4.975   1.647   6.358
 8998SOL     OW27892   6.230   3.868   3.865
 8998SOL    HW127893   6.142   3.825   3.845
 8998SOL    HW227894   6.288   3.804   3.916
 8999SOL     OW27895   5.008   6.342   6.538
 8999SOL    HW127896   5.042   6.397   6.615
 8999SOL    HW227897   5.012   6.245   6.562
 9000SOL     OW27898   1.540   3.919   0.980
 9000SOL    HW127899   1.553   3.838   1.038
 9000SOL    HW227900   1.444   3.947   0.982
 9001SOL     OW27901   1.393   5.721   2.550
 9001SOL    HW127902   1.366   5.815   2.572
 9001SOL    HW227903   1.412   5.671   2.635
 9002SOL     OW27904   0.481   5.097   5.143
 9002SOL    HW127905   0.449   5.184   5.104
 9002SOL    HW227906   0.409   5.059   5.201
 9003SOL     OW27907   5.554   2.951   1.668
 9003SOL    HW127908   5.454   2.950   1.655
 9003SOL    HW227909   5.599   2.928   1.582
 9004SOL     OW27910   3.826   6.586   1.544
 9004SOL    HW127911   3.787   6.555   1.630
 9004SOL    HW227912   3.909   6.533   1.525
 9005SOL     OW27913   5.587   3.091   4.291
 9005SOL    HW127914   5.553   3.015   4.348
 9005SOL    HW227915   5.561   3.075   4.196
 9006SOL     OW27916   2.688   5.577   1.412
 9006SOL    HW127917   2.725   5.643   1.346
 9006SOL    HW227918   2.594   5.553   1.385
 9007SOL     OW27919   3.392   1.188   3.765
 9007SOL    HW127920   3.376   1.135   3.683
 9007SOL    HW227921   3.322   1.259   3.774
 9008SOL     OW27922   1.355   5.668   3.467
 9008SOL    HW127923   1.272   5.720   3.448
 9008SOL    HW227924   1.370   5.601   3.395
 9009SOL     OW27925   2.727   6.818   0.989
 9009SOL    HW127926   2.764   6.763   0.914
 9009SOL    HW227927   2.796   6.884   1.019
 9010SOL     OW27928   1.452   6.916   4.091
 9010SOL    HW127929   1.417   6.861   4.015
 9010SOL    HW227930   1.502   6.995   4.055
 9011SOL     OW27931   5.142   1.778   2.158
 9011SOL    HW127932   5.157   1.719   2.238
 9011SOL    HW227933   5.048   1.766   2.125
 9012SOL     OW27934   2.505   3.721   0.386
 9012SOL    HW127935   2.424   3.780   0.391
 9012SOL    HW227936   2.501   3.652   0.458
 9013SOL     OW27937   0.157   6.743   5.303
 9013SOL    HW127938   0.226   6.763   5.373
 9013SOL    HW227939   0.131   6.828   5.257
 9014SOL     OW27940   6.144   2.064   0.115
 9014SOL    HW127941   6.236   2.099   0.099
 9014SOL    HW227942   6.079   2.113   0.057
 9015SOL     OW27943   4.398   1.371   1.970
 9015SOL    HW127944   4.368   1.295   2.027
 9015SOL    HW227945   4.330   1.444   1.974
 9016SOL     OW27946   0.392   6.526   6.718
 9016SOL    HW127947   0.389   6.454   6.648
 9016SOL    HW227948   0.307   6.579   6.715
 9017SOL     OW27949   4.606   2.234   3.535
 9017SOL    HW127950   4.517   2.187   3.536
 9017SOL    HW227951   4.591   2.333   3.541
 9018SOL     OW27952   3.823   2.520   6.987
 9018SOL    HW127953   3.775   2.587   6.930
 9018SOL    HW227954   3.920   2.522   6.967
 9019SOL     OW27955   1.507   5.642   1.682
 9019SOL    HW127956   1.569   5.566   1.698
 9019SOL    HW227957   1.413   5.611   1.695
 9020SOL     OW27958   0.115   3.723   0.743
 9020SOL    HW127959   0.017   3.707   0.729
 9020SOL    HW227960   0.145   3.674   0.825
 9021SOL     OW27961   6.315   6.658   3.472
 9021SOL    HW127962   6.403   6.689   3.506
 9021SOL    HW227963   6.315   6.558   3.466
 9022SOL     OW27964   3.338   1.912   6.863
 9022SOL    HW127965   3.432   1.907   6.898
 9022SOL    HW227966   3.321   1.835   6.801
 9023SOL     OW27967   3.619   3.067   2.030
 9023SOL    HW127968   3.555   2.993   2.012
 9023SOL    HW227969   3.649   3.064   2.125
 9024SOL     OW27970   0.571   4.406   4.963
 9024SOL    HW127971   0.616   4.359   4.887
 9024SOL    HW227972   0.525   4.488   4.930
 9025SOL     OW27973   0.630   5.227   0.406
 9025SOL    HW127974   0.667   5.135   0.394
 9025SOL    HW227975   0.705   5.293   0.416
 9026SOL     OW27976   3.961   3.034   0.490
 9026SOL    HW127977   3.922   3.127   0.487
 9026SOL    HW227978   3.977   3.008   0.585
 9027SOL     OW27979   1.843   2.232   3.149
 9027SOL    HW127980   1.893   2.150   3.177
 9027SOL    HW227981   1.842   2.298   3.225
 9028SOL     OW27982   2.901   3.753   5.396
 9028SOL    HW127983   2.835   3.817   5.357
 9028SOL    HW227984   2.965   3.803   5.455
 9029SOL     OW27985   4.115   6.498   5.304
 9029SOL    HW127986   4.172   6.435   5.357
 9029SOL    HW227987   4.113   6.470   5.209
 9030SOL     OW27988   2.726   2.038   3.397
 9030SOL    HW127989   2.725   2.137   3.387
 9030SOL    HW227990   2.721   2.014   3.493
 9031SOL     OW27991   4.108   5.872   4.638
 9031SOL    HW127992   4.171   5.935   4.593
 9031SOL    HW227993   4.056   5.822   4.569
 9032SOL     OW27994   3.834   3.933   0.599
 9032SOL    HW127995   3.773   3.855   0.584
 9032SOL    HW227996   3.928   3.906   0.579
 9033SOL     OW27997   0.387   4.008   2.961
 9033SOL    HW127998   0.405   4.072   3.035
 9033SOL    HW227999   0.305   3.955   2.982
 9034SOL     OW28000   3.373   0.002   5.420
 9034SOL    HW128001   3.344   6.993   5.510
 9034SOL    HW228002   3.386   6.947   5.359
 9035SOL     OW28003   2.013   5.389   6.469
 9035SOL    HW128004   2.038   5.307   6.417
 9035SOL    HW228005   2.081   5.461   6.454
 9036SOL     OW28006   1.828   1.786   5.281
 9036SOL    HW128007   1.906   1.769   5.220
 9036SOL    HW228008   1.825   1.714   5.351
 9037SOL     OW28009   1.221   3.970   4.943
 9037SOL    HW128010   1.132   3.972   4.989
 9037SOL    HW228011   1.290   3.934   5.006
 9038SOL     OW28012   4.156   0.886   5.936
 9038SOL    HW128013   4.230   0.916   5.876
 9038SOL    HW228014   4.143   0.953   6.009
 9039SOL     OW28015   1.984   5.441   5.409
 9039SOL    HW128016   2.080   5.416   5.400
 9039SOL    HW228017   1.928   5.382   5.351
 9040SOL     OW28018   3.581   1.992   2.601
 9040SOL    HW128019   3.662   2.027   2.647
 9040SOL    HW228020   3.501   2.046   2.628
 9041SOL     OW28021   1.116   2.392   1.524
 9041SOL    HW128022   1.119   2.455   1.447
 9041SOL    HW228023   1.044   2.325   1.509
 9042SOL     OW28024   3.597   0.129   5.054
 9042SOL    HW128025   3.686   0.084   5.061
 9042SOL    HW228026   3.562   0.147   5.146
 9043SOL     OW28027   1.233   0.759   6.907
 9043SOL    HW128028   1.146   0.715   6.883
 9043SOL    HW228029   1.215   0.847   6.951
 9044SOL     OW28030   6.322   0.386   0.291
 9044SOL    HW128031   6.223   0.387   0.308
 9044SOL    HW228032   6.343   0.438   0.209
 9045SOL     OW28033   2.595   1.685   2.770
 9045SOL    HW128034   2.558   1.632   2.846
 9045SOL    HW228035   2.690   1.660   2.755
 9046SOL     OW28036   3.350   3.648   2.891
 9046SOL    HW128037   3.282   3.577   2.908
 9046SOL    HW228038   3.442   3.608   2.899
 9047SOL     OW28039   1.761   4.122   5.332
 9047SOL    HW128040   1.821   4.101   5.254
 9047SOL    HW228041   1.685   4.180   5.301
 9048SOL     OW28042   5.204   3.384   6.356
 9048SOL    HW128043   5.247   3.357   6.270
 9048SOL    HW228044   5.163   3.304   6.400
 9049SOL     OW28045   3.904   0.077   5.718
 9049SOL    HW128046   3.842   7.022   5.709
 9049SOL    HW228047   3.908   0.126   5.631
 9050SOL     OW28048   0.194   2.892   0.829
 9050SOL    HW128049   0.141   2.820   0.874
 9050SOL    HW228050   0.143   2.925   0.749
 9051SOL     OW28051   4.091   0.119   1.348
 9051SOL    HW128052   4.054   0.167   1.269
 9051SOL    HW228053   4.172   0.066   1.321
 9052SOL     OW28054   2.688   2.435   4.410
 9052SOL    HW128055   2.600   2.407   4.372
 9052SOL    HW228056   2.754   2.445   4.335
 9053SOL     OW28057   1.971   0.634   2.929
 9053SOL    HW128058   2.021   0.584   3.000
 9053SOL    HW228059   1.907   0.573   2.884
 9054SOL     OW28060   3.209   6.028   3.593
 9054SOL    HW128061   3.123   6.052   3.637
 9054SOL    HW228062   3.192   5.994   3.500
 9055SOL     OW28063   6.359   2.756   4.324
 9055SOL    HW128064   6.343   2.793   4.415
 9055SOL    HW228065   6.393   2.828   4.263
 9056SOL     OW28066   0.534   2.175   1.879
 9056SOL    HW128067   0.538   2.244   1.806
 9056SOL    HW228068   0.626   2.157   1.913
 9057SOL     OW28069   4.620   3.974   6.305
 9057SOL    HW128070   4.541   3.920   6.275
 9057SOL    HW228071   4.703   3.919   6.300
 9058SOL     OW28072   2.229   1.291   1.621
 9058SOL    HW128073   2.249   1.362   1.688
 9058SOL    HW228074   2.314   1.245   1.595
 9059SOL     OW28075   1.420   2.005   3.686
 9059SOL    HW128076   1.423   1.995   3.786
 9059SOL    HW228077   1.353   2.074   3.661
 9060SOL     OW28078   6.118   2.885   3.906
 9060SOL    HW128079   6.167   2.895   3.819
 9060SOL    HW228080   6.022   2.907   3.892
 9061SOL     OW28081   2.178   5.133   1.747
 9061SOL    HW128082   2.140   5.112   1.838
 9061SOL    HW228083   2.137   5.072   1.680
 9062SOL     OW28084   1.929   6.370   2.005
 9062SOL    HW128085   2.024   6.402   2.009
 9062SOL    HW228086   1.869   6.447   1.985
 9063SOL     OW28087   3.623   0.145   3.584
 9063SOL    HW128088   3.657   0.146   3.679
 9063SOL    HW228089   3.546   0.081   3.578
 9064SOL     OW28090   6.204   2.361   5.091
 9064SOL    HW128091   6.218   2.428   5.164
 9064SOL    HW228092   6.275   2.374   5.021
 9065SOL     OW28093   3.707   0.214   5.837
 9065SOL    HW128094   3.770   0.171   5.772
 9065SOL    HW228095   3.702   0.312   5.819
 9066SOL     OW28096   4.777   6.649   0.662
 9066SOL    HW128097   4.704   6.710   0.695
 9066SOL    HW228098   4.854   6.653   0.725
 9067SOL     OW28099   0.919   0.441   4.772
 9067SOL    HW128100   0.880   0.492   4.849
 9067SOL    HW228101   0.869   0.466   4.688
 9068SOL     OW28102   2.609   6.997   4.592
 9068SOL    HW128103   2.523   6.981   4.641
 9068SOL    HW228104   2.630   0.072   4.592
 9069SOL     OW28105   1.434   3.489   1.526
 9069SOL    HW128106   1.366   3.445   1.468
 9069SOL    HW228107   1.453   3.581   1.492
 9070SOL     OW28108   1.252   2.970   4.833
 9070SOL    HW128109   1.345   3.000   4.855
 9070SOL    HW228110   1.256   2.884   4.782
 9071SOL     OW28111   5.969   6.494   1.900
 9071SOL    HW128112   5.951   6.489   1.998
 9071SOL    HW228113   6.059   6.456   1.881
 9072SOL     OW28114   0.232   1.685   1.239
 9072SOL    HW128115   0.215   1.587   1.242
 9072SOL    HW228116   0.190   1.729   1.319
 9073SOL     OW28117   3.004   0.001   2.901
 9073SOL    HW128118   3.035   0.080   2.848
 9073SOL    HW228119   2.975   0.032   2.992
 9074SOL     OW28120   1.367   1.777   2.064
 9074SOL    HW128121   1.381   1.823   2.151
 9074SOL    HW228122   1.407   1.685   2.067
 9075SOL     OW28123   0.210   1.415   1.791
 9075SOL    HW128124   0.163   1.335   1.826
 9075SOL    HW228125   0.305   1.414   1.821
 9076SOL     OW28126   0.271   2.633   5.717
 9076SOL    HW128127   0.331   2.626   5.637
 9076SOL    HW228128   0.213   2.714   5.708
 9077SOL     OW28129   4.615   0.416   0.153
 9077SOL    HW128130   4.704   0.462   0.151
 9077SOL    HW228131   4.627   0.320   0.129
 9078SOL     OW28132   4.045   3.471   5.832
 9078SOL    HW128133   4.129   3.447   5.881
 9078SOL    HW228134   3.975   3.402   5.852
 9079SOL     OW28135   3.107   6.956   3.980
 9079SOL    HW128136   3.135   6.965   4.076
 9079SOL    HW228137   3.126   0.019   3.932
 9080SOL     OW28138   4.409   2.443   6.074
 9080SOL    HW128139   4.344   2.506   6.118
 9080SOL    HW228140   4.432   2.369   6.137
 9081SOL     OW28141   3.997   0.036   2.322
 9081SOL    HW128142   3.961   0.087   2.244
 9081SOL    HW228143   4.048   0.097   2.382
 9082SOL     OW28144   2.312   0.365   5.060
 9082SOL    HW128145   2.268   0.275   5.065
 9082SOL    HW228146   2.297   0.414   5.146
 9083SOL     OW28147   3.495   5.154   6.200
 9083SOL    HW128148   3.493   5.073   6.259
 9083SOL    HW228149   3.584   5.200   6.210
 9084SOL     OW28150   3.609   3.855   3.369
 9084SOL    HW128151   3.705   3.883   3.370
 9084SOL    HW228152   3.551   3.937   3.363
 9085SOL     OW28153   2.290   0.956   1.589
 9085SOL    HW128154   2.361   0.889   1.569
 9085SOL    HW228155   2.204   0.908   1.611
 9086SOL     OW28156   0.942   4.426   0.120
 9086SOL    HW128157   0.954   4.412   0.022
 9086SOL    HW228158   0.995   4.506   0.149
 9087SOL     OW28159   4.693   2.265   1.634
 9087SOL    HW128160   4.629   2.207   1.583
 9087SOL    HW228161   4.759   2.208   1.682
 9088SOL     OW28162   6.737   6.702   1.457
 9088SOL    HW128163   6.768   6.636   1.526
 9088SOL    HW228164   6.676   6.768   1.500
 9089SOL     OW28165   5.483   5.474   5.416
 9089SOL    HW128166   5.501   5.507   5.323
 9089SOL    HW228167   5.530   5.387   5.431
 9090SOL     OW28168   6.653   1.605   4.866
 9090SOL    HW128169   6.696   1.550   4.938
 9090SOL    HW228170   6.656   1.701   4.892
 9091SOL     OW28171   2.603   4.352   0.308
 9091SOL    HW128172   2.530   4.403   0.263
 9091SOL    HW228173   2.593   4.255   0.287
 9092SOL     OW28174   6.504   0.668   6.772
 9092SOL    HW128175   6.473   0.643   6.681
 9092SOL    HW228176   6.425   0.696   6.827
 9093SOL     OW28177   1.143   5.765   5.557
 9093SOL    HW128178   1.130   5.695   5.627
 9093SOL    HW228179   1.192   5.726   5.479
 9094SOL     OW28180   6.705   5.174   3.029
 9094SOL    HW128181   6.712   5.196   2.931
 9094SOL    HW228182   6.688   5.076   3.039
 9095SOL     OW28183   5.023   4.796   5.978
 9095SOL    HW128184   5.001   4.867   6.045
 9095SOL    HW228185   4.988   4.708   6.010
 9096SOL     OW28186   6.650   4.928   2.701
 9096SOL    HW128187   6.575   4.933   2.635
 9096SOL    HW228188   6.735   4.904   2.652
 9097SOL     OW28189   1.883   1.728   0.412
 9097SOL    HW128190   1.938   1.663   0.465
 9097SOL    HW228191   1.839   1.792   0.474
 9098SOL     OW28192   2.986   1.923   4.735
 9098SOL    HW128193   3.029   2.012   4.748
 9098SOL    HW228194   3.053   1.859   4.699
 9099SOL     OW28195   2.822   3.272   5.616
 9099SOL    HW128196   2.742   3.220   5.644
 9099SOL    HW228197   2.826   3.276   5.516
 9100SOL     OW28198   0.610   3.673   3.572
 9100SOL    HW128199   0.695   3.623   3.588
 9100SOL    HW228200   0.538   3.608   3.546
 9101SOL     OW28201   2.568   2.296   1.917
 9101SOL    HW128202   2.588   2.368   1.851
 9101SOL    HW228203   2.647   2.234   1.922
 9102SOL     OW28204   3.257   6.963   2.228
 9102SOL    HW128205   3.252   0.019   2.289
 9102SOL    HW228206   3.184   6.968   2.161
 9103SOL     OW28207   5.735   1.669   6.700
 9103SOL    HW128208   5.757   1.765   6.684
 9103SOL    HW228209   5.759   1.645   6.794
 9104SOL     OW28210   6.920   6.324   1.434
 9104SOL    HW128211   6.921   6.232   1.473
 9104SOL    HW228212   6.843   6.332   1.371
 9105SOL     OW28213   0.529   0.425   5.884
 9105SOL    HW128214   0.617   0.435   5.930
 9105SOL    HW228215   0.544   0.395   5.790
 9106SOL     OW28216   5.919   3.010   1.198
 9106SOL    HW128217   5.910   2.975   1.105
 9106SOL    HW228218   5.968   2.943   1.254
 9107SOL     OW28219   1.783   0.525   6.474
 9107SOL    HW128220   1.845   0.593   6.515
 9107SOL    HW228221   1.710   0.505   6.539
 9108SOL     OW28222   4.852   4.619   5.083
 9108SOL    HW128223   4.877   4.699   5.029
 9108SOL    HW228224   4.932   4.587   5.134
 9109SOL     OW28225   5.347   3.422   2.829
 9109SOL    HW128226   5.284   3.411   2.752
 9109SOL    HW228227   5.408   3.343   2.834
 9110SOL     OW28228   1.750   5.270   4.348
 9110SOL    HW128229   1.737   5.175   4.375
 9110SOL    HW228230   1.678   5.296   4.283
 9111SOL     OW28231   4.509   2.654   6.821
 9111SOL    HW128232   4.586   2.687   6.875
 9111SOL    HW228233   4.543   2.608   6.738
 9112SOL     OW28234   1.375   4.967   2.577
 9112SOL    HW128235   1.359   5.023   2.659
 9112SOL    HW228236   1.288   4.929   2.546
 9113SOL     OW28237   5.356   2.427   2.500
 9113SOL    HW128238   5.290   2.466   2.436
 9113SOL    HW228239   5.324   2.440   2.594
 9114SOL     OW28240   0.456   5.435   3.581
 9114SOL    HW128241   0.524   5.376   3.624
 9114SOL    HW228242   0.445   5.519   3.635
 9115SOL     OW28243   5.940   5.277   5.331
 9115SOL    HW128244   5.873   5.337   5.289
 9115SOL    HW228245   5.962   5.310   5.423
 9116SOL     OW28246   0.215   0.182   2.902
 9116SOL    HW128247   0.256   0.105   2.854
 9116SOL    HW228248   0.119   0.161   2.922
 9117SOL     OW28249   3.706   2.525   6.360
 9117SOL    HW128250   3.613   2.507   6.326
 9117SOL    HW228251   3.747   2.597   6.304
 9118SOL     OW28252   6.645   3.441   0.156
 9118SOL    HW128253   6.708   3.371   0.123
 9118SOL    HW228254   6.602   3.487   0.078
 9119SOL     OW28255   3.866   1.477   1.622
 9119SOL    HW128256   3.909   1.566   1.608
 9119SOL    HW228257   3.790   1.466   1.557
 9120SOL     OW28258   6.623   2.838   5.288
 9120SOL    HW128259   6.691   2.910   5.301
 9120SOL    HW228260   6.536   2.878   5.261
 9121SOL     OW28261   3.386   6.375   5.681
 9121SOL    HW128262   3.302   6.423   5.704
 9121SOL    HW228263   3.456   6.441   5.655
 9122SOL     OW28264   2.288   4.287   2.199
 9122SOL    HW128265   2.331   4.372   2.226
 9122SOL    HW228266   2.241   4.246   2.278
 9123SOL     OW28267   1.831   0.268   4.294
 9123SOL    HW128268   1.793   0.337   4.233
 9123SOL    HW228269   1.880   0.313   4.369
 9124SOL     OW28270   3.512   5.344   2.014
 9124SOL    HW128271   3.611   5.342   1.997
 9124SOL    HW228272   3.481   5.438   2.020
 9125SOL     OW28273   4.342   4.488   1.230
 9125SOL    HW128274   4.401   4.415   1.263
 9125SOL    HW228275   4.338   4.561   1.299
 9126SOL     OW28276   4.552   3.995   1.205
 9126SOL    HW128277   4.457   4.025   1.218
 9126SOL    HW228278   4.586   3.956   1.291
 9127SOL     OW28279   6.930   2.288   5.440
 9127SOL    HW128280   6.904   2.209   5.384
 9127SOL    HW228281   6.875   2.288   5.524
 9128SOL     OW28282   5.858   2.605   4.975
 9128SOL    HW128283   5.793   2.530   4.992
 9128SOL    HW228284   5.945   2.584   5.019
 9129SOL     OW28285   6.989   1.873   0.377
 9129SOL    HW128286   0.022   1.867   0.460
 9129SOL    HW228287   6.946   1.784   0.359
 9130SOL     OW28288   0.773   4.153   5.839
 9130SOL    HW128289   0.825   4.202   5.908
 9130SOL    HW228290   0.785   4.197   5.750
 9131SOL     OW28291   5.364   3.106   6.997
 9131SOL    HW128292   5.304   3.185   6.992
 9131SOL    HW228293   5.336   3.038   6.929
 9132SOL     OW28294   0.859   4.074   4.193
 9132SOL    HW128295   0.938   4.022   4.160
 9132SOL    HW228296   0.891   4.147   4.254
 9133SOL     OW28297   3.248   0.647   0.833
 9133SOL    HW128298   3.178   0.611   0.895
 9133SOL    HW228299   3.317   0.696   0.886
 9134SOL     OW28300   4.504   6.057   1.444
 9134SOL    HW128301   4.415   6.101   1.441
 9134SOL    HW228302   4.518   6.014   1.533
 9135SOL     OW28303   1.502   5.967   1.647
 9135SOL    HW128304   1.470   5.979   1.741
 9135SOL    HW228305   1.528   5.871   1.633
 9136SOL     OW28306   4.286   5.873   5.612
 9136SOL    HW128307   4.343   5.871   5.530
 9136SOL    HW228308   4.276   5.780   5.649
 9137SOL     OW28309   4.278   0.293   6.220
 9137SOL    HW128310   4.279   0.277   6.122
 9137SOL    HW228311   4.358   0.251   6.262
 9138SOL     OW28312   1.522   3.171   0.124
 9138SOL    HW128313   1.513   3.250   0.184
 9138SOL    HW228314   1.538   3.089   0.180
 9139SOL     OW28315   0.976   1.303   1.846
 9139SOL    HW128316   1.017   1.393   1.836
 9139SOL    HW228317   0.966   1.260   1.756
 9140SOL     OW28318   0.233   4.970   2.477
 9140SOL    HW128319   0.289   4.934   2.552
 9140SOL    HW228320   0.224   4.900   2.406
 9141SOL     OW28321   6.725   5.959   6.872
 9141SOL    HW128322   6.673   5.887   6.826
 9141SOL    HW228323   6.787   6.002   6.807
 9142SOL     OW28324   0.536   3.064   2.526
 9142SOL    HW128325   0.499   3.063   2.619
 9142SOL    HW228326   0.481   3.004   2.468
 9143SOL     OW28327   0.451   3.995   1.184
 9143SOL    HW128328   0.408   4.083   1.167
 9143SOL    HW228329   0.429   3.964   1.277
 9144SOL     OW28330   2.788   4.822   4.811
 9144SOL    HW128331   2.818   4.774   4.893
 9144SOL    HW228332   2.780   4.920   4.831
 9145SOL     OW28333   1.645   6.476   6.885
 9145SOL    HW128334   1.562   6.426   6.858
 9145SOL    HW228335   1.648   6.563   6.836
 9146SOL     OW28336   5.053   2.786   2.983
 9146SOL    HW128337   4.963   2.827   2.970
 9146SOL    HW228338   5.111   2.805   2.904
 9147SOL     OW28339   6.521   1.181   4.736
 9147SOL    HW128340   6.430   1.147   4.710
 9147SOL    HW228341   6.535   1.168   4.834
 9148SOL     OW28342   5.600   0.025   2.349
 9148SOL    HW128343   5.585   6.959   2.305
 9148SOL    HW228344   5.536   0.036   2.424
 9149SOL     OW28345   5.639   3.154   2.082
 9149SOL    HW128346   5.588   3.171   2.167
 9149SOL    HW228347   5.697   3.232   2.062
 9150SOL     OW28348   3.391   4.386   0.536
 9150SOL    HW128349   3.302   4.341   0.535
 9150SOL    HW228350   3.390   4.461   0.601
 9151SOL     OW28351   2.202   4.068   3.962
 9151SOL    HW128352   2.272   4.035   3.899
 9151SOL    HW228353   2.113   4.031   3.935
 9152SOL     OW28354   1.947   4.341   4.482
 9152SOL    HW128355   2.008   4.289   4.422
 9152SOL    HW228356   1.942   4.435   4.451
 9153SOL     OW28357   0.602   3.644   6.537
 9153SOL    HW128358   0.613   3.638   6.438
 9153SOL    HW228359   0.636   3.560   6.579
 9154SOL     OW28360   4.928   5.162   3.360
 9154SOL    HW128361   4.837   5.164   3.319
 9154SOL    HW228362   4.988   5.103   3.306
 9155SOL     OW28363   1.932   4.439   3.066
 9155SOL    HW128364   1.974   4.380   3.134
 9155SOL    HW228365   1.872   4.505   3.112
 9156SOL     OW28366   6.564   2.750   0.854
 9156SOL    HW128367   6.519   2.687   0.792
 9156SOL    HW228368   6.533   2.843   0.835
 9157SOL     OW28369   3.218   4.209   6.400
 9157SOL    HW128370   3.218   4.288   6.338
 9157SOL    HW228371   3.205   4.240   6.494
 9158SOL     OW28372   6.637   4.798   4.221
 9158SOL    HW128373   6.540   4.798   4.244
 9158SOL    HW228374   6.688   4.750   4.292
 9159SOL     OW28375   2.110   0.084   3.436
 9159SOL    HW128376   2.022   0.131   3.448
 9159SOL    HW228377   2.108   7.019   3.483
 9160SOL     OW28378   0.503   4.868   5.987
 9160SOL    HW128379   0.501   4.769   5.971
 9160SOL    HW228380   0.594   4.895   6.018
 9161SOL     OW28381   6.134   5.177   2.961
 9161SOL    HW128382   6.154   5.274   2.978
 9161SOL    HW228383   6.053   5.151   3.013
 9162SOL     OW28384   3.727   0.693   3.186
 9162SOL    HW128385   3.690   0.684   3.094
 9162SOL    HW228386   3.678   0.765   3.235
 9163SOL     OW28387   6.900   2.880   2.060
 9163SOL    HW128388   6.891   2.960   2.119
 9163SOL    HW228389   6.957   2.811   2.104
 9164SOL     OW28390   1.709   0.594   6.760
 9164SOL    HW128391   1.650   0.515   6.743
 9164SOL    HW228392   1.653   0.673   6.786
 9165SOL     OW28393   5.147   1.982   5.809
 9165SOL    HW128394   5.187   1.965   5.898
 9165SOL    HW228395   5.212   2.031   5.751
 9166SOL     OW28396   3.825   5.507   1.096
 9166SOL    HW128397   3.787   5.555   1.176
 9166SOL    HW228398   3.865   5.420   1.126
 9167SOL     OW28399   1.074   2.322   6.576
 9167SOL    HW128400   0.979   2.348   6.563
 9167SOL    HW228401   1.124   2.398   6.617
 9168SOL     OW28402   6.356   5.607   6.307
 9168SOL    HW128403   6.424   5.579   6.239
 9168SOL    HW228404   6.394   5.682   6.362
 9169SOL     OW28405   6.705   6.188   6.322
 9169SOL    HW128406   6.630   6.195   6.387
 9169SOL    HW228407   6.748   6.098   6.330
 9170SOL     OW28408   1.850   1.296   6.130
 9170SOL    HW128409   1.851   1.370   6.063
 9170SOL    HW228410   1.843   1.208   6.083
 9171SOL     OW28411   2.538   5.311   1.079
 9171SOL    HW128412   2.463   5.349   1.133
 9171SOL    HW228413   2.551   5.215   1.104
 9172SOL     OW28414   4.582   1.707   4.686
 9172SOL    HW128415   4.663   1.732   4.634
 9172SOL    HW228416   4.553   1.614   4.662
 9173SOL     OW28417   6.958   3.226   4.657
 9173SOL    HW128418   6.907   3.259   4.736
 9173SOL    HW228419   0.033   3.241   4.672
 9174SOL     OW28420   0.525   6.028   6.629
 9174SOL    HW128421   0.425   6.025   6.624
 9174SOL    HW228422   0.557   5.953   6.688
 9175SOL     OW28423   1.655   6.005   0.579
 9175SOL    HW128424   1.584   6.045   0.637
 9175SOL    HW228425   1.612   5.956   0.503
 9176SOL     OW28426   2.588   6.941   2.228
 9176SOL    HW128427   2.592   6.843   2.213
 9176SOL    HW228428   2.502   6.964   2.274
 9177SOL     OW28429   1.629   2.601   3.782
 9177SOL    HW128430   1.590   2.674   3.838
 9177SOL    HW228431   1.645   2.520   3.838
 9178SOL     OW28432   2.225   5.565   6.608
 9178SOL    HW128433   2.248   5.637   6.543
 9178SOL    HW228434   2.292   5.491   6.601
 9179SOL     OW28435   2.629   5.829   4.608
 9179SOL    HW128436   2.656   5.822   4.513
 9179SOL    HW228437   2.674   5.758   4.662
 9180SOL     OW28438   6.747   2.200   4.130
 9180SOL    HW128439   6.791   2.144   4.201
 9180SOL    HW228440   6.816   2.252   4.081
 9181SOL     OW28441   4.927   2.630   3.326
 9181SOL    HW128442   4.921   2.535   3.357
 9181SOL    HW228443   4.838   2.675   3.337
 9182SOL     OW28444   2.854   1.015   2.993
 9182SOL    HW128445   2.835   0.960   3.074
 9182SOL    HW228446   2.812   0.973   2.913
 9183SOL     OW28447   4.478   4.069   6.533
 9183SOL    HW128448   4.536   4.037   6.459
 9183SOL    HW228449   4.452   4.164   6.517
 9184SOL     OW28450   3.337   1.977   0.973
 9184SOL    HW128451   3.347   2.073   0.999
 9184SOL    HW228452   3.251   1.964   0.925
 9185SOL     OW28453   0.809   6.805   6.509
 9185SOL    HW128454   0.768   6.892   6.537
 9185SOL    HW228455   0.737   6.736   6.500
 9186SOL     OW28456   4.954   0.594   5.650
 9186SOL    HW128457   4.995   0.685   5.643
 9186SOL    HW228458   4.855   0.602   5.664
 9187SOL     OW28459   4.285   2.149   6.961
 9187SOL    HW128460   4.274   2.153   0.038
 9187SOL    HW228461   4.199   2.175   6.917
 9188SOL     OW28462   1.738   0.956   1.267
 9188SOL    HW128463   1.663   0.918   1.214
 9188SOL    HW228464   1.762   1.047   1.232
 9189SOL     OW28465   3.413   0.809   3.548
 9189SOL    HW128466   3.465   0.738   3.595
 9189SOL    HW228467   3.316   0.788   3.552
 9190SOL     OW28468   6.402   3.889   5.202
 9190SOL    HW128469   6.472   3.859   5.266
 9190SOL    HW228470   6.360   3.809   5.159
 9191SOL     OW28471   5.075   0.166   7.006
 9191SOL    HW128472   5.071   0.236   0.055
 9191SOL    HW228473   4.991   0.171   6.951
 9192SOL     OW28474   6.210   3.921   6.238
 9192SOL    HW128475   6.251   3.838   6.276
 9192SOL    HW228476   6.111   3.911   6.235
 9193SOL     OW28477   3.380   3.889   3.680
 9193SOL    HW128478   3.369   3.894   3.779
 9193SOL    HW228479   3.429   3.805   3.656
 9194SOL     OW28480   3.509   6.018   2.058
 9194SOL    HW128481   3.583   6.082   2.080
 9194SOL    HW228482   3.539   5.955   1.986
 9195SOL     OW28483   1.845   2.847   3.742
 9195SOL    HW128484   1.900   2.767   3.768
 9195SOL    HW228485   1.775   2.819   3.676
 9196SOL     OW28486   4.779   0.252   4.160
 9196SOL    HW128487   4.778   0.315   4.082
 9196SOL    HW228488   4.872   0.219   4.175
 9197SOL     OW28489   2.774   3.497   0.849
 9197SOL    HW128490   2.865   3.480   0.887
 9197SOL    HW228491   2.746   3.419   0.792
 9198SOL     OW28492   5.747   4.055   6.157
 9198SOL    HW128493   5.780   4.125   6.094
 9198SOL    HW228494   5.674   4.093   6.214
 9199SOL     OW28495   0.943   3.253   6.441
 9199SOL    HW128496   1.005   3.307   6.498
 9199SOL    HW228497   0.992   3.173   6.406
 9200SOL     OW28498   1.213   6.211   0.042
 9200SOL    HW128499   1.213   6.116   0.072
 9200SOL    HW228500   1.119   6.245   0.037
 9201SOL     OW28501   0.921   4.147   1.296
 9201SOL    HW128502   0.930   4.061   1.346
 9201SOL    HW228503   0.922   4.129   1.198
 9202SOL     OW28504   2.349   5.456   4.649
 9202SOL    HW128505   2.366   5.548   4.686
 9202SOL    HW228506   2.434   5.404   4.650
 9203SOL     OW28507   4.836   2.081   6.508
 9203SOL    HW128508   4.837   1.990   6.465
 9203SOL    HW228509   4.748   2.125   6.493
 9204SOL     OW28510   5.720   3.906   3.470
 9204SOL    HW128511   5.765   3.931   3.555
 9204SOL    HW228512   5.739   3.975   3.400
 9205SOL     OW28513   5.000   3.339   2.548
 9205SOL    HW128514   4.997   3.296   2.457
 9205SOL    HW228515   5.093   3.333   2.584
 9206SOL     OW28516   3.243   0.650   5.005
 9206SOL    HW128517   3.282   0.657   4.914
 9206SOL    HW228518   3.215   0.555   5.023
 9207SOL     OW28519   3.500   6.268   6.089
 9207SOL    HW128520   3.442   6.325   6.030
 9207SOL    HW228521   3.555   6.207   6.032
 9208SOL     OW28522   5.007   3.321   2.267
 9208SOL    HW128523   4.970   3.330   2.174
 9208SOL    HW228524   5.106   3.308   2.263
 9209SOL     OW28525   4.108   0.939   1.935
 9209SOL    HW128526   4.146   1.013   1.991
 9209SOL    HW228527   4.121   0.852   1.982
 9210SOL     OW28528   2.069   0.344   1.645
 9210SOL    HW128529   2.050   0.290   1.728
 9210SOL    HW228530   2.160   0.320   1.610
 9211SOL     OW28531   5.325   1.690   6.453
 9211SOL    HW128532   5.362   1.672   6.544
 9211SOL    HW228533   5.396   1.675   6.384
 9212SOL     OW28534   4.739   4.164   4.703
 9212SOL    HW128535   4.760   4.253   4.743
 9212SOL    HW228536   4.641   4.147   4.709
 9213SOL     OW28537   5.876   6.678   4.523
 9213SOL    HW128538   5.779   6.694   4.543
 9213SOL    HW228539   5.918   6.763   4.491
 9214SOL     OW28540   1.068   2.494   5.216
 9214SOL    HW128541   1.047   2.582   5.259
 9214SOL    HW228542   1.016   2.485   5.131
 9215SOL     OW28543   6.935   4.143   2.393
 9215SOL    HW128544   0.012   4.154   2.394
 9215SOL    HW228545   6.893   4.211   2.452
 9216SOL     OW28546   2.524   6.511   4.701
 9216SOL    HW128547   2.485   6.445   4.638
 9216SOL    HW228548   2.591   6.568   4.653
 9217SOL     OW28549   5.514   1.391   6.528
 9217SOL    HW128550   5.445   1.356   6.590
 9217SOL    HW228551   5.533   1.487   6.548
 9218SOL     OW28552   4.249   0.080   6.549
 9218SOL    HW128553   4.296   0.071   6.636
 9218SOL    HW228554   4.239   7.012   6.507
 9219SOL     OW28555   4.057   3.033   5.337
 9219SOL    HW128556   4.043   3.083   5.422
 9219SOL    HW228557   4.129   3.077   5.283
 9220SOL     OW28558   2.065   5.900   2.893
 9220SOL    HW128559   2.133   5.951   2.840
 9220SOL    HW228560   2.008   5.963   2.946
 9221SOL     OW28561   2.277   0.765   5.819
 9221SOL    HW128562   2.315   0.838   5.875
 9221SOL    HW228563   2.351   0.705   5.787
 9222SOL     OW28564   2.600   4.579   4.156
 9222SOL    HW128565   2.602   4.618   4.249
 9222SOL    HW228566   2.539   4.500   4.155
 9223SOL     OW28567   0.916   3.059   3.932
 9223SOL    HW128568   0.844   3.070   3.863
 9223SOL    HW228569   0.916   3.138   3.993
 9224SOL     OW28570   1.165   3.225   3.853
 9224SOL    HW128571   1.150   3.310   3.903
 9224SOL    HW228572   1.093   3.160   3.874
 9225SOL     OW28573   3.507   6.813   6.172
 9225SOL    HW128574   3.549   6.761   6.098
 9225SOL    HW228575   3.450   6.751   6.227
 9226SOL     OW28576   1.181   0.263   1.720
 9226SOL    HW128577   1.213   0.299   1.808
 9226SOL    HW228578   1.098   0.311   1.692
 9227SOL     OW28579   1.322   5.056   1.065
 9227SOL    HW128580   1.329   5.018   1.157
 9227SOL    HW228581   1.392   5.126   1.052
 9228SOL     OW28582   2.163   2.479   6.063
 9228SOL    HW128583   2.125   2.571   6.061
 9228SOL    HW228584   2.245   2.475   6.006
 9229SOL     OW28585   1.174   4.987   6.711
 9229SOL    HW128586   1.149   4.917   6.644
 9229SOL    HW228587   1.103   5.057   6.713
 9230SOL     OW28588   4.786   2.758   3.725
 9230SOL    HW128589   4.865   2.697   3.716
 9230SOL    HW228590   4.725   2.723   3.796
 9231SOL     OW28591   0.700   5.337   5.847
 9231SOL    HW128592   0.602   5.315   5.846
 9231SOL    HW228593   0.725   5.375   5.936
 9232SOL     OW28594   1.572   4.833   1.090
 9232SOL    HW128595   1.558   4.920   1.043
 9232SOL    HW228596   1.665   4.800   1.073
 9233SOL     OW28597   1.029   6.608   1.333
 9233SOL    HW128598   1.035   6.511   1.311
 9233SOL    HW228599   1.072   6.625   1.422
 9234SOL     OW28600   2.227   5.216   1.236
 9234SOL    HW128601   2.243   5.234   1.334
 9234SOL    HW228602   2.264   5.126   1.213
 9235SOL     OW28603   2.523   2.097   3.723
 9235SOL    HW128604   2.537   2.074   3.819
 9235SOL    HW228605   2.504   2.195   3.714
 9236SOL     OW28606   2.335   3.184   6.763
 9236SOL    HW128607   2.287   3.272   6.755
 9236SOL    HW228608   2.433   3.199   6.748
 9237SOL     OW28609   7.016   6.031   2.993
 9237SOL    HW128610   7.012   6.119   3.041
 9237SOL    HW228611   0.089   6.006   2.977
 9238SOL     OW28612   2.532   2.642   6.051
 9238SOL    HW128613   2.592   2.660   5.973
 9238SOL    HW228614   2.536   2.545   6.074
 9239SOL     OW28615   0.010   4.509   6.531
 9239SOL    HW128616   6.982   4.591   6.504
 9239SOL    HW228617   6.983   4.427   6.502
 9240SOL     OW28618   5.513   3.220   2.908
 9240SOL    HW128619   5.492   3.124   2.923
 9240SOL    HW228620   5.608   3.230   2.879
 9241SOL     OW28621   6.952   5.733   0.306
 9241SOL    HW128622   6.948   5.710   0.209
 9241SOL    HW228623   7.018   5.807   0.320
 9242SOL     OW28624   1.979   2.024   2.027
 9242SOL    HW128625   1.968   2.055   1.932
 9242SOL    HW228626   2.056   2.072   2.069
 9243SOL     OW28627   1.540   0.378   1.947
 9243SOL    HW128628   1.574   0.443   2.015
 9243SOL    HW228629   1.594   0.386   1.863
 9244SOL     OW28630   2.892   6.519   6.264
 9244SOL    HW128631   2.858   6.433   6.301
 9244SOL    HW228632   2.901   6.585   6.339
 9245SOL     OW28633   1.190   4.016   3.482
 9245SOL    HW128634   1.266   4.056   3.430
 9245SOL    HW228635   1.110   4.007   3.422
 9246SOL     OW28636   5.982   0.603   4.255
 9246SOL    HW128637   5.939   0.613   4.165
 9246SOL    HW228638   6.072   0.561   4.243
 9247SOL     OW28639   3.966   5.348   3.076
 9247SOL    HW128640   3.872   5.364   3.107
 9247SOL    HW228641   3.973   5.371   2.979
 9248SOL     OW28642   2.850   1.460   5.262
 9248SOL    HW128643   2.841   1.558   5.248
 9248SOL    HW228644   2.946   1.438   5.282
 9249SOL     OW28645   3.927   5.082   1.807
 9249SOL    HW128646   3.974   5.094   1.894
 9249SOL    HW228647   3.903   4.985   1.795
 9250SOL     OW28648   6.736   3.659   4.156
 9250SOL    HW128649   6.824   3.699   4.133
 9250SOL    HW228650   6.711   3.590   4.088
 9251SOL     OW28651   4.025   2.668   1.437
 9251SOL    HW128652   4.067   2.733   1.500
 9251SOL    HW228653   4.017   2.710   1.346
 9252SOL     OW28654   5.012   0.748   5.251
 9252SOL    HW128655   4.951   0.793   5.316
 9252SOL    HW228656   4.980   0.764   5.158
 9253SOL     OW28657   5.576   4.643   5.382
 9253SOL    HW128658   5.649   4.592   5.428
 9253SOL    HW228659   5.494   4.642   5.438
 9254SOL     OW28660   5.384   4.260   2.205
 9254SOL    HW128661   5.441   4.278   2.285
 9254SOL    HW228662   5.347   4.167   2.211
 9255SOL     OW28663   5.810   3.588   6.581
 9255SOL    HW128664   5.886   3.524   6.591
 9255SOL    HW228665   5.772   3.581   6.489
 9256SOL     OW28666   2.069   0.186   1.919
 9256SOL    HW128667   1.982   0.157   1.958
 9256SOL    HW228668   2.143   0.131   1.958
 9257SOL     OW28669   6.091   5.759   3.466
 9257SOL    HW128670   6.051   5.841   3.505
 9257SOL    HW228671   6.066   5.751   3.370
 9258SOL     OW28672   3.407   3.465   0.756
 9258SOL    HW128673   3.419   3.412   0.840
 9258SOL    HW228674   3.423   3.562   0.775
 9259SOL     OW28675   1.915   1.455   0.131
 9259SOL    HW128676   1.910   1.485   0.036
 9259SOL    HW228677   1.835   1.490   0.181
 9260SOL     OW28678   6.807   2.758   6.172
 9260SOL    HW128679   6.718   2.796   6.146
 9260SOL    HW228680   6.840   2.697   6.100
 9261SOL     OW28681   4.623   1.258   0.032
 9261SOL    HW128682   4.665   1.220   0.114
 9261SOL    HW228683   4.607   1.355   0.045
 9262SOL     OW28684   0.865   6.989   4.954
 9262SOL    HW128685   0.922   6.944   5.023
 9262SOL    HW228686   0.905   0.054   4.930
 9263SOL     OW28687   3.282   5.835   3.180
 9263SOL    HW128688   3.185   5.854   3.164
 9263SOL    HW228689   3.310   5.756   3.125
 9264SOL     OW28690   4.842   3.811   6.358
 9264SOL    HW128691   4.873   3.730   6.308
 9264SOL    HW228692   4.917   3.877   6.364
 9265SOL     OW28693   3.966   2.105   6.451
 9265SOL    HW128694   4.064   2.093   6.438
 9265SOL    HW228695   3.940   2.199   6.431
 9266SOL     OW28696   0.636   5.722   1.151
 9266SOL    HW128697   0.608   5.771   1.068
 9266SOL    HW228698   0.668   5.631   1.126
 9267SOL     OW28699   1.013   1.756   4.062
 9267SOL    HW128700   0.959   1.707   4.130
 9267SOL    HW228701   1.093   1.702   4.038
 9268SOL     OW28702   0.991   6.290   2.598
 9268SOL    HW128703   0.899   6.325   2.613
 9268SOL    HW228704   1.020   6.309   2.504
 9269SOL     OW28705   4.373   0.551   6.356
 9269SOL    HW128706   4.320   0.477   6.398
 9269SOL    HW228707   4.359   0.550   6.257
 9270SOL     OW28708   3.294   0.707   5.596
 9270SOL    HW128709   3.289   0.771   5.519
 9270SOL    HW228710   3.203   0.670   5.614
 9271SOL     OW28711   0.561   6.934   0.601
 9271SOL    HW128712   0.533   6.895   0.513
 9271SOL    HW228713   0.485   6.984   0.641
 9272SOL     OW28714   0.814   6.338   6.811
 9272SOL    HW128715   0.716   6.338   6.831
 9272SOL    HW228716   0.832   6.275   6.736
 9273SOL     OW28717   5.140   6.304   3.558
 9273SOL    HW128718   5.069   6.285   3.626
 9273SOL    HW228719   5.140   6.233   3.489
 9274SOL     OW28720   0.050   2.218   0.228
 9274SOL    HW128721   0.036   2.163   0.146
 9274SOL    HW228722   0.133   2.273   0.218
 9275SOL     OW28723   0.151   6.474   0.175
 9275SOL    HW128724   0.202   6.388   0.180
 9275SOL    HW228725   0.200   6.538   0.115
 9276SOL     OW28726   2.591   4.146   6.937
 9276SOL    HW128727   2.529   4.214   6.898
 9276SOL    HW228728   2.684   4.165   6.907
 9277SOL     OW28729   4.011   4.820   3.459
 9277SOL    HW128730   4.098   4.795   3.502
 9277SOL    HW228731   3.978   4.905   3.499
 9278SOL     OW28732   0.254   0.649   5.304
 9278SOL    HW128733   0.173   0.699   5.336
 9278SOL    HW228734   0.250   0.640   5.205
 9279SOL     OW28735   3.284   6.269   1.709
 9279SOL    HW128736   3.254   6.301   1.619
 9279SOL    HW228737   3.384   6.275   1.715
 9280SOL     OW28738   2.268   2.398   2.137
 9280SOL    HW128739   2.215   2.482   2.124
 9280SOL    HW228740   2.365   2.419   2.128
 9281SOL     OW28741   3.364   3.779   5.947
 9281SOL    HW128742   3.458   3.775   5.913
 9281SOL    HW228743   3.317   3.693   5.925
 9282SOL     OW28744   4.934   1.367   4.317
 9282SOL    HW128745   4.984   1.281   4.322
 9282SOL    HW228746   4.890   1.385   4.404
 9283SOL     OW28747   5.337   0.449   6.172
 9283SOL    HW128748   5.290   0.537   6.163
 9283SOL    HW228749   5.395   0.433   6.093
 9284SOL     OW28750   2.942   3.928   4.931
 9284SOL    HW128751   2.845   3.940   4.949
 9284SOL    HW228752   2.957   3.844   4.880
 9285SOL     OW28753   5.456   3.267   1.097
 9285SOL    HW128754   5.373   3.256   1.041
 9285SOL    HW228755   5.433   3.318   1.180
 9286SOL     OW28756   4.968   5.751   0.224
 9286SOL    HW128757   4.876   5.727   0.255
 9286SOL    HW228758   5.009   5.671   0.179
 9287SOL     OW28759   2.829   4.187   5.548
 9287SOL    HW128760   2.925   4.212   5.558
 9287SOL    HW228761   2.817   4.131   5.466
 9288SOL     OW28762   4.693   2.177   3.042
 9288SOL    HW128763   4.657   2.084   3.033
 9288SOL    HW228764   4.678   2.210   3.135
 9289SOL     OW28765   4.603   0.660   6.497
 9289SOL    HW128766   4.528   0.615   6.448
 9289SOL    HW228767   4.684   0.664   6.439
 9290SOL     OW28768   6.322   0.730   4.099
 9290SOL    HW128769   6.268   0.650   4.073
 9290SOL    HW228770   6.300   0.756   4.193
 9291SOL     OW28771   1.245   6.400   5.992
 9291SOL    HW128772   1.191   6.318   5.969
 9291SOL    HW228773   1.303   6.381   6.071
 9292SOL     OW28774   1.619   0.998   6.720
 9292SOL    HW128775   1.590   0.921   6.777
 9292SOL    HW228776   1.671   0.965   6.642
 9293SOL     OW28777   5.235   2.921   6.718
 9293SOL    HW128778   5.179   2.933   6.800
 9293SOL    HW228779   5.188   2.860   6.654
 9294SOL     OW28780   4.798   1.173   0.288
 9294SOL    HW128781   4.868   1.108   0.260
 9294SOL    HW228782   4.838   1.265   0.293
 9295SOL     OW28783   0.111   0.865   5.413
 9295SOL    HW128784   0.126   0.954   5.370
 9295SOL    HW228785   0.190   0.841   5.468
 9296SOL     OW28786   2.138   3.819   0.943
 9296SOL    HW128787   2.233   3.846   0.961
 9296SOL    HW228788   2.129   3.720   0.951
 9297SOL     OW28789   0.666   6.012   2.925
 9297SOL    HW128790   0.760   6.031   2.897
 9297SOL    HW228791   0.607   6.008   2.845
 9298SOL     OW28792   1.186   6.916   6.032
 9298SOL    HW128793   1.271   6.946   6.074
 9298SOL    HW228794   1.144   6.846   6.090
 9299SOL     OW28795   1.768   1.043   3.637
 9299SOL    HW128796   1.759   1.139   3.611
 9299SOL    HW228797   1.808   0.992   3.561
 9300SOL     OW28798   0.109   5.602   5.221
 9300SOL    HW128799   0.164   5.551   5.287
 9300SOL    HW228800   0.015   5.567   5.221
 9301SOL     OW28801   0.106   4.424   4.859
 9301SOL    HW128802   0.092   4.455   4.765
 9301SOL    HW228803   0.017   4.416   4.905
 9302SOL     OW28804   2.252   2.879   4.625
 9302SOL    HW128805   2.232   2.937   4.703
 9302SOL    HW228806   2.297   2.795   4.656
 9303SOL     OW28807   3.163   4.869   0.624
 9303SOL    HW128808   3.221   4.913   0.555
 9303SOL    HW228809   3.072   4.909   0.622
 9304SOL     OW28810   4.758   5.349   0.504
 9304SOL    HW128811   4.728   5.444   0.515
 9304SOL    HW228812   4.843   5.347   0.450
 9305SOL     OW28813   3.714   1.302   0.585
 9305SOL    HW128814   3.694   1.207   0.607
 9305SOL    HW228815   3.630   1.355   0.586
 9306SOL     OW28816   7.017   3.596   4.791
 9306SOL    HW128817   6.956   3.672   4.813
 9306SOL    HW228818   0.065   3.628   4.727
 9307SOL     OW28819   1.646   3.847   0.363
 9307SOL    HW128820   1.598   3.840   0.451
 9307SOL    HW228821   1.729   3.792   0.366
 9308SOL     OW28822   1.001   4.745   1.405
 9308SOL    HW128823   1.073   4.677   1.418
 9308SOL    HW228824   0.928   4.729   1.471
 9309SOL     OW28825   4.156   6.381   6.408
 9309SOL    HW128826   4.086   6.433   6.361
 9309SOL    HW228827   4.125   6.287   6.421
 9310SOL     OW28828   5.047   5.879   5.623
 9310SOL    HW128829   5.067   5.965   5.576
 9310SOL    HW228830   5.132   5.841   5.660
 9311SOL     OW28831   4.693   4.327   1.234
 9311SOL    HW128832   4.773   4.387   1.230
 9311SOL    HW228833   4.723   4.232   1.226
 9312SOL     OW28834   1.875   2.166   1.378
 9312SOL    HW128835   1.931   2.240   1.342
 9312SOL    HW228836   1.845   2.107   1.303
 9313SOL     OW28837   0.581   0.845   1.739
 9313SOL    HW128838   0.639   0.860   1.658
 9313SOL    HW228839   0.626   0.781   1.801
 9314SOL     OW28840   5.693   3.452   0.636
 9314SOL    HW128841   5.779   3.456   0.587
 9314SOL    HW228842   5.671   3.357   0.660
 9315SOL     OW28843   6.343   0.778   6.268
 9315SOL    HW128844   6.280   0.856   6.261
 9315SOL    HW228845   6.366   0.745   6.176
 9316SOL     OW28846   6.162   0.172   4.868
 9316SOL    HW128847   6.147   0.263   4.905
 9316SOL    HW228848   6.186   0.109   4.942
 9317SOL     OW28849   3.712   5.353   3.462
 9317SOL    HW128850   3.796   5.313   3.425
 9317SOL    HW228851   3.673   5.290   3.530
 9318SOL     OW28852   4.209   5.571   0.300
 9318SOL    HW128853   4.157   5.648   0.262
 9318SOL    HW228854   4.305   5.600   0.312
 9319SOL     OW28855   2.476   2.921   0.530
 9319SOL    HW128856   2.410   2.875   0.471
 9319SOL    HW228857   2.524   2.852   0.586
 9320SOL     OW28858   4.497   0.081   5.757
 9320SOL    HW128859   4.413   0.109   5.803
 9320SOL    HW228860   4.571   0.075   5.824
 9321SOL     OW28861   0.905   1.943   5.528
 9321SOL    HW128862   0.876   2.039   5.527
 9321SOL    HW228863   0.831   1.886   5.565
 9322SOL     OW28864   6.292   4.781   5.787
 9322SOL    HW128865   6.392   4.775   5.777
 9322SOL    HW228866   6.250   4.702   5.742
 9323SOL     OW28867   2.150   2.516   4.630
 9323SOL    HW128868   2.225   2.579   4.649
 9323SOL    HW228869   2.069   2.544   4.681
 9324SOL     OW28870   1.869   3.729   1.086
 9324SOL    HW128871   1.957   3.776   1.093
 9324SOL    HW228872   1.878   3.648   1.028
 9325SOL     OW28873   1.428   6.253   1.800
 9325SOL    HW128874   1.431   6.154   1.812
 9325SOL    HW228875   1.341   6.279   1.759
 9326SOL     OW28876   3.522   5.530   0.115
 9326SOL    HW128877   3.591   5.592   0.076
 9326SOL    HW228878   3.559   5.486   0.197
 9327SOL     OW28879   4.544   0.227   2.691
 9327SOL    HW128880   4.532   0.226   2.791
 9327SOL    HW228881   4.641   0.240   2.670
 9328SOL     OW28882   2.348   6.953   4.700
 9328SOL    HW128883   2.337   7.012   4.780
 9328SOL    HW228884   2.355   6.857   4.730
 9329SOL     OW28885   6.918   5.510   6.873
 9329SOL    HW128886   6.978   5.528   6.796
 9329SOL    HW228887   6.852   5.439   6.848
 9330SOL     OW28888   0.721   0.039   6.552
 9330SOL    HW128889   0.719   0.128   6.597
 9330SOL    HW228890   0.645   0.033   6.487
 9331SOL     OW28891   1.760   2.666   5.589
 9331SOL    HW128892   1.686   2.603   5.610
 9331SOL    HW228893   1.770   2.676   5.490
 9332SOL     OW28894   4.483   5.570   0.480
 9332SOL    HW128895   4.432   5.561   0.566
 9332SOL    HW228896   4.461   5.493   0.421
 9333SOL     OW28897   3.807   5.688   0.611
 9333SOL    HW128898   3.902   5.708   0.635
 9333SOL    HW228899   3.768   5.625   0.678
 9334SOL     OW28900   5.496   0.320   4.104
 9334SOL    HW128901   5.594   0.313   4.087
 9334SOL    HW228902   5.446   0.299   4.020
 9335SOL     OW28903   1.668   2.322   0.720
 9335SOL    HW128904   1.721   2.402   0.747
 9335SOL    HW228905   1.570   2.343   0.728
 9336SOL     OW28906   5.739   0.002   4.372
 9336SOL    HW128907   5.696   6.967   4.303
 9336SOL    HW228908   5.838   7.014   4.367
 9337SOL     OW28909   4.827   0.752   0.099
 9337SOL    HW128910   4.794   0.733   0.006
 9337SOL    HW228911   4.750   0.757   0.162
 9338SOL     OW28912   6.891   5.831   0.554
 9338SOL    HW128913   6.895   5.764   0.629
 9338SOL    HW228914   6.861   5.786   0.470
 9339SOL     OW28915   5.901   5.565   0.505
 9339SOL    HW128916   5.945   5.477   0.489
 9339SOL    HW228917   5.868   5.570   0.599
 9340SOL     OW28918   3.944   5.068   2.896
 9340SOL    HW128919   3.850   5.096   2.878
 9340SOL    HW228920   3.946   5.009   2.976
 9341SOL     OW28921   6.812   4.322   6.392
 9341SOL    HW128922   6.786   4.292   6.483
 9341SOL    HW228923   6.805   4.246   6.328
 9342SOL     OW28924   2.850   0.603   4.756
 9342SOL    HW128925   2.899   0.516   4.761
 9342SOL    HW228926   2.763   0.595   4.804
 9343SOL     OW28927   4.952   3.345   2.001
 9343SOL    HW128928   4.861   3.383   1.985
 9343SOL    HW228929   4.992   3.318   1.913
 9344SOL     OW28930   5.010   5.571   6.331
 9344SOL    HW128931   5.109   5.566   6.335
 9344SOL    HW228932   4.976   5.508   6.260
 9345SOL     OW28933   6.229   5.296   6.700
 9345SOL    HW128934   6.204   5.310   6.796
 9345SOL    HW228935   6.252   5.385   6.659
 9346SOL     OW28936   5.008   5.857   2.388
 9346SOL    HW128937   5.098   5.813   2.388
 9346SOL    HW228938   4.943   5.799   2.339
 9347SOL     OW28939   3.696   5.754   0.346
 9347SOL    HW128940   3.717   5.689   0.273
 9347SOL    HW228941   3.747   5.730   0.428
 9348SOL     OW28942   2.715   5.443   3.256
 9348SOL    HW128943   2.672   5.477   3.172
 9348SOL    HW228944   2.645   5.424   3.324
 9349SOL     OW28945   6.269   5.785   2.163
 9349SOL    HW128946   6.362   5.815   2.187
 9349SOL    HW228947   6.228   5.850   2.099
 9350SOL     OW28948   0.035   1.217   4.071
 9350SOL    HW128949   0.076   1.291   4.018
 9350SOL    HW228950   0.032   1.243   4.167
 9351SOL     OW28951   2.402   0.755   6.201
 9351SOL    HW128952   2.422   0.748   6.299
 9351SOL    HW228953   2.311   0.716   6.183
 9352SOL     OW28954   1.744   3.099   5.808
 9352SOL    HW128955   1.734   3.003   5.783
 9352SOL    HW228956   1.662   3.149   5.782
 9353SOL     OW28957   1.484   4.254   1.972
 9353SOL    HW128958   1.443   4.324   2.030
 9353SOL    HW228959   1.541   4.194   2.027
 9354SOL     OW28960   6.005   1.587   0.813
 9354SOL    HW128961   6.057   1.532   0.747
 9354SOL    HW228962   5.923   1.537   0.840
 9355SOL     OW28963   6.236   1.142   3.978
 9355SOL    HW128964   6.279   1.093   4.054
 9355SOL    HW228965   6.244   1.241   3.994
 9356SOL     OW28966   4.783   5.231   2.202
 9356SOL    HW128967   4.750   5.324   2.222
 9356SOL    HW228968   4.757   5.170   2.277
 9357SOL     OW28969   2.403   4.336   6.896
 9357SOL    HW128970   2.413   4.432   6.921
 9357SOL    HW228971   2.327   4.297   6.948
 9358SOL     OW28972   5.657   2.904   1.394
 9358SOL    HW128973   5.746   2.940   1.367
 9358SOL    HW228974   5.585   2.956   1.348
 9359SOL     OW28975   0.395   3.496   5.411
 9359SOL    HW128976   0.486   3.515   5.374
 9359SOL    HW228977   0.376   3.557   5.488
 9360SOL     OW28978   1.031   0.101   5.913
 9360SOL    HW128979   0.990   0.059   5.833
 9360SOL    HW228980   1.055   0.030   5.980
 9361SOL     OW28981   2.346   6.681   3.529
 9361SOL    HW128982   2.392   6.766   3.501
 9361SOL    HW228983   2.255   6.679   3.489
 9362SOL     OW28984   1.519   1.432   1.805
 9362SOL    HW128985   1.515   1.472   1.896
 9362SOL    HW228986   1.429   1.436   1.763
 9363SOL     OW28987   4.019   5.399   2.122
 9363SOL    HW128988   3.982   5.424   2.211
 9363SOL    HW228989   4.074   5.474   2.086
 9364SOL     OW28990   4.004   3.680   6.172
 9364SOL    HW128991   4.057   3.609   6.218
 9364SOL    HW228992   3.995   3.759   6.231
 9365SOL     OW28993   2.757   1.484   4.929
 9365SOL    HW128994   2.743   1.465   4.831
 9365SOL    HW228995   2.787   1.400   4.975
 9366SOL     OW28996   3.149   1.676   6.999
 9366SOL    HW128997   3.237   1.722   6.994
 9366SOL    HW228998   3.077   1.735   6.963
 9367SOL     OW28999   0.326   6.041   3.720
 9367SOL    HW129000   0.412   6.086   3.746
 9367SOL    HW229001   0.279   6.095   3.651
 9368SOL     OW29002   3.253   1.833   3.558
 9368SOL    HW129003   3.323   1.905   3.556
 9368SOL    HW229004   3.215   1.821   3.467
 9369SOL     OW29005   0.748   0.594   5.986
 9369SOL    HW129006   0.842   0.594   5.953
 9369SOL    HW229007   0.746   0.561   6.080
 9370SOL     OW29008   5.114   0.525   2.531
 9370SOL    HW129009   5.148   0.446   2.581
 9370SOL    HW229010   5.183   0.596   2.528
 9371SOL     OW29011   2.322   4.828   0.073
 9371SOL    HW129012   2.339   4.835   0.171
 9371SOL    HW229013   2.231   4.788   0.057
 9372SOL     OW29014   5.614   5.924   3.129
 9372SOL    HW129015   5.635   5.839   3.177
 9372SOL    HW229016   5.596   5.996   3.195
 9373SOL     OW29017   4.595   2.157   2.519
 9373SOL    HW129018   4.655   2.170   2.598
 9373SOL    HW229019   4.539   2.238   2.505
 9374SOL     OW29020   6.492   3.001   6.763
 9374SOL    HW129021   6.457   2.909   6.747
 9374SOL    HW229022   6.447   3.066   6.702
 9375SOL     OW29023   6.911   2.193   3.412
 9375SOL    HW129024   6.837   2.127   3.428
 9375SOL    HW229025   6.970   2.159   3.339
 9376SOL     OW29026   2.752   3.788   1.224
 9376SOL    HW129027   2.736   3.692   1.247
 9376SOL    HW229028   2.691   3.815   1.150
 9377SOL     OW29029   1.569   6.059   3.627
 9377SOL    HW129030   1.474   6.055   3.597
 9377SOL    HW229031   1.629   6.030   3.553
 9378SOL     OW29032   0.805   0.345   5.518
 9378SOL    HW129033   0.763   0.269   5.567
 9378SOL    HW229034   0.870   0.311   5.451
 9379SOL     OW29035   4.531   5.009   5.126
 9379SOL    HW129036   4.539   5.053   5.036
 9379SOL    HW229037   4.505   5.076   5.195
 9380SOL     OW29038   6.209   4.683   4.766
 9380SOL    HW129039   6.182   4.587   4.759
 9380SOL    HW229040   6.154   4.728   4.837
 9381SOL     OW29041   2.172   3.419   5.838
 9381SOL    HW129042   2.147   3.434   5.742
 9381SOL    HW229043   2.105   3.357   5.880
 9382SOL     OW29044   3.394   1.595   3.298
 9382SOL    HW129045   3.365   1.677   3.249
 9382SOL    HW229046   3.320   1.528   3.297
 9383SOL     OW29047   2.712   6.175   4.525
 9383SOL    HW129048   2.693   6.105   4.593
 9383SOL    HW229049   2.807   6.205   4.533
 9384SOL     OW29050   3.693   6.086   1.598
 9384SOL    HW129051   3.691   6.184   1.578
 9384SOL    HW229052   3.676   6.035   1.513
 9385SOL     OW29053   4.278   1.237   2.394
 9385SOL    HW129054   4.270   1.290   2.478
 9385SOL    HW229055   4.349   1.167   2.405
 9386SOL     OW29056   1.999   6.467   5.082
 9386SOL    HW129057   1.970   6.416   5.001
 9386SOL    HW229058   2.073   6.417   5.128
 9387SOL     OW29059   3.438   0.863   6.870
 9387SOL    HW129060   3.515   0.924   6.886
 9387SOL    HW229061   3.364   0.912   6.825
 9388SOL     OW29062   1.980   5.462   2.752
 9388SOL    HW129063   1.918   5.440   2.676
 9388SOL    HW229064   1.926   5.483   2.834
 9389SOL     OW29065   2.111   0.182   5.020
 9389SOL    HW129066   2.035   0.205   4.959
 9389SOL    HW229067   2.076   0.164   5.112
 9390SOL     OW29068   3.844   5.636   4.910
 9390SOL    HW129069   3.857   5.618   4.812
 9390SOL    HW229070   3.921   5.691   4.943
 9391SOL     OW29071   2.408   0.605   4.971
 9391SOL    HW129072   2.497   0.649   4.966
 9391SOL    HW229073   2.419   0.511   5.003
 9392SOL     OW29074   6.974   0.602   5.166
 9392SOL    HW129075   6.998   0.683   5.112
 9392SOL    HW229076   6.877   0.607   5.191
 9393SOL     OW29077   3.054   0.705   5.193
 9393SOL    HW129078   3.032   0.778   5.258
 9393SOL    HW229079   3.153   0.697   5.183
 9394SOL     OW29080   6.660   1.530   2.177
 9394SOL    HW129081   6.579   1.492   2.132
 9394SOL    HW229082   6.665   1.498   2.271
 9395SOL     OW29083   2.456   2.559   0.529
 9395SOL    HW129084   2.404   2.544   0.613
 9395SOL    HW229085   2.552   2.574   0.552
 9396SOL     OW29086   0.810   5.213   3.160
 9396SOL    HW129087   0.904   5.238   3.134
 9396SOL    HW229088   0.792   5.246   3.252
 9397SOL     OW29089   3.064   0.294   0.812
 9397SOL    HW129090   2.981   0.348   0.825
 9397SOL    HW229091   3.058   0.243   0.727
 9398SOL     OW29092   1.678   0.432   5.650
 9398SOL    HW129093   1.702   0.400   5.558
 9398SOL    HW229094   1.663   0.531   5.648
 9399SOL     OW29095   0.504   1.704   6.968
 9399SOL    HW129096   0.560   1.657   6.900
 9399SOL    HW229097   0.549   1.790   6.994
 9400SOL     OW29098   5.113   2.721   1.507
 9400SOL    HW129099   5.126   2.682   1.416
 9400SOL    HW229100   5.133   2.652   1.577
 9401SOL     OW29101   4.418   6.741   3.262
 9401SOL    HW129102   4.347   6.812   3.258
 9401SOL    HW229103   4.375   6.651   3.248
 9402SOL     OW29104   1.081   4.919   4.284
 9402SOL    HW129105   1.052   4.936   4.379
 9402SOL    HW229106   1.165   4.866   4.284
 9403SOL     OW29107   5.693   1.420   3.311
 9403SOL    HW129108   5.608   1.384   3.350
 9403SOL    HW229109   5.700   1.518   3.330
 9404SOL     OW29110   0.457   3.202   6.275
 9404SOL    HW129111   0.432   3.106   6.267
 9404SOL    HW229112   0.538   3.210   6.334
 9405SOL     OW29113   0.284   6.121   2.527
 9405SOL    HW129114   0.266   6.215   2.498
 9405SOL    HW229115   0.215   6.060   2.487
 9406SOL     OW29116   6.833   3.052   6.185
 9406SOL    HW129117   6.828   2.953   6.197
 9406SOL    HW229118   6.888   3.091   6.259
 9407SOL     OW29119   2.336   5.155   3.589
 9407SOL    HW129120   2.355   5.123   3.496
 9407SOL    HW229121   2.412   5.132   3.649
 9408SOL     OW29122   3.700   1.691   6.216
 9408SOL    HW129123   3.743   1.619   6.161
 9408SOL    HW229124   3.756   1.773   6.213
 9409SOL     OW29125   5.839   4.451   6.127
 9409SOL    HW129126   5.755   4.442   6.181
 9409SOL    HW229127   5.816   4.453   6.030
 9410SOL     OW29128   3.220   6.191   2.069
 9410SOL    HW129129   3.312   6.229   2.052
 9410SOL    HW229130   3.155   6.230   2.004
 9411SOL     OW29131   4.027   3.938   1.440
 9411SOL    HW129132   4.072   3.891   1.364
 9411SOL    HW229133   4.095   3.990   1.491
 9412SOL     OW29134   0.433   2.994   1.715
 9412SOL    HW129135   0.515   2.958   1.758
 9412SOL    HW229136   0.352   2.953   1.757
 9413SOL     OW29137   3.973   6.022   4.186
 9413SOL    HW129138   3.933   5.986   4.102
 9413SOL    HW229139   4.026   5.950   4.231
 9414SOL     OW29140   3.227   0.684   3.873
 9414SOL    HW129141   3.184   0.773   3.854
 9414SOL    HW229142   3.219   0.626   3.792
 9415SOL     OW29143   2.573   0.207   2.486
 9415SOL    HW129144   2.617   0.273   2.425
 9415SOL    HW229145   2.580   0.239   2.581
 9416SOL     OW29146   0.851   1.529   1.128
 9416SOL    HW129147   0.843   1.557   1.224
 9416SOL    HW229148   0.760   1.512   1.090
 9417SOL     OW29149   3.863   6.614   5.900
 9417SOL    HW129150   3.846   6.549   5.826
 9417SOL    HW229151   3.960   6.612   5.924
 9418SOL     OW29152   2.709   6.575   1.169
 9418SOL    HW129153   2.779   6.574   1.240
 9418SOL    HW229154   2.706   6.665   1.125
 9419SOL     OW29155   2.713   4.908   5.630
 9419SOL    HW129156   2.781   4.877   5.697
 9419SOL    HW229157   2.640   4.958   5.677
 9420SOL     OW29158   0.138   2.412   4.259
 9420SOL    HW129159   0.126   2.425   4.161
 9420SOL    HW229160   0.235   2.407   4.281
 9421SOL     OW29161   2.250   6.202   4.751
 9421SOL    HW129162   2.271   6.223   4.655
 9421SOL    HW229163   2.215   6.284   4.795
 9422SOL     OW29164   4.957   6.142   2.465
 9422SOL    HW129165   4.993   6.059   2.424
 9422SOL    HW229166   4.890   6.119   2.536
 9423SOL     OW29167   4.511   0.862   3.076
 9423SOL    HW129168   4.601   0.819   3.084
 9423SOL    HW229169   4.449   0.801   3.027
 9424SOL     OW29170   5.056   1.051   5.458
 9424SOL    HW129171   4.987   0.995   5.412
 9424SOL    HW229172   5.013   1.134   5.493
 9425SOL     OW29173   0.714   3.863   6.231
 9425SOL    HW129174   0.730   3.872   6.132
 9425SOL    HW229175   0.696   3.767   6.253
 9426SOL     OW29176   2.381   2.042   0.099
 9426SOL    HW129177   2.391   2.117   0.034
 9426SOL    HW229178   2.460   2.040   0.160
 9427SOL     OW29179   2.990   5.249   4.719
 9427SOL    HW129180   2.927   5.247   4.797
 9427SOL    HW229181   3.076   5.291   4.747
 9428SOL     OW29182   5.039   0.817   1.000
 9428SOL    HW129183   5.008   0.722   0.995
 9428SOL    HW229184   5.099   0.837   0.923
 9429SOL     OW29185   1.890   4.100   2.292
 9429SOL    HW129186   1.973   4.149   2.318
 9429SOL    HW229187   1.867   4.033   2.363
 9430SOL     OW29188   6.943   4.365   1.895
 9430SOL    HW129189   6.906   4.458   1.902
 9430SOL    HW229190   6.894   4.305   1.958
 9431SOL     OW29191   5.486   3.785   0.998
 9431SOL    HW129192   5.482   3.685   1.003
 9431SOL    HW229193   5.558   3.818   1.059
 9432SOL     OW29194   5.564   0.910   2.551
 9432SOL    HW129195   5.517   0.882   2.634
 9432SOL    HW229196   5.497   0.925   2.478
 9433SOL     OW29197   3.604   5.085   3.834
 9433SOL    HW129198   3.556   5.167   3.803
 9433SOL    HW229199   3.573   5.006   3.781
 9434SOL     OW29200   5.118   5.025   2.969
 9434SOL    HW129201   5.122   5.031   3.068
 9434SOL    HW229202   5.186   4.960   2.936
 9435SOL     OW29203   0.471   2.131   4.490
 9435SOL    HW129204   0.404   2.084   4.546
 9435SOL    HW229205   0.549   2.070   4.474
 9436SOL     OW29206   1.328   3.676   2.012
 9436SOL    HW129207   1.311   3.750   1.947
 9436SOL    HW229208   1.241   3.641   2.047
 9437SOL     OW29209   1.734   6.614   3.479
 9437SOL    HW129210   1.711   6.519   3.457
 9437SOL    HW229211   1.753   6.621   3.577
 9438SOL     OW29212   0.368   6.763   1.949
 9438SOL    HW129213   0.279   6.776   1.906
 9438SOL    HW229214   0.433   6.729   1.880
 9439SOL     OW29215   0.270   2.340   2.048
 9439SOL    HW129216   0.312   2.286   2.121
 9439SOL    HW229217   0.326   2.336   1.966
 9440SOL     OW29218   4.698   5.624   4.255
 9440SOL    HW129219   4.643   5.630   4.338
 9440SOL    HW229220   4.654   5.677   4.182
 9441SOL     OW29221   1.589   3.433   4.866
 9441SOL    HW129222   1.579   3.532   4.874
 9441SOL    HW229223   1.520   3.397   4.803
 9442SOL     OW29224   4.607   3.241   7.023
 9442SOL    HW129225   4.528   3.281   0.045
 9442SOL    HW229226   4.650   3.310   6.964
 9443SOL     OW29227   2.124   5.514   1.344
 9443SOL    HW129228   2.143   5.598   1.293
 9443SOL    HW229229   2.137   5.435   1.284
 9444SOL     OW29230   1.505   3.805   6.529
 9444SOL    HW129231   1.452   3.812   6.614
 9444SOL    HW229232   1.584   3.745   6.544
 9445SOL     OW29233   5.730   3.778   2.549
 9445SOL    HW129234   5.815   3.728   2.532
 9445SOL    HW229235   5.658   3.741   2.490
 9446SOL     OW29236   6.759   6.935   3.992
 9446SOL    HW129237   6.711   6.851   4.017
 9446SOL    HW229238   6.772   6.991   4.074
 9447SOL     OW29239   6.431   3.612   3.298
 9447SOL    HW129240   6.349   3.611   3.241
 9447SOL    HW229241   6.441   3.524   3.345
 9448SOL     OW29242   6.913   6.807   6.126
 9448SOL    HW129243   6.907   6.842   6.032
 9448SOL    HW229244   6.823   6.771   6.153
 9449SOL     OW29245   6.461   5.784   6.488
 9449SOL    HW129246   6.538   5.760   6.548
 9449SOL    HW229247   6.430   5.877   6.508
 9450SOL     OW29248   3.496   4.915   4.738
 9450SOL    HW129249   3.593   4.901   4.757
 9450SOL    HW229250   3.482   4.919   4.639
 9451SOL     OW29251   3.614   6.477   6.250
 9451SOL    HW129252   3.585   6.402   6.191
 9451SOL    HW229253   3.658   6.440   6.332
 9452SOL     OW29254   1.087   3.585   0.669
 9452SOL    HW129255   0.990   3.579   0.645
 9452SOL    HW229256   1.135   3.637   0.598
 9453SOL     OW29257   2.121   5.275   3.683
 9453SOL    HW129258   2.141   5.289   3.780
 9453SOL    HW229259   2.195   5.224   3.640
 9454SOL     OW29260   2.104   3.587   6.311
 9454SOL    HW129261   2.168   3.510   6.318
 9454SOL    HW229262   2.064   3.589   6.220
 9455SOL     OW29263   3.936   1.656   2.850
 9455SOL    HW129264   3.981   1.724   2.791
 9455SOL    HW229265   3.998   1.578   2.862
 9456SOL     OW29266   0.903   3.925   0.614
 9456SOL    HW129267   0.856   4.013   0.606
 9456SOL    HW229268   0.926   3.909   0.710
 9457SOL     OW29269   2.493   4.128   5.422
 9457SOL    HW129270   2.489   4.080   5.335
 9457SOL    HW229271   2.407   4.116   5.471
 9458SOL     OW29272   1.475   3.051   6.526
 9458SOL    HW129273   1.463   3.128   6.464
 9458SOL    HW229274   1.447   2.967   6.481
 9459SOL     OW29275   5.646   4.627   2.936
 9459SOL    HW129276   5.706   4.549   2.918
 9459SOL    HW229277   5.594   4.649   2.854
 9460SOL     OW29278   6.738   2.129   4.706
 9460SOL    HW129279   6.708   2.155   4.798
 9460SOL    HW229280   6.660   2.093   4.655
 9461SOL     OW29281   6.695   1.994   2.727
 9461SOL    HW129282   6.770   1.982   2.791
 9461SOL    HW229283   6.638   1.912   2.725
 9462SOL     OW29284   2.149   3.576   3.444
 9462SOL    HW129285   2.216   3.505   3.426
 9462SOL    HW229286   2.057   3.538   3.439
 9463SOL     OW29287   0.185   0.786   1.379
 9463SOL    HW129288   0.221   0.707   1.330
 9463SOL    HW229289   0.249   0.813   1.451
 9464SOL     OW29290   6.392   6.692   0.775
 9464SOL    HW129291   6.345   6.706   0.688
 9464SOL    HW229292   6.417   6.596   0.785
 9465SOL     OW29293   0.846   6.285   3.104
 9465SOL    HW129294   0.800   6.216   3.048
 9465SOL    HW229295   0.822   6.376   3.070
 9466SOL     OW29296   3.890   4.170   5.382
 9466SOL    HW129297   3.848   4.081   5.401
 9466SOL    HW229298   3.949   4.163   5.302
 9467SOL     OW29299   1.354   2.557   1.632
 9467SOL    HW129300   1.302   2.516   1.557
 9467SOL    HW229301   1.420   2.491   1.667
 9468SOL     OW29302   5.532   2.274   6.091
 9468SOL    HW129303   5.588   2.306   6.167
 9468SOL    HW229304   5.436   2.270   6.119
 9469SOL     OW29305   5.530   5.869   1.158
 9469SOL    HW129306   5.544   5.883   1.256
 9469SOL    HW229307   5.606   5.817   1.120
 9470SOL     OW29308   4.730   4.285   5.563
 9470SOL    HW129309   4.682   4.231   5.632
 9470SOL    HW229310   4.729   4.236   5.475
 9471SOL     OW29311   6.004   1.414   4.060
 9471SOL    HW129312   5.953   1.328   4.060
 9471SOL    HW229313   6.102   1.395   4.049
 9472SOL     OW29314   6.071   2.913   4.411
 9472SOL    HW129315   6.034   2.871   4.328
 9472SOL    HW229316   6.020   2.998   4.430
 9473SOL     OW29317   2.530   5.088   5.730
 9473SOL    HW129318   2.454   5.064   5.671
 9473SOL    HW229319   2.572   5.173   5.699
 9474SOL     OW29320   6.446   3.012   0.108
 9474SOL    HW129321   6.416   3.101   0.076
 9474SOL    HW229322   6.382   2.941   0.078
 9475SOL     OW29323   3.082   4.003   0.459
 9475SOL    HW129324   2.999   4.010   0.403
 9475SOL    HW229325   3.128   3.916   0.440
 9476SOL     OW29326   2.991   3.238   5.091
 9476SOL    HW129327   3.006   3.265   4.996
 9476SOL    HW229328   2.933   3.307   5.136
 9477SOL     OW29329   0.576   3.590   2.527
 9477SOL    HW129330   0.588   3.491   2.534
 9477SOL    HW229331   0.534   3.613   2.439
 9478SOL     OW29332   4.865   3.323   5.972
 9478SOL    HW129333   4.836   3.415   5.947
 9478SOL    HW229334   4.840   3.259   5.899
 9479SOL     OW29335   5.372   6.368   6.958
 9479SOL    HW129336   5.454   6.417   6.929
 9479SOL    HW229337   5.351   6.297   6.890
 9480SOL     OW29338   5.249   4.023   0.607
 9480SOL    HW129339   5.286   3.986   0.692
 9480SOL    HW229340   5.204   3.949   0.555
 9481SOL     OW29341   5.889   3.570   1.616
 9481SOL    HW129342   5.906   3.515   1.534
 9481SOL    HW229343   5.806   3.539   1.662
 9482SOL     OW29344   6.707   0.776   3.020
 9482SOL    HW129345   6.784   0.829   2.984
 9482SOL    HW229346   6.621   0.821   2.997
 9483SOL     OW29347   1.720   1.577   1.075
 9483SOL    HW129348   1.796   1.613   1.129
 9483SOL    HW229349   1.738   1.592   0.978
 9484SOL     OW29350   3.884   1.255   2.857
 9484SOL    HW129351   3.892   1.189   2.932
 9484SOL    HW229352   3.795   1.301   2.863
 9485SOL     OW29353   0.836   0.160   2.446
 9485SOL    HW129354   0.879   0.082   2.400
 9485SOL    HW229355   0.891   0.186   2.525
 9486SOL     OW29356   2.663   5.102   1.929
 9486SOL    HW129357   2.588   5.155   1.968
 9486SOL    HW229358   2.653   5.006   1.955
 9487SOL     OW29359   3.058   3.127   3.489
 9487SOL    HW129360   3.018   3.124   3.581
 9487SOL    HW229361   3.035   3.214   3.446
 9488SOL     OW29362   1.993   6.331   1.453
 9488SOL    HW129363   2.042   6.279   1.382
 9488SOL    HW229364   2.019   6.297   1.543
 9489SOL     OW29365   3.925   4.236   1.423
 9489SOL    HW129366   3.836   4.190   1.424
 9489SOL    HW229367   3.988   4.185   1.363
 9490SOL     OW29368   6.373   5.940   1.033
 9490SOL    HW129369   6.390   5.895   0.945
 9490SOL    HW229370   6.310   6.016   1.019
 9491SOL     OW29371   6.846   4.890   3.809
 9491SOL    HW129372   6.908   4.823   3.850
 9491SOL    HW229373   6.810   4.949   3.881
 9492SOL     OW29374   3.460   2.888   2.953
 9492SOL    HW129375   3.527   2.891   2.879
 9492SOL    HW229376   3.412   2.800   2.952
 9493SOL     OW29377   4.370   5.277   4.013
 9493SOL    HW129378   4.401   5.372   4.010
 9493SOL    HW229379   4.299   5.268   4.082
 9494SOL     OW29380   4.325   4.718   1.398
 9494SOL    HW129381   4.344   4.690   1.492
 9494SOL    HW229382   4.406   4.763   1.360
 9495SOL     OW29383   5.697   1.859   4.779
 9495SOL    HW129384   5.649   1.847   4.692
 9495SOL    HW229385   5.792   1.827   4.769
 9496SOL     OW29386   5.670   4.501   0.987
 9496SOL    HW129387   5.602   4.453   0.932
 9496SOL    HW229388   5.742   4.537   0.928
 9497SOL     OW29389   5.928   4.660   0.027
 9497SOL    HW129390   5.978   4.745   0.008
 9497SOL    HW229391   5.869   4.638   6.973
 9498SOL     OW29392   5.417   0.017   5.442
 9498SOL    HW129393   5.500   0.005   5.497
 9498SOL    HW229394   5.376   0.105   5.462
 9499SOL     OW29395   2.385   4.731   6.261
 9499SOL    HW129396   2.292   4.768   6.255
 9499SOL    HW229397   2.381   4.636   6.292
 9500SOL     OW29398   4.519   0.424   1.516
 9500SOL    HW129399   4.579   0.481   1.461
 9500SOL    HW229400   4.548   0.428   1.612
 9501SOL     OW29401   3.513   1.569   4.749
 9501SOL    HW129402   3.473   1.621   4.824
 9501SOL    HW229403   3.553   1.633   4.683
 9502SOL     OW29404   0.300   2.006   4.683
 9502SOL    HW129405   0.257   2.055   4.759
 9502SOL    HW229406   0.231   1.987   4.612
 9503SOL     OW29407   0.581   1.458   1.071
 9503SOL    HW129408   0.540   1.371   1.044
 9503SOL    HW229409   0.577   1.467   1.170
 9504SOL     OW29410   0.559   2.043   0.656
 9504SOL    HW129411   0.617   2.011   0.730
 9504SOL    HW229412   0.517   1.965   0.610
 9505SOL     OW29413   5.335   4.021   3.822
 9505SOL    HW129414   5.428   4.052   3.841
 9505SOL    HW229415   5.337   3.951   3.750
 9506SOL     OW29416   0.410   3.291   6.778
 9506SOL    HW129417   0.371   3.319   6.866
 9506SOL    HW229418   0.429   3.193   6.779
 9507SOL     OW29419   1.153   1.274   3.419
 9507SOL    HW129420   1.199   1.235   3.499
 9507SOL    HW229421   1.137   1.372   3.434
 9508SOL     OW29422   5.790   3.214   0.762
 9508SOL    HW129423   5.833   3.284   0.818
 9508SOL    HW229424   5.739   3.151   0.821
 9509SOL     OW29425   0.917   0.608   5.478
 9509SOL    HW129426   0.861   0.527   5.500
 9509SOL    HW229427   0.925   0.616   5.379
 9510SOL     OW29428   0.850   4.141   2.186
 9510SOL    HW129429   0.778   4.072   2.185
 9510SOL    HW229430   0.810   4.232   2.189
 9511SOL     OW29431   0.686   1.561   6.767
 9511SOL    HW129432   0.735   1.478   6.794
 9511SOL    HW229433   0.752   1.634   6.749
 9512SOL     OW29434   5.811   1.062   1.692
 9512SOL    HW129435   5.886   1.128   1.694
 9512SOL    HW229436   5.849   0.969   1.682
 9513SOL     OW29437   1.759   3.234   5.394
 9513SOL    HW129438   1.855   3.223   5.369
 9513SOL    HW229439   1.751   3.303   5.466
 9514SOL     OW29440   2.471   4.602   6.980
 9514SOL    HW129441   2.424   4.680   7.022
 9514SOL    HW229442   2.568   4.605   7.004
 9515SOL     OW29443   1.513   5.843   0.400
 9515SOL    HW129444   1.510   5.769   0.467
 9515SOL    HW229445   1.585   5.824   0.333
 9516SOL     OW29446   5.768   3.739   5.256
 9516SOL    HW129447   5.727   3.754   5.346
 9516SOL    HW229448   5.812   3.823   5.225
 9517SOL     OW29449   1.362   4.812   0.384
 9517SOL    HW129450   1.404   4.886   0.437
 9517SOL    HW229451   1.431   4.742   0.363
 9518SOL     OW29452   1.298   2.060   0.115
 9518SOL    HW129453   1.254   2.148   0.135
 9518SOL    HW229454   1.397   2.068   0.128
 9519SOL     OW29455   3.799   3.465   4.101
 9519SOL    HW129456   3.741   3.513   4.035
 9519SOL    HW229457   3.894   3.495   4.089
 9520SOL     OW29458   0.300   1.293   2.903
 9520SOL    HW129459   0.267   1.220   2.844
 9520SOL    HW229460   0.332   1.369   2.847
 9521SOL     OW29461   3.614   4.286   1.219
 9521SOL    HW129462   3.710   4.313   1.227
 9521SOL    HW229463   3.560   4.364   1.188
 9522SOL     OW29464   4.466   5.611   2.179
 9522SOL    HW129465   4.430   5.683   2.119
 9522SOL    HW229466   4.391   5.575   2.236
 9523SOL     OW29467   2.409   4.851   5.019
 9523SOL    HW129468   2.497   4.816   5.051
 9523SOL    HW229469   2.337   4.825   5.083
 9524SOL     OW29470   2.064   2.711   0.182
 9524SOL    HW129471   2.119   2.744   0.105
 9524SOL    HW229472   2.058   2.783   0.251
 9525SOL     OW29473   2.138   2.468   5.632
 9525SOL    HW129474   2.084   2.395   5.673
 9525SOL    HW229475   2.186   2.434   5.552
 9526SOL     OW29476   6.294   4.181   1.463
 9526SOL    HW129477   6.376   4.167   1.519
 9526SOL    HW229478   6.258   4.273   1.478
 9527SOL     OW29479   1.728   0.527   5.099
 9527SOL    HW129480   1.804   0.591   5.110
 9527SOL    HW229481   1.719   0.503   5.003
 9528SOL     OW29482   7.013   1.384   0.314
 9528SOL    HW129483   0.002   1.330   0.230
 9528SOL    HW229484   6.920   1.374   0.348
 9529SOL     OW29485   6.013   3.640   6.260
 9529SOL    HW129486   5.985   3.732   6.290
 9529SOL    HW229487   6.100   3.616   6.302
 9530SOL     OW29488   1.418   3.126   3.735
 9530SOL    HW129489   1.320   3.141   3.749
 9530SOL    HW229490   1.432   3.068   3.655
 9531SOL     OW29491   5.066   4.231   2.342
 9531SOL    HW129492   5.123   4.297   2.390
 9531SOL    HW229493   5.124   4.165   2.293
 9532SOL     OW29494   0.034   5.591   1.137
 9532SOL    HW129495   0.056   5.494   1.149
 9532SOL    HW229496   7.019   5.628   1.222
 9533SOL     OW29497   0.760   5.943   4.833
 9533SOL    HW129498   0.819   5.930   4.913
 9533SOL    HW229499   0.782   5.876   4.763
 9534SOL     OW29500   6.212   3.723   5.105
 9534SOL    HW129501   6.200   3.785   5.028
 9534SOL    HW229502   6.132   3.663   5.112
 9535SOL     OW29503   1.973   0.211   5.607
 9535SOL    HW129504   1.886   0.168   5.583
 9535SOL    HW229505   1.997   0.278   5.537
 9536SOL     OW29506   3.127   3.878   5.165
 9536SOL    HW129507   3.133   3.940   5.243
 9536SOL    HW229508   3.051   3.905   5.106
 9537SOL     OW29509   2.420   0.169   3.973
 9537SOL    HW129510   2.410   0.080   4.018
 9537SOL    HW229511   2.369   0.238   4.024
 9538SOL     OW29512   5.636   1.222   4.367
 9538SOL    HW129513   5.552   1.272   4.389
 9538SOL    HW229514   5.708   1.287   4.345
 9539SOL     OW29515   3.496   4.166   4.458
 9539SOL    HW129516   3.453   4.195   4.372
 9539SOL    HW229517   3.425   4.149   4.526
 9540SOL     OW29518   5.795   4.675   3.925
 9540SOL    HW129519   5.860   4.667   3.850
 9540SOL    HW229520   5.723   4.606   3.915
 9541SOL     OW29521   2.949   0.364   6.186
 9541SOL    HW129522   2.987   0.432   6.248
 9541SOL    HW229523   2.990   0.275   6.205
 9542SOL     OW29524   5.060   4.781   4.941
 9542SOL    HW129525   5.118   4.724   4.883
 9542SOL    HW229526   5.117   4.834   5.004
 9543SOL     OW29527   3.123   0.531   5.782
 9543SOL    HW129528   3.044   0.592   5.785
 9543SOL    HW229529   3.188   0.557   5.854
 9544SOL     OW29530   5.850   2.972   3.910
 9544SOL    HW129531   5.861   3.032   3.831
 9544SOL    HW229532   5.757   2.933   3.911
 9545SOL     OW29533   5.576   5.751   3.544
 9545SOL    HW129534   5.538   5.784   3.631
 9545SOL    HW229535   5.502   5.717   3.486
 9546SOL     OW29536   3.570   2.206   5.621
 9546SOL    HW129537   3.618   2.293   5.611
 9546SOL    HW229538   3.575   2.176   5.717
 9547SOL     OW29539   2.354   5.084   3.970
 9547SOL    HW129540   2.405   5.004   3.941
 9547SOL    HW229541   2.374   5.104   4.066
 9548SOL     OW29542   6.804   4.830   5.351
 9548SOL    HW129543   6.884   4.808   5.407
 9548SOL    HW229544   6.786   4.755   5.287
 9549SOL     OW29545   3.118   2.266   1.498
 9549SOL    HW129546   3.037   2.233   1.449
 9549SOL    HW229547   3.095   2.350   1.547
 9550SOL     OW29548   6.749   0.769   0.419
 9550SOL    HW129549   6.758   0.868   0.417
 9550SOL    HW229550   6.780   0.731   0.331
 9551SOL     OW29551   5.246   2.312   6.183
 9551SOL    HW129552   5.150   2.293   6.201
 9551SOL    HW229553   5.254   2.384   6.114
 9552SOL     OW29554   1.946   6.366   4.210
 9552SOL    HW129555   1.991   6.307   4.277
 9552SOL    HW229556   1.876   6.421   4.256
 9553SOL     OW29557   6.026   2.137   6.465
 9553SOL    HW129558   6.093   2.209   6.447
 9553SOL    HW229559   6.074   2.050   6.482
 9554SOL     OW29560   2.627   0.356   2.730
 9554SOL    HW129561   2.545   0.411   2.717
 9554SOL    HW229562   2.646   0.347   2.828
 9555SOL     OW29563   0.946   1.195   2.347
 9555SOL    HW129564   0.895   1.240   2.420
 9555SOL    HW229565   0.882   1.149   2.285
 9556SOL     OW29566   1.639   3.917   1.992
 9556SOL    HW129567   1.724   3.871   1.968
 9556SOL    HW229568   1.562   3.868   1.952
 9557SOL     OW29569   6.571   6.418   1.664
 9557SOL    HW129570   6.659   6.464   1.659
 9557SOL    HW229571   6.498   6.486   1.671
 9558SOL     OW29572   5.815   5.938   5.613
 9558SOL    HW129573   5.754   6.007   5.652
 9558SOL    HW229574   5.907   5.950   5.651
 9559SOL     OW29575   0.493   4.666   0.960
 9559SOL    HW129576   0.552   4.666   0.879
 9559SOL    HW229577   0.452   4.757   0.971
 9560SOL     OW29578   2.426   0.928   3.590
 9560SOL    HW129579   2.425   0.927   3.690
 9560SOL    HW229580   2.517   0.903   3.558
 9561SOL     OW29581   2.181   0.818   0.538
 9561SOL    HW129582   2.177   0.753   0.462
 9561SOL    HW229583   2.124   0.785   0.613
 9562SOL     OW29584   2.454   0.241   5.605
 9562SOL    HW129585   2.536   0.214   5.656
 9562SOL    HW229586   2.375   0.236   5.666
 9563SOL     OW29587   0.513   6.127   0.580
 9563SOL    HW129588   0.490   6.050   0.521
 9563SOL    HW229589   0.471   6.113   0.670
 9564SOL     OW29590   2.866   1.342   0.960
 9564SOL    HW129591   2.866   1.285   0.878
 9564SOL    HW229592   2.903   1.432   0.938
 9565SOL     OW29593   4.153   1.075   4.558
 9565SOL    HW129594   4.145   0.985   4.515
 9565SOL    HW229595   4.185   1.064   4.653
 9566SOL     OW29596   2.802   5.047   6.807
 9566SOL    HW129597   2.731   5.116   6.793
 9566SOL    HW229598   2.793   4.975   6.739
 9567SOL     OW29599   5.095   4.993   0.707
 9567SOL    HW129600   5.011   4.941   0.696
 9567SOL    HW229601   5.173   4.930   0.714
 9568SOL     OW29602   4.227   2.592   6.209
 9568SOL    HW129603   4.254   2.685   6.236
 9568SOL    HW229604   4.151   2.596   6.145
 9569SOL     OW29605   6.571   1.156   2.555
 9569SOL    HW129606   6.573   1.149   2.455
 9569SOL    HW229607   6.490   1.109   2.590
 9570SOL     OW29608   0.596   3.471   1.972
 9570SOL    HW129609   0.598   3.536   2.047
 9570SOL    HW229610   0.501   3.444   1.954
 9571SOL     OW29611   3.370   4.024   6.254
 9571SOL    HW129612   3.341   4.016   6.159
 9571SOL    HW229613   3.304   4.081   6.304
 9572SOL     OW29614   2.394   4.869   2.449
 9572SOL    HW129615   2.426   4.897   2.358
 9572SOL    HW229616   2.405   4.770   2.458
 9573SOL     OW29617   0.662   2.770   6.827
 9573SOL    HW129618   0.744   2.715   6.809
 9573SOL    HW229619   0.680   2.834   6.902
 9574SOL     OW29620   4.091   3.717   3.003
 9574SOL    HW129621   4.189   3.711   2.984
 9574SOL    HW229622   4.062   3.635   3.052
 9575SOL     OW29623   0.390   1.328   1.411
 9575SOL    HW129624   0.439   1.251   1.452
 9575SOL    HW229625   0.308   1.295   1.365
 9576SOL     OW29626   1.772   1.179   1.496
 9576SOL    HW129627   1.771   1.164   1.397
 9576SOL    HW229628   1.864   1.161   1.531
 9577SOL     OW29629   1.051   0.802   5.952
 9577SOL    HW129630   1.111   0.767   5.880
 9577SOL    HW229631   1.098   0.801   6.040
 9578SOL     OW29632   0.767   3.885   3.448
 9578SOL    HW129633   0.834   3.824   3.491
 9578SOL    HW229634   0.694   3.905   3.514
 9579SOL     OW29635   1.282   5.117   2.780
 9579SOL    HW129636   1.324   5.163   2.859
 9579SOL    HW229637   1.205   5.172   2.747
 9580SOL     OW29638   4.911   3.827   0.815
 9580SOL    HW129639   4.991   3.818   0.875
 9580SOL    HW229640   4.911   3.918   0.774
 9581SOL     OW29641   0.512   5.834   5.685
 9581SOL    HW129642   0.592   5.885   5.716
 9581SOL    HW229643   0.433   5.895   5.681
 9582SOL     OW29644   4.755   5.344   6.230
 9582SOL    HW129645   4.847   5.355   6.193
 9582SOL    HW229646   4.703   5.429   6.218
 9583SOL     OW29647   3.668   4.156   1.497
 9583SOL    HW129648   3.655   4.230   1.563
 9583SOL    HW229649   3.600   4.085   1.513
 9584SOL     OW29650   6.839   5.406   6.448
 9584SOL    HW129651   6.828   5.339   6.521
 9584SOL    HW229652   6.837   5.360   6.359
 9585SOL     OW29653   6.528   6.844   4.813
 9585SOL    HW129654   6.593   6.901   4.762
 9585SOL    HW229655   6.542   6.748   4.787
 9586SOL     OW29656   5.527   4.654   2.182
 9586SOL    HW129657   5.589   4.729   2.203
 9586SOL    HW229658   5.506   4.654   2.084
 9587SOL     OW29659   0.699   0.566   1.556
 9587SOL    HW129660   0.710   0.664   1.539
 9587SOL    HW229661   0.602   0.543   1.559
 9588SOL     OW29662   6.943   1.048   1.261
 9588SOL    HW129663   6.951   1.106   1.180
 9588SOL    HW229664   6.892   1.096   1.332
 9589SOL     OW29665   2.520   4.898   6.753
 9589SOL    HW129666   2.582   4.828   6.716
 9589SOL    HW229667   2.572   4.959   6.813
 9590SOL     OW29668   6.632   2.747   2.058
 9590SOL    HW129669   6.627   2.670   2.122
 9590SOL    HW229670   6.724   2.786   2.059
 9591SOL     OW29671   2.966   5.970   5.831
 9591SOL    HW129672   2.889   5.950   5.771
 9591SOL    HW229673   3.000   5.885   5.870
 9592SOL     OW29674   3.753   4.497   0.782
 9592SOL    HW129675   3.729   4.588   0.747
 9592SOL    HW229676   3.747   4.497   0.882
 9593SOL     OW29677   0.383   0.850   5.902
 9593SOL    HW129678   0.328   0.895   5.832
 9593SOL    HW229679   0.334   0.771   5.938
 9594SOL     OW29680   1.002   5.152   2.375
 9594SOL    HW129681   1.062   5.127   2.299
 9594SOL    HW229682   0.998   5.077   2.441
 9595SOL     OW29683   0.506   3.571   5.093
 9595SOL    HW129684   0.523   3.668   5.106
 9595SOL    HW229685   0.582   3.530   5.044
 9596SOL     OW29686   0.162   5.287   6.395
 9596SOL    HW129687   0.189   5.199   6.355
 9596SOL    HW229688   0.243   5.331   6.435
 9597SOL     OW29689   0.682   4.286   1.278
 9597SOL    HW129690   0.630   4.261   1.196
 9597SOL    HW229691   0.766   4.232   1.281
 9598SOL     OW29692   1.743   4.195   4.143
 9598SOL    HW129693   1.722   4.136   4.220
 9598SOL    HW229694   1.712   4.288   4.163
 9599SOL     OW29695   3.520   0.354   4.881
 9599SOL    HW129696   3.523   0.316   4.788
 9599SOL    HW229697   3.552   0.285   4.946
 9600SOL     OW29698   2.532   6.584   6.613
 9600SOL    HW129699   2.530   6.513   6.683
 9600SOL    HW229700   2.542   6.542   6.523
 9601SOL     OW29701   4.805   4.054   1.113
 9601SOL    HW129702   4.823   3.989   1.039
 9601SOL    HW229703   4.707   4.057   1.133
 9602SOL     OW29704   6.365   4.895   6.032
 9602SOL    HW129705   6.361   4.841   5.948
 9602SOL    HW229706   6.392   4.836   6.108
 9603SOL     OW29707   3.834   1.527   3.809
 9603SOL    HW129708   3.735   1.523   3.801
 9603SOL    HW229709   3.867   1.450   3.864
 9604SOL     OW29710   4.393   0.167   6.783
 9604SOL    HW129711   4.386   0.259   6.743
 9604SOL    HW229712   4.339   0.163   6.867
 9605SOL     OW29713   0.795   5.340   3.384
 9605SOL    HW129714   0.814   5.438   3.388
 9605SOL    HW229715   0.862   5.292   3.441
 9606SOL     OW29716   1.666   6.674   6.702
 9606SOL    HW129717   1.759   6.712   6.699
 9606SOL    HW229718   1.655   6.606   6.630
 9607SOL     OW29719   1.736   1.981   0.407
 9607SOL    HW129720   1.636   1.978   0.415
 9607SOL    HW229721   1.775   2.012   0.493
 9608SOL     OW29722   6.678   5.265   2.370
 9608SOL    HW129723   6.700   5.327   2.295
 9608SOL    HW229724   6.754   5.262   2.434
 9609SOL     OW29725   2.480   4.220   6.657
 9609SOL    HW129726   2.432   4.277   6.724
 9609SOL    HW229727   2.424   4.210   6.575
 9610SOL     OW29728   1.687   5.135   4.080
 9610SOL    HW129729   1.759   5.172   4.139
 9610SOL    HW229730   1.613   5.098   4.136
 9611SOL     OW29731   0.586   6.157   6.403
 9611SOL    HW129732   0.585   6.109   6.491
 9611SOL    HW229733   0.496   6.198   6.387
 9612SOL     OW29734   0.498   4.081   1.958
 9612SOL    HW129735   0.582   4.063   2.010
 9612SOL    HW229736   0.463   4.171   1.982
 9613SOL     OW29737   5.026   6.525   3.084
 9613SOL    HW129738   5.111   6.511   3.135
 9613SOL    HW229739   4.979   6.438   3.073
 9614SOL     OW29740   2.763   2.268   0.594
 9614SOL    HW129741   2.793   2.361   0.576
 9614SOL    HW229742   2.837   2.216   0.637
 9615SOL     OW29743   1.177   0.040   0.373
 9615SOL    HW129744   1.095   0.097   0.360
 9615SOL    HW229745   1.259   0.094   0.357
 9616SOL     OW29746   4.310   4.110   1.229
 9616SOL    HW129747   4.240   4.039   1.226
 9616SOL    HW229748   4.327   4.145   1.136
 9617SOL     OW29749   2.115   2.668   3.456
 9617SOL    HW129750   2.151   2.760   3.446
 9617SOL    HW229751   2.017   2.672   3.474
 9618SOL     OW29752   3.888   6.765   5.470
 9618SOL    HW129753   3.965   6.706   5.497
 9618SOL    HW229754   3.834   6.788   5.550
 9619SOL     OW29755   1.151   6.804   0.478
 9619SOL    HW129756   1.197   6.890   0.455
 9619SOL    HW229757   1.056   6.809   0.447
 9620SOL     OW29758   4.332   2.421   6.757
 9620SOL    HW129759   4.344   2.494   6.689
 9620SOL    HW229760   4.256   2.362   6.729
 9621SOL     OW29761   0.871   1.035   1.936
 9621SOL    HW129762   0.904   0.941   1.943
 9621SOL    HW229763   0.948   1.098   1.936
 9622SOL     OW29764   6.415   0.999   6.616
 9622SOL    HW129765   6.482   0.967   6.548
 9622SOL    HW229766   6.360   0.921   6.647
 9623SOL     OW29767   3.205   4.706   5.997
 9623SOL    HW129768   3.203   4.796   5.952
 9623SOL    HW229769   3.249   4.640   5.937
 9624SOL     OW29770   6.596   4.433   2.058
 9624SOL    HW129771   6.679   4.476   2.024
 9624SOL    HW229772   6.520   4.498   2.052
 9625SOL     OW29773   5.322   5.664   0.097
 9625SOL    HW129774   5.389   5.670   0.023
 9625SOL    HW229775   5.265   5.747   0.098
 9626SOL     OW29776   3.012   6.267   0.132
 9626SOL    HW129777   2.945   6.192   0.137
 9626SOL    HW229778   3.067   6.257   0.049
 9627SOL     OW29779   6.962   5.657   3.171
 9627SOL    HW129780   6.908   5.613   3.242
 9627SOL    HW229781   0.020   5.700   3.212
 9628SOL     OW29782   5.570   5.073   0.181
 9628SOL    HW129783   5.476   5.062   0.214
 9628SOL    HW229784   5.591   5.000   0.116
 9629SOL     OW29785   0.654   6.639   2.815
 9629SOL    HW129786   0.560   6.609   2.826
 9629SOL    HW229787   0.656   6.732   2.776
 9630SOL     OW29788   6.743   6.312   5.814
 9630SOL    HW129789   6.661   6.258   5.792
 9630SOL    HW229790   6.764   6.301   5.911
 9631SOL     OW29791   6.093   6.897   0.001
 9631SOL    HW129792   6.033   6.838   6.970
 9631SOL    HW229793   6.042   6.933   0.079
 9632SOL     OW29794   2.154   5.214   2.696
 9632SOL    HW129795   2.228   5.216   2.629
 9632SOL    HW229796   2.105   5.302   2.694
 9633SOL     OW29797   5.215   5.227   0.135
 9633SOL    HW129798   5.225   5.188   0.226
 9633SOL    HW229799   5.139   5.292   0.134
 9634SOL     OW29800   0.861   0.111   4.167
 9634SOL    HW129801   0.900   0.131   4.077
 9634SOL    HW229802   0.894   0.023   4.199
 9635SOL     OW29803   1.284   4.754   5.532
 9635SOL    HW129804   1.303   4.851   5.522
 9635SOL    HW229805   1.234   4.738   5.617
 9636SOL     OW29806   3.810   1.958   6.178
 9636SOL    HW129807   3.740   2.025   6.203
 9636SOL    HW229808   3.899   2.003   6.176
 9637SOL     OW29809   2.971   1.876   6.886
 9637SOL    HW129810   3.013   1.950   6.833
 9637SOL    HW229811   2.872   1.891   6.891
 9638SOL     OW29812   6.913   3.354   6.828
 9638SOL    HW129813   6.920   3.449   6.860
 9638SOL    HW229814   6.840   3.307   6.879
 9639SOL     OW29815   3.746   1.551   2.055
 9639SOL    HW129816   3.822   1.489   2.074
 9639SOL    HW229817   3.772   1.614   1.981
 9640SOL     OW29818   3.022   1.806   2.901
 9640SOL    HW129819   2.945   1.769   2.953
 9640SOL    HW229820   2.990   1.841   2.814
 9641SOL     OW29821   5.335   6.154   1.000
 9641SOL    HW129822   5.413   6.105   0.960
 9641SOL    HW229823   5.366   6.239   1.041
 9642SOL     OW29824   3.037   6.223   5.057
 9642SOL    HW129825   3.049   6.127   5.078
 9642SOL    HW229826   3.124   6.271   5.066
 9643SOL     OW29827   6.032   4.642   4.325
 9643SOL    HW129828   5.978   4.647   4.242
 9643SOL    HW229829   6.105   4.710   4.322
 9644SOL     OW29830   1.009   5.235   5.215
 9644SOL    HW129831   1.071   5.223   5.137
 9644SOL    HW229832   0.921   5.269   5.182
 9645SOL     OW29833   3.906   4.868   4.117
 9645SOL    HW129834   3.858   4.912   4.192
 9645SOL    HW229835   3.979   4.810   4.154
 9646SOL     OW29836   2.837   4.706   2.189
 9646SOL    HW129837   2.804   4.670   2.102
 9646SOL    HW229838   2.783   4.668   2.263
 9647SOL     OW29839   6.605   5.324   1.445
 9647SOL    HW129840   6.514   5.365   1.439
 9647SOL    HW229841   6.671   5.394   1.474
 9648SOL     OW29842   3.571   1.918   7.012
 9648SOL    HW129843   3.593   2.007   6.973
 9648SOL    HW229844   3.640   1.851   6.985
 9649SOL     OW29845   2.826   5.652   0.140
 9649SOL    HW129846   2.892   5.667   0.214
 9649SOL    HW229847   2.797   5.741   0.103
 9650SOL     OW29848   5.266   4.790   3.222
 9650SOL    HW129849   5.335   4.784   3.150
 9650SOL    HW229850   5.244   4.698   3.255
 9651SOL     OW29851   6.761   0.620   6.794
 9651SOL    HW129852   6.670   0.659   6.808
 9651SOL    HW229853   6.754   0.534   6.744
 9652SOL     OW29854   2.097   4.387   0.391
 9652SOL    HW129855   2.100   4.477   0.435
 9652SOL    HW229856   2.116   4.397   0.293
 9653SOL     OW29857   4.322   5.392   5.162
 9653SOL    HW129858   4.328   5.488   5.188
 9653SOL    HW229859   4.246   5.378   5.099
 9654SOL     OW29860   3.856   3.302   1.635
 9654SOL    HW129861   3.777   3.297   1.695
 9654SOL    HW229862   3.914   3.379   1.661
 9655SOL     OW29863   7.017   1.693   0.051
 9655SOL    HW129864   0.068   1.733   0.105
 9655SOL    HW229865   0.029   1.613   0.001
 9656SOL     OW29866   3.563   2.285   0.925
 9656SOL    HW129867   3.632   2.214   0.929
 9656SOL    HW229868   3.494   2.268   0.996
 9657SOL     OW29869   6.267   2.134   3.516
 9657SOL    HW129870   6.280   2.035   3.507
 9657SOL    HW229871   6.273   2.176   3.426
 9658SOL     OW29872   6.079   1.464   2.440
 9658SOL    HW129873   6.140   1.462   2.361
 9658SOL    HW229874   6.038   1.554   2.448
 9659SOL     OW29875   7.004   4.068   0.271
 9659SOL    HW129876   0.017   4.138   0.209
 9659SOL    HW229877   0.052   4.000   0.289
 9660SOL     OW29878   0.804   5.955   1.220
 9660SOL    HW129879   0.718   5.906   1.205
 9660SOL    HW229880   0.879   5.889   1.227
 9661SOL     OW29881   3.755   6.330   1.912
 9661SOL    HW129882   3.755   6.425   1.882
 9661SOL    HW229883   3.745   6.327   2.012
 9662SOL     OW29884   4.919   2.939   5.218
 9662SOL    HW129885   4.922   2.844   5.184
 9662SOL    HW229886   4.919   3.001   5.140
 9663SOL     OW29887   0.706   6.474   4.403
 9663SOL    HW129888   0.791   6.514   4.437
 9663SOL    HW229889   0.634   6.544   4.399
 9664SOL     OW29890   5.868   6.708   3.877
 9664SOL    HW129891   5.831   6.796   3.906
 9664SOL    HW229892   5.953   6.723   3.827
 9665SOL     OW29893   5.521   5.780   6.721
 9665SOL    HW129894   5.522   5.803   6.624
 9665SOL    HW229895   5.443   5.720   6.741
 9666SOL     OW29896   5.669   4.149   1.340
 9666SOL    HW129897   5.729   4.219   1.378
 9666SOL    HW229898   5.724   4.075   1.302
 9667SOL     OW29899   3.612   3.719   4.928
 9667SOL    HW129900   3.606   3.683   5.021
 9667SOL    HW229901   3.520   3.747   4.898
 9668SOL     OW29902   6.655   1.570   6.719
 9668SOL    HW129903   6.744   1.558   6.673
 9668SOL    HW229904   6.654   1.517   6.804
 9669SOL     OW29905   1.437   0.183   2.288
 9669SOL    HW129906   1.416   0.276   2.258
 9669SOL    HW229907   1.352   0.135   2.308
 9670SOL     OW29908   5.371   4.817   6.039
 9670SOL    HW129909   5.393   4.721   6.021
 9670SOL    HW229910   5.376   4.835   6.137
 9671SOL     OW29911   6.071   5.608   6.883
 9671SOL    HW129912   6.095   5.517   6.918
 9671SOL    HW229913   6.153   5.665   6.878
 9672SOL     OW29914   1.179   5.718   4.500
 9672SOL    HW129915   1.141   5.793   4.554
 9672SOL    HW229916   1.201   5.641   4.559
 9673SOL     OW29917   6.023   3.875   0.116
 9673SOL    HW129918   6.119   3.884   0.142
 9673SOL    HW229919   5.980   3.803   0.169
 9674SOL     OW29920   2.507   5.763   3.091
 9674SOL    HW129921   2.556   5.696   3.035
 9674SOL    HW229922   2.456   5.717   3.163
 9675SOL     OW29923   6.078   2.197   0.483
 9675SOL    HW129924   6.036   2.233   0.566
 9675SOL    HW229925   6.008   2.192   0.411
 9676SOL     OW29926   1.148   3.561   5.354
 9676SOL    HW129927   1.101   3.617   5.423
 9676SOL    HW229928   1.095   3.478   5.338
 9677SOL     OW29929   1.544   5.819   5.236
 9677SOL    HW129930   1.507   5.861   5.319
 9677SOL    HW229931   1.616   5.754   5.260
 9678SOL     OW29932   3.222   3.431   2.971
 9678SOL    HW129933   3.135   3.383   2.983
 9678SOL    HW229934   3.295   3.364   2.961
 9679SOL     OW29935   2.406   1.201   2.484
 9679SOL    HW129936   2.309   1.209   2.462
 9679SOL    HW229937   2.460   1.247   2.414
 9680SOL     OW29938   5.631   0.826   3.162
 9680SOL    HW129939   5.719   0.807   3.204
 9680SOL    HW229940   5.589   0.905   3.207
 9681SOL     OW29941   3.542   1.497   0.042
 9681SOL    HW129942   3.555   1.527   0.137
 9681SOL    HW229943   3.631   1.484   7.021
 9682SOL     OW29944   5.000   4.974   4.083
 9682SOL    HW129945   4.906   4.972   4.049
 9682SOL    HW229946   5.014   5.056   4.138
 9683SOL     OW29947   2.957   5.359   0.961
 9683SOL    HW129948   2.873   5.365   0.908
 9683SOL    HW229949   3.022   5.298   0.914
 9684SOL     OW29950   0.628   2.455   5.165
 9684SOL    HW129951   0.628   2.545   5.123
 9684SOL    HW229952   0.562   2.453   5.241
 9685SOL     OW29953   1.857   3.919   1.286
 9685SOL    HW129954   1.895   3.982   1.218
 9685SOL    HW229955   1.816   3.841   1.239
 9686SOL     OW29956   6.978   1.297   0.593
 9686SOL    HW129957   0.036   1.335   0.638
 9686SOL    HW229958   6.994   1.292   0.494
 9687SOL     OW29959   2.151   0.589   4.362
 9687SOL    HW129960   2.249   0.588   4.382
 9687SOL    HW229961   2.131   0.522   4.291
 9688SOL     OW29962   6.629   2.264   2.854
 9688SOL    HW129963   6.608   2.189   2.791
 9688SOL    HW229964   6.548   2.319   2.868
 9689SOL     OW29965   1.839   6.145   0.437
 9689SOL    HW129966   1.747   6.123   0.471
 9689SOL    HW229967   1.883   6.062   0.403
 9690SOL     OW29968   5.877   6.034   6.349
 9690SOL    HW129969   5.964   6.078   6.373
 9690SOL    HW229970   5.878   5.939   6.381
 9691SOL     OW29971   3.021   4.847   2.018
 9691SOL    HW129972   2.993   4.807   1.931
 9691SOL    HW229973   2.971   4.804   2.093
 9692SOL     OW29974   3.384   5.240   3.076
 9692SOL    HW129975   3.325   5.235   2.995
 9692SOL    HW229976   3.441   5.158   3.081
 9693SOL     OW29977   6.267   5.919   1.485
 9693SOL    HW129978   6.216   5.993   1.440
 9693SOL    HW229979   6.357   5.953   1.512
 9694SOL     OW29980   2.361   1.111   0.046
 9694SOL    HW129981   2.410   1.198   0.048
 9694SOL    HW229982   2.414   1.041   0.094
 9695SOL     OW29983   0.333   3.240   1.686
 9695SOL    HW129984   0.404   3.172   1.706
 9695SOL    HW229985   0.258   3.231   1.752
 9696SOL     OW29986   4.891   3.548   0.956
 9696SOL    HW129987   4.799   3.555   0.916
 9696SOL    HW229988   4.950   3.618   0.916
 9697SOL     OW29989   6.837   6.378   6.476
 9697SOL    HW129990   6.816   6.473   6.456
 9697SOL    HW229991   6.778   6.318   6.421
 9698SOL     OW29992   4.735   1.677   5.978
 9698SOL    HW129993   4.794   1.753   6.004
 9698SOL    HW229994   4.640   1.709   5.970
 9699SOL     OW29995   0.024   5.143   6.650
 9699SOL    HW129996   6.957   5.139   6.605
 9699SOL    HW229997   0.087   5.195   6.593
 9700SOL     OW29998   4.522   5.123   4.880
 9700SOL    HW129999   4.468   5.196   4.839
 9700SOL    HW230000   4.520   5.042   4.821
 9701SOL     OW30001   3.739   5.088   4.846
 9701SOL    HW130002   3.762   5.055   4.937
 9701SOL    HW230003   3.683   5.171   4.854
 9702SOL     OW30004   5.191   0.650   0.258
 9702SOL    HW130005   5.237   0.739   0.268
 9702SOL    HW230006   5.170   0.613   0.349
 9703SOL     OW30007   4.430   5.108   4.388
 9703SOL    HW130008   4.410   5.039   4.318
 9703SOL    HW230009   4.528   5.130   4.386
 9704SOL     OW30010   2.518   1.045   3.078
 9704SOL    HW130011   2.573   1.093   3.009
 9704SOL    HW230012   2.426   1.029   3.041
 9705SOL     OW30013   4.911   5.334   6.487
 9705SOL    HW130014   4.849   5.298   6.417
 9705SOL    HW230015   4.966   5.408   6.447
 9706SOL     OW30016   0.771   2.781   0.872
 9706SOL    HW130017   0.761   2.842   0.951
 9706SOL    HW230018   0.796   2.690   0.904
 9707SOL     OW30019   6.143   4.424   1.477
 9707SOL    HW130020   6.124   4.453   1.571
 9707SOL    HW230021   6.183   4.499   1.426
 9708SOL     OW30022   1.481   1.979   2.516
 9708SOL    HW130023   1.419   1.949   2.444
 9708SOL    HW230024   1.435   2.047   2.573
 9709SOL     OW30025   5.964   5.969   3.032
 9709SOL    HW130026   5.973   5.912   3.115
 9709SOL    HW230027   6.036   5.945   2.968
 9710SOL     OW30028   0.543   1.633   1.687
 9710SOL    HW130029   0.523   1.687   1.605
 9710SOL    HW230030   0.616   1.568   1.667
 9711SOL     OW30031   2.396   4.448   6.255
 9711SOL    HW130032   2.392   4.360   6.303
 9711SOL    HW230033   2.402   4.432   6.157
 9712SOL     OW30034   6.083   4.568   6.047
 9712SOL    HW130035   6.006   4.526   6.095
 9712SOL    HW230036   6.052   4.650   5.998
 9713SOL     OW30037   1.505   4.960   3.755
 9713SOL    HW130038   1.451   4.994   3.678
 9713SOL    HW230039   1.456   4.977   3.841
 9714SOL     OW30040   2.963   1.223   1.191
 9714SOL    HW130041   2.921   1.244   1.103
 9714SOL    HW230042   2.914   1.148   1.235
 9715SOL     OW30043   5.412   4.009   6.064
 9715SOL    HW130044   5.363   3.922   6.069
 9715SOL    HW230045   5.452   4.030   6.153
 9716SOL     OW30046   4.237   2.802   6.519
 9716SOL    HW130047   4.295   2.853   6.583
 9716SOL    HW230048   4.277   2.808   6.427
 9717SOL     OW30049   5.324   5.715   6.124
 9717SOL    HW130050   5.295   5.696   6.029
 9717SOL    HW230051   5.352   5.810   6.132
 9718SOL     OW30052   5.121   2.616   1.276
 9718SOL    HW130053   5.080   2.526   1.296
 9718SOL    HW230054   5.063   2.665   1.210
 9719SOL     OW30055   0.138   2.134   6.661
 9719SOL    HW130056   0.088   2.221   6.649
 9719SOL    HW230057   0.176   2.105   6.573
 9720SOL     OW30058   6.692   5.439   2.136
 9720SOL    HW130059   6.645   5.368   2.083
 9720SOL    HW230060   6.648   5.527   2.121
 9721SOL     OW30061   0.080   3.378   1.236
 9721SOL    HW130062   0.163   3.364   1.183
 9721SOL    HW230063   0.067   3.302   1.299
 9722SOL     OW30064   6.887   0.289   4.116
 9722SOL    HW130065   6.983   0.317   4.120
 9722SOL    HW230066   6.852   0.305   4.023
 9723SOL     OW30067   2.253   6.445   3.162
 9723SOL    HW130068   2.240   6.410   3.069
 9723SOL    HW230069   2.263   6.369   3.226
 9724SOL     OW30070   2.067   3.209   0.564
 9724SOL    HW130071   2.139   3.146   0.593
 9724SOL    HW230072   2.010   3.164   0.495
 9725SOL     OW30073   3.502   4.552   6.467
 9725SOL    HW130074   3.454   4.548   6.379
 9725SOL    HW230075   3.561   4.633   6.469
 9726SOL     OW30076   5.225   0.586   3.960
 9726SOL    HW130077   5.153   0.542   4.014
 9726SOL    HW230078   5.183   0.635   3.883
 9727SOL     OW30079   0.796   3.312   5.491
 9727SOL    HW130080   0.710   3.363   5.502
 9727SOL    HW230081   0.860   3.340   5.563
 9728SOL     OW30082   0.193   0.476   6.185
 9728SOL    HW130083   0.100   0.450   6.212
 9728SOL    HW230084   0.226   0.414   6.114
 9729SOL     OW30085   0.967   4.161   3.053
 9729SOL    HW130086   1.063   4.138   3.072
 9729SOL    HW230087   0.909   4.085   3.082
 9730SOL     OW30088   0.663   3.567   3.087
 9730SOL    HW130089   0.650   3.480   3.134
 9730SOL    HW230090   0.596   3.633   3.119
 9731SOL     OW30091   4.361   4.150   0.953
 9731SOL    HW130092   4.289   4.197   0.901
 9731SOL    HW230093   4.441   4.209   0.961
 9732SOL     OW30094   5.413   5.752   2.972
 9732SOL    HW130095   5.497   5.806   2.981
 9732SOL    HW230096   5.401   5.693   3.051
 9733SOL     OW30097   5.676   5.028   0.666
 9733SOL    HW130098   5.715   5.021   0.758
 9733SOL    HW230099   5.662   4.937   0.629
 9734SOL     OW30100   6.155   1.367   2.684
 9734SOL    HW130101   6.217   1.301   2.643
 9734SOL    HW230102   6.106   1.415   2.611
 9735SOL     OW30103   2.146   4.521   3.308
 9735SOL    HW130104   2.134   4.495   3.404
 9735SOL    HW230105   2.171   4.439   3.256
 9736SOL     OW30106   5.955   1.569   5.999
 9736SOL    HW130107   5.940   1.587   6.096
 9736SOL    HW230108   5.946   1.654   5.947
 9737SOL     OW30109   6.485   3.105   4.411
 9737SOL    HW130110   6.515   3.032   4.473
 9737SOL    HW230111   6.396   3.139   4.441
 9738SOL     OW30112   1.838   0.057   1.974
 9738SOL    HW130113   1.757   0.030   2.025
 9738SOL    HW230114   1.829   0.027   1.879
 9739SOL     OW30115   5.893   5.206   2.513
 9739SOL    HW130116   5.815   5.255   2.552
 9739SOL    HW230117   5.970   5.210   2.577
 9740SOL     OW30118   6.389   2.140   3.765
 9740SOL    HW130119   6.347   2.135   3.675
 9740SOL    HW230120   6.338   2.205   3.822
 9741SOL     OW30121   5.095   1.982   2.533
 9741SOL    HW130122   5.153   2.004   2.455
 9741SOL    HW230123   5.041   2.062   2.559
 9742SOL     OW30124   3.639   0.568   1.578
 9742SOL    HW130125   3.578   0.603   1.508
 9742SOL    HW230126   3.733   0.567   1.543
 9743SOL     OW30127   0.961   2.070   4.382
 9743SOL    HW130128   1.001   1.980   4.370
 9743SOL    HW230129   1.011   2.121   4.453
 9744SOL     OW30130   0.390   0.160   2.453
 9744SOL    HW130131   0.400   0.153   2.354
 9744SOL    HW230132   0.345   0.247   2.475
 9745SOL     OW30133   6.289   3.201   6.001
 9745SOL    HW130134   6.242   3.289   5.996
 9745SOL    HW230135   6.357   3.195   5.928
 9746SOL     OW30136   6.567   0.892   5.886
 9746SOL    HW130137   6.582   0.889   5.787
 9746SOL    HW230138   6.490   0.833   5.909
 9747SOL     OW30139   1.697   0.298   1.727
 9747SOL    HW130140   1.759   0.370   1.757
 9747SOL    HW230141   1.734   0.254   1.645
 9748SOL     OW30142   0.935   1.477   3.720
 9748SOL    HW130143   0.894   1.466   3.630
 9748SOL    HW230144   0.980   1.567   3.725
 9749SOL     OW30145   2.237   1.767   4.979
 9749SOL    HW130146   2.166   1.733   5.042
 9749SOL    HW230147   2.204   1.851   4.935
 9750SOL     OW30148   5.541   4.753   3.668
 9750SOL    HW130149   5.623   4.761   3.611
 9750SOL    HW230150   5.553   4.806   3.751
 9751SOL     OW30151   1.778   0.994   0.107
 9751SOL    HW130152   1.820   1.074   0.063
 9751SOL    HW230153   1.817   0.910   0.068
 9752SOL     OW30154   5.400   2.154   6.829
 9752SOL    HW130155   5.368   2.248   6.841
 9752SOL    HW230156   5.496   2.155   6.802
 9753SOL     OW30157   6.082   5.521   5.661
 9753SOL    HW130158   5.987   5.496   5.646
 9753SOL    HW230159   6.087   5.618   5.685
 9754SOL     OW30160   0.947   1.686   6.399
 9754SOL    HW130161   0.945   1.631   6.316
 9754SOL    HW230162   0.964   1.628   6.478
 9755SOL     OW30163   4.128   3.962   5.496
 9755SOL    HW130164   4.067   3.910   5.556
 9755SOL    HW230165   4.074   4.028   5.444
 9756SOL     OW30166   6.009   3.267   0.327
 9756SOL    HW130167   6.019   3.241   0.423
 9756SOL    HW230168   6.069   3.210   0.270
 9757SOL     OW30169   5.728   3.604   3.398
 9757SOL    HW130170   5.702   3.700   3.403
 9757SOL    HW230171   5.684   3.561   3.319
 9758SOL     OW30172   2.453   0.110   6.991
 9758SOL    HW130173   2.459   0.059   0.054
 9758SOL    HW230174   2.423   0.049   6.917
 9759SOL     OW30175   2.307   6.721   6.840
 9759SOL    HW130176   2.350   6.647   6.789
 9759SOL    HW230177   2.272   6.687   6.927
 9760SOL     OW30178   4.684   3.374   5.380
 9760SOL    HW130179   4.683   3.425   5.293
 9760SOL    HW230180   4.747   3.297   5.373
 9761SOL     OW30181   5.867   0.453   1.967
 9761SOL    HW130182   5.894   0.359   1.947
 9761SOL    HW230183   5.942   0.515   1.946
 9762SOL     OW30184   2.756   1.867   4.169
 9762SOL    HW130185   2.726   1.950   4.216
 9762SOL    HW230186   2.711   1.860   4.080
 9763SOL     OW30187   4.779   1.828   1.830
 9763SOL    HW130188   4.724   1.860   1.907
 9763SOL    HW230189   4.828   1.905   1.790
 9764SOL     OW30190   0.824   2.634   3.086
 9764SOL    HW130191   0.832   2.590   3.175
 9764SOL    HW230192   0.761   2.712   3.092
 9765SOL     OW30193   6.702   1.664   2.886
 9765SOL    HW130194   6.629   1.617   2.935
 9765SOL    HW230195   6.790   1.621   2.908
 9766SOL     OW30196   2.946   0.337   3.466
 9766SOL    HW130197   2.909   0.422   3.428
 9766SOL    HW230198   2.896   0.260   3.429
 9767SOL     OW30199   5.266   1.789   5.566
 9767SOL    HW130200   5.189   1.784   5.629
 9767SOL    HW230201   5.255   1.867   5.505
 9768SOL     OW30202   4.773   1.580   2.222
 9768SOL    HW130203   4.727   1.503   2.266
 9768SOL    HW230204   4.751   1.581   2.125
 9769SOL     OW30205   2.248   0.728   2.511
 9769SOL    HW130206   2.273   0.656   2.446
 9769SOL    HW230207   2.302   0.810   2.493
 9770SOL     OW30208   5.129   0.503   6.804
 9770SOL    HW130209   5.192   0.428   6.821
 9770SOL    HW230210   5.100   0.543   6.892
 9771SOL     OW30211   3.327   4.938   1.363
 9771SOL    HW130212   3.377   4.929   1.449
 9771SOL    HW230213   3.301   5.033   1.349
 9772SOL     OW30214   1.549   6.126   3.266
 9772SOL    HW130215   1.602   6.205   3.297
 9772SOL    HW230216   1.584   6.095   3.177
 9773SOL     OW30217   5.396   6.674   4.703
 9773SOL    HW130218   5.492   6.686   4.728
 9773SOL    HW230219   5.338   6.720   4.770
 9774SOL     OW30220   6.118   4.886   1.562
 9774SOL    HW130221   6.050   4.858   1.494
 9774SOL    HW230222   6.074   4.893   1.652
 9775SOL     OW30223   2.701   1.132   3.610
 9775SOL    HW130224   2.660   1.199   3.549
 9775SOL    HW230225   2.740   1.178   3.690
 9776SOL     OW30226   0.286   5.653   4.346
 9776SOL    HW130227   0.317   5.621   4.435
 9776SOL    HW230228   0.355   5.631   4.277
 9777SOL     OW30229   5.199   4.712   5.764
 9777SOL    HW130230   5.108   4.748   5.784
 9777SOL    HW230231   5.246   4.693   5.850
 9778SOL     OW30232   0.738   0.800   3.145
 9778SOL    HW130233   0.791   0.884   3.147
 9778SOL    HW230234   0.670   0.802   3.218
 9779SOL     OW30235   2.083   1.266   4.993
 9779SOL    HW130236   2.004   1.208   5.015
 9779SOL    HW230237   2.166   1.210   4.996
 9780SOL     OW30238   2.426   1.932   1.011
 9780SOL    HW130239   2.520   1.905   1.033
 9780SOL    HW230240   2.404   2.016   1.060
 9781SOL     OW30241   1.050   3.758   4.462
 9781SOL    HW130242   1.109   3.740   4.383
 9781SOL    HW230243   1.067   3.851   4.495
 9782SOL     OW30244   6.801   0.779   1.523
 9782SOL    HW130245   6.725   0.843   1.513
 9782SOL    HW230246   6.840   0.759   1.433
 9783SOL     OW30247   5.416   2.342   2.957
 9783SOL    HW130248   5.510   2.313   2.937
 9783SOL    HW230249   5.368   2.358   2.871
 9784SOL     OW30250   3.528   1.496   3.827
 9784SOL    HW130251   3.458   1.443   3.874
 9784SOL    HW230252   3.527   1.475   3.729
 9785SOL     OW30253   0.050   3.771   5.533
 9785SOL    HW130254   0.016   3.857   5.493
 9785SOL    HW230255   6.995   3.715   5.561
 9786SOL     OW30256   2.077   5.155   6.287
 9786SOL    HW130257   2.139   5.110   6.350
 9786SOL    HW230258   1.995   5.100   6.275
 9787SOL     OW30259   4.642   3.408   1.722
 9787SOL    HW130260   4.681   3.452   1.642
 9787SOL    HW230261   4.543   3.426   1.726
 9788SOL     OW30262   0.128   0.691   3.624
 9788SOL    HW130263   0.059   0.684   3.551
 9788SOL    HW230264   0.095   0.753   3.695
 9789SOL     OW30265   1.308   5.831   6.780
 9789SOL    HW130266   1.375   5.905   6.772
 9789SOL    HW230267   1.341   5.751   6.730
 9790SOL     OW30268   5.546   4.056   5.842
 9790SOL    HW130269   5.641   4.072   5.869
 9790SOL    HW230270   5.490   4.046   5.924
 9791SOL     OW30271   0.236   1.891   2.895
 9791SOL    HW130272   0.308   1.823   2.881
 9791SOL    HW230273   0.154   1.847   2.930
 9792SOL     OW30274   5.569   5.497   2.019
 9792SOL    HW130275   5.628   5.417   2.006
 9792SOL    HW230276   5.558   5.515   2.117
 9793SOL     OW30277   5.620   5.407   3.395
 9793SOL    HW130278   5.564   5.413   3.478
 9793SOL    HW230279   5.703   5.355   3.414
 9794SOL     OW30280   6.491   4.475   6.568
 9794SOL    HW130281   6.542   4.488   6.483
 9794SOL    HW230282   6.397   4.506   6.556
 9795SOL     OW30283   1.391   1.943   3.953
 9795SOL    HW130284   1.302   1.973   3.989
 9795SOL    HW230285   1.460   1.949   4.024
 9796SOL     OW30286   4.290   2.824   1.449
 9796SOL    HW130287   4.261   2.777   1.532
 9796SOL    HW230288   4.378   2.787   1.419
 9797SOL     OW30289   3.541   4.931   6.328
 9797SOL    HW130290   3.599   4.889   6.398
 9797SOL    HW230291   3.553   4.883   6.242
 9798SOL     OW30292   2.360   0.587   0.990
 9798SOL    HW130293   2.350   0.671   0.935
 9798SOL    HW230294   2.414   0.606   1.072
 9799SOL     OW30295   3.365   3.576   3.254
 9799SOL    HW130296   3.284   3.519   3.244
 9799SOL    HW230297   3.434   3.549   3.186
 9800SOL     OW30298   2.914   6.451   5.472
 9800SOL    HW130299   2.944   6.547   5.468
 9800SOL    HW230300   2.990   6.394   5.505
 9801SOL     OW30301   4.707   4.484   0.387
 9801SOL    HW130302   4.631   4.518   0.443
 9801SOL    HW230303   4.784   4.547   0.394
 9802SOL     OW30304   0.672   2.714   2.432
 9802SOL    HW130305   0.665   2.645   2.504
 9802SOL    HW230306   0.741   2.782   2.456
 9803SOL     OW30307   6.152   1.491   6.903
 9803SOL    HW130308   6.170   1.584   6.936
 9803SOL    HW230309   6.117   1.496   6.809
 9804SOL     OW30310   0.875   5.646   3.074
 9804SOL    HW130311   0.878   5.733   3.024
 9804SOL    HW230312   0.780   5.614   3.079
 9805SOL     OW30313   1.142   6.067   5.607
 9805SOL    HW130314   1.200   6.133   5.560
 9805SOL    HW230315   1.193   5.982   5.621
 9806SOL     OW30316   1.125   1.860   0.233
 9806SOL    HW130317   1.197   1.922   0.201
 9806SOL    HW230318   1.152   1.820   0.320
 9807SOL     OW30319   2.178   2.803   6.998
 9807SOL    HW130320   2.120   2.839   6.925
 9807SOL    HW230321   2.248   2.870   7.021
 9808SOL     OW30322   5.836   1.211   5.893
 9808SOL    HW130323   5.925   1.256   5.901
 9808SOL    HW230324   5.817   1.160   5.977
 9809SOL     OW30325   1.081   2.004   6.456
 9809SOL    HW130326   1.117   2.076   6.396
 9809SOL    HW230327   1.084   2.035   6.551
 9810SOL     OW30328   2.716   2.427   4.130
 9810SOL    HW130329   2.719   2.486   4.049
 9810SOL    HW230330   2.639   2.363   4.121
 9811SOL     OW30331   5.875   5.749   4.186
 9811SOL    HW130332   5.892   5.777   4.280
 9811SOL    HW230333   5.825   5.663   4.185
 9812SOL     OW30334   3.077   2.621   6.269
 9812SOL    HW130335   3.086   2.660   6.177
 9812SOL    HW230336   2.981   2.617   6.295
 9813SOL     OW30337   5.861   6.759   6.920
 9813SOL    HW130338   5.802   6.773   6.999
 9813SOL    HW230339   5.858   6.663   6.892
 9814SOL     OW30340   0.681   1.095   6.767
 9814SOL    HW130341   0.718   1.179   6.808
 9814SOL    HW230342   0.755   1.043   6.726
 9815SOL     OW30343   6.524   3.396   2.401
 9815SOL    HW130344   6.589   3.462   2.364
 9815SOL    HW230345   6.518   3.317   2.341
 9816SOL     OW30346   6.798   1.325   6.052
 9816SOL    HW130347   6.815   1.237   6.097
 9816SOL    HW230348   6.826   1.399   6.114
 9817SOL     OW30349   3.112   5.467   2.429
 9817SOL    HW130350   3.102   5.567   2.431
 9817SOL    HW230351   3.102   5.435   2.334
 9818SOL     OW30352   1.777   1.278   4.013
 9818SOL    HW130353   1.682   1.286   3.984
 9818SOL    HW230354   1.810   1.185   3.995
 9819SOL     OW30355   5.190   2.974   5.375
 9819SOL    HW130356   5.130   2.908   5.330
 9819SOL    HW230357   5.150   3.000   5.463
 9820SOL     OW30358   3.670   3.285   6.705
 9820SOL    HW130359   3.735   3.223   6.661
 9820SOL    HW230360   3.577   3.263   6.677
 9821SOL     OW30361   4.079   1.303   1.013
 9821SOL    HW130362   4.091   1.207   0.990
 9821SOL    HW230363   4.165   1.352   0.999
 9822SOL     OW30364   3.658   5.589   3.889
 9822SOL    HW130365   3.644   5.498   3.928
 9822SOL    HW230366   3.651   5.583   3.789
 9823SOL     OW30367   1.910   0.241   2.204
 9823SOL    HW130368   1.850   0.289   2.267
 9823SOL    HW230369   1.856   0.198   2.132
 9824SOL     OW30370   1.981   6.054   5.113
 9824SOL    HW130371   1.949   6.120   5.045
 9824SOL    HW230372   1.929   6.065   5.197
 9825SOL     OW30373   5.838   6.041   5.095
 9825SOL    HW130374   5.832   5.975   5.169
 9825SOL    HW230375   5.933   6.071   5.085
 9826SOL     OW30376   3.608   6.538   5.577
 9826SOL    HW130377   3.661   6.456   5.601
 9826SOL    HW230378   3.595   6.541   5.478
 9827SOL     OW30379   1.839   3.722   3.281
 9827SOL    HW130380   1.860   3.803   3.335
 9827SOL    HW230381   1.754   3.737   3.230
 9828SOL     OW30382   3.081   2.186   4.754
 9828SOL    HW130383   3.131   2.224   4.831
 9828SOL    HW230384   3.004   2.247   4.731
 9829SOL     OW30385   4.687   5.720   6.400
 9829SOL    HW130386   4.733   5.809   6.406
 9829SOL    HW230387   4.712   5.664   6.479
 9830SOL     OW30388   5.106   1.704   1.387
 9830SOL    HW130389   5.165   1.646   1.443
 9830SOL    HW230390   5.032   1.648   1.349
 9831SOL     OW30391   0.545   4.552   2.323
 9831SOL    HW130392   0.522   4.647   2.343
 9831SOL    HW230393   0.461   4.498   2.315
 9832SOL     OW30394   4.541   5.878   3.196
 9832SOL    HW130395   4.456   5.919   3.164
 9832SOL    HW230396   4.595   5.945   3.247
 9833SOL     OW30397   3.474   2.941   3.241
 9833SOL    HW130398   3.381   2.959   3.272
 9833SOL    HW230399   3.471   2.906   3.147
 9834SOL     OW30400   1.807   4.620   5.665
 9834SOL    HW130401   1.842   4.698   5.613
 9834SOL    HW230402   1.707   4.620   5.662
 9835SOL     OW30403   3.805   3.240   4.472
 9835SOL    HW130404   3.730   3.288   4.428
 9835SOL    HW230405   3.870   3.306   4.509
 9836SOL     OW30406   0.500   4.512   4.661
 9836SOL    HW130407   0.433   4.442   4.688
 9836SOL    HW230408   0.554   4.477   4.584
 9837SOL     OW30409   5.806   0.938   2.428
 9837SOL    HW130410   5.797   0.907   2.334
 9837SOL    HW230411   5.719   0.924   2.476
 9838SOL     OW30412   1.358   0.041   0.858
 9838SOL    HW130413   1.386   0.041   0.762
 9838SOL    HW230414   1.400   0.118   0.905
 9839SOL     OW30415   4.587   6.904   2.973
 9839SOL    HW130416   4.506   6.875   3.025
 9839SOL    HW230417   4.591   6.854   2.887
 9840SOL     OW30418   4.666   1.707   0.393
 9840SOL    HW130419   4.599   1.758   0.339
 9840SOL    HW230420   4.659   1.735   0.489
 9841SOL     OW30421   0.894   4.771   3.301
 9841SOL    HW130422   0.861   4.821   3.221
 9841SOL    HW230423   0.902   4.834   3.379
 9842SOL     OW30424   3.628   3.117   0.345
 9842SOL    HW130425   3.675   3.036   0.380
 9842SOL    HW230426   3.663   3.139   0.254
 9843SOL     OW30427   7.022   0.268   1.999
 9843SOL    HW130428   7.000   0.172   1.982
 9843SOL    HW230429   0.020   0.280   2.096
 9844SOL     OW30430   5.984   0.963   4.191
 9844SOL    HW130431   5.940   0.935   4.277
 9844SOL    HW230432   5.971   0.892   4.122
 9845SOL     OW30433   1.342   2.648   2.605
 9845SOL    HW130434   1.435   2.625   2.634
 9845SOL    HW230435   1.276   2.601   2.664
 9846SOL     OW30436   4.957   1.625   0.491
 9846SOL    HW130437   4.871   1.661   0.455
 9846SOL    HW230438   5.025   1.620   0.418
 9847SOL     OW30439   3.955   2.971   2.354
 9847SOL    HW130440   3.956   3.013   2.444
 9847SOL    HW230441   4.002   2.882   2.359
 9848SOL     OW30442   3.712   4.813   5.220
 9848SOL    HW130443   3.710   4.728   5.273
 9848SOL    HW230444   3.649   4.879   5.261
 9849SOL     OW30445   0.845   6.605   6.844
 9849SOL    HW130446   0.838   6.508   6.823
 9849SOL    HW230447   0.773   6.631   6.907
 9850SOL     OW30448   6.934   0.666   3.413
 9850SOL    HW130449   6.924   0.753   3.364
 9850SOL    HW230450   6.852   0.650   3.468
 9851SOL     OW30451   2.957   6.409   4.405
 9851SOL    HW130452   2.950   6.508   4.416
 9851SOL    HW230453   3.030   6.388   4.340
 9852SOL     OW30454   1.249   1.345   5.068
 9852SOL    HW130455   1.168   1.394   5.035
 9852SOL    HW230456   1.286   1.288   4.995
 9853SOL     OW30457   6.744   3.258   5.464
 9853SOL    HW130458   6.734   3.236   5.561
 9853SOL    HW230459   6.681   3.331   5.440
 9854SOL     OW30460   0.741   5.472   4.945
 9854SOL    HW130461   0.691   5.453   4.861
 9854SOL    HW230462   0.810   5.542   4.927
 9855SOL     OW30463   1.172   3.268   1.012
 9855SOL    HW130464   1.108   3.308   1.078
 9855SOL    HW230465   1.256   3.242   1.060
 9856SOL     OW30466   5.418   4.786   3.927
 9856SOL    HW130467   5.338   4.784   3.987
 9856SOL    HW230468   5.483   4.855   3.960
 9857SOL     OW30469   5.708   3.092   2.464
 9857SOL    HW130470   5.706   3.019   2.532
 9857SOL    HW230471   5.803   3.108   2.436
 9858SOL     OW30472   0.825   6.517   1.748
 9858SOL    HW130473   0.877   6.595   1.783
 9858SOL    HW230474   0.797   6.534   1.654
 9859SOL     OW30475   6.803   4.729   4.447
 9859SOL    HW130476   6.733   4.688   4.506
 9859SOL    HW230477   6.890   4.684   4.462
 9860SOL     OW30478   1.614   2.423   5.126
 9860SOL    HW130479   1.599   2.326   5.144
 9860SOL    HW230480   1.569   2.449   5.041
 9861SOL     OW30481   3.231   0.575   3.609
 9861SOL    HW130482   3.269   0.498   3.557
 9861SOL    HW230483   3.141   0.598   3.572
 9862SOL     OW30484   2.514   3.977   0.706
 9862SOL    HW130485   2.426   4.018   0.683
 9862SOL    HW230486   2.558   3.945   0.622
 9863SOL     OW30487   3.196   5.693   1.001
 9863SOL    HW130488   3.255   5.749   1.059
 9863SOL    HW230489   3.126   5.649   1.058
 9864SOL     OW30490   2.882   0.596   5.578
 9864SOL    HW130491   2.921   0.591   5.486
 9864SOL    HW230492   2.871   0.504   5.615
 9865SOL     OW30493   0.986   6.162   4.739
 9865SOL    HW130494   0.889   6.160   4.763
 9865SOL    HW230495   1.040   6.168   4.823
 9866SOL     OW30496   6.262   4.299   4.919
 9866SOL    HW130497   6.318   4.298   4.837
 9866SOL    HW230498   6.308   4.249   4.992
 9867SOL     OW30499   6.362   2.432   2.676
 9867SOL    HW130500   6.269   2.399   2.666
 9867SOL    HW230501   6.376   2.466   2.769
 9868SOL     OW30502   0.477   3.668   4.316
 9868SOL    HW130503   0.408   3.711   4.258
 9868SOL    HW230504   0.561   3.722   4.313
 9869SOL     OW30505   0.750   2.980   1.113
 9869SOL    HW130506   0.839   2.993   1.071
 9869SOL    HW230507   0.760   2.979   1.213
 9870SOL     OW30508   4.110   0.317   2.719
 9870SOL    HW130509   4.054   0.265   2.783
 9870SOL    HW230510   4.184   0.363   2.769
 9871SOL     OW30511   0.084   3.548   6.016
 9871SOL    HW130512   0.067   3.458   6.056
 9871SOL    HW230513   0.056   3.619   6.080
 9872SOL     OW30514   2.077   5.534   5.101
 9872SOL    HW130515   2.053   5.628   5.074
 9872SOL    HW230516   2.168   5.534   5.142
 9873SOL     OW30517   2.090   2.026   6.018
 9873SOL    HW130518   2.021   2.092   6.048
 9873SOL    HW230519   2.122   2.051   5.927
 9874SOL     OW30520   0.134   3.321   4.858
 9874SOL    HW130521   0.200   3.334   4.932
 9874SOL    HW230522   0.081   3.405   4.846
 9875SOL     OW30523   6.841   5.629   2.297
 9875SOL    HW130524   6.830   5.715   2.246
 9875SOL    HW230525   6.828   5.552   2.235
 9876SOL     OW30526   5.193   0.537   4.396
 9876SOL    HW130527   5.155   0.446   4.412
 9876SOL    HW230528   5.120   0.600   4.372
 9877SOL     OW30529   6.792   4.347   4.403
 9877SOL    HW130530   6.704   4.341   4.451
 9877SOL    HW230531   6.780   4.400   4.319
 9878SOL     OW30532   2.134   3.822   6.746
 9878SOL    HW130533   2.127   3.755   6.672
 9878SOL    HW230534   2.113   3.913   6.711
 9879SOL     OW30535   0.495   4.810   5.607
 9879SOL    HW130536   0.495   4.793   5.509
 9879SOL    HW230537   0.589   4.823   5.639
 9880SOL     OW30538   2.424   0.541   0.230
 9880SOL    HW130539   2.522   0.527   0.246
 9880SOL    HW230540   2.411   0.602   0.152
 9881SOL     OW30541   6.185   0.780   4.781
 9881SOL    HW130542   6.191   0.680   4.783
 9881SOL    HW230543   6.170   0.810   4.687
 9882SOL     OW30544   3.560   3.500   5.113
 9882SOL    HW130545   3.518   3.415   5.079
 9882SOL    HW230546   3.659   3.495   5.098
 9883SOL     OW30547   2.136   5.927   1.648
 9883SOL    HW130548   2.045   5.951   1.616
 9883SOL    HW230549   2.131   5.847   1.707
 9884SOL     OW30550   2.977   2.534   0.294
 9884SOL    HW130551   2.938   2.463   0.352
 9884SOL    HW230552   2.954   2.516   0.199
 9885SOL     OW30553   1.093   3.468   4.355
 9885SOL    HW130554   1.086   3.493   4.452
 9885SOL    HW230555   1.011   3.499   4.307
 9886SOL     OW30556   6.406   6.877   1.985
 9886SOL    HW130557   6.421   6.799   2.047
 9886SOL    HW230558   6.365   6.844   1.900
 9887SOL     OW30559   3.369   0.041   0.576
 9887SOL    HW130560   3.418   0.127   0.586
 9887SOL    HW230561   3.363   7.018   0.665
 9888SOL     OW30562   5.634   5.990   3.408
 9888SOL    HW130563   5.609   6.060   3.474
 9888SOL    HW230564   5.584   5.906   3.428
 9889SOL     OW30565   0.641   5.097   2.503
 9889SOL    HW130566   0.701   5.152   2.561
 9889SOL    HW230567   0.546   5.123   2.518
 9890SOL     OW30568   6.509   3.169   0.334
 9890SOL    HW130569   6.599   3.212   0.342
 9890SOL    HW230570   6.497   3.133   0.242
 9891SOL     OW30571   5.161   4.871   1.548
 9891SOL    HW130572   5.135   4.775   1.535
 9891SOL    HW230573   5.126   4.925   1.471
 9892SOL     OW30574   2.189   5.407   3.971
 9892SOL    HW130575   2.199   5.445   4.063
 9892SOL    HW230576   2.109   5.348   3.967
 9893SOL     OW30577   6.517   5.829   2.325
 9893SOL    HW130578   6.580   5.773   2.272
 9893SOL    HW230579   6.479   5.774   2.400
 9894SOL     OW30580   2.866   1.404   6.611
 9894SOL    HW130581   2.888   1.453   6.528
 9894SOL    HW230582   2.919   1.441   6.687
 9895SOL     OW30583   6.014   2.252   5.530
 9895SOL    HW130584   5.984   2.304   5.450
 9895SOL    HW230585   5.936   2.234   5.590
 9896SOL     OW30586   4.496   2.288   1.117
 9896SOL    HW130587   4.594   2.290   1.137
 9896SOL    HW230588   4.444   2.301   1.201
 9897SOL     OW30589   5.310   1.233   2.428
 9897SOL    HW130590   5.358   1.274   2.351
 9897SOL    HW230591   5.346   1.271   2.513
 9898SOL     OW30592   0.598   5.227   5.407
 9898SOL    HW130593   0.642   5.315   5.421
 9898SOL    HW230594   0.607   5.201   5.310
 9899SOL     OW30595   6.213   4.289   2.277
 9899SOL    HW130596   6.231   4.273   2.180
 9899SOL    HW230597   6.159   4.372   2.287
 9900SOL     OW30598   1.964   1.685   2.381
 9900SOL    HW130599   2.048   1.694   2.327
 9900SOL    HW230600   1.980   1.721   2.473
 9901SOL     OW30601   1.079   2.286   0.353
 9901SOL    HW130602   0.993   2.252   0.393
 9901SOL    HW230603   1.078   2.269   0.254
 9902SOL     OW30604   3.179   3.263   1.235
 9902SOL    HW130605   3.091   3.238   1.194
 9902SOL    HW230606   3.252   3.213   1.189
 9903SOL     OW30607   4.467   0.349   2.418
 9903SOL    HW130608   4.413   0.360   2.334
 9903SOL    HW230609   4.452   0.258   2.455
 9904SOL     OW30610   0.280   3.492   6.602
 9904SOL    HW130611   0.312   3.584   6.625
 9904SOL    HW230612   0.323   3.426   6.663
 9905SOL     OW30613   1.839   6.828   0.709
 9905SOL    HW130614   1.756   6.784   0.743
 9905SOL    HW230615   1.840   6.924   0.737
 9906SOL     OW30616   1.598   3.155   6.891
 9906SOL    HW130617   1.554   3.160   6.981
 9906SOL    HW230618   1.585   3.242   6.844
 9907SOL     OW30619   2.662   6.948   3.203
 9907SOL    HW130620   2.666   6.998   3.117
 9907SOL    HW230621   2.728   6.872   3.200
 9908SOL     OW30622   0.893   3.434   6.241
 9908SOL    HW130623   0.900   3.365   6.314
 9908SOL    HW230624   0.920   3.394   6.154
 9909SOL     OW30625   3.517   0.845   3.277
 9909SOL    HW130626   3.458   0.903   3.222
 9909SOL    HW230627   3.481   0.839   3.370
 9910SOL     OW30628   0.028   4.641   1.806
 9910SOL    HW130629   0.100   4.585   1.847
 9910SOL    HW230630   0.043   4.737   1.827
 9911SOL     OW30631   4.661   5.162   3.273
 9911SOL    HW130632   4.654   5.099   3.350
 9911SOL    HW230633   4.634   5.254   3.303
 9912SOL     OW30634   4.023   0.608   2.358
 9912SOL    HW130635   3.984   0.660   2.434
 9912SOL    HW230636   3.966   0.528   2.340
 9913SOL     OW30637   6.197   2.967   2.090
 9913SOL    HW130638   6.276   2.961   2.029
 9913SOL    HW230639   6.119   2.920   2.048
 9914SOL     OW30640   0.817   0.841   5.555
 9914SOL    HW130641   0.874   0.763   5.528
 9914SOL    HW230642   0.844   0.872   5.647
 9915SOL     OW30643   5.659   4.079   3.924
 9915SOL    HW130644   5.697   4.169   3.948
 9915SOL    HW230645   5.703   4.009   3.980
 9916SOL     OW30646   2.763   1.777   3.873
 9916SOL    HW130647   2.786   1.735   3.786
 9916SOL    HW230648   2.772   1.876   3.866
 9917SOL     OW30649   3.064   3.179   4.592
 9917SOL    HW130650   3.085   3.192   4.495
 9917SOL    HW230651   3.134   3.121   4.634
 9918SOL     OW30652   1.407   1.293   0.382
 9918SOL    HW130653   1.463   1.227   0.332
 9918SOL    HW230654   1.465   1.359   0.428
 9919SOL     OW30655   2.029   4.963   2.370
 9919SOL    HW130656   2.029   4.952   2.470
 9919SOL    HW230657   2.054   5.057   2.347
 9920SOL     OW30658   3.497   0.981   2.842
 9920SOL    HW130659   3.505   1.057   2.777
 9920SOL    HW230660   3.449   1.011   2.923
 9921SOL     OW30661   6.081   6.353   3.984
 9921SOL    HW130662   6.020   6.316   4.053
 9921SOL    HW230663   6.027   6.392   3.909
 9922SOL     OW30664   4.420   4.351   0.727
 9922SOL    HW130665   4.326   4.383   0.743
 9922SOL    HW230666   4.475   4.366   0.808
 9923SOL     OW30667   6.825   2.909   0.378
 9923SOL    HW130668   6.823   2.845   0.455
 9923SOL    HW230669   6.900   2.974   0.391
 9924SOL     OW30670   5.564   1.526   1.420
 9924SOL    HW130671   5.562   1.625   1.433
 9924SOL    HW230672   5.656   1.491   1.440
 9925SOL     OW30673   2.052   4.329   5.218
 9925SOL    HW130674   2.140   4.311   5.175
 9925SOL    HW230675   2.024   4.423   5.201
 9926SOL     OW30676   3.497   2.533   1.304
 9926SOL    HW130677   3.561   2.457   1.315
 9926SOL    HW230678   3.536   2.615   1.345
 9927SOL     OW30679   0.959   2.680   1.442
 9927SOL    HW130680   0.879   2.692   1.501
 9927SOL    HW230681   1.025   2.752   1.461
 9928SOL     OW30682   6.070   4.505   2.366
 9928SOL    HW130683   6.024   4.495   2.454
 9928SOL    HW230684   6.081   4.602   2.345
 9929SOL     OW30685   2.811   4.094   5.286
 9929SOL    HW130686   2.749   4.015   5.281
 9929SOL    HW230687   2.775   4.167   5.229
 9930SOL     OW30688   6.913   0.412   5.822
 9930SOL    HW130689   6.832   0.400   5.765
 9930SOL    HW230690   6.995   0.409   5.765
 9931SOL     OW30691   0.199   5.858   5.203
 9931SOL    HW130692   0.141   5.904   5.136
 9931SOL    HW230693   0.168   5.763   5.215
 9932SOL     OW30694   1.499   2.027   0.540
 9932SOL    HW130695   1.556   2.025   0.622
 9932SOL    HW230696   1.405   2.051   0.564
 9933SOL     OW30697   2.804   0.793   3.617
 9933SOL    HW130698   2.818   0.892   3.616
 9933SOL    HW230699   2.810   0.758   3.711
 9934SOL     OW30700   6.115   1.822   0.201
 9934SOL    HW130701   6.087   1.826   0.297
 9934SOL    HW230702   6.116   1.914   0.163
 9935SOL     OW30703   2.614   2.270   0.837
 9935SOL    HW130704   2.607   2.175   0.868
 9935SOL    HW230705   2.655   2.272   0.746
 9936SOL     OW30706   5.470   4.571   6.026
 9936SOL    HW130707   5.500   4.541   5.935
 9936SOL    HW230708   5.521   4.522   6.096
 9937SOL     OW30709   1.095   0.901   3.027
 9937SOL    HW130710   1.071   0.809   3.057
 9937SOL    HW230711   1.014   0.949   2.995
 9938SOL     OW30712   5.332   0.464   3.737
 9938SOL    HW130713   5.383   0.501   3.660
 9938SOL    HW230714   5.330   0.531   3.811
 9939SOL     OW30715   1.454   3.102   1.080
 9939SOL    HW130716   1.434   3.072   1.173
 9939SOL    HW230717   1.543   3.148   1.079
 9940SOL     OW30718   0.107   0.226   3.435
 9940SOL    HW130719   0.115   0.162   3.512
 9940SOL    HW230720   0.195   0.269   3.418
 9941SOL     OW30721   3.542   5.786   5.466
 9941SOL    HW130722   3.542   5.820   5.373
 9941SOL    HW230723   3.602   5.842   5.523
 9942SOL     OW30724   4.865   4.469   2.638
 9942SOL    HW130725   4.944   4.412   2.658
 9942SOL    HW230726   4.876   4.511   2.548
 9943SOL     OW30727   1.079   4.471   6.432
 9943SOL    HW130728   1.164   4.481   6.484
 9943SOL    HW230729   1.004   4.514   6.483
 9944SOL     OW30730   6.711   5.756   6.643
 9944SOL    HW130731   6.771   5.718   6.572
 9944SOL    HW230732   6.680   5.682   6.703
 9945SOL     OW30733   5.624   3.993   6.532
 9945SOL    HW130734   5.668   3.916   6.488
 9945SOL    HW230735   5.554   3.959   6.596
 9946SOL     OW30736   6.217   0.267   3.605
 9946SOL    HW130737   6.198   0.360   3.636
 9946SOL    HW230738   6.140   0.233   3.551
 9947SOL     OW30739   1.494   1.174   3.266
 9947SOL    HW130740   1.474   1.134   3.176
 9947SOL    HW230741   1.586   1.148   3.295
 9948SOL     OW30742   6.755   5.818   4.942
 9948SOL    HW130743   6.777   5.896   4.884
 9948SOL    HW230744   6.661   5.828   4.976
 9949SOL     OW30745   0.582   5.340   4.216
 9949SOL    HW130746   0.582   5.245   4.247
 9949SOL    HW230747   0.618   5.345   4.123
 9950SOL     OW30748   6.662   5.087   6.214
 9950SOL    HW130749   6.668   5.088   6.313
 9950SOL    HW230750   6.650   4.993   6.182
 9951SOL     OW30751   1.480   2.523   2.949
 9951SOL    HW130752   1.547   2.495   3.019
 9951SOL    HW230753   1.422   2.596   2.986
 9952SOL     OW30754   1.155   3.869   1.878
 9952SOL    HW130755   1.095   3.808   1.825
 9952SOL    HW230756   1.107   3.955   1.897
 9953SOL     OW30757   6.015   2.476   3.409
 9953SOL    HW130758   5.995   2.381   3.431
 9953SOL    HW230759   6.103   2.482   3.362
 9954SOL     OW30760   1.934   1.486   4.964
 9954SOL    HW130761   1.993   1.405   4.970
 9954SOL    HW230762   1.969   1.548   4.894
 9955SOL     OW30763   4.925   3.406   6.794
 9955SOL    HW130764   4.958   3.476   6.730
 9955SOL    HW230765   4.825   3.409   6.798
 9956SOL     OW30766   0.351   3.965   2.301
 9956SOL    HW130767   0.433   4.015   2.330
 9956SOL    HW230768   0.379   3.886   2.247
 9957SOL     OW30769   5.711   0.260   1.120
 9957SOL    HW130770   5.641   0.268   1.191
 9957SOL    HW230771   5.799   0.236   1.163
 9958SOL     OW30772   3.473   5.717   6.331
 9958SOL    HW130773   3.401   5.648   6.343
 9958SOL    HW230774   3.558   5.683   6.371
 9959SOL     OW30775   4.312   3.404   1.455
 9959SOL    HW130776   4.318   3.427   1.552
 9959SOL    HW230777   4.278   3.310   1.445
 9960SOL     OW30778   0.024   6.538   1.581
 9960SOL    HW130779   0.114   6.554   1.541
 9960SOL    HW230780   6.998   6.471   1.525
 9961SOL     OW30781   2.018   4.398   2.467
 9961SOL    HW130782   2.019   4.467   2.540
 9961SOL    HW230783   1.933   4.406   2.415
 9962SOL     OW30784   3.780   0.635   1.797
 9962SOL    HW130785   3.797   0.730   1.771
 9962SOL    HW230786   3.747   0.584   1.717
 9963SOL     OW30787   2.691   2.522   0.270
 9963SOL    HW130788   2.641   2.493   0.188
 9963SOL    HW230789   2.735   2.610   0.252
 9964SOL     OW30790   3.632   4.918   5.811
 9964SOL    HW130791   3.597   5.002   5.854
 9964SOL    HW230792   3.640   4.932   5.712
 9965SOL     OW30793   3.587   5.492   4.577
 9965SOL    HW130794   3.490   5.479   4.597
 9965SOL    HW230795   3.623   5.412   4.529
 9966SOL     OW30796   2.900   5.170   2.375
 9966SOL    HW130797   2.993   5.146   2.348
 9966SOL    HW230798   2.889   5.269   2.375
 9967SOL     OW30799   6.101   5.439   3.060
 9967SOL    HW130800   6.083   5.433   3.158
 9967SOL    HW230801   6.029   5.494   3.016
 9968SOL     OW30802   4.405   5.748   6.824
 9968SOL    HW130803   4.308   5.743   6.846
 9968SOL    HW230804   4.444   5.656   6.824
 9969SOL     OW30805   1.999   3.226   4.242
 9969SOL    HW130806   2.025   3.320   4.221
 9969SOL    HW230807   1.941   3.225   4.324
 9970SOL     OW30808   6.186   5.244   1.517
 9970SOL    HW130809   6.133   5.187   1.455
 9970SOL    HW230810   6.220   5.324   1.468
 9971SOL     OW30811   1.701   2.826   1.487
 9971SOL    HW130812   1.737   2.793   1.574
 9971SOL    HW230813   1.664   2.750   1.435
 9972SOL     OW30814   2.465   4.175   1.302
 9972SOL    HW130815   2.408   4.114   1.358
 9972SOL    HW230816   2.560   4.169   1.334
 9973SOL     OW30817   4.835   2.891   4.508
 9973SOL    HW130818   4.791   2.895   4.598
 9973SOL    HW230819   4.868   2.983   4.484
 9974SOL     OW30820   0.094   2.120   3.209
 9974SOL    HW130821   0.180   2.073   3.189
 9974SOL    HW230822   0.061   2.165   3.126
 9975SOL     OW30823   0.645   5.513   6.394
 9975SOL    HW130824   0.618   5.517   6.298
 9975SOL    HW230825   0.601   5.587   6.445
 9976SOL     OW30826   1.079   4.986   5.327
 9976SOL    HW130827   1.048   5.073   5.288
 9976SOL    HW230828   1.072   4.991   5.427
 9977SOL     OW30829   4.985   4.940   5.740
 9977SOL    HW130830   5.006   4.891   5.825
 9977SOL    HW230831   4.959   4.874   5.669
 9978SOL     OW30832   6.937   1.944   5.558
 9978SOL    HW130833   6.855   1.923   5.505
 9978SOL    HW230834   6.998   1.865   5.560
 9979SOL     OW30835   6.228   4.089   6.016
 9979SOL    HW130836   6.138   4.062   5.983
 9979SOL    HW230837   6.251   4.036   6.098
 9980SOL     OW30838   2.176   0.312   1.071
 9980SOL    HW130839   2.124   0.281   0.991
 9980SOL    HW230840   2.138   0.399   1.104
 9981SOL     OW30841   1.730   2.031   0.712
 9981SOL    HW130842   1.734   2.124   0.748
 9981SOL    HW230843   1.820   1.988   0.720
 9982SOL     OW30844   1.114   1.024   4.150
 9982SOL    HW130845   1.087   0.950   4.211
 9982SOL    HW230846   1.041   1.043   4.084
 9983SOL     OW30847   7.002   1.801   2.189
 9983SOL    HW130848   0.052   1.778   2.125
 9983SOL    HW230849   6.914   1.802   2.141
 9984SOL     OW30850   0.786   5.912   0.345
 9984SOL    HW130851   0.833   5.854   0.412
 9984SOL    HW230852   0.848   5.986   0.317
 9985SOL     OW30853   2.944   5.181   1.203
 9985SOL    HW130854   2.896   5.178   1.115
 9985SOL    HW230855   2.891   5.238   1.267
 9986SOL     OW30856   5.969   5.168   0.826
 9986SOL    HW130857   5.892   5.130   0.876
 9986SOL    HW230858   6.040   5.098   0.815
 9987SOL     OW30859   6.163   2.651   2.099
 9987SOL    HW130860   6.168   2.605   2.011
 9987SOL    HW230861   6.239   2.622   2.157
 9988SOL     OW30862   6.665   5.423   4.238
 9988SOL    HW130863   6.636   5.475   4.157
 9988SOL    HW230864   6.741   5.363   4.213
 9989SOL     OW30865   6.194   4.053   2.397
 9989SOL    HW130866   6.132   3.990   2.351
 9989SOL    HW230867   6.190   4.142   2.351
 9990SOL     OW30868   2.101   6.637   3.339
 9990SOL    HW130869   2.126   6.579   3.262
 9990SOL    HW230870   2.100   6.583   3.423
 9991SOL     OW30871   2.019   3.537   3.698
 9991SOL    HW130872   2.042   3.442   3.714
 9991SOL    HW230873   2.080   3.577   3.630
 9992SOL     OW30874   3.782   3.767   0.969
 9992SOL    HW130875   3.709   3.767   1.036
 9992SOL    HW230876   3.825   3.676   0.966
 9993SOL     OW30877   4.254   6.558   4.031
 9993SOL    HW130878   4.166   6.510   4.025
 9993SOL    HW230879   4.242   6.653   4.002
 9994SOL     OW30880   0.161   3.919   2.538
 9994SOL    HW130881   0.227   3.910   2.464
 9994SOL    HW230882   0.129   4.013   2.543
 9995SOL     OW30883   3.755   1.186   3.662
 9995SOL    HW130884   3.687   1.225   3.600
 9995SOL    HW230885   3.713   1.168   3.751
 9996SOL     OW30886   2.768   3.855   1.494
 9996SOL    HW130887   2.686   3.827   1.543
 9996SOL    HW230888   2.753   3.845   1.396
 9997SOL     OW30889   5.771   0.655   2.697
 9997SOL    HW130890   5.675   0.629   2.685
 9997SOL    HW230891   5.824   0.626   2.617
 9998SOL     OW30892   5.558   3.198   1.550
 9998SOL    HW130893   5.626   3.124   1.544
 9998SOL    HW230894   5.555   3.233   1.643
 9999SOL     OW30895   6.982   6.092   5.063
 9999SOL    HW130896   0.025   6.167   5.063
 9999SOL    HW230897   6.924   6.099   5.144
10000SOL     OW30898   5.605   2.429   0.500
10000SOL    HW130899   5.573   2.346   0.456
10000SOL    HW230900   5.532   2.468   0.556
10001SOL     OW30901   3.142   0.384   1.326
10001SOL    HW130902   3.240   0.381   1.308
10001SOL    HW230903   3.120   0.467   1.377
10002SOL     OW30904   1.572   1.142   1.775
10002SOL    HW130905   1.577   1.241   1.788
10002SOL    HW230906   1.663   1.103   1.788
10003SOL     OW30907   2.958   2.155   2.262
10003SOL    HW130908   2.938   2.207   2.179
10003SOL    HW230909   3.051   2.117   2.255
10004SOL     OW30910   5.453   3.040   5.392
10004SOL    HW130911   5.362   2.999   5.389
10004SOL    HW230912   5.518   2.978   5.348
10005SOL     OW30913   3.356   5.592   3.083
10005SOL    HW130914   3.328   5.531   3.157
10005SOL    HW230915   3.352   5.542   2.996
10006SOL     OW30916   5.918   6.966   5.543
10006SOL    HW130917   5.988   6.895   5.546
10006SOL    HW230918   5.934   0.003   5.464
10007SOL     OW30919   0.967   3.233   4.198
10007SOL    HW130920   1.039   3.165   4.213
10007SOL    HW230921   0.911   3.241   4.280
10008SOL     OW30922   4.984   1.196   3.589
10008SOL    HW130923   5.083   1.183   3.593
10008SOL    HW230924   4.958   1.271   3.649
10009SOL     OW30925   1.629   3.971   1.647
10009SOL    HW130926   1.610   4.068   1.663
10009SOL    HW230927   1.568   3.916   1.704
10010SOL     OW30928   2.471   6.051   0.751
10010SOL    HW130929   2.445   5.957   0.729
10010SOL    HW230930   2.449   6.111   0.674
10011SOL     OW30931   0.342   4.435   6.586
10011SOL    HW130932   0.265   4.424   6.649
10011SOL    HW230933   0.316   4.403   6.495
10012SOL     OW30934   5.412   0.047   2.042
10012SOL    HW130935   5.510   0.069   2.043
10012SOL    HW230936   5.359   0.132   2.052
10013SOL     OW30937   1.923   2.566   4.359
10013SOL    HW130938   1.977   2.551   4.441
10013SOL    HW230939   1.826   2.562   4.381
10014SOL     OW30940   1.069   0.723   1.656
10014SOL    HW130941   1.004   0.686   1.722
10014SOL    HW230942   1.159   0.731   1.698
10015SOL     OW30943   4.403   5.313   0.351
10015SOL    HW130944   4.421   5.216   0.333
10015SOL    HW230945   4.315   5.323   0.398
10016SOL     OW30946   2.090   1.071   4.695
10016SOL    HW130947   1.996   1.081   4.728
10016SOL    HW230948   2.089   1.045   4.599
10017SOL     OW30949   1.914   1.334   2.941
10017SOL    HW130950   1.957   1.248   2.970
10017SOL    HW230951   1.985   1.400   2.916
10018SOL     OW30952   6.688   4.931   5.567
10018SOL    HW130953   6.726   4.914   5.658
10018SOL    HW230954   6.747   4.889   5.498
10019SOL     OW30955   0.540   1.492   3.402
10019SOL    HW130956   0.441   1.499   3.404
10019SOL    HW230957   0.581   1.582   3.418
10020SOL     OW30958   0.230   0.992   1.745
10020SOL    HW130959   0.141   1.035   1.754
10020SOL    HW230960   0.250   0.940   1.828
10021SOL     OW30961   0.814   3.099   2.601
10021SOL    HW130962   0.725   3.072   2.564
10021SOL    HW230963   0.820   3.199   2.601
10022SOL     OW30964   3.275   6.756   0.703
10022SOL    HW130965   3.311   6.676   0.654
10022SOL    HW230966   3.352   6.811   0.736
10023SOL     OW30967   2.078   5.152   3.945
10023SOL    HW130968   2.037   5.129   4.033
10023SOL    HW230969   2.172   5.116   3.942
10024SOL     OW30970   1.811   5.795   2.282
10024SOL    HW130971   1.899   5.750   2.301
10024SOL    HW230972   1.743   5.726   2.257
10025SOL     OW30973   1.421   2.853   2.221
10025SOL    HW130974   1.480   2.871   2.141
10025SOL    HW230975   1.393   2.940   2.261
10026SOL     OW30976   5.201   0.430   3.282
10026SOL    HW130977   5.107   0.449   3.311
10026SOL    HW230978   5.236   0.351   3.332
10027SOL     OW30979   0.827   2.241   5.230
10027SOL    HW130980   0.781   2.229   5.318
10027SOL    HW230981   0.841   2.339   5.213
10028SOL     OW30982   1.941   1.525   1.882
10028SOL    HW130983   2.006   1.561   1.814
10028SOL    HW230984   1.877   1.597   1.907
10029SOL     OW30985   1.693   2.347   3.620
10029SOL    HW130986   1.603   2.382   3.644
10029SOL    HW230987   1.702   2.253   3.653
10030SOL     OW30988   3.462   0.444   5.236
10030SOL    HW130989   3.540   0.479   5.183
10030SOL    HW230990   3.477   0.347   5.256
10031SOL     OW30991   5.520   4.598   4.808
10031SOL    HW130992   5.597   4.548   4.769
10031SOL    HW230993   5.540   4.620   4.904
10032SOL     OW30994   4.515   0.576   5.265
10032SOL    HW130995   4.591   0.515   5.244
10032SOL    HW230996   4.511   0.649   5.196
10033SOL     OW30997   4.698   2.587   4.145
10033SOL    HW130998   4.613   2.537   4.128
10033SOL    HW230999   4.678   2.669   4.199
10034SOL     OW31000   3.207   0.177   3.898
10034SOL    HW131001   3.122   0.230   3.908
10034SOL    HW231002   3.267   0.223   3.832
10035SOL     OW31003   6.833   4.978   1.236
10035SOL    HW131004   6.744   4.965   1.278
10035SOL    HW231005   6.904   4.941   1.295
10036SOL     OW31006   6.379   0.461   0.669
10036SOL    HW131007   6.385   0.400   0.589
10036SOL    HW231008   6.328   0.543   0.644
10037SOL     OW31009   6.008   0.693   0.217
10037SOL    HW131010   6.012   0.748   0.301
10037SOL    HW231011   6.100   0.671   0.187
10038SOL     OW31012   4.192   6.845   6.444
10038SOL    HW131013   4.099   6.876   6.465
10038SOL    HW231014   4.202   6.750   6.473
10039SOL     OW31015   4.589   6.674   5.132
10039SOL    HW131016   4.578   6.586   5.086
10039SOL    HW231017   4.555   6.667   5.226
10040SOL     OW31018   4.170   5.879   6.361
10040SOL    HW131019   4.268   5.886   6.380
10040SOL    HW231020   4.155   5.823   6.280
10041SOL     OW31021   5.060   6.121   6.824
10041SOL    HW131022   4.983   6.097   6.765
10041SOL    HW231023   5.026   6.172   6.903
10042SOL     OW31024   1.321   2.064   5.142
10042SOL    HW131025   1.301   2.148   5.193
10042SOL    HW231026   1.243   2.002   5.149
10043SOL     OW31027   0.290   1.923   4.211
10043SOL    HW131028   0.380   1.957   4.186
10043SOL    HW231029   0.220   1.974   4.160
10044SOL     OW31030   2.280   1.771   3.848
10044SOL    HW131031   2.368   1.756   3.892
10044SOL    HW231032   2.292   1.773   3.749
10045SOL     OW31033   5.210   6.877   3.752
10045SOL    HW131034   5.164   6.847   3.668
10045SOL    HW231035   5.165   6.836   3.831
10046SOL     OW31036   1.127   3.627   1.483
10046SOL    HW131037   1.030   3.643   1.503
10046SOL    HW231038   1.143   3.529   1.472
10047SOL     OW31039   6.192   3.839   4.855
10047SOL    HW131040   6.123   3.912   4.854
10047SOL    HW231041   6.234   3.832   4.764
10048SOL     OW31042   4.767   1.955   2.428
10048SOL    HW131043   4.855   1.949   2.475
10048SOL    HW231044   4.719   2.038   2.457
10049SOL     OW31045   0.687   0.233   6.734
10049SOL    HW131046   0.746   0.278   6.800
10049SOL    HW231047   0.594   0.227   6.771
10050SOL     OW31048   6.781   2.753   5.064
10050SOL    HW131049   6.796   2.664   5.109
10050SOL    HW231050   6.701   2.798   5.106
10051SOL     OW31051   6.150   2.230   4.777
10051SOL    HW131052   6.129   2.138   4.810
10051SOL    HW231053   6.248   2.247   4.785
10052SOL     OW31054   3.147   2.144   2.948
10052SOL    HW131055   3.051   2.118   2.958
10052SOL    HW231056   3.163   2.178   2.855
10053SOL     OW31057   3.579   5.867   1.768
10053SOL    HW131058   3.495   5.920   1.751
10053SOL    HW231059   3.658   5.922   1.741
10054SOL     OW31060   4.808   5.048   5.936
10054SOL    HW131061   4.719   5.047   5.889
10054SOL    HW231062   4.877   5.009   5.875
10055SOL     OW31063   6.049   1.998   5.365
10055SOL    HW131064   6.068   2.070   5.432
10055SOL    HW231065   6.057   2.036   5.272
10056SOL     OW31066   5.783   4.261   1.680
10056SOL    HW131067   5.769   4.324   1.757
10056SOL    HW231068   5.807   4.313   1.598
10057SOL     OW31069   4.224   2.279   4.806
10057SOL    HW131070   4.150   2.219   4.776
10057SOL    HW231071   4.195   2.330   4.887
10058SOL     OW31072   0.299   3.948   4.598
10058SOL    HW131073   0.226   4.013   4.617
10058SOL    HW231074   0.322   3.950   4.501
10059SOL     OW31075   5.147   6.337   0.896
10059SOL    HW131076   5.205   6.257   0.912
10059SOL    HW231077   5.185   6.391   0.822
10060SOL     OW31078   1.796   1.684   1.533
10060SOL    HW131079   1.721   1.740   1.498
10060SOL    HW231080   1.766   1.588   1.538
10061SOL     OW31081   5.491   1.121   4.748
10061SOL    HW131082   5.415   1.099   4.810
10061SOL    HW231083   5.511   1.041   4.691
10062SOL     OW31084   6.512   0.328   4.477
10062SOL    HW131085   6.612   0.337   4.480
10062SOL    HW231086   6.470   0.412   4.513
10063SOL     OW31087   1.754   1.565   4.009
10063SOL    HW131088   1.827   1.602   4.066
10063SOL    HW231089   1.769   1.468   3.993
10064SOL     OW31090   5.051   6.752   0.382
10064SOL    HW131091   4.957   6.720   0.388
10064SOL    HW231092   5.066   6.795   0.293
10065SOL     OW31093   1.785   0.032   2.683
10065SOL    HW131094   1.840   7.021   2.607
10065SOL    HW231095   1.840   0.031   2.767
10066SOL     OW31096   0.928   1.767   3.366
10066SOL    HW131097   0.972   1.836   3.308
10066SOL    HW231098   0.990   1.689   3.379
10067SOL     OW31099   6.427   4.249   4.721
10067SOL    HW131100   6.520   4.285   4.714
10067SOL    HW231101   6.427   4.151   4.700
10068SOL     OW31102   6.568   3.220   2.602
10068SOL    HW131103   6.553   3.282   2.525
10068SOL    HW231104   6.540   3.127   2.576
10069SOL     OW31105   1.924   5.334   3.493
10069SOL    HW131106   1.841   5.372   3.536
10069SOL    HW231107   1.992   5.316   3.564
10070SOL     OW31108   6.463   0.203   5.142
10070SOL    HW131109   6.513   0.124   5.104
10070SOL    HW231110   6.391   0.170   5.203
10071SOL     OW31111   6.292   5.778   3.861
10071SOL    HW131112   6.336   5.805   3.947
10071SOL    HW231113   6.360   5.775   3.788
10072SOL     OW31114   0.011   6.532   3.944
10072SOL    HW131115   0.003   6.631   3.936
10072SOL    HW231116   7.013   6.489   3.856
10073SOL     OW31117   5.907   4.753   5.163
10073SOL    HW131118   5.923   4.811   5.084
10073SOL    HW231119   5.910   4.809   5.246
10074SOL     OW31120   1.465   1.006   5.483
10074SOL    HW131121   1.419   1.046   5.404
10074SOL    HW231122   1.423   1.040   5.568
10075SOL     OW31123   1.499   3.058   3.247
10075SOL    HW131124   1.527   3.028   3.156
10075SOL    HW231125   1.422   3.121   3.239
10076SOL     OW31126   6.922   0.230   3.257
10076SOL    HW131127   6.997   0.229   3.323
10076SOL    HW231128   6.913   0.322   3.218
10077SOL     OW31129   3.717   3.298   6.297
10077SOL    HW131130   3.672   3.344   6.374
10077SOL    HW231131   3.746   3.207   6.325
10078SOL     OW31132   0.438   5.296   3.894
10078SOL    HW131133   0.510   5.303   3.825
10078SOL    HW231134   0.351   5.326   3.854
10079SOL     OW31135   0.103   3.757   2.777
10079SOL    HW131136   0.008   3.787   2.782
10079SOL    HW231137   0.143   3.786   2.690
10080SOL     OW31138   3.893   1.301   5.203
10080SOL    HW131139   3.794   1.283   5.204
10080SOL    HW231140   3.921   1.322   5.110
10081SOL     OW31141   0.209   6.780   0.457
10081SOL    HW131142   0.180   6.854   0.518
10081SOL    HW231143   0.174   6.693   0.491
10082SOL     OW31144   6.656   4.942   1.936
10082SOL    HW131145   6.692   5.034   1.952
10082SOL    HW231146   6.690   4.880   2.007
10083SOL     OW31147   5.151   1.052   3.220
10083SOL    HW131148   5.107   1.092   3.140
10083SOL    HW231149   5.250   1.071   3.217
10084SOL     OW31150   2.298   1.328   5.426
10084SOL    HW131151   2.238   1.381   5.486
10084SOL    HW231152   2.269   1.339   5.331
10085SOL     OW31153   1.776   6.183   2.198
10085SOL    HW131154   1.833   6.119   2.250
10085SOL    HW231155   1.834   6.240   2.140
10086SOL     OW31156   5.153   5.566   2.469
10086SOL    HW131157   5.064   5.523   2.456
10086SOL    HW231158   5.221   5.496   2.492
10087SOL     OW31159   0.443   0.052   3.584
10087SOL    HW131160   0.360   0.048   3.640
10087SOL    HW231161   0.424   0.103   3.500
10088SOL     OW31162   6.839   0.100   1.312
10088SOL    HW131163   6.833   0.140   1.220
10088SOL    HW231164   6.931   0.117   1.349
10089SOL     OW31165   3.048   1.737   2.163
10089SOL    HW131166   3.011   1.671   2.098
10089SOL    HW231167   3.143   1.756   2.140
10090SOL     OW31168   1.229   4.558   1.271
10090SOL    HW131169   1.283   4.524   1.195
10090SOL    HW231170   1.146   4.504   1.282
10091SOL     OW31171   1.423   3.789   5.923
10091SOL    HW131172   1.367   3.872   5.925
10091SOL    HW231173   1.497   3.801   5.857
10092SOL     OW31174   1.860   2.928   4.937
10092SOL    HW131175   1.811   2.982   5.005
10092SOL    HW231176   1.958   2.928   4.958
10093SOL     OW31177   6.564   3.419   5.252
10093SOL    HW131178   6.565   3.466   5.340
10093SOL    HW231179   6.611   3.475   5.183
10094SOL     OW31180   2.472   5.626   2.197
10094SOL    HW131181   2.540   5.553   2.208
10094SOL    HW231182   2.428   5.618   2.108
10095SOL     OW31183   5.667   1.590   5.338
10095SOL    HW131184   5.589   1.585   5.401
10095SOL    HW231185   5.692   1.498   5.308
10096SOL     OW31186   4.663   4.816   2.466
10096SOL    HW131187   4.590   4.770   2.415
10096SOL    HW231188   4.749   4.768   2.451
10097SOL     OW31189   0.943   0.759   0.797
10097SOL    HW131190   1.000   0.818   0.739
10097SOL    HW231191   0.976   0.664   0.790
10098SOL     OW31192   2.870   0.510   5.157
10098SOL    HW131193   2.874   0.460   5.244
10098SOL    HW231194   2.930   0.589   5.161
10099SOL     OW31195   6.974   4.914   0.978
10099SOL    HW131196   6.900   4.915   1.046
10099SOL    HW231197   0.036   4.882   1.020
10100SOL     OW31198   5.186   0.100   5.033
10100SOL    HW131199   5.260   0.050   4.988
10100SOL    HW231200   5.187   0.079   5.131
10101SOL     OW31201   5.979   4.013   1.760
10101SOL    HW131202   5.974   4.056   1.851
10101SOL    HW231203   5.968   4.083   1.690
10102SOL     OW31204   1.326   1.140   2.096
10102SOL    HW131205   1.264   1.198   2.148
10102SOL    HW231206   1.323   1.166   1.999
10103SOL     OW31207   2.445   0.362   5.948
10103SOL    HW131208   2.368   0.298   5.944
10103SOL    HW231209   2.523   0.317   5.990
10104SOL     OW31210   1.836   1.937   3.906
10104SOL    HW131211   1.779   1.936   3.988
10104SOL    HW231212   1.873   1.846   3.889
10105SOL     OW31213   1.632   0.776   0.686
10105SOL    HW131214   1.665   0.707   0.621
10105SOL    HW231215   1.688   0.858   0.678
10106SOL     OW31216   4.028   6.577   1.077
10106SOL    HW131217   3.975   6.519   1.016
10106SOL    HW231218   4.095   6.522   1.127
10107SOL     OW31219   6.778   1.424   6.394
10107SOL    HW131220   6.719   1.344   6.408
10107SOL    HW231221   6.823   1.448   6.480
10108SOL     OW31222   6.636   6.836   0.455
10108SOL    HW131223   6.695   6.872   0.382
10108SOL    HW231224   6.671   6.866   0.544
10109SOL     OW31225   5.114   0.149   0.814
10109SOL    HW131226   5.135   0.244   0.789
10109SOL    HW231227   5.123   0.091   0.733
10110SOL     OW31228   4.013   5.697   4.442
10110SOL    HW131229   4.087   5.629   4.444
10110SOL    HW231230   3.976   5.704   4.350
10111SOL     OW31231   5.442   3.594   3.741
10111SOL    HW131232   5.369   3.661   3.729
10111SOL    HW231233   5.479   3.602   3.834
10112SOL     OW31234   5.857   3.895   4.114
10112SOL    HW131235   5.781   3.831   4.119
10112SOL    HW231236   5.921   3.866   4.043
10113SOL     OW31237   4.560   0.224   6.055
10113SOL    HW131238   4.528   0.278   5.978
10113SOL    HW231239   4.611   0.282   6.118
10114SOL     OW31240   5.607   1.332   0.846
10114SOL    HW131241   5.701   1.299   0.850
10114SOL    HW231242   5.600   1.406   0.779
10115SOL     OW31243   3.757   1.452   4.496
10115SOL    HW131244   3.856   1.456   4.513
10115SOL    HW231245   3.717   1.543   4.512
10116SOL     OW31246   0.586   6.400   0.868
10116SOL    HW131247   0.578   6.457   0.950
10116SOL    HW231248   0.497   6.360   0.847
10117SOL     OW31249   6.455   6.165   5.702
10117SOL    HW131250   6.403   6.122   5.777
10117SOL    HW231251   6.541   6.115   5.690
10118SOL     OW31252   1.725   4.920   2.796
10118SOL    HW131253   1.813   4.941   2.838
10118SOL    HW231254   1.707   4.984   2.722
10119SOL     OW31255   0.487   6.006   4.565
10119SOL    HW131256   0.446   6.063   4.636
10119SOL    HW231257   0.416   5.979   4.499
10120SOL     OW31258   1.452   3.378   5.220
10120SOL    HW131259   1.407   3.429   5.293
10120SOL    HW231260   1.513   3.440   5.169
10121SOL     OW31261   6.484   4.058   6.673
10121SOL    HW131262   6.547   4.134   6.683
10121SOL    HW231263   6.433   4.067   6.587
10122SOL     OW31264   6.054   3.293   1.539
10122SOL    HW131265   5.991   3.237   1.484
10122SOL    HW231266   6.147   3.257   1.529
10123SOL     OW31267   5.466   6.823   6.914
10123SOL    HW131268   5.527   6.792   6.987
10123SOL    HW231269   5.429   6.913   6.937
10124SOL     OW31270   1.435   4.354   0.366
10124SOL    HW131271   1.531   4.384   0.363
10124SOL    HW231272   1.428   4.269   0.418
10125SOL     OW31273   2.006   1.356   2.199
10125SOL    HW131274   1.911   1.341   2.171
10125SOL    HW231275   2.064   1.367   2.118
10126SOL     OW31276   0.081   6.603   6.415
10126SOL    HW131277   0.066   6.546   6.334
10126SOL    HW231278   0.100   6.545   6.494
10127SOL     OW31279   2.963   4.679   6.471
10127SOL    HW131280   2.886   4.717   6.420
10127SOL    HW231281   3.043   4.738   6.459
10128SOL     OW31282   2.574   1.445   1.149
10128SOL    HW131283   2.490   1.399   1.118
10128SOL    HW231284   2.625   1.384   1.208
10129SOL     OW31285   5.764   1.571   2.554
10129SOL    HW131286   5.715   1.647   2.512
10129SOL    HW231287   5.776   1.497   2.488
10130SOL     OW31288   1.622   3.588   1.872
10130SOL    HW131289   1.556   3.514   1.867
10130SOL    HW231290   1.695   3.563   1.935
10131SOL     OW31291   0.985   0.302   4.521
10131SOL    HW131292   0.927   0.261   4.591
10131SOL    HW231293   0.931   0.367   4.466
10132SOL     OW31294   3.463   0.174   4.641
10132SOL    HW131295   3.520   0.098   4.610
10132SOL    HW231296   3.383   0.138   4.689
10133SOL     OW31297   3.673   6.193   1.050
10133SOL    HW131298   3.749   6.150   1.098
10133SOL    HW231299   3.599   6.127   1.039
10134SOL     OW31300   0.547   5.821   3.437
10134SOL    HW131301   0.543   5.811   3.338
10134SOL    HW231302   0.586   5.910   3.460
10135SOL     OW31303   5.013   3.515   3.602
10135SOL    HW131304   4.991   3.419   3.589
10135SOL    HW231305   5.079   3.544   3.533
10136SOL     OW31306   5.273   0.750   2.552
10136SOL    HW131307   5.225   0.787   2.473
10136SOL    HW231308   5.310   0.825   2.607
10137SOL     OW31309   6.405   3.945   4.136
10137SOL    HW131310   6.464   3.973   4.211
10137SOL    HW231311   6.455   3.880   4.078
10138SOL     OW31312   5.010   3.661   0.449
10138SOL    HW131313   5.061   3.710   0.520
10138SOL    HW231314   5.018   3.710   0.362
10139SOL     OW31315   3.077   3.925   3.152
10139SOL    HW131316   3.082   3.996   3.222
10139SOL    HW231317   3.169   3.890   3.132
10140SOL     OW31318   5.775   6.219   0.029
10140SOL    HW131319   5.688   6.168   0.035
10140SOL    HW231320   5.837   6.184   0.099
10141SOL     OW31321   3.768   1.711   5.188
10141SOL    HW131322   3.683   1.763   5.188
10141SOL    HW231323   3.762   1.638   5.120
10142SOL     OW31324   6.222   6.640   5.186
10142SOL    HW131325   6.143   6.645   5.247
10142SOL    HW231326   6.192   6.657   5.092
10143SOL     OW31327   5.102   1.355   6.877
10143SOL    HW131328   5.151   1.291   6.936
10143SOL    HW231329   5.157   1.437   6.862
10144SOL     OW31330   2.872   0.523   5.990
10144SOL    HW131331   2.905   0.459   6.060
10144SOL    HW231332   2.780   0.553   6.013
10145SOL     OW31333   2.618   5.524   4.058
10145SOL    HW131334   2.556   5.476   3.995
10145SOL    HW231335   2.578   5.524   4.150
10146SOL     OW31336   4.466   4.625   4.748
10146SOL    HW131337   4.434   4.611   4.841
10146SOL    HW231338   4.480   4.723   4.732
10147SOL     OW31339   5.469   3.895   5.234
10147SOL    HW131340   5.369   3.898   5.240
10147SOL    HW231341   5.504   3.989   5.227
10148SOL     OW31342   4.903   4.744   6.693
10148SOL    HW131343   4.916   4.800   6.611
10148SOL    HW231344   4.920   4.798   6.774
10149SOL     OW31345   5.991   3.218   0.573
10149SOL    HW131346   5.907   3.244   0.622
10149SOL    HW231347   6.043   3.153   0.628
10150SOL     OW31348   3.364   4.098   0.349
10150SOL    HW131349   3.295   4.131   0.413
10150SOL    HW231350   3.455   4.124   0.381
10151SOL     OW31351   0.930   5.946   6.857
10151SOL    HW131352   0.879   5.897   6.929
10151SOL    HW231353   0.910   5.904   6.769
10152SOL     OW31354   0.078   6.071   4.457
10152SOL    HW131355   0.157   6.018   4.428
10152SOL    HW231356   0.012   6.011   4.502
10153SOL     OW31357   4.721   6.223   3.565
10153SOL    HW131358   4.777   6.303   3.547
10153SOL    HW231359   4.644   6.249   3.623
10154SOL     OW31360   4.460   6.647   5.384
10154SOL    HW131361   4.450   6.548   5.370
10154SOL    HW231362   4.373   6.685   5.417
10155SOL     OW31363   3.752   2.440   5.596
10155SOL    HW131364   3.806   2.364   5.560
10155SOL    HW231365   3.810   2.521   5.606
10156SOL     OW31366   5.703   0.282   2.406
10156SOL    HW131367   5.634   0.294   2.477
10156SOL    HW231368   5.690   0.194   2.361
10157SOL     OW31369   0.051   1.715   0.851
10157SOL    HW131370   0.132   1.769   0.873
10157SOL    HW231371   0.078   1.627   0.813
10158SOL     OW31372   5.807   5.408   0.269
10158SOL    HW131373   5.799   5.328   0.329
10158SOL    HW231374   5.790   5.491   0.322
10159SOL     OW31375   2.368   3.198   0.385
10159SOL    HW131376   2.442   3.240   0.333
10159SOL    HW231377   2.345   3.256   0.463
10160SOL     OW31378   1.696   2.946   2.511
10160SOL    HW131379   1.727   2.907   2.424
10160SOL    HW231380   1.769   2.936   2.579
10161SOL     OW31381   3.167   2.954   0.510
10161SOL    HW131382   3.201   2.968   0.603
10161SOL    HW231383   3.207   3.022   0.449
10162SOL     OW31384   3.578   4.687   1.048
10162SOL    HW131385   3.567   4.598   1.094
10162SOL    HW231386   3.658   4.734   1.086
10163SOL     OW31387   6.443   4.369   6.918
10163SOL    HW131388   6.384   4.369   6.838
10163SOL    HW231389   6.452   4.462   6.954
10164SOL     OW31390   6.172   3.534   4.151
10164SOL    HW131391   6.263   3.494   4.145
10164SOL    HW231392   6.142   3.563   4.060
10165SOL     OW31393   6.743   1.984   3.401
10165SOL    HW131394   6.772   1.999   3.306
10165SOL    HW231395   6.726   1.887   3.415
10166SOL     OW31396   3.444   1.853   2.024
10166SOL    HW131397   3.356   1.847   1.976
10166SOL    HW231398   3.476   1.948   2.022
10167SOL     OW31399   1.978   4.545   6.811
10167SOL    HW131400   1.973   4.460   6.863
10167SOL    HW231401   2.007   4.526   6.717
10168SOL     OW31402   5.798   2.937   6.241
10168SOL    HW131403   5.895   2.959   6.235
10168SOL    HW231404   5.745   3.016   6.209
10169SOL     OW31405   6.485   4.754   3.680
10169SOL    HW131406   6.551   4.829   3.675
10169SOL    HW231407   6.444   4.740   3.589
10170SOL     OW31408   6.889   5.802   5.185
10170SOL    HW131409   6.888   5.703   5.198
10170SOL    HW231410   6.865   5.823   5.090
10171SOL     OW31411   6.967   2.841   4.613
10171SOL    HW131412   0.028   2.889   4.638
10171SOL    HW231413   6.892   2.871   4.672
10172SOL     OW31414   0.295   6.109   5.339
10172SOL    HW131415   0.374   6.157   5.302
10172SOL    HW231416   0.278   6.026   5.285
10173SOL     OW31417   1.405   2.870   0.923
10173SOL    HW131418   1.393   2.956   0.972
10173SOL    HW231419   1.502   2.855   0.906
10174SOL     OW31420   4.959   4.502   3.301
10174SOL    HW131421   4.934   4.411   3.266
10174SOL    HW231422   5.058   4.505   3.317
10175SOL     OW31423   6.023   1.833   3.539
10175SOL    HW131424   6.105   1.849   3.484
10175SOL    HW231425   6.049   1.828   3.636
10176SOL     OW31426   0.825   3.607   4.542
10176SOL    HW131427   0.744   3.662   4.522
10176SOL    HW231428   0.900   3.635   4.482
10177SOL     OW31429   2.510   0.794   1.537
10177SOL    HW131430   2.576   0.779   1.611
10177SOL    HW231431   2.488   0.707   1.494
10178SOL     OW31432   0.577   1.263   6.157
10178SOL    HW131433   0.622   1.177   6.184
10178SOL    HW231434   0.499   1.242   6.098
10179SOL     OW31435   0.375   2.651   6.758
10179SOL    HW131436   0.456   2.700   6.791
10179SOL    HW231437   0.295   2.710   6.767
10180SOL     OW31438   4.331   0.685   6.087
10180SOL    HW131439   4.279   0.661   6.006
10180SOL    HW231440   4.380   0.771   6.072
10181SOL     OW31441   6.129   3.267   1.050
10181SOL    HW131442   6.068   3.315   0.987
10181SOL    HW231443   6.075   3.230   1.126
10182SOL     OW31444   4.580   0.712   1.718
10182SOL    HW131445   4.514   0.699   1.644
10182SOL    HW231446   4.540   0.770   1.789
10183SOL     OW31447   6.867   3.006   6.686
10183SOL    HW131448   6.810   3.045   6.614
10183SOL    HW231449   6.837   3.040   6.775
10184SOL     OW31450   3.881   1.530   6.107
10184SOL    HW131451   3.938   1.554   6.029
10184SOL    HW231452   3.938   1.515   6.187
10185SOL     OW31453   6.250   5.681   3.071
10185SOL    HW131454   6.257   5.581   3.069
10185SOL    HW231455   6.319   5.721   3.011
10186SOL     OW31456   5.997   3.733   3.814
10186SOL    HW131457   6.007   3.652   3.872
10186SOL    HW231458   5.940   3.711   3.735
10187SOL     OW31459   1.249   3.698   0.497
10187SOL    HW131460   1.270   3.603   0.475
10187SOL    HW231461   1.234   3.750   0.412
10188SOL     OW31462   4.326   5.116   0.573
10188SOL    HW131463   4.247   5.159   0.530
10188SOL    HW231464   4.387   5.081   0.501
10189SOL     OW31465   1.172   1.097   5.980
10189SOL    HW131466   1.190   1.011   6.028
10189SOL    HW231467   1.223   1.098   5.894
10190SOL     OW31468   5.055   3.244   1.779
10190SOL    HW131469   5.108   3.171   1.822
10190SOL    HW231470   4.973   3.204   1.736
10191SOL     OW31471   4.499   6.262   6.605
10191SOL    HW131472   4.493   6.306   6.694
10191SOL    HW231473   4.492   6.163   6.616
10192SOL     OW31474   4.211   1.479   4.880
10192SOL    HW131475   4.297   1.434   4.853
10192SOL    HW231476   4.226   1.577   4.888
10193SOL     OW31477   3.693   3.272   1.873
10193SOL    HW131478   3.616   3.332   1.892
10193SOL    HW231479   3.674   3.180   1.909
10194SOL     OW31480   5.308   5.908   5.484
10194SOL    HW131481   5.339   5.995   5.523
10194SOL    HW231482   5.299   5.917   5.385
10195SOL     OW31483   6.099   5.728   0.371
10195SOL    HW131484   6.113   5.693   0.278
10195SOL    HW231485   6.018   5.685   0.411
10196SOL     OW31486   4.385   1.944   3.785
10196SOL    HW131487   4.469   1.896   3.810
10196SOL    HW231488   4.360   2.008   3.858
10197SOL     OW31489   6.084   0.816   5.041
10197SOL    HW131490   6.104   0.836   4.946
10197SOL    HW231491   6.165   0.833   5.097
10198SOL     OW31492   2.860   6.702   2.598
10198SOL    HW131493   2.790   6.740   2.658
10198SOL    HW231494   2.949   6.704   2.645
10199SOL     OW31495   2.230   2.960   0.669
10199SOL    HW131496   2.328   2.962   0.652
10199SOL    HW231497   2.213   2.965   0.767
10200SOL     OW31498   4.888   2.580   6.404
10200SOL    HW131499   4.796   2.540   6.398
10200SOL    HW231500   4.888   2.669   6.357
10201SOL     OW31501   1.288   5.341   0.211
10201SOL    HW131502   1.329   5.253   0.185
10201SOL    HW231503   1.335   5.415   0.162
10202SOL     OW31504   3.376   4.879   1.068
10202SOL    HW131505   3.368   4.903   1.165
10202SOL    HW231506   3.436   4.799   1.059
10203SOL     OW31507   6.624   2.523   2.236
10203SOL    HW131508   6.718   2.489   2.236
10203SOL    HW231509   6.586   2.516   2.329
10204SOL     OW31510   4.844   5.938   6.955
10204SOL    HW131511   4.911   6.001   6.993
10204SOL    HW231512   4.796   5.891   0.006
10205SOL     OW31513   2.470   0.593   2.192
10205SOL    HW131514   2.459   0.663   2.121
10205SOL    HW231515   2.409   0.517   2.172
10206SOL     OW31516   6.789   0.187   6.330
10206SOL    HW131517   6.786   0.226   6.238
10206SOL    HW231518   6.752   0.253   6.396
10207SOL     OW31519   1.463   2.366   6.751
10207SOL    HW131520   1.456   2.461   6.780
10207SOL    HW231521   1.550   2.328   6.784
10208SOL     OW31522   6.314   4.869   3.855
10208SOL    HW131523   6.373   4.827   3.786
10208SOL    HW231524   6.368   4.931   3.912
10209SOL     OW31525   0.435   0.197   6.910
10209SOL    HW131526   0.371   0.180   6.836
10209SOL    HW231527   0.409   0.143   6.990
10210SOL     OW31528   4.275   6.985   1.859
10210SOL    HW131529   4.288   0.060   1.841
10210SOL    HW231530   4.193   6.971   1.913
10211SOL     OW31531   4.757   6.678   4.334
10211SOL    HW131532   4.733   6.635   4.247
10211SOL    HW231533   4.848   6.647   4.362
10212SOL     OW31534   0.142   0.293   5.644
10212SOL    HW131535   0.090   0.268   5.563
10212SOL    HW231536   0.221   0.234   5.653
10213SOL     OW31537   5.701   2.520   1.680
10213SOL    HW131538   5.692   2.437   1.625
10213SOL    HW231539   5.638   2.590   1.647
10214SOL     OW31540   0.663   1.994   1.390
10214SOL    HW131541   0.744   1.950   1.428
10214SOL    HW231542   0.657   1.975   1.292
10215SOL     OW31543   4.072   3.144   4.159
10215SOL    HW131544   4.033   3.106   4.243
10215SOL    HW231545   4.113   3.233   4.179
10216SOL     OW31546   7.016   0.766   1.688
10216SOL    HW131547   6.937   0.791   1.632
10216SOL    HW231548   0.049   0.847   1.705
10217SOL     OW31549   3.044   1.164   3.308
10217SOL    HW131550   2.977   1.193   3.239
10217SOL    HW231551   3.045   1.064   3.313
10218SOL     OW31552   1.291   1.420   1.675
10218SOL    HW131553   1.288   1.382   1.582
10218SOL    HW231554   1.240   1.506   1.677
10219SOL     OW31555   0.477   1.950   3.341
10219SOL    HW131556   0.430   1.978   3.424
10219SOL    HW231557   0.435   1.993   3.261
10220SOL     OW31558   4.944   1.975   0.855
10220SOL    HW131559   4.901   2.000   0.768
10220SOL    HW231560   4.900   1.893   0.892
10221SOL     OW31561   1.741   4.495   4.150
10221SOL    HW131562   1.803   4.544   4.088
10221SOL    HW231563   1.774   4.503   4.244
10222SOL     OW31564   3.173   4.420   5.315
10222SOL    HW131565   3.092   4.463   5.274
10222SOL    HW231566   3.144   4.342   5.371
10223SOL     OW31567   2.207   4.709   1.394
10223SOL    HW131568   2.192   4.677   1.488
10223SOL    HW231569   2.286   4.771   1.393
10224SOL     OW31570   5.785   2.808   5.848
10224SOL    HW131571   5.796   2.904   5.871
10224SOL    HW231572   5.867   2.775   5.802
10225SOL     OW31573   1.197   5.903   5.257
10225SOL    HW131574   1.122   5.904   5.323
10225SOL    HW231575   1.172   5.845   5.179
10226SOL     OW31576   2.240   0.201   6.051
10226SOL    HW131577   2.299   0.139   6.102
10226SOL    HW231578   2.228   0.285   6.103
10227SOL     OW31579   5.839   4.780   1.091
10227SOL    HW131580   5.745   4.747   1.105
10227SOL    HW231581   5.894   4.707   1.050
10228SOL     OW31582   0.735   6.147   1.926
10228SOL    HW131583   0.698   6.221   1.871
10228SOL    HW231584   0.764   6.183   2.015
10229SOL     OW31585   1.784   3.282   4.988
10229SOL    HW131586   1.736   3.230   5.059
10229SOL    HW231587   1.718   3.338   4.938
10230SOL     OW31588   6.304   6.251   3.205
10230SOL    HW131589   6.398   6.223   3.187
10230SOL    HW231590   6.256   6.266   3.118
10231SOL     OW31591   6.676   4.610   5.191
10231SOL    HW131592   6.667   4.696   5.140
10231SOL    HW231593   6.590   4.591   5.239
10232SOL     OW31594   3.620   1.129   3.917
10232SOL    HW131595   3.672   1.197   3.969
10232SOL    HW231596   3.536   1.171   3.882
10233SOL     OW31597   3.761   3.969   5.011
10233SOL    HW131598   3.785   3.939   4.918
10233SOL    HW231599   3.665   3.950   5.028
10234SOL     OW31600   5.951   0.704   0.590
10234SOL    HW131601   5.987   0.776   0.530
10234SOL    HW231602   5.870   0.738   0.638
10235SOL     OW31603   3.343   2.241   1.078
10235SOL    HW131604   3.316   2.337   1.072
10235SOL    HW231605   3.333   2.209   1.172
10236SOL     OW31606   2.360   1.070   0.669
10236SOL    HW131607   2.287   1.022   0.619
10236SOL    HW231608   2.358   1.167   0.645
10237SOL     OW31609   0.970   4.260   6.296
10237SOL    HW131610   0.875   4.260   6.327
10237SOL    HW231611   1.016   4.341   6.331
10238SOL     OW31612   3.900   4.198   1.741
10238SOL    HW131613   3.843   4.132   1.790
10238SOL    HW231614   3.987   4.156   1.716
10239SOL     OW31615   1.942   3.611   6.082
10239SOL    HW131616   1.983   3.608   5.991
10239SOL    HW231617   1.874   3.684   6.085
10240SOL     OW31618   1.773   4.749   2.532
10240SOL    HW131619   1.803   4.845   2.530
10240SOL    HW231620   1.789   4.707   2.443
10241SOL     OW31621   0.222   6.221   3.393
10241SOL    HW131622   0.186   6.245   3.483
10241SOL    HW231623   0.279   6.139   3.400
10242SOL     OW31624   0.328   1.021   1.091
10242SOL    HW131625   0.399   1.016   1.021
10242SOL    HW231626   0.256   0.954   1.070
10243SOL     OW31627   2.337   4.311   2.521
10243SOL    HW131628   2.239   4.320   2.537
10243SOL    HW231629   2.356   4.222   2.481
10244SOL     OW31630   1.538   4.340   0.807
10244SOL    HW131631   1.569   4.406   0.738
10244SOL    HW231632   1.480   4.271   0.764
10245SOL     OW31633   3.514   3.865   1.809
10245SOL    HW131634   3.428   3.851   1.859
10245SOL    HW231635   3.575   3.787   1.826
10246SOL     OW31636   3.271   3.370   4.170
10246SOL    HW131637   3.317   3.296   4.220
10246SOL    HW231638   3.234   3.334   4.084
10247SOL     OW31639   6.800   4.396   6.009
10247SOL    HW131640   6.881   4.352   5.970
10247SOL    HW231641   6.725   4.394   5.943
10248SOL     OW31642   1.554   6.451   2.614
10248SOL    HW131643   1.630   6.515   2.601
10248SOL    HW231644   1.586   6.357   2.597
10249SOL     OW31645   3.499   5.969   6.570
10249SOL    HW131646   3.547   5.983   6.483
10249SOL    HW231647   3.487   6.057   6.616
10250SOL     OW31648   6.705   2.727   1.502
10250SOL    HW131649   6.609   2.741   1.476
10250SOL    HW231650   6.712   2.720   1.601
10251SOL     OW31651   2.042   1.663   5.147
10251SOL    HW131652   1.997   1.597   5.086
10251SOL    HW231653   2.063   1.619   5.234
10252SOL     OW31654   3.782   4.455   6.261
10252SOL    HW131655   3.729   4.370   6.252
10252SOL    HW231656   3.753   4.520   6.191
10253SOL     OW31657   2.945   6.325   0.552
10253SOL    HW131658   2.875   6.351   0.485
10253SOL    HW231659   2.918   6.241   0.598
10254SOL     OW31660   5.320   1.553   5.824
10254SOL    HW131661   5.327   1.581   5.920
10254SOL    HW231662   5.393   1.597   5.772
10255SOL     OW31663   2.579   6.155   1.651
10255SOL    HW131664   2.502   6.155   1.586
10255SOL    HW231665   2.543   6.164   1.744
10256SOL     OW31666   4.796   2.119   2.000
10256SOL    HW131667   4.786   2.031   2.047
10256SOL    HW231668   4.856   2.108   1.921
10257SOL     OW31669   1.598   4.693   4.578
10257SOL    HW131670   1.581   4.686   4.676
10257SOL    HW231671   1.574   4.785   4.547
10258SOL     OW31672   3.478   1.530   3.565
10258SOL    HW131673   3.515   1.438   3.550
10258SOL    HW231674   3.440   1.565   3.480
10259SOL     OW31675   1.098   4.708   3.055
10259SOL    HW131676   1.158   4.776   3.013
10259SOL    HW231677   1.072   4.737   3.147
10260SOL     OW31678   1.114   1.578   3.425
10260SOL    HW131679   1.110   1.589   3.524
10260SOL    HW231680   1.203   1.609   3.391
10261SOL     OW31681   6.792   4.154   2.010
10261SOL    HW131682   6.780   4.056   1.995
10261SOL    HW231683   6.761   4.178   2.103
10262SOL     OW31684   2.443   6.679   5.617
10262SOL    HW131685   2.395   6.595   5.591
10262SOL    HW231686   2.394   6.758   5.579
10263SOL     OW31687   5.354   0.194   0.154
10263SOL    HW131688   5.275   0.169   0.210
10263SOL    HW231689   5.348   0.149   0.065
10264SOL     OW31690   6.100   0.066   6.537
10264SOL    HW131691   6.009   0.046   6.500
10264SOL    HW231692   6.092   0.087   6.635
10265SOL     OW31693   2.692   2.538   1.277
10265SOL    HW131694   2.661   2.630   1.251
10265SOL    HW231695   2.747   2.500   1.204
10266SOL     OW31696   3.813   3.228   3.452
10266SOL    HW131697   3.734   3.167   3.455
10266SOL    HW231698   3.844   3.248   3.545
10267SOL     OW31699   5.835   2.559   0.044
10267SOL    HW131700   5.821   2.523   6.974
10267SOL    HW231701   5.907   2.507   0.090
10268SOL     OW31702   5.786   5.772   2.817
10268SOL    HW131703   5.837   5.780   2.903
10268SOL    HW231704   5.782   5.676   2.789
10269SOL     OW31705   1.166   3.652   6.809
10269SOL    HW131706   1.104   3.716   6.764
10269SOL    HW231707   1.141   3.558   6.785
10270SOL     OW31708   3.234   4.911   2.691
10270SOL    HW131709   3.297   4.962   2.632
10270SOL    HW231710   3.201   4.830   2.642
10271SOL     OW31711   3.645   2.753   6.554
10271SOL    HW131712   3.561   2.766   6.500
10271SOL    HW231713   3.706   2.691   6.505
10272SOL     OW31714   1.495   1.529   5.397
10272SOL    HW131715   1.505   1.483   5.309
10272SOL    HW231716   1.417   1.592   5.395
10273SOL     OW31717   2.726   5.292   2.750
10273SOL    HW131718   2.710   5.224   2.678
10273SOL    HW231719   2.813   5.338   2.732
10274SOL     OW31720   0.792   4.982   5.547
10274SOL    HW131721   0.834   4.904   5.502
10274SOL    HW231722   0.759   5.047   5.479
10275SOL     OW31723   0.755   6.417   2.648
10275SOL    HW131724   0.710   6.457   2.728
10275SOL    HW231725   0.713   6.453   2.565
10276SOL     OW31726   5.634   5.242   5.452
10276SOL    HW131727   5.649   5.158   5.504
10276SOL    HW231728   5.711   5.304   5.467
10277SOL     OW31729   1.371   6.001   4.430
10277SOL    HW131730   1.413   6.015   4.341
10277SOL    HW231731   1.278   5.965   4.418
10278SOL     OW31732   1.103   1.723   3.711
10278SOL    HW131733   1.046   1.801   3.686
10278SOL    HW231734   1.194   1.755   3.738
10279SOL     OW31735   1.768   4.845   4.188
10279SOL    HW131736   1.675   4.841   4.151
10279SOL    HW231737   1.827   4.783   4.137
10280SOL     OW31738   0.001   3.154   0.125
10280SOL    HW131739   0.050   3.071   0.097
10280SOL    HW231740   0.017   3.171   0.222
10281SOL     OW31741   5.647   1.297   2.945
10281SOL    HW131742   5.678   1.374   2.890
10281SOL    HW231743   5.721   1.266   3.004
10282SOL     OW31744   5.636   4.026   4.532
10282SOL    HW131745   5.685   4.045   4.446
10282SOL    HW231746   5.605   3.931   4.532
10283SOL     OW31747   2.180   3.025   0.957
10283SOL    HW131748   2.145   2.934   0.936
10283SOL    HW231749   2.249   3.018   1.029
10284SOL     OW31750   5.197   2.240   5.137
10284SOL    HW131751   5.261   2.213   5.209
10284SOL    HW231752   5.127   2.300   5.175
10285SOL     OW31753   5.611   6.782   2.573
10285SOL    HW131754   5.546   6.711   2.600
10285SOL    HW231755   5.636   6.836   2.654
10286SOL     OW31756   3.487   1.975   3.464
10286SOL    HW131757   3.440   1.992   3.377
10286SOL    HW231758   3.550   1.899   3.453
10287SOL     OW31759   2.418   6.155   1.927
10287SOL    HW131760   2.462   6.189   2.010
10287SOL    HW231761   2.429   6.055   1.922
10288SOL     OW31762   4.624   5.435   2.799
10288SOL    HW131763   4.664   5.352   2.761
10288SOL    HW231764   4.534   5.414   2.837
10289SOL     OW31765   2.551   6.014   0.381
10289SOL    HW131766   2.539   6.065   0.296
10289SOL    HW231767   2.511   6.066   0.457
10290SOL     OW31768   2.885   3.677   2.717
10290SOL    HW131769   2.942   3.733   2.778
10290SOL    HW231770   2.901   3.704   2.622
10291SOL     OW31771   3.665   1.688   2.746
10291SOL    HW131772   3.678   1.766   2.807
10291SOL    HW231773   3.744   1.678   2.686
10292SOL     OW31774   1.762   1.595   5.473
10292SOL    HW131775   1.668   1.602   5.440
10292SOL    HW231776   1.794   1.500   5.464
10293SOL     OW31777   2.147   3.895   2.565
10293SOL    HW131778   2.152   3.914   2.663
10293SOL    HW231779   2.211   3.822   2.542
10294SOL     OW31780   5.337   3.003   3.173
10294SOL    HW131781   5.343   3.073   3.102
10294SOL    HW231782   5.242   2.987   3.196
10295SOL     OW31783   0.645   3.524   5.583
10295SOL    HW131784   0.558   3.493   5.621
10295SOL    HW231785   0.678   3.602   5.635
10296SOL     OW31786   4.832   1.617   0.087
10296SOL    HW131787   4.850   1.686   0.157
10296SOL    HW231788   4.871   1.647   7.023
10297SOL     OW31789   1.986   0.089   6.414
10297SOL    HW131790   2.064   0.028   6.402
10297SOL    HW231791   1.950   0.080   6.507
10298SOL     OW31792   2.460   4.474   1.435
10298SOL    HW131793   2.434   4.512   1.347
10298SOL    HW231794   2.507   4.387   1.422
10299SOL     OW31795   4.615   4.419   2.951
10299SOL    HW131796   4.547   4.413   3.024
10299SOL    HW231797   4.646   4.514   2.942
10300SOL     OW31798   1.074   4.273   2.328
10300SOL    HW131799   0.992   4.230   2.292
10300SOL    HW231800   1.155   4.236   2.281
10301SOL     OW31801   5.305   2.598   4.029
10301SOL    HW131802   5.298   2.688   3.987
10301SOL    HW231803   5.288   2.605   4.127
10302SOL     OW31804   1.926   6.653   4.527
10302SOL    HW131805   1.926   6.675   4.625
10302SOL    HW231806   1.842   6.604   4.504
10303SOL     OW31807   1.717   5.945   3.420
10303SOL    HW131808   1.661   5.976   3.342
10303SOL    HW231809   1.800   5.999   3.424
10304SOL     OW31810   5.508   0.334   1.279
10304SOL    HW131811   5.418   0.359   1.242
10304SOL    HW231812   5.538   0.406   1.342
10305SOL     OW31813   1.371   4.229   6.782
10305SOL    HW131814   1.430   4.173   6.723
10305SOL    HW231815   1.425   4.269   6.856
10306SOL     OW31816   5.192   6.465   6.729
10306SOL    HW131817   5.270   6.443   6.787
10306SOL    HW231818   5.170   6.563   6.737
10307SOL     OW31819   2.981   2.136   5.055
10307SOL    HW131820   2.936   2.160   5.141
10307SOL    HW231821   3.072   2.178   5.052
10308SOL     OW31822   1.882   3.624   2.981
10308SOL    HW131823   1.866   3.551   3.048
10308SOL    HW231824   1.865   3.589   2.889
10309SOL     OW31825   6.896   1.469   6.644
10309SOL    HW131826   6.901   1.388   6.703
10309SOL    HW231827   6.984   1.516   6.646
10310SOL     OW31828   3.046   3.541   1.244
10310SOL    HW131829   3.065   3.457   1.295
10310SOL    HW231830   3.052   3.619   1.307
10311SOL     OW31831   0.121   6.171   0.676
10311SOL    HW131832   0.063   6.095   0.704
10311SOL    HW231833   0.081   6.217   0.597
10312SOL     OW31834   3.514   5.480   2.851
10312SOL    HW131835   3.564   5.412   2.905
10312SOL    HW231836   3.579   5.536   2.799
10313SOL     OW31837   4.546   6.302   2.010
10313SOL    HW131838   4.561   6.389   2.057
10313SOL    HW231839   4.454   6.269   2.031
10314SOL     OW31840   6.161   0.595   1.543
10314SOL    HW131841   6.184   0.542   1.462
10314SOL    HW231842   6.142   0.532   1.619
10315SOL     OW31843   5.015   5.704   5.416
10315SOL    HW131844   5.027   5.728   5.512
10315SOL    HW231845   4.978   5.782   5.366
10316SOL     OW31846   5.531   1.828   4.530
10316SOL    HW131847   5.461   1.771   4.574
10316SOL    HW231848   5.602   1.769   4.492
10317SOL     OW31849   4.898   5.627   4.907
10317SOL    HW131850   4.818   5.634   4.966
10317SOL    HW231851   4.940   5.717   4.897
10318SOL     OW31852   5.539   6.891   6.405
10318SOL    HW131853   5.504   6.883   6.498
10318SOL    HW231854   5.598   6.812   6.385
10319SOL     OW31855   1.077   2.807   5.446
10319SOL    HW131856   1.142   2.747   5.493
10319SOL    HW231857   1.126   2.867   5.383
10320SOL     OW31858   0.162   1.091   2.728
10320SOL    HW131859   0.244   1.033   2.728
10320SOL    HW231860   0.084   1.038   2.695
10321SOL     OW31861   4.056   1.986   1.736
10321SOL    HW131862   4.003   2.067   1.710
10321SOL    HW231863   3.997   1.905   1.730
10322SOL     OW31864   6.496   5.673   5.398
10322SOL    HW131865   6.444   5.609   5.454
10322SOL    HW231866   6.465   5.668   5.303
10323SOL     OW31867   5.766   3.138   5.517
10323SOL    HW131868   5.728   3.205   5.452
10323SOL    HW231869   5.705   3.059   5.522
10324SOL     OW31870   3.350   3.278   2.280
10324SOL    HW131871   3.342   3.182   2.254
10324SOL    HW231872   3.276   3.330   2.238
10325SOL     OW31873   6.929   3.384   2.097
10325SOL    HW131874   6.897   3.465   2.047
10325SOL    HW231875   6.916   3.303   2.041
10326SOL     OW31876   3.224   5.056   0.226
10326SOL    HW131877   3.219   5.116   0.146
10326SOL    HW231878   3.147   4.992   0.224
10327SOL     OW31879   2.331   1.277   1.110
10327SOL    HW131880   2.280   1.317   1.186
10327SOL    HW231881   2.288   1.303   1.023
10328SOL     OW31882   5.984   2.288   0.715
10328SOL    HW131883   6.063   2.256   0.767
10328SOL    HW231884   5.900   2.271   0.768
10329SOL     OW31885   3.933   0.401   3.656
10329SOL    HW131886   3.876   0.474   3.693
10329SOL    HW231887   3.891   0.365   3.572
10330SOL     OW31888   4.883   0.508   2.049
10330SOL    HW131889   4.827   0.546   1.975
10330SOL    HW231890   4.932   0.427   2.015
10331SOL     OW31891   6.665   0.910   5.604
10331SOL    HW131892   6.755   0.878   5.575
10331SOL    HW231893   6.649   1.002   5.569
10332SOL     OW31894   0.098   6.938   0.654
10332SOL    HW131895   0.091   6.851   0.703
10332SOL    HW231896   0.010   6.959   0.611
10333SOL     OW31897   6.824   5.019   4.374
10333SOL    HW131898   6.798   4.924   4.387
10333SOL    HW231899   6.863   5.055   4.459
10334SOL     OW31900   4.108   6.692   3.617
10334SOL    HW131901   4.129   6.652   3.528
10334SOL    HW231902   4.037   6.762   3.607
10335SOL     OW31903   3.435   4.417   0.221
10335SOL    HW131904   3.423   4.474   0.140
10335SOL    HW231905   3.349   4.415   0.273
10336SOL     OW31906   6.904   6.432   2.227
10336SOL    HW131907   6.856   6.510   2.267
10336SOL    HW231908   7.001   6.438   2.249
10337SOL     OW31909   0.220   6.632   5.964
10337SOL    HW131910   0.295   6.643   5.899
10337SOL    HW231911   0.134   6.622   5.915
10338SOL     OW31912   2.405   6.821   2.913
10338SOL    HW131913   2.413   6.915   2.878
10338SOL    HW231914   2.310   6.803   2.939
10339SOL     OW31915   3.580   4.823   0.268
10339SOL    HW131916   3.568   4.882   0.188
10339SOL    HW231917   3.627   4.739   0.240
10340SOL     OW31918   1.878   4.258   0.746
10340SOL    HW131919   1.812   4.249   0.820
10340SOL    HW231920   1.942   4.332   0.767
10341SOL     OW31921   2.016   3.468   1.808
10341SOL    HW131922   1.959   3.547   1.786
10341SOL    HW231923   2.099   3.499   1.854
10342SOL     OW31924   0.993   0.202   5.352
10342SOL    HW131925   1.067   0.205   5.419
10342SOL    HW231926   0.961   0.108   5.343
10343SOL     OW31927   3.449   6.134   6.329
10343SOL    HW131928   3.352   6.139   6.353
10343SOL    HW231929   3.461   6.150   6.231
10344SOL     OW31930   4.584   4.003   1.711
10344SOL    HW131931   4.674   4.003   1.754
10344SOL    HW231932   4.523   4.065   1.760
10345SOL     OW31933   1.963   0.965   6.795
10345SOL    HW131934   1.864   0.976   6.783
10345SOL    HW231935   2.005   1.055   6.806
10346SOL     OW31936   6.376   6.596   1.664
10346SOL    HW131937   6.339   6.601   1.572
10346SOL    HW231938   6.318   6.649   1.726
10347SOL     OW31939   4.915   2.241   2.886
10347SOL    HW131940   4.837   2.197   2.932
10347SOL    HW231941   4.980   2.273   2.953
10348SOL     OW31942   6.771   1.584   0.082
10348SOL    HW131943   6.870   1.598   0.084
10348SOL    HW231944   6.728   1.656   0.029
10349SOL     OW31945   6.903   0.562   1.119
10349SOL    HW131946   6.904   0.643   1.177
10349SOL    HW231947   6.841   0.576   1.043
10350SOL     OW31948   1.818   6.846   5.417
10350SOL    HW131949   1.770   6.766   5.453
10350SOL    HW231950   1.882   6.817   5.345
10351SOL     OW31951   4.468   5.225   6.294
10351SOL    HW131952   4.442   5.312   6.334
10351SOL    HW231953   4.408   5.153   6.328
10352SOL     OW31954   4.089   1.931   5.750
10352SOL    HW131955   4.046   1.881   5.825
10352SOL    HW231956   4.026   2.000   5.715
10353SOL     OW31957   6.710   2.347   5.600
10353SOL    HW131958   6.751   2.438   5.598
10353SOL    HW231959   6.764   2.287   5.660
10354SOL     OW31960   6.171   2.506   1.873
10354SOL    HW131961   6.208   2.416   1.852
10354SOL    HW231962   6.071   2.503   1.866
10355SOL     OW31963   1.569   0.041   2.088
10355SOL    HW131964   1.551   0.098   2.168
10355SOL    HW231965   1.515   0.073   2.011
10356SOL     OW31966   0.454   4.238   6.212
10356SOL    HW131967   0.534   4.269   6.160
10356SOL    HW231968   0.383   4.207   6.149
10357SOL     OW31969   2.577   3.353   6.019
10357SOL    HW131970   2.649   3.284   6.015
10357SOL    HW231971   2.593   3.414   6.096
10358SOL     OW31972   6.577   2.738   2.585
10358SOL    HW131973   6.668   2.761   2.619
10358SOL    HW231974   6.575   2.641   2.560
10359SOL     OW31975   0.099   1.808   1.442
10359SOL    HW131976   0.088   1.747   1.519
10359SOL    HW231977   0.039   1.887   1.453
10360SOL     OW31978   4.836   5.454   2.505
10360SOL    HW131979   4.801   5.372   2.552
10360SOL    HW231980   4.795   5.460   2.414
10361SOL     OW31981   3.129   0.389   3.003
10361SOL    HW131982   3.206   0.452   2.993
10361SOL    HW231983   3.061   0.408   2.932
10362SOL     OW31984   0.883   5.247   4.721
10362SOL    HW131985   0.795   5.265   4.766
10362SOL    HW231986   0.868   5.237   4.622
10363SOL     OW31987   4.654   1.578   0.874
10363SOL    HW131988   4.678   1.482   0.860
10363SOL    HW231989   4.700   1.612   0.956
10364SOL     OW31990   3.287   3.737   1.930
10364SOL    HW131991   3.245   3.652   1.897
10364SOL    HW231992   3.312   3.726   2.027
10365SOL     OW31993   4.859   4.603   5.773
10365SOL    HW131994   4.857   4.652   5.686
10365SOL    HW231995   4.894   4.510   5.758
10366SOL     OW31996   4.326   0.466   4.376
10366SOL    HW131997   4.289   0.529   4.444
10366SOL    HW231998   4.400   0.512   4.326
10367SOL     OW31999   6.712   1.806   2.447
10367SOL    HW132000   6.742   1.812   2.352
10367SOL    HW232001   6.626   1.856   2.458
10368SOL     OW32002   1.847   1.093   1.845
10368SOL    HW132003   1.848   1.183   1.889
10368SOL    HW232004   1.907   1.096   1.764
10369SOL     OW32005   3.979   1.342   4.942
10369SOL    HW132006   3.960   1.294   4.856
10369SOL    HW232007   4.059   1.401   4.930
10370SOL     OW32008   5.359   2.020   5.150
10370SOL    HW132009   5.312   2.047   5.066
10370SOL    HW232010   5.456   2.006   5.131
10371SOL     OW32011   2.306   5.873   4.313
10371SOL    HW132012   2.252   5.841   4.391
10371SOL    HW232013   2.256   5.857   4.228
10372SOL     OW32014   1.228   1.358   0.176
10372SOL    HW132015   1.230   1.287   0.106
10372SOL    HW232016   1.288   1.333   0.251
10373SOL     OW32017   2.294   6.149   4.409
10373SOL    HW132018   2.320   6.057   4.379
10373SOL    HW232019   2.194   6.154   4.417
10374SOL     OW32020   4.193   0.933   2.531
10374SOL    HW132021   4.128   0.995   2.487
10374SOL    HW232022   4.186   0.942   2.630
10375SOL     OW32023   2.792   1.354   6.203
10375SOL    HW132024   2.719   1.312   6.257
10375SOL    HW232025   2.770   1.347   6.106
10376SOL     OW32026   1.450   6.423   4.273
10376SOL    HW132027   1.386   6.423   4.350
10376SOL    HW232028   1.490   6.514   4.263
10377SOL     OW32029   6.883   0.643   4.105
10377SOL    HW132030   6.812   0.703   4.068
10377SOL    HW232031   6.850   0.549   4.107
10378SOL     OW32032   6.161   6.984   6.127
10378SOL    HW132033   6.186   6.932   6.208
10378SOL    HW232034   6.123   0.050   6.154
10379SOL     OW32035   3.168   6.407   4.742
10379SOL    HW132036   3.179   6.468   4.664
10379SOL    HW232037   3.084   6.352   4.730
10380SOL     OW32038   0.790   1.425   4.053
10380SOL    HW132039   0.838   1.487   4.115
10380SOL    HW232040   0.856   1.379   3.994
10381SOL     OW32041   4.025   5.386   0.194
10381SOL    HW132042   4.093   5.445   0.238
10381SOL    HW232043   4.072   5.318   0.138
10382SOL     OW32044   2.165   4.441   0.134
10382SOL    HW132045   2.169   4.381   0.055
10382SOL    HW232046   2.258   4.462   0.165
10383SOL     OW32047   0.159   3.885   0.350
10383SOL    HW132048   0.246   3.925   0.323
10383SOL    HW232049   0.175   3.810   0.414
10384SOL     OW32050   0.768   6.999   1.146
10384SOL    HW132051   0.804   0.012   1.060
10384SOL    HW232052   0.812   0.023   1.223
10385SOL     OW32053   3.188   6.568   5.705
10385SOL    HW132054   3.124   6.627   5.656
10385SOL    HW232055   3.252   6.625   5.757
10386SOL     OW32056   6.061   2.896   6.008
10386SOL    HW132057   6.149   2.906   5.962
10386SOL    HW232058   6.051   2.968   6.077
10387SOL     OW32059   4.299   2.361   2.892
10387SOL    HW132060   4.314   2.300   2.814
10387SOL    HW232061   4.320   2.455   2.865
10388SOL     OW32062   2.075   5.694   2.646
10388SOL    HW132063   2.062   5.603   2.686
10388SOL    HW232064   2.034   5.763   2.705
10389SOL     OW32065   0.365   6.443   1.832
10389SOL    HW132066   0.270   6.476   1.831
10389SOL    HW232067   0.427   6.520   1.814
10390SOL     OW32068   1.881   3.086   1.506
10390SOL    HW132069   1.828   3.002   1.517
10390SOL    HW232070   1.974   3.071   1.539
10391SOL     OW32071   1.295   5.496   4.623
10391SOL    HW132072   1.226   5.472   4.691
10391SOL    HW232073   1.376   5.531   4.669
10392SOL     OW32074   6.300   3.927   0.140
10392SOL    HW132075   6.373   3.941   0.074
10392SOL    HW232076   6.307   3.996   0.212
10393SOL     OW32077   2.142   2.113   2.537
10393SOL    HW132078   2.149   2.161   2.450
10393SOL    HW232079   2.127   2.179   2.611
10394SOL     OW32080   2.183   6.466   4.802
10394SOL    HW132081   2.107   6.519   4.841
10394SOL    HW232082   2.266   6.485   4.854
10395SOL     OW32083   6.340   0.475   3.157
10395SOL    HW132084   6.421   0.512   3.110
10395SOL    HW232085   6.257   0.513   3.115
10396SOL     OW32086   2.545   0.836   4.034
10396SOL    HW132087   2.533   0.738   4.017
10396SOL    HW232088   2.504   0.888   3.959
10397SOL     OW32089   3.046   2.168   3.799
10397SOL    HW132090   3.124   2.155   3.737
10397SOL    HW232091   3.078   2.210   3.884
10398SOL     OW32092   5.580   2.828   0.588
10398SOL    HW132093   5.519   2.772   0.533
10398SOL    HW232094   5.526   2.890   0.646
10399SOL     OW32095   4.362   1.984   4.562
10399SOL    HW132096   4.426   1.965   4.487
10399SOL    HW232097   4.275   1.938   4.543
10400SOL     OW32098   3.728   5.663   1.654
10400SOL    HW132099   3.698   5.716   1.733
10400SOL    HW232100   3.717   5.565   1.672
10401SOL     OW32101   6.554   0.550   3.000
10401SOL    HW132102   6.581   0.643   3.023
10401SOL    HW232103   6.507   0.549   2.912
10402SOL     OW32104   0.060   2.507   5.398
10402SOL    HW132105   0.009   2.426   5.427
10402SOL    HW232106   0.147   2.511   5.448
10403SOL     OW32107   5.064   1.376   2.694
10403SOL    HW132108   5.164   1.369   2.699
10403SOL    HW232109   5.034   1.456   2.745
10404SOL     OW32110   0.545   6.414   3.553
10404SOL    HW132111   0.604   6.483   3.595
10404SOL    HW232112   0.589   6.378   3.470
10405SOL     OW32113   1.433   5.316   4.825
10405SOL    HW132114   1.478   5.403   4.804
10405SOL    HW232115   1.471   5.279   4.909
10406SOL     OW32116   1.986   3.822   5.238
10406SOL    HW132117   2.064   3.828   5.300
10406SOL    HW232118   1.976   3.908   5.189
10407SOL     OW32119   1.597   0.337   6.640
10407SOL    HW132120   1.562   0.270   6.704
10407SOL    HW232121   1.577   0.308   6.547
10408SOL     OW32122   4.080   6.070   1.981
10408SOL    HW132123   4.069   5.974   2.007
10408SOL    HW232124   4.013   6.093   1.911
10409SOL     OW32125   0.073   4.092   0.964
10409SOL    HW132126   0.126   4.163   1.012
10409SOL    HW232127   0.126   4.058   0.886
10410SOL     OW32128   5.137   1.395   1.134
10410SOL    HW132129   5.183   1.315   1.173
10410SOL    HW232130   5.197   1.475   1.143
10411SOL     OW32131   3.953   5.729   4.176
10411SOL    HW132132   3.989   5.649   4.127
10411SOL    HW232133   3.870   5.762   4.130
10412SOL     OW32134   0.344   1.083   0.597
10412SOL    HW132135   0.440   1.058   0.607
10412SOL    HW232136   0.287   1.005   0.623
10413SOL     OW32137   0.171   2.034   0.860
10413SOL    HW132138   0.194   2.127   0.888
10413SOL    HW232139   0.072   2.022   0.863
10414SOL     OW32140   4.754   6.354   5.620
10414SOL    HW132141   4.819   6.337   5.694
10414SOL    HW232142   4.754   6.277   5.557
10415SOL     OW32143   2.456   4.631   3.767
10415SOL    HW132144   2.468   4.658   3.671
10415SOL    HW232145   2.377   4.678   3.805
10416SOL     OW32146   6.421   1.267   5.606
10416SOL    HW132147   6.405   1.284   5.703
10416SOL    HW232148   6.339   1.228   5.564
10417SOL     OW32149   4.790   4.247   3.816
10417SOL    HW132150   4.867   4.184   3.806
10417SOL    HW232151   4.762   4.251   3.912
10418SOL     OW32152   6.429   4.172   5.102
10418SOL    HW132153   6.443   4.076   5.124
10418SOL    HW232154   6.416   4.224   5.187
10419SOL     OW32155   2.931   0.363   5.381
10419SOL    HW132156   2.912   0.346   5.478
10419SOL    HW232157   3.019   0.322   5.357
10420SOL     OW32158   6.718   3.520   3.931
10420SOL    HW132159   6.687   3.425   3.943
10420SOL    HW232160   6.737   3.537   3.835
10421SOL     OW32161   1.213   3.105   4.155
10421SOL    HW132162   1.286   3.170   4.132
10421SOL    HW232163   1.197   3.044   4.077
10422SOL     OW32164   6.941   3.559   5.743
10422SOL    HW132165   6.860   3.615   5.764
10422SOL    HW232166   6.987   3.534   5.828
10423SOL     OW32167   4.078   5.156   4.864
10423SOL    HW132168   4.134   5.097   4.922
10423SOL    HW232169   4.089   5.251   4.892
10424SOL     OW32170   4.568   2.282   6.813
10424SOL    HW132171   4.566   2.240   6.903
10424SOL    HW232172   4.491   2.345   6.803
10425SOL     OW32173   0.444   6.385   2.202
10425SOL    HW132174   0.411   6.313   2.140
10425SOL    HW232175   0.418   6.474   2.166
10426SOL     OW32176   5.207   3.763   5.765
10426SOL    HW132177   5.206   3.771   5.864
10426SOL    HW232178   5.145   3.690   5.737
10427SOL     OW32179   5.195   6.172   6.105
10427SOL    HW132180   5.228   6.267   6.101
10427SOL    HW232181   5.123   6.165   6.174
10428SOL     OW32182   1.916   1.755   4.135
10428SOL    HW132183   1.999   1.800   4.101
10428SOL    HW232184   1.922   1.745   4.234
10429SOL     OW32185   1.090   3.675   2.943
10429SOL    HW132186   1.003   3.629   2.925
10429SOL    HW232187   1.079   3.738   3.020
10430SOL     OW32188   4.161   6.114   4.498
10430SOL    HW132189   4.125   6.185   4.559
10430SOL    HW232190   4.086   6.065   4.455
10431SOL     OW32191   2.896   0.743   4.094
10431SOL    HW132192   2.881   0.709   4.001
10431SOL    HW232193   2.978   0.801   4.095
10432SOL     OW32194   0.391   1.628   5.212
10432SOL    HW132195   0.434   1.677   5.288
10432SOL    HW232196   0.301   1.595   5.241
10433SOL     OW32197   0.100   6.511   1.839
10433SOL    HW132198   0.074   6.500   1.743
10433SOL    HW232199   0.026   6.479   1.898
10434SOL     OW32200   4.739   5.882   4.709
10434SOL    HW132201   4.659   5.898   4.651
10434SOL    HW232202   4.806   5.828   4.659
10435SOL     OW32203   1.640   2.052   5.903
10435SOL    HW132204   1.630   1.983   5.975
10435SOL    HW232205   1.601   2.138   5.934
10436SOL     OW32206   6.339   4.066   3.728
10436SOL    HW132207   6.426   4.078   3.776
10436SOL    HW232208   6.283   3.999   3.777
10437SOL     OW32209   5.583   4.907   5.256
10437SOL    HW132210   5.531   4.956   5.326
10437SOL    HW232211   5.583   4.809   5.277
10438SOL     OW32212   6.905   6.040   6.017
10438SOL    HW132213   6.822   5.996   5.983
10438SOL    HW232214   6.888   6.137   6.034
10439SOL     OW32215   5.489   0.980   5.237
10439SOL    HW132216   5.553   1.020   5.171
10439SOL    HW232217   5.401   1.027   5.232
10440SOL     OW32218   6.723   6.551   6.774
10440SOL    HW132219   6.646   6.600   6.814
10440SOL    HW232220   6.789   6.529   6.846
10441SOL     OW32221   3.230   1.602   1.094
10441SOL    HW132222   3.317   1.641   1.124
10441SOL    HW232223   3.245   1.549   1.010
10442SOL     OW32224   4.372   0.412   4.755
10442SOL    HW132225   4.447   0.463   4.798
10442SOL    HW232226   4.410   0.349   4.688
10443SOL     OW32227   6.357   2.527   2.930
10443SOL    HW132228   6.410   2.497   3.010
10443SOL    HW232229   6.292   2.598   2.957
10444SOL     OW32230   3.002   5.197   3.192
10444SOL    HW132231   3.037   5.115   3.237
10444SOL    HW232232   2.911   5.178   3.155
10445SOL     OW32233   0.667   3.693   2.754
10445SOL    HW132234   0.648   3.641   2.671
10445SOL    HW232235   0.765   3.689   2.774
10446SOL     OW32236   1.738   4.116   6.125
10446SOL    HW132237   1.780   4.037   6.082
10446SOL    HW232238   1.808   4.171   6.171
10447SOL     OW32239   6.547   0.346   1.962
10447SOL    HW132240   6.534   0.263   2.016
10447SOL    HW232241   6.641   0.379   1.973
10448SOL     OW32242   3.346   0.202   3.027
10448SOL    HW132243   3.393   0.236   3.108
10448SOL    HW232244   3.260   0.252   3.015
10449SOL     OW32245   3.200   5.793   6.675
10449SOL    HW132246   3.293   5.830   6.671
10449SOL    HW232247   3.187   5.728   6.600
10450SOL     OW32248   6.706   0.795   6.506
10450SOL    HW132249   6.749   0.845   6.582
10450SOL    HW232250   6.776   0.750   6.452
10451SOL     OW32251   3.522   0.225   2.813
10451SOL    HW132252   3.461   0.176   2.876
10451SOL    HW232253   3.578   0.290   2.864
10452SOL     OW32254   6.964   2.905   2.468
10452SOL    HW132255   6.892   2.932   2.533
10452SOL    HW232256   6.984   2.808   2.478
10453SOL     OW32257   4.303   6.109   2.331
10453SOL    HW132258   4.311   6.020   2.375
10453SOL    HW232259   4.335   6.103   2.236
10454SOL     OW32260   6.073   0.905   0.436
10454SOL    HW132261   6.011   0.967   0.483
10454SOL    HW232262   6.120   0.954   0.362
10455SOL     OW32263   0.296   5.933   4.378
10455SOL    HW132264   0.286   5.838   4.350
10455SOL    HW232265   0.335   5.986   4.302
10456SOL     OW32266   0.230   5.740   0.679
10456SOL    HW132267   0.270   5.714   0.766
10456SOL    HW232268   0.271   5.827   0.648
10457SOL     OW32269   3.966   3.281   0.053
10457SOL    HW132270   3.919   3.342   7.011
10457SOL    HW232271   4.054   3.254   0.014
10458SOL     OW32272   6.955   6.803   6.675
10458SOL    HW132273   6.863   6.808   6.716
10458SOL    HW232274   6.979   6.893   6.637
10459SOL     OW32275   5.768   5.042   0.982
10459SOL    HW132276   5.789   4.954   1.025
10459SOL    HW232277   5.713   5.097   1.045
10460SOL     OW32278   0.129   3.632   2.112
10460SOL    HW132279   0.182   3.712   2.084
10460SOL    HW232280   0.048   3.661   2.162
10461SOL     OW32281   6.245   4.740   5.294
10461SOL    HW132282   6.253   4.652   5.247
10461SOL    HW232283   6.250   4.814   5.226
10462SOL     OW32284   5.611   2.368   2.601
10462SOL    HW132285   5.523   2.395   2.563
10462SOL    HW232286   5.629   2.419   2.685
10463SOL     OW32287   4.621   1.658   5.702
10463SOL    HW132288   4.659   1.749   5.687
10463SOL    HW232289   4.612   1.641   5.800
10464SOL     OW32290   5.416   6.106   2.179
10464SOL    HW132291   5.373   6.034   2.125
10464SOL    HW232292   5.515   6.094   2.177
10465SOL     OW32293   4.703   5.510   2.268
10465SOL    HW132294   4.609   5.514   2.237
10465SOL    HW232295   4.749   5.598   2.250
10466SOL     OW32296   4.692   4.360   6.598
10466SOL    HW132297   4.681   4.437   6.661
10466SOL    HW232298   4.779   4.369   6.550
10467SOL     OW32299   1.521   2.681   0.638
10467SOL    HW132300   1.607   2.702   0.592
10467SOL    HW232301   1.528   2.591   0.681
10468SOL     OW32302   4.388   5.010   3.675
10468SOL    HW132303   4.305   4.991   3.727
10468SOL    HW232304   4.363   5.056   3.590
10469SOL     OW32305   4.293   4.213   5.768
10469SOL    HW132306   4.235   4.228   5.687
10469SOL    HW232307   4.249   4.146   5.828
10470SOL     OW32308   2.519   1.537   3.443
10470SOL    HW132309   2.609   1.495   3.428
10470SOL    HW232310   2.449   1.465   3.441
10471SOL     OW32311   3.216   0.358   0.264
10471SOL    HW132312   3.308   0.322   0.249
10471SOL    HW232313   3.210   0.394   0.357
10472SOL     OW32314   2.712   5.459   0.889
10472SOL    HW132315   2.648   5.415   0.951
10472SOL    HW232316   2.705   5.558   0.898
10473SOL     OW32317   5.874   6.315   5.790
10473SOL    HW132318   5.904   6.355   5.703
10473SOL    HW232319   5.892   6.380   5.864
10474SOL     OW32320   4.611   1.825   3.577
10474SOL    HW132321   4.630   1.838   3.674
10474SOL    HW232322   4.512   1.816   3.563
10475SOL     OW32323   3.145   6.878   1.721
10475SOL    HW132324   3.101   6.846   1.805
10475SOL    HW232325   3.077   6.884   1.648
10476SOL     OW32326   4.756   6.446   6.151
10476SOL    HW132327   4.700   6.528   6.142
10476SOL    HW232328   4.759   6.416   6.246
10477SOL     OW32329   6.676   0.703   4.837
10477SOL    HW132330   6.710   0.740   4.751
10477SOL    HW232331   6.580   0.729   4.849
10478SOL     OW32332   6.565   6.238   6.949
10478SOL    HW132333   6.532   6.146   6.970
10478SOL    HW232334   6.657   6.249   6.987
10479SOL     OW32335   6.536   1.064   2.279
10479SOL    HW132336   6.537   0.968   2.307
10479SOL    HW232337   6.588   1.074   2.194
10480SOL     OW32338   1.260   0.874   1.861
10480SOL    HW132339   1.315   0.812   1.805
10480SOL    HW232340   1.276   0.968   1.832
10481SOL     OW32341   1.903   6.208   2.754
10481SOL    HW132342   1.887   6.303   2.781
10481SOL    HW232343   1.912   6.151   2.835
10482SOL     OW32344   6.247   5.240   4.754
10482SOL    HW132345   6.254   5.321   4.697
10482SOL    HW232346   6.318   5.174   4.729
10483SOL     OW32347   5.571   5.770   0.343
10483SOL    HW132348   5.596   5.777   0.247
10483SOL    HW232349   5.507   5.695   0.356
10484SOL     OW32350   4.466   1.901   1.742
10484SOL    HW132351   4.521   1.835   1.691
10484SOL    HW232352   4.478   1.886   1.840
10485SOL     OW32353   3.163   4.765   0.193
10485SOL    HW132354   3.237   4.759   0.260
10485SOL    HW232355   3.159   4.680   0.141
10486SOL     OW32356   0.100   0.492   0.305
10486SOL    HW132357   0.132   0.577   0.263
10486SOL    HW232358   0.150   0.415   0.267
10487SOL     OW32359   5.097   6.775   1.972
10487SOL    HW132360   5.049   6.706   1.918
10487SOL    HW232361   5.110   6.741   2.065
10488SOL     OW32362   2.955   1.549   5.806
10488SOL    HW132363   2.915   1.468   5.848
10488SOL    HW232364   2.915   1.561   5.715
10489SOL     OW32365   0.197   6.523   5.097
10489SOL    HW132366   0.161   6.541   5.005
10489SOL    HW232367   0.186   6.605   5.154
10490SOL     OW32368   6.165   1.345   1.462
10490SOL    HW132369   6.213   1.420   1.416
10490SOL    HW232370   6.231   1.276   1.491
10491SOL     OW32371   1.917   3.737   0.121
10491SOL    HW132372   1.877   3.751   0.212
10491SOL    HW232373   1.994   3.675   0.128
10492SOL     OW32374   6.345   4.076   5.566
10492SOL    HW132375   6.304   3.989   5.595
10492SOL    HW232376   6.333   4.086   5.467
10493SOL     OW32377   3.427   0.950   1.552
10493SOL    HW132378   3.389   1.042   1.539
10493SOL    HW232379   3.526   0.956   1.565
10494SOL     OW32380   4.795   3.514   5.817
10494SOL    HW132381   4.800   3.612   5.835
10494SOL    HW232382   4.703   3.491   5.786
10495SOL     OW32383   2.114   6.668   0.498
10495SOL    HW132384   2.188   6.615   0.455
10495SOL    HW232385   2.152   6.727   0.569
10496SOL     OW32386   0.212   4.865   6.554
10496SOL    HW132387   0.173   4.855   6.463
10496SOL    HW232388   0.144   4.904   6.616
10497SOL     OW32389   2.383   0.022   2.410
10497SOL    HW132390   2.432   0.108   2.421
10497SOL    HW232391   2.286   0.039   2.396
10498SOL     OW32392   2.940   6.165   1.449
10498SOL    HW132393   2.917   6.069   1.463
10498SOL    HW232394   2.864   6.223   1.479
10499SOL     OW32395   3.306   0.100   2.449
10499SOL    HW132396   3.242   0.047   2.505
10499SOL    HW232397   3.298   0.197   2.473
10500SOL     OW32398   6.762   0.361   6.674
10500SOL    HW132399   6.749   0.334   6.769
10500SOL    HW232400   6.859   0.365   6.652
10501SOL     OW32401   2.441   5.383   3.059
10501SOL    HW132402   2.501   5.452   3.019
10501SOL    HW232403   2.465   5.293   3.022
10502SOL     OW32404   2.950   0.228   1.102
10502SOL    HW132405   2.941   0.267   1.010
10502SOL    HW232406   3.023   0.274   1.151
10503SOL     OW32407   3.788   3.364   0.258
10503SOL    HW132408   3.803   3.316   0.345
10503SOL    HW232409   3.845   3.322   0.188
10504SOL     OW32410   1.966   1.473   6.853
10504SOL    HW132411   2.032   1.547   6.852
10504SOL    HW232412   1.886   1.499   6.798
10505SOL     OW32413   5.266   6.195   0.515
10505SOL    HW132414   5.235   6.110   0.559
10505SOL    HW232415   5.190   6.234   0.463
10506SOL     OW32416   6.787   5.167   6.561
10506SOL    HW132417   6.782   5.083   6.506
10506SOL    HW232418   6.712   5.167   6.628
10507SOL     OW32419   2.206   0.088   0.125
10507SOL    HW132420   2.216   0.002   0.176
10507SOL    HW232421   2.137   0.076   0.053
10508SOL     OW32422   6.158   6.311   4.454
10508SOL    HW132423   6.175   6.212   4.457
10508SOL    HW232424   6.185   6.352   4.541
10509SOL     OW32425   0.658   6.371   4.910
10509SOL    HW132426   0.630   6.281   4.945
10509SOL    HW232427   0.577   6.425   4.890
10510SOL     OW32428   4.881   5.933   6.031
10510SOL    HW132429   4.819   6.009   6.017
10510SOL    HW232430   4.916   5.901   5.943
10511SOL     OW32431   4.400   1.518   1.373
10511SOL    HW132432   4.306   1.485   1.380
10511SOL    HW232433   4.404   1.592   1.307
10512SOL     OW32434   4.122   0.258   5.755
10512SOL    HW132435   4.083   0.346   5.728
10512SOL    HW232436   4.049   0.197   5.786
10513SOL     OW32437   6.592   2.527   4.633
10513SOL    HW132438   6.646   2.572   4.705
10513SOL    HW232439   6.649   2.513   4.552
10514SOL     OW32440   0.173   3.586   0.241
10514SOL    HW132441   0.086   3.619   0.204
10514SOL    HW232442   0.249   3.640   0.204
10515SOL     OW32443   0.115   2.959   3.008
10515SOL    HW132444   0.022   2.968   3.044
10515SOL    HW232445   0.174   2.922   3.079
10516SOL     OW32446   3.706   0.709   7.004
10516SOL    HW132447   3.638   0.651   0.027
10516SOL    HW232448   3.678   0.805   7.012
10517SOL     OW32449   0.032   2.271   2.974
10517SOL    HW132450   0.076   2.228   2.895
10517SOL    HW232451   0.048   2.370   2.970
10518SOL     OW32452   1.062   4.893   6.173
10518SOL    HW132453   1.113   4.899   6.087
10518SOL    HW232454   1.009   4.977   6.187
10519SOL     OW32455   2.817   2.802   6.692
10519SOL    HW132456   2.774   2.881   6.737
10519SOL    HW232457   2.914   2.798   6.718
10520SOL     OW32458   1.426   2.654   6.793
10520SOL    HW132459   1.434   2.659   6.892
10520SOL    HW232460   1.502   2.703   6.751
10521SOL     OW32461   5.509   5.614   1.765
10521SOL    HW132462   5.521   5.563   1.850
10521SOL    HW232463   5.449   5.693   1.782
10522SOL     OW32464   6.121   0.233   6.221
10522SOL    HW132465   6.206   0.265   6.262
10522SOL    HW232466   6.045   0.255   6.282
10523SOL     OW32467   0.860   5.088   4.256
10523SOL    HW132468   0.787   5.050   4.314
10523SOL    HW232469   0.936   5.023   4.251
10524SOL     OW32470   1.731   0.657   4.731
10524SOL    HW132471   1.827   0.653   4.703
10524SOL    HW232472   1.713   0.588   4.801
10525SOL     OW32473   3.039   0.107   6.252
10525SOL    HW132474   3.099   0.031   6.277
10525SOL    HW232475   2.970   0.075   6.187
10526SOL     OW32476   0.537   6.894   3.057
10526SOL    HW132477   0.558   6.807   3.102
10526SOL    HW232478   0.611   6.917   2.993
10527SOL     OW32479   6.123   2.488   4.617
10527SOL    HW132480   6.120   2.401   4.666
10527SOL    HW232481   6.029   2.521   4.604
10528SOL     OW32482   1.435   3.238   5.979
10528SOL    HW132483   1.398   3.330   5.983
10528SOL    HW232484   1.483   3.225   5.893
10529SOL     OW32485   2.538   5.917   3.831
10529SOL    HW132486   2.601   5.972   3.886
10529SOL    HW232487   2.541   5.822   3.863
10530SOL     OW32488   2.553   0.549   6.579
10530SOL    HW132489   2.496   0.473   6.610
10530SOL    HW232490   2.494   0.622   6.545
10531SOL     OW32491   0.831   2.783   4.035
10531SOL    HW132492   0.841   2.872   3.991
10531SOL    HW232493   0.871   2.786   4.126
10532SOL     OW32494   1.739   4.559   6.557
10532SOL    HW132495   1.653   4.534   6.513
10532SOL    HW232496   1.767   4.485   6.619
10533SOL     OW32497   3.032   1.258   4.576
10533SOL    HW132498   3.067   1.165   4.587
10533SOL    HW232499   3.101   1.324   4.604
10534SOL     OW32500   5.506   5.700   1.499
10534SOL    HW132501   5.509   5.799   1.509
10534SOL    HW232502   5.501   5.657   1.590
10535SOL     OW32503   0.976   1.919   1.015
10535SOL    HW132504   1.044   1.990   1.034
10535SOL    HW232505   1.022   1.830   1.007
10536SOL     OW32506   4.219   1.109   3.190
10536SOL    HW132507   4.269   1.035   3.236
10536SOL    HW232508   4.121   1.090   3.193
10537SOL     OW32509   3.571   5.229   4.478
10537SOL    HW132510   3.621   5.144   4.492
10537SOL    HW232511   3.474   5.215   4.497
10538SOL     OW32512   5.109   2.605   0.571
10538SOL    HW132513   5.111   2.698   0.534
10538SOL    HW232514   5.202   2.577   0.597
10539SOL     OW32515   0.407   3.736   6.687
10539SOL    HW132516   0.486   3.690   6.646
10539SOL    HW232517   0.382   3.690   6.772
10540SOL     OW32518   1.322   2.655   5.251
10540SOL    HW132519   1.258   2.599   5.198
10540SOL    HW232520   1.386   2.700   5.190
10541SOL     OW32521   3.623   3.665   2.188
10541SOL    HW132522   3.628   3.583   2.245
10541SOL    HW232523   3.644   3.746   2.243
10542SOL     OW32524   6.478   1.388   6.198
10542SOL    HW132525   6.544   1.392   6.122
10542SOL    HW232526   6.523   1.351   6.279
10543SOL     OW32527   6.912   1.171   5.245
10543SOL    HW132528   7.004   1.210   5.239
10543SOL    HW232529   6.905   1.116   5.328
10544SOL     OW32530   1.746   6.877   2.246
10544SOL    HW132531   1.681   6.945   2.211
10544SOL    HW232532   1.697   6.791   2.263
10545SOL     OW32533   6.081   1.114   3.278
10545SOL    HW132534   6.110   1.204   3.245
10545SOL    HW232535   5.989   1.094   3.244
10546SOL     OW32536   1.079   0.838   6.474
10546SOL    HW132537   1.007   0.818   6.541
10546SOL    HW232538   1.045   0.819   6.382
10547SOL     OW32539   5.128   1.699   1.799
10547SOL    HW132540   5.202   1.753   1.840
10547SOL    HW232541   5.091   1.636   1.867
10548SOL     OW32542   5.244   4.660   4.735
10548SOL    HW132543   5.331   4.652   4.782
10548SOL    HW232544   5.211   4.569   4.708
10549SOL     OW32545   6.463   0.099   2.089
10549SOL    HW132546   6.411   0.124   2.171
10549SOL    HW232547   6.446   0.002   2.069
10550SOL     OW32548   4.506   6.014   5.058
10550SOL    HW132549   4.495   6.110   5.086
10550SOL    HW232550   4.600   6.000   5.026
10551SOL     OW32551   1.993   2.740   6.445
10551SOL    HW132552   1.900   2.773   6.434
10551SOL    HW232553   1.995   2.669   6.515
10552SOL     OW32554   3.583   2.099   6.247
10552SOL    HW132555   3.568   2.160   6.169
10552SOL    HW232556   3.538   2.135   6.328
10553SOL     OW32557   0.668   5.441   1.086
10553SOL    HW132558   0.599   5.418   1.155
10553SOL    HW232559   0.753   5.393   1.107
10554SOL     OW32560   5.089   5.498   0.137
10554SOL    HW132561   5.183   5.531   0.148
10554SOL    HW232562   5.069   5.486   0.040
10555SOL     OW32563   2.025   2.864   0.473
10555SOL    HW132564   2.064   2.891   0.561
10555SOL    HW232565   2.079   2.904   0.399
10556SOL     OW32566   2.128   2.680   4.949
10556SOL    HW132567   2.117   2.758   5.011
10556SOL    HW232568   2.039   2.636   4.935
10557SOL     OW32569   2.309   2.309   2.865
10557SOL    HW132570   2.239   2.342   2.928
10557SOL    HW232571   2.296   2.351   2.775
10558SOL     OW32572   4.207   0.418   3.710
10558SOL    HW132573   4.241   0.512   3.710
10558SOL    HW232574   4.113   0.417   3.676
10559SOL     OW32575   4.716   0.188   1.490
10559SOL    HW132576   4.629   0.230   1.515
10559SOL    HW232577   4.702   0.126   1.412
10560SOL     OW32578   4.037   6.506   3.422
10560SOL    HW132579   4.051   6.420   3.471
10560SOL    HW232580   4.003   6.487   3.330
10561SOL     OW32581   3.199   4.614   1.054
10561SOL    HW132582   3.111   4.649   1.023
10561SOL    HW232583   3.227   4.663   1.137
10562SOL     OW32584   4.875   6.053   0.218
10562SOL    HW132585   4.950   5.987   0.231
10562SOL    HW232586   4.815   6.052   0.297
10563SOL     OW32587   0.522   0.885   3.795
10563SOL    HW132588   0.445   0.945   3.772
10563SOL    HW232589   0.608   0.931   3.774
10564SOL     OW32590   5.785   6.358   2.582
10564SOL    HW132591   5.724   6.405   2.519
10564SOL    HW232592   5.866   6.326   2.533
10565SOL     OW32593   6.782   0.820   6.068
10565SOL    HW132594   6.701   0.828   6.009
10565SOL    HW232595   6.852   0.767   6.020
10566SOL     OW32596   4.338   3.013   6.994
10566SOL    HW132597   4.433   3.009   6.963
10566SOL    HW232598   4.293   2.927   6.974
10567SOL     OW32599   2.132   1.701   4.540
10567SOL    HW132600   2.176   1.615   4.515
10567SOL    HW232601   2.170   1.775   4.485
10568SOL     OW32602   6.158   2.062   0.945
10568SOL    HW132603   6.110   1.986   0.901
10568SOL    HW232604   6.104   2.094   1.022
10569SOL     OW32605   6.137   2.114   1.248
10569SOL    HW132606   6.225   2.161   1.241
10569SOL    HW232607   6.152   2.016   1.262
10570SOL     OW32608   1.553   5.062   3.343
10570SOL    HW132609   1.536   5.016   3.255
10570SOL    HW232610   1.472   5.056   3.400
10571SOL     OW32611   6.887   5.145   4.652
10571SOL    HW132612   6.887   5.238   4.615
10571SOL    HW232613   6.946   5.141   4.732
10572SOL     OW32614   0.216   4.184   4.047
10572SOL    HW132615   0.268   4.146   3.971
10572SOL    HW232616   0.128   4.138   4.054
10573SOL     OW32617   4.750   0.553   4.444
10573SOL    HW132618   4.694   0.484   4.398
10573SOL    HW232619   4.791   0.513   4.526
10574SOL     OW32620   1.118   1.800   4.371
10574SOL    HW132621   1.082   1.786   4.463
10574SOL    HW232622   1.215   1.776   4.369
10575SOL     OW32623   6.948   1.272   2.837
10575SOL    HW132624   6.960   1.369   2.859
10575SOL    HW232625   0.006   1.239   2.788
10576SOL     OW32626   7.001   5.951   5.402
10576SOL    HW132627   6.982   5.879   5.335
10576SOL    HW232628   0.072   5.982   5.392
10577SOL     OW32629   1.849   2.736   6.866
10577SOL    HW132630   1.912   2.800   6.823
10577SOL    HW232631   1.768   2.785   6.900
10578SOL     OW32632   6.094   0.582   3.119
10578SOL    HW132633   6.121   0.674   3.148
10578SOL    HW232634   6.038   0.589   3.036
10579SOL     OW32635   4.160   1.461   0.520
10579SOL    HW132636   4.226   1.388   0.536
10579SOL    HW232637   4.202   1.533   0.464
10580SOL     OW32638   6.722   0.276   6.931
10580SOL    HW132639   6.728   0.288   0.007
10580SOL    HW232640   6.630   0.244   6.906
10581SOL     OW32641   0.016   6.779   3.243
10581SOL    HW132642   0.084   6.827   3.188
10581SOL    HW232643   6.957   6.835   3.251
10582SOL     OW32644   4.709   5.076   6.775
10582SOL    HW132645   4.648   5.073   6.854
10582SOL    HW232646   4.784   5.011   6.788
10583SOL     OW32647   3.833   0.935   5.274
10583SOL    HW132648   3.771   1.013   5.266
10583SOL    HW232649   3.786   0.851   5.246
10584SOL     OW32650   6.032   6.440   1.486
10584SOL    HW132651   5.974   6.365   1.454
10584SOL    HW232652   5.974   6.511   1.526
10585SOL     OW32653   2.162   2.896   5.374
10585SOL    HW132654   2.250   2.850   5.363
10585SOL    HW232655   2.149   2.918   5.471
10586SOL     OW32656   0.512   5.185   4.825
10586SOL    HW132657   0.541   5.150   4.914
10586SOL    HW232658   0.508   5.110   4.759
10587SOL     OW32659   6.223   3.778   0.469
10587SOL    HW132660   6.308   3.768   0.520
10587SOL    HW232661   6.244   3.787   0.371
10588SOL     OW32662   0.147   3.914   3.010
10588SOL    HW132663   0.159   3.878   2.917
10588SOL    HW232664   0.057   3.956   3.018
10589SOL     OW32665   6.269   1.092   4.748
10589SOL    HW132666   6.198   1.041   4.699
10589SOL    HW232667   6.269   1.067   4.844
10590SOL     OW32668   1.330   0.438   1.558
10590SOL    HW132669   1.297   0.362   1.614
10590SOL    HW232670   1.283   0.437   1.470
10591SOL     OW32671   1.254   1.663   6.173
10591SOL    HW132672   1.176   1.607   6.146
10591SOL    HW232673   1.248   1.752   6.129
10592SOL     OW32674   6.303   2.792   0.553
10592SOL    HW132675   6.229   2.788   0.486
10592SOL    HW232676   6.349   2.881   0.546
10593SOL     OW32677   2.160   5.109   0.333
10593SOL    HW132678   2.183   5.129   0.238
10593SOL    HW232679   2.234   5.057   0.375
10594SOL     OW32680   5.382   0.970   2.352
10594SOL    HW132681   5.292   0.934   2.329
10594SOL    HW232682   5.379   1.070   2.352
10595SOL     OW32683   3.926   7.017   5.350
10595SOL    HW132684   3.904   6.928   5.391
10595SOL    HW232685   4.009   0.031   5.392
10596SOL     OW32686   4.900   0.063   0.330
10596SOL    HW132687   4.989   0.024   0.302
10596SOL    HW232688   4.866   0.013   0.409
10597SOL     OW32689   3.517   1.299   4.906
10597SOL    HW132690   3.489   1.383   4.860
10597SOL    HW232691   3.452   1.226   4.886
10598SOL     OW32692   2.530   2.514   0.026
10598SOL    HW132693   2.434   2.512   0.052
10598SOL    HW232694   2.539   2.484   6.953
10599SOL     OW32695   5.241   2.395   6.688
10599SOL    HW132696   5.188   2.414   6.771
10599SOL    HW232697   5.182   2.406   6.608
10600SOL     OW32698   1.527   2.530   0.266
10600SOL    HW132699   1.604   2.572   0.219
10600SOL    HW232700   1.560   2.451   0.318
10601SOL     OW32701   1.729   4.491   6.232
10601SOL    HW132702   1.698   4.456   6.144
10601SOL    HW232703   1.671   4.567   6.260
10602SOL     OW32704   5.045   1.961   3.037
10602SOL    HW132705   5.108   2.039   3.042
10602SOL    HW232706   5.048   1.909   3.122
10603SOL     OW32707   1.929   5.614   4.044
10603SOL    HW132708   1.876   5.579   4.122
10603SOL    HW232709   2.025   5.625   4.072
10604SOL     OW32710   5.987   3.858   5.541
10604SOL    HW132711   6.077   3.829   5.574
10604SOL    HW232712   5.920   3.785   5.555
10605SOL     OW32713   1.676   4.598   0.697
10605SOL    HW132714   1.770   4.593   0.731
10605SOL    HW232715   1.676   4.596   0.597
10606SOL     OW32716   6.727   0.029   2.218
10606SOL    HW132717   6.716   6.965   2.267
10606SOL    HW232718   6.643   0.049   2.168
10607SOL     OW32719   3.915   4.449   5.854
10607SOL    HW132720   3.925   4.503   5.937
10607SOL    HW232721   3.952   4.499   5.776
10608SOL     OW32722   4.957   1.875   6.006
10608SOL    HW132723   4.996   1.903   6.093
10608SOL    HW232724   5.007   1.919   5.931
10609SOL     OW32725   3.252   6.503   1.951
10609SOL    HW132726   3.331   6.456   1.992
10609SOL    HW232727   3.271   6.522   1.855
10610SOL     OW32728   0.784   3.506   5.893
10610SOL    HW132729   0.846   3.553   5.957
10610SOL    HW232730   0.698   3.557   5.887
10611SOL     OW32731   4.256   3.820   5.723
10611SOL    HW132732   4.240   3.882   5.646
10611SOL    HW232733   4.172   3.769   5.742
10612SOL     OW32734   2.700   0.147   5.742
10612SOL    HW132735   2.708   0.088   5.661
10612SOL    HW232736   2.754   0.109   5.817
10613SOL     OW32737   6.647   0.344   5.284
10613SOL    HW132738   6.674   0.429   5.239
10613SOL    HW232739   6.596   0.287   5.219
10614SOL     OW32740   6.821   2.576   4.859
10614SOL    HW132741   6.822   2.665   4.906
10614SOL    HW232742   6.825   2.503   4.927
10615SOL     OW32743   3.309   6.027   5.941
10615SOL    HW132744   3.215   6.059   5.943
10615SOL    HW232745   3.358   6.070   5.865
10616SOL     OW32746   2.873   6.601   1.461
10616SOL    HW132747   2.824   6.517   1.480
10616SOL    HW232748   2.923   6.592   1.375
10617SOL     OW32749   1.740   2.808   0.542
10617SOL    HW132750   1.837   2.833   0.542
10617SOL    HW232751   1.685   2.891   0.542
10618SOL     OW32752   6.155   3.572   6.571
10618SOL    HW132753   6.111   3.512   6.637
10618SOL    HW232754   6.170   3.662   6.613
10619SOL     OW32755   6.974   3.718   2.317
10619SOL    HW132756   6.976   3.792   2.250
10619SOL    HW232757   6.989   3.756   2.408
10620SOL     OW32758   1.281   5.354   5.837
10620SOL    HW132759   1.359   5.382   5.893
10620SOL    HW232760   1.227   5.286   5.885
10621SOL     OW32761   1.034   6.318   1.384
10621SOL    HW132762   0.945   6.272   1.375
10621SOL    HW232763   1.093   6.292   1.307
10622SOL     OW32764   5.337   0.838   1.118
10622SOL    HW132765   5.422   0.864   1.071
10622SOL    HW232766   5.259   0.878   1.070
10623SOL     OW32767   6.958   4.887   4.180
10623SOL    HW132768   6.980   4.811   4.241
10623SOL    HW232769   6.892   4.948   4.224
10624SOL     OW32770   0.459   1.788   4.641
10624SOL    HW132771   0.420   1.869   4.685
10624SOL    HW232772   0.552   1.774   4.674
10625SOL     OW32773   0.461   5.033   6.872
10625SOL    HW132774   0.418   4.952   6.911
10625SOL    HW232775   0.447   5.111   6.934
10626SOL     OW32776   1.755   3.117   1.109
10626SOL    HW132777   1.800   3.165   1.184
10626SOL    HW232778   1.728   3.025   1.139
10627SOL     OW32779   5.582   6.017   0.941
10627SOL    HW132780   5.556   5.978   1.029
10627SOL    HW232781   5.603   5.944   0.876
10628SOL     OW32782   5.283   5.532   6.320
10628SOL    HW132783   5.305   5.596   6.247
10628SOL    HW232784   5.336   5.448   6.308
10629SOL     OW32785   2.529   4.733   4.784
10629SOL    HW132786   2.484   4.775   4.863
10629SOL    HW232787   2.628   4.748   4.790
10630SOL     OW32788   6.096   1.314   3.760
10630SOL    HW132789   6.140   1.225   3.769
10630SOL    HW232790   6.051   1.321   3.671
10631SOL     OW32791   1.729   4.835   5.231
10631SOL    HW132792   1.716   4.770   5.155
10631SOL    HW232793   1.640   4.857   5.270
10632SOL     OW32794   5.586   1.634   4.008
10632SOL    HW132795   5.502   1.637   4.062
10632SOL    HW232796   5.568   1.586   3.922
10633SOL     OW32797   2.385   3.572   1.364
10633SOL    HW132798   2.405   3.587   1.461
10633SOL    HW232799   2.363   3.660   1.321
10634SOL     OW32800   3.165   5.143   1.376
10634SOL    HW132801   3.229   5.220   1.378
10634SOL    HW232802   3.091   5.162   1.311
10635SOL     OW32803   3.505   1.797   0.827
10635SOL    HW132804   3.418   1.831   0.863
10635SOL    HW232805   3.518   1.702   0.855
10636SOL     OW32806   1.614   1.821   1.371
10636SOL    HW132807   1.532   1.871   1.397
10636SOL    HW232808   1.589   1.737   1.324
10637SOL     OW32809   3.140   5.133   5.502
10637SOL    HW132810   3.213   5.196   5.529
10637SOL    HW232811   3.159   5.043   5.542
10638SOL     OW32812   0.010   5.549   2.941
10638SOL    HW132813   6.996   5.549   3.034
10638SOL    HW232814   0.108   5.533   2.943
10639SOL     OW32815   0.399   3.020   2.785
10639SOL    HW132816   0.370   3.116   2.784
10639SOL    HW232817   0.322   2.962   2.814
10640SOL     OW32818   3.894   0.478   5.683
10640SOL    HW132819   3.909   0.555   5.621
10640SOL    HW232820   3.802   0.484   5.722
10641SOL     OW32821   3.570   2.461   0.198
10641SOL    HW132822   3.564   2.497   0.105
10641SOL    HW232823   3.503   2.388   0.210
10642SOL     OW32824   6.745   2.460   1.387
10642SOL    HW132825   6.841   2.466   1.363
10642SOL    HW232826   6.715   2.545   1.431
10643SOL     OW32827   2.286   4.657   5.435
10643SOL    HW132828   2.263   4.715   5.513
10643SOL    HW232829   2.288   4.713   5.352
10644SOL     OW32830   5.656   2.001   3.113
10644SOL    HW132831   5.604   1.940   3.173
10644SOL    HW232832   5.754   1.987   3.127
10645SOL     OW32833   0.112   1.023   4.707
10645SOL    HW132834   0.135   1.026   4.610
10645SOL    HW232835   0.058   1.104   4.731
10646SOL     OW32836   0.349   1.361   5.934
10646SOL    HW132837   0.287   1.367   5.856
10646SOL    HW232838   0.366   1.453   5.970
10647SOL     OW32839   3.808   5.534   0.220
10647SOL    HW132840   3.898   5.490   0.218
10647SOL    HW232841   3.748   5.483   0.282
10648SOL     OW32842   4.406   4.313   6.850
10648SOL    HW132843   4.415   4.411   6.871
10648SOL    HW232844   4.317   4.297   6.808
10649SOL     OW32845   0.704   4.364   3.136
10649SOL    HW132846   0.748   4.307   3.067
10649SOL    HW232847   0.760   4.445   3.154
10650SOL     OW32848   1.486   6.356   2.857
10650SOL    HW132849   1.496   6.408   2.942
10650SOL    HW232850   1.516   6.412   2.780
10651SOL     OW32851   4.780   6.694   5.798
10651SOL    HW132852   4.835   6.733   5.725
10651SOL    HW232853   4.833   6.623   5.845
10652SOL     OW32854   3.331   0.191   6.293
10652SOL    HW132855   3.340   0.265   6.360
10652SOL    HW232856   3.234   0.169   6.281
10653SOL     OW32857   5.455   4.139   4.234
10653SOL    HW132858   5.396   4.060   4.243
10653SOL    HW232859   5.536   4.115   4.179
10654SOL     OW32860   4.295   1.077   0.671
10654SOL    HW132861   4.301   1.007   0.600
10654SOL    HW232862   4.207   1.069   0.718
10655SOL     OW32863   2.814   5.335   1.374
10655SOL    HW132864   2.770   5.425   1.376
10655SOL    HW232865   2.836   5.306   1.467
10656SOL     OW32866   6.357   2.727   0.249
10656SOL    HW132867   6.301   2.686   0.322
10656SOL    HW232868   6.453   2.707   0.265
10657SOL     OW32869   6.858   6.737   6.971
10657SOL    HW132870   6.940   6.787   7.001
10657SOL    HW232871   6.800   6.798   6.917
10658SOL     OW32872   6.545   4.025   4.341
10658SOL    HW132873   6.497   4.005   4.426
10658SOL    HW232874   6.634   3.981   4.342
10659SOL     OW32875   6.705   6.276   0.884
10659SOL    HW132876   6.750   6.193   0.918
10659SOL    HW232877   6.774   6.341   0.852
10660SOL     OW32878   5.574   4.414   6.233
10660SOL    HW132879   5.609   4.441   6.323
10660SOL    HW232880   5.526   4.327   6.241
10661SOL     OW32881   0.411   6.563   2.624
10661SOL    HW132882   0.460   6.624   2.561
10661SOL    HW232883   0.373   6.486   2.573
10662SOL     OW32884   5.905   0.906   1.976
10662SOL    HW132885   5.903   0.891   1.877
10662SOL    HW232886   5.980   0.855   2.016
10663SOL     OW32887   0.288   0.085   1.823
10663SOL    HW132888   0.271   0.066   1.919
10663SOL    HW232889   0.214   0.046   1.767
10664SOL     OW32890   2.162   4.412   5.479
10664SOL    HW132891   2.114   4.365   5.404
10664SOL    HW232892   2.196   4.500   5.446
10665SOL     OW32893   0.366   0.477   0.845
10665SOL    HW132894   0.351   0.442   0.753
10665SOL    HW232895   0.431   0.553   0.842
10666SOL     OW32896   3.591   5.022   0.675
10666SOL    HW132897   3.559   5.016   0.770
10666SOL    HW232898   3.513   5.026   0.614
10667SOL     OW32899   3.774   2.725   5.305
10667SOL    HW132900   3.778   2.815   5.350
10667SOL    HW232901   3.718   2.732   5.223
10668SOL     OW32902   1.034   1.734   5.186
10668SOL    HW132903   0.961   1.678   5.225
10668SOL    HW232904   1.050   1.707   5.091
10669SOL     OW32905   5.986   6.484   0.783
10669SOL    HW132906   5.999   6.530   0.696
10669SOL    HW232907   5.947   6.547   0.849
10670SOL     OW32908   4.751   4.168   5.072
10670SOL    HW132909   4.842   4.186   5.035
10670SOL    HW232910   4.688   4.239   5.040
10671SOL     OW32911   2.585   2.424   2.624
10671SOL    HW132912   2.495   2.463   2.608
10671SOL    HW232913   2.634   2.415   2.538
10672SOL     OW32914   7.003   2.337   0.641
10672SOL    HW132915   6.913   2.299   0.664
10672SOL    HW232916   7.007   2.432   0.669
10673SOL     OW32917   1.706   2.549   6.621
10673SOL    HW132918   1.718   2.622   6.687
10673SOL    HW232919   1.769   2.562   6.545
10674SOL     OW32920   3.476   3.342   0.996
10674SOL    HW132921   3.483   3.242   0.997
10674SOL    HW232922   3.549   3.381   1.053
10675SOL     OW32923   1.712   0.541   6.202
10675SOL    HW132924   1.734   0.525   6.298
10675SOL    HW232925   1.796   0.559   6.151
10676SOL     OW32926   6.600   6.990   6.155
10676SOL    HW132927   6.694   7.012   6.128
10676SOL    HW232928   6.537   7.018   6.083
10677SOL     OW32929   0.491   0.288   2.209
10677SOL    HW132930   0.509   0.240   2.123
10677SOL    HW232931   0.418   0.355   2.195
10678SOL     OW32932   3.671   5.368   3.066
10678SOL    HW132933   3.587   5.339   3.113
10678SOL    HW232934   3.707   5.292   3.012
10679SOL     OW32935   5.105   4.426   6.059
10679SOL    HW132936   5.097   4.374   5.974
10679SOL    HW232937   5.028   4.489   6.068
10680SOL     OW32938   1.990   2.354   4.011
10680SOL    HW132939   1.991   2.361   3.911
10680SOL    HW232940   1.973   2.444   4.050
10681SOL     OW32941   0.115   3.904   6.321
10681SOL    HW132942   0.140   3.986   6.373
10681SOL    HW232943   0.188   3.836   6.328
10682SOL     OW32944   2.027   2.254   2.746
10682SOL    HW132945   2.049   2.302   2.830
10682SOL    HW232946   1.994   2.162   2.767
10683SOL     OW32947   3.266   1.685   3.885
10683SOL    HW132948   3.321   1.649   3.810
10683SOL    HW232949   3.180   1.721   3.850
10684SOL     OW32950   4.337   3.744   0.417
10684SOL    HW132951   4.305   3.691   0.338
10684SOL    HW232952   4.398   3.817   0.386
10685SOL     OW32953   6.731   3.836   2.120
10685SOL    HW132954   6.812   3.882   2.155
10685SOL    HW232955   6.751   3.798   2.030
10686SOL     OW32956   4.287   5.209   6.570
10686SOL    HW132957   4.336   5.276   6.625
10686SOL    HW232958   4.249   5.253   6.489
10687SOL     OW32959   0.034   4.912   1.841
10687SOL    HW132960   6.974   4.963   1.816
10687SOL    HW232961   0.115   4.966   1.817
10688SOL     OW32962   6.038   4.268   2.541
10688SOL    HW132963   6.133   4.290   2.519
10688SOL    HW232964   6.035   4.213   2.625
10689SOL     OW32965   0.396   0.080   3.114
10689SOL    HW132966   0.451   7.020   3.106
10689SOL    HW232967   0.342   0.093   3.031
10690SOL     OW32968   5.825   5.452   4.208
10690SOL    HW132969   5.727   5.463   4.196
10690SOL    HW232970   5.844   5.425   4.302
10691SOL     OW32971   0.073   1.720   2.436
10691SOL    HW132972   7.015   1.714   2.495
10691SOL    HW232973   0.044   1.740   2.343
10692SOL     OW32974   3.608   5.579   3.626
10692SOL    HW132975   3.648   5.541   3.543
10692SOL    HW232976   3.541   5.649   3.601
10693SOL     OW32977   1.787   0.779   1.916
10693SOL    HW132978   1.804   0.785   2.014
10693SOL    HW232979   1.826   0.859   1.870
10694SOL     OW32980   3.275   6.073   1.167
10694SOL    HW132981   3.276   6.085   1.068
10694SOL    HW232982   3.299   5.978   1.188
10695SOL     OW32983   6.283   2.207   3.255
10695SOL    HW132984   6.332   2.151   3.187
10695SOL    HW232985   6.188   2.217   3.228
10696SOL     OW32986   0.127   5.330   2.194
10696SOL    HW132987   0.157   5.279   2.113
10696SOL    HW232988   0.088   5.418   2.165
10697SOL     OW32989   0.150   6.115   3.931
10697SOL    HW132990   0.190   6.081   3.846
10697SOL    HW232991   0.216   6.175   3.977
10698SOL     OW32992   3.434   6.742   4.060
10698SOL    HW132993   3.426   6.705   4.153
10698SOL    HW232994   3.380   6.685   3.997
10699SOL     OW32995   4.452   1.862   2.671
10699SOL    HW132996   4.512   1.861   2.752
10699SOL    HW232997   4.502   1.826   2.593
10700SOL     OW32998   0.946   0.209   0.355
10700SOL    HW132999   0.948   0.219   0.255
10700SOL    HW233000   0.851   0.203   0.386
10701SOL     OW33001   4.306   5.870   0.194
10701SOL    HW133002   4.290   5.839   0.100
10701SOL    HW233003   4.361   5.953   0.193
10702SOL     OW33004   5.689   2.469   2.193
10702SOL    HW133005   5.739   2.457   2.279
10702SOL    HW233006   5.622   2.395   2.183
10703SOL     OW33007   3.788   2.948   3.755
10703SOL    HW133008   3.852   2.941   3.678
10703SOL    HW233009   3.695   2.962   3.721
10704SOL     OW33010   4.842   5.911   1.966
10704SOL    HW133011   4.765   5.922   2.030
10704SOL    HW233012   4.928   5.919   2.016
10705SOL     OW33013   0.775   3.694   0.605
10705SOL    HW133014   0.763   3.652   0.515
10705SOL    HW233015   0.796   3.791   0.594
10706SOL     OW33016   4.505   6.905   2.026
10706SOL    HW133017   4.457   6.837   2.081
10706SOL    HW233018   4.458   6.916   1.938
10707SOL     OW33019   0.484   0.079   4.587
10707SOL    HW133020   0.561   0.071   4.525
10707SOL    HW233021   0.517   0.098   4.680
10708SOL     OW33022   4.745   1.114   1.723
10708SOL    HW133023   4.646   1.129   1.732
10708SOL    HW233024   4.790   1.141   1.808
10709SOL     OW33025   6.361   0.858   5.464
10709SOL    HW133026   6.413   0.942   5.449
10709SOL    HW233027   6.285   0.854   5.399
10710SOL     OW33028   0.789   6.743   4.804
10710SOL    HW133029   0.810   6.837   4.830
10710SOL    HW233030   0.806   6.682   4.882
10711SOL     OW33031   1.767   6.874   3.861
10711SOL    HW133032   1.753   6.902   3.766
10711SOL    HW233033   1.804   6.951   3.913
10712SOL     OW33034   4.194   0.851   3.514
10712SOL    HW133035   4.246   0.829   3.431
10712SOL    HW233036   4.142   0.935   3.499
10713SOL     OW33037   1.801   4.895   1.653
10713SOL    HW133038   1.899   4.899   1.633
10713SOL    HW233039   1.767   4.803   1.634
10714SOL     OW33040   6.785   3.739   5.417
10714SOL    HW133041   6.696   3.783   5.423
10714SOL    HW233042   6.774   3.640   5.420
10715SOL     OW33043   4.992   0.265   3.133
10715SOL    HW133044   4.984   0.252   3.034
10715SOL    HW233045   4.954   0.354   3.158
10716SOL     OW33046   6.986   2.341   3.635
10716SOL    HW133047   6.960   2.275   3.564
10716SOL    HW233048   6.931   2.324   3.717
10717SOL     OW33049   0.402   1.280   0.951
10717SOL    HW133050   0.398   1.181   0.962
10717SOL    HW233051   0.433   1.303   0.859
10718SOL     OW33052   6.638   4.481   0.160
10718SOL    HW133053   6.546   4.457   0.189
10718SOL    HW233054   6.687   4.524   0.236
10719SOL     OW33055   4.965   6.592   1.805
10719SOL    HW133056   4.890   6.602   1.740
10719SOL    HW233057   4.954   6.507   1.856
10720SOL     OW33058   6.190   3.455   6.037
10720SOL    HW133059   6.100   3.495   6.054
10720SOL    HW233060   6.254   3.485   6.108
10721SOL     OW33061   6.508   2.079   4.179
10721SOL    HW133062   6.601   2.112   4.161
10721SOL    HW233063   6.443   2.152   4.160
10722SOL     OW33064   0.339   3.617   6.927
10722SOL    HW133065   0.304   3.534   6.970
10722SOL    HW233066   0.285   3.696   6.956
10723SOL     OW33067   5.430   3.909   6.707
10723SOL    HW133068   5.382   3.988   6.747
10723SOL    HW233069   5.432   3.834   6.773
10724SOL     OW33070   4.123   6.480   5.846
10724SOL    HW133071   4.218   6.504   5.862
10724SOL    HW233072   4.083   6.443   5.930
10725SOL     OW33073   0.523   5.603   4.176
10725SOL    HW133074   0.555   5.511   4.197
10725SOL    HW233075   0.439   5.598   4.122
10726SOL     OW33076   6.290   6.776   4.708
10726SOL    HW133077   6.321   6.774   4.613
10726SOL    HW233078   6.363   6.815   4.765
10727SOL     OW33079   1.731   5.257   5.473
10727SOL    HW133080   1.649   5.208   5.445
10727SOL    HW233081   1.720   5.291   5.567
10728SOL     OW33082   5.633   6.324   2.876
10728SOL    HW133083   5.555   6.306   2.815
10728SOL    HW233084   5.689   6.396   2.837
10729SOL     OW33085   6.549   1.495   2.672
10729SOL    HW133086   6.628   1.528   2.621
10729SOL    HW233087   6.535   1.397   2.653
10730SOL     OW33088   2.765   6.499   2.162
10730SOL    HW133089   2.834   6.516   2.091
10730SOL    HW233090   2.691   6.566   2.154
10731SOL     OW33091   2.392   5.500   0.554
10731SOL    HW133092   2.401   5.471   0.459
10731SOL    HW233093   2.469   5.463   0.607
10732SOL     OW33094   6.724   0.041   2.859
10732SOL    HW133095   6.657   0.115   2.869
10732SOL    HW233096   6.707   6.994   2.929
10733SOL     OW33097   6.067   2.208   6.919
10733SOL    HW133098   6.058   2.306   6.939
10733SOL    HW233099   6.130   2.195   6.842
10734SOL     OW33100   0.377   0.568   6.352
10734SOL    HW133101   0.329   0.647   6.392
10734SOL    HW233102   0.316   0.521   6.288
10735SOL     OW33103   0.686   4.939   2.294
10735SOL    HW133104   0.677   5.000   2.372
10735SOL    HW233105   0.734   4.856   2.322
10736SOL     OW33106   0.060   1.218   3.137
10736SOL    HW133107   0.098   1.149   3.075
10736SOL    HW233108   0.081   1.192   3.232
10737SOL     OW33109   0.762   1.826   0.812
10737SOL    HW133110   0.695   1.759   0.844
10737SOL    HW233111   0.803   1.872   0.891
10738SOL     OW33112   2.238   0.242   2.661
10738SOL    HW133113   2.150   0.265   2.620
10738SOL    HW233114   2.227   0.232   2.760
10739SOL     OW33115   6.617   2.139   2.063
10739SOL    HW133116   6.533   2.086   2.052
10739SOL    HW233117   6.658   2.118   2.152
10740SOL     OW33118   1.332   6.187   5.464
10740SOL    HW133119   1.413   6.130   5.455
10740SOL    HW233120   1.347   6.273   5.414
10741SOL     OW33121   2.080   1.629   3.212
10741SOL    HW133122   2.000   1.630   3.273
10741SOL    HW233123   2.132   1.713   3.224
10742SOL     OW33124   5.844   6.761   2.183
10742SOL    HW133125   5.859   6.665   2.160
10742SOL    HW233126   5.802   6.807   2.105
10743SOL     OW33127   3.243   1.462   4.590
10743SOL    HW133128   3.273   1.521   4.665
10743SOL    HW233129   3.236   1.515   4.505
10744SOL     OW33130   3.234   1.507   1.975
10744SOL    HW133131   3.200   1.413   1.978
10744SOL    HW233132   3.238   1.543   2.068
10745SOL     OW33133   2.081   4.644   0.488
10745SOL    HW133134   2.176   4.674   0.499
10745SOL    HW233135   2.025   4.722   0.458
10746SOL     OW33136   2.320   5.511   1.047
10746SOL    HW133137   2.260   5.440   1.008
10746SOL    HW233138   2.278   5.550   1.128
10747SOL     OW33139   5.347   1.558   3.328
10747SOL    HW133140   5.326   1.461   3.316
10747SOL    HW233141   5.337   1.605   3.241
10748SOL     OW33142   5.228   5.679   0.973
10748SOL    HW133143   5.144   5.624   0.974
10748SOL    HW233144   5.306   5.621   0.997
10749SOL     OW33145   6.916   4.648   2.670
10749SOL    HW133146   6.856   4.644   2.750
10749SOL    HW233147   6.903   4.735   2.623
10750SOL     OW33148   4.863   3.899   4.427
10750SOL    HW133149   4.838   3.806   4.401
10750SOL    HW233150   4.881   3.903   4.526
10751SOL     OW33151   1.659   3.065   5.182
10751SOL    HW133152   1.680   3.114   5.266
10751SOL    HW233153   1.641   2.969   5.203
10752SOL     OW33154   6.166   4.426   6.777
10752SOL    HW133155   6.093   4.384   6.830
10752SOL    HW233156   6.138   4.434   6.681
10753SOL     OW33157   5.108   0.291   3.679
10753SOL    HW133158   5.189   0.344   3.706
10753SOL    HW233159   5.034   0.354   3.657
10754SOL     OW33160   1.188   2.695   2.316
10754SOL    HW133161   1.255   2.696   2.243
10754SOL    HW233162   1.234   2.689   2.405
10755SOL     OW33163   6.704   1.926   0.682
10755SOL    HW133164   6.791   1.920   0.732
10755SOL    HW233165   6.629   1.917   0.747
10756SOL     OW33166   6.538   2.335   6.948
10756SOL    HW133167   6.484   2.408   6.906
10756SOL    HW233168   6.620   2.374   6.989
10757SOL     OW33169   0.169   3.975   0.736
10757SOL    HW133170   0.149   3.877   0.733
10757SOL    HW233171   0.252   3.993   0.683
10758SOL     OW33172   0.874   5.775   5.680
10758SOL    HW133173   0.862   5.688   5.727
10758SOL    HW233174   0.960   5.774   5.628
10759SOL     OW33175   1.850   3.385   6.161
10759SOL    HW133176   1.887   3.478   6.151
10759SOL    HW233177   1.850   3.359   6.257
10760SOL     OW33178   0.676   5.553   0.826
10760SOL    HW133179   0.663   5.491   0.904
10760SOL    HW233180   0.767   5.594   0.831
10761SOL     OW33181   0.969   2.519   6.001
10761SOL    HW133182   0.949   2.430   6.042
10761SOL    HW233183   1.068   2.535   6.002
10762SOL     OW33184   4.783   0.878   5.668
10762SOL    HW133185   4.718   0.951   5.689
10762SOL    HW233186   4.738   0.790   5.675
10763SOL     OW33187   4.837   0.165   1.727
10763SOL    HW133188   4.810   0.167   1.631
10763SOL    HW233189   4.756   0.164   1.785
10764SOL     OW33190   5.273   1.614   6.114
10764SOL    HW133191   5.333   1.560   6.174
10764SOL    HW233192   5.325   1.688   6.072
10765SOL     OW33193   5.805   1.375   2.194
10765SOL    HW133194   5.842   1.316   2.123
10765SOL    HW233195   5.786   1.466   2.157
10766SOL     OW33196   2.207   4.195   7.010
10766SOL    HW133197   2.273   4.123   0.006
10766SOL    HW233198   2.116   4.165   0.016
10767SOL     OW33199   1.536   6.354   0.830
10767SOL    HW133200   1.495   6.367   0.739
10767SOL    HW233201   1.523   6.436   0.885
10768SOL     OW33202   5.214   5.855   6.857
10768SOL    HW133203   5.134   5.895   6.812
10768SOL    HW233204   5.214   5.881   6.954
10769SOL     OW33205   2.802   4.541   5.381
10769SOL    HW133206   2.862   4.546   5.300
10769SOL    HW233207   2.733   4.470   5.367
10770SOL     OW33208   5.540   0.335   4.518
10770SOL    HW133209   5.604   0.342   4.441
10770SOL    HW233210   5.449   0.362   4.488
10771SOL     OW33211   4.110   0.218   5.488
10771SOL    HW133212   4.189   0.231   5.428
10771SOL    HW233213   4.132   0.249   5.580
10772SOL     OW33214   6.631   6.587   3.729
10772SOL    HW133215   6.590   6.653   3.666
10772SOL    HW233216   6.589   6.597   3.819
10773SOL     OW33217   0.138   4.420   6.750
10773SOL    HW133218   0.157   4.494   6.813
10773SOL    HW233219   0.055   4.441   6.697
10774SOL     OW33220   1.486   2.329   1.715
10774SOL    HW133221   1.578   2.299   1.687
10774SOL    HW233222   1.485   2.343   1.814
10775SOL     OW33223   2.126   4.326   1.014
10775SOL    HW133224   2.182   4.327   0.931
10775SOL    HW233225   2.159   4.396   1.077
10776SOL     OW33226   0.338   6.656   2.195
10776SOL    HW133227   0.347   6.666   2.096
10776SOL    HW233228   0.260   6.709   2.227
10777SOL     OW33229   4.272   0.325   3.284
10777SOL    HW133230   4.235   0.415   3.309
10777SOL    HW233231   4.254   0.260   3.359
10778SOL     OW33232   6.218   6.245   4.815
10778SOL    HW133233   6.222   6.323   4.751
10778SOL    HW233234   6.141   6.187   4.791
10779SOL     OW33235   6.313   4.364   2.523
10779SOL    HW133236   6.298   4.342   2.426
10779SOL    HW233237   6.358   4.453   2.531
10780SOL     OW33238   0.693   5.765   4.362
10780SOL    HW133239   0.618   5.751   4.297
10780SOL    HW233240   0.768   5.812   4.316
10781SOL     OW33241   5.329   1.031   4.340
10781SOL    HW133242   5.383   0.962   4.389
10781SOL    HW233243   5.389   1.079   4.276
10782SOL     OW33244   6.255   3.133   4.014
10782SOL    HW133245   6.190   3.073   3.967
10782SOL    HW233246   6.277   3.210   3.954
10783SOL     OW33247   2.125   2.862   2.393
10783SOL    HW133248   2.170   2.840   2.479
10783SOL    HW233249   2.057   2.792   2.371
10784SOL     OW33250   2.932   6.924   2.230
10784SOL    HW133251   2.846   6.972   2.247
10784SOL    HW233252   2.931   6.837   2.279
10785SOL     OW33253   1.530   5.120   1.422
10785SOL    HW133254   1.619   5.129   1.467
10785SOL    HW233255   1.475   5.202   1.440
10786SOL     OW33256   4.743   1.875   2.141
10786SOL    HW133257   4.739   1.781   2.175
10786SOL    HW233258   4.747   1.939   2.218
10787SOL     OW33259   3.438   1.071   4.410
10787SOL    HW133260   3.401   1.085   4.318
10787SOL    HW233261   3.468   1.159   4.447
10788SOL     OW33262   1.988   3.928   0.506
10788SOL    HW133263   1.969   3.922   0.604
10788SOL    HW233264   2.033   4.015   0.486
10789SOL     OW33265   6.267   0.577   0.089
10789SOL    HW133266   6.355   0.613   0.117
10789SOL    HW233267   6.257   0.583   7.013
10790SOL     OW33268   7.004   0.932   5.816
10790SOL    HW133269   6.999   0.843   5.862
10790SOL    HW233270   0.014   1.001   5.881
10791SOL     OW33271   2.069   1.690   1.666
10791SOL    HW133272   1.982   1.700   1.618
10791SOL    HW233273   2.080   1.765   1.731
10792SOL     OW33274   3.330   2.978   1.411
10792SOL    HW133275   3.367   2.935   1.329
10792SOL    HW233276   3.361   2.928   1.492
10793SOL     OW33277   5.531   2.428   3.960
10793SOL    HW133278   5.518   2.399   3.865
10793SOL    HW233279   5.470   2.504   3.980
10794SOL     OW33280   4.044   3.930   1.937
10794SOL    HW133281   4.078   3.939   2.030
10794SOL    HW233282   3.945   3.948   1.935
10795SOL     OW33283   6.424   3.569   2.826
10795SOL    HW133284   6.447   3.666   2.813
10795SOL    HW233285   6.374   3.535   2.747
10796SOL     OW33286   3.788   0.099   6.140
10796SOL    HW133287   3.881   0.061   6.138
10796SOL    HW233288   3.772   0.151   6.057
10797SOL     OW33289   4.052   2.717   0.500
10797SOL    HW133290   4.051   2.738   0.598
10797SOL    HW233291   4.145   2.722   0.466
10798SOL     OW33292   2.417   0.506   6.904
10798SOL    HW133293   2.485   0.444   6.865
10798SOL    HW233294   2.365   0.458   6.974
10799SOL     OW33295   3.390   1.724   2.646
10799SOL    HW133296   3.488   1.702   2.640
10799SOL    HW233297   3.373   1.779   2.728
10800SOL     OW33298   1.954   6.167   0.954
10800SOL    HW133299   1.870   6.203   0.994
10800SOL    HW233300   1.964   6.203   0.861
10801SOL     OW33301   1.943   6.696   4.802
10801SOL    HW133302   2.012   6.760   4.836
10801SOL    HW233303   1.852   6.735   4.817
10802SOL     OW33304   2.440   2.673   3.940
10802SOL    HW133305   2.474   2.598   3.998
10802SOL    HW233306   2.393   2.740   3.997
10803SOL     OW33307   5.088   4.544   5.195
10803SOL    HW133308   5.177   4.531   5.152
10803SOL    HW233309   5.091   4.623   5.256
10804SOL     OW33310   6.922   4.029   0.638
10804SOL    HW133311   6.994   4.041   0.706
10804SOL    HW233312   6.955   3.971   0.564
10805SOL     OW33313   3.536   0.047   6.783
10805SOL    HW133314   3.515   0.135   6.827
10805SOL    HW233315   3.451   0.005   6.751
10806SOL     OW33316   5.952   4.180   0.118
10806SOL    HW133317   5.906   4.092   0.121
10806SOL    HW233318   6.048   4.167   0.091
10807SOL     OW33319   3.667   6.882   3.675
10807SOL    HW133320   3.682   6.875   3.774
10807SOL    HW233321   3.587   6.828   3.650
10808SOL     OW33322   0.139   3.840   6.997
10808SOL    HW133323   0.191   3.875   0.052
10808SOL    HW233324   0.047   3.879   6.998
10809SOL     OW33325   2.760   0.590   4.267
10809SOL    HW133326   2.750   0.641   4.353
10809SOL    HW233327   2.796   0.650   4.197
10810SOL     OW33328   0.546   1.163   5.625
10810SOL    HW133329   0.630   1.156   5.679
10810SOL    HW233330   0.491   1.080   5.639
10811SOL     OW33331   3.896   5.058   5.477
10811SOL    HW133332   3.922   4.962   5.469
10811SOL    HW233333   3.963   5.115   5.428
10812SOL     OW33334   0.252   2.781   2.567
10812SOL    HW133335   0.294   2.834   2.494
10812SOL    HW233336   0.271   2.684   2.552
10813SOL     OW33337   2.725   5.945   1.516
10813SOL    HW133338   2.674   5.996   1.585
10813SOL    HW233339   2.671   5.941   1.431
10814SOL     OW33340   1.643   0.178   5.975
10814SOL    HW133341   1.619   0.091   5.931
10814SOL    HW233342   1.717   0.163   6.040
10815SOL     OW33343   4.747   4.803   3.513
10815SOL    HW133344   4.749   4.724   3.574
10815SOL    HW233345   4.810   4.788   3.437
10816SOL     OW33346   1.801   1.310   2.020
10816SOL    HW133347   1.741   1.365   2.077
10816SOL    HW233348   1.857   1.370   1.962
10817SOL     OW33349   5.267   6.330   3.086
10817SOL    HW133350   5.360   6.295   3.098
10817SOL    HW233351   5.224   6.342   3.176
10818SOL     OW33352   5.612   2.651   5.990
10818SOL    HW133353   5.687   2.657   5.924
10818SOL    HW233354   5.548   2.726   5.973
10819SOL     OW33355   1.064   3.451   6.614
10819SOL    HW133356   1.031   3.522   6.552
10819SOL    HW233357   1.164   3.452   6.615
10820SOL     OW33358   0.132   6.755   3.679
10820SOL    HW133359   0.104   6.846   3.708
10820SOL    HW233360   0.222   6.734   3.718
10821SOL     OW33361   6.197   5.956   2.863
10821SOL    HW133362   6.284   5.906   2.876
10821SOL    HW233363   6.210   6.052   2.889
10822SOL     OW33364   1.565   3.441   2.771
10822SOL    HW133365   1.526   3.506   2.837
10822SOL    HW233366   1.493   3.413   2.707
10823SOL     OW33367   1.772   5.648   1.596
10823SOL    HW133368   1.744   5.710   1.669
10823SOL    HW233369   1.691   5.605   1.556
10824SOL     OW33370   5.254   0.155   3.471
10824SOL    HW133371   5.231   0.215   3.548
10824SOL    HW233372   5.346   0.117   3.485
10825SOL     OW33373   2.461   1.602   0.673
10825SOL    HW133374   2.429   1.692   0.704
10825SOL    HW233375   2.525   1.614   0.598
10826SOL     OW33376   6.676   3.632   2.374
10826SOL    HW133377   6.765   3.648   2.331
10826SOL    HW233378   6.604   3.643   2.305
10827SOL     OW33379   6.394   3.656   3.946
10827SOL    HW133380   6.385   3.584   4.015
10827SOL    HW233381   6.490   3.684   3.939
10828SOL     OW33382   0.924   6.004   1.545
10828SOL    HW133383   0.840   6.054   1.568
10828SOL    HW233384   0.941   6.012   1.447
10829SOL     OW33385   2.608   3.236   1.376
10829SOL    HW133386   2.593   3.328   1.411
10829SOL    HW233387   2.524   3.202   1.333
10830SOL     OW33388   5.870   2.673   4.093
10830SOL    HW133389   5.776   2.696   4.071
10830SOL    HW233390   5.912   2.750   4.143
10831SOL     OW33391   4.980   0.255   1.958
10831SOL    HW133392   5.006   0.165   1.994
10831SOL    HW233393   4.923   0.243   1.878
10832SOL     OW33394   0.549   2.267   0.860
10832SOL    HW133395   0.522   2.193   0.797
10832SOL    HW233396   0.524   2.241   0.953
10833SOL     OW33397   2.008   0.392   3.663
10833SOL    HW133398   2.020   0.490   3.678
10833SOL    HW233399   1.958   0.352   3.740
10834SOL     OW33400   0.281   1.272   5.108
10834SOL    HW133401   0.279   1.276   5.008
10834SOL    HW233402   0.361   1.219   5.138
10835SOL     OW33403   6.310   1.590   1.346
10835SOL    HW133404   6.295   1.581   1.248
10835SOL    HW233405   6.361   1.675   1.365
10836SOL     OW33406   6.710   1.837   5.378
10836SOL    HW133407   6.638   1.901   5.349
10836SOL    HW233408   6.676   1.744   5.372
10837SOL     OW33409   0.102   4.649   6.951
10837SOL    HW133410   0.007   4.649   6.982
10837SOL    HW233411   0.159   4.603   7.019
10838SOL     OW33412   5.611   0.602   5.680
10838SOL    HW133413   5.526   0.609   5.628
10838SOL    HW233414   5.668   0.529   5.642
10839SOL     OW33415   2.748   2.799   0.239
10839SOL    HW133416   2.848   2.810   0.237
10839SOL    HW233417   2.710   2.856   0.312
10840SOL     OW33418   3.678   5.898   1.287
10840SOL    HW133419   3.648   5.906   1.192
10840SOL    HW233420   3.749   5.967   1.305
10841SOL     OW33421   3.377   6.114   5.450
10841SOL    HW133422   3.339   6.073   5.533
10841SOL    HW233423   3.471   6.141   5.466
10842SOL     OW33424   6.215   2.796   0.809
10842SOL    HW133425   6.207   2.789   0.709
10842SOL    HW233426   6.228   2.705   0.847
10843SOL     OW33427   0.863   1.846   1.454
10843SOL    HW133428   0.867   1.747   1.463
10843SOL    HW233429   0.951   1.880   1.419
10844SOL     OW33430   6.570   6.497   4.432
10844SOL    HW133431   6.629   6.427   4.471
10844SOL    HW233432   6.582   6.500   4.333
10845SOL     OW33433   1.746   0.876   1.549
10845SOL    HW133434   1.725   0.897   1.454
10845SOL    HW233435   1.737   0.958   1.605
10846SOL     OW33436   4.802   2.039   0.618
10846SOL    HW133437   4.715   2.072   0.656
10846SOL    HW233438   4.794   1.941   0.600
10847SOL     OW33439   2.371   1.965   6.107
10847SOL    HW133440   2.388   1.882   6.160
10847SOL    HW233441   2.280   2.000   6.129
10848SOL     OW33442   2.617   1.718   0.073
10848SOL    HW133443   2.700   1.751   0.118
10848SOL    HW233444   2.538   1.731   0.133
10849SOL     OW33445   3.898   4.975   3.839
10849SOL    HW133446   3.902   4.938   3.932
10849SOL    HW233447   3.809   5.018   3.823
10850SOL     OW33448   3.857   6.867   6.972
10850SOL    HW133449   3.884   6.832   0.039
10850SOL    HW233450   3.762   6.841   6.954
10851SOL     OW33451   2.835   2.767   6.154
10851SOL    HW133452   2.744   2.733   6.129
10851SOL    HW233453   2.841   2.772   6.254
10852SOL     OW33454   0.303   0.377   6.703
10852SOL    HW133455   0.299   0.393   6.802
10852SOL    HW233456   0.235   0.434   6.657
10853SOL     OW33457   3.664   1.819   4.289
10853SOL    HW133458   3.586   1.878   4.272
10853SOL    HW233459   3.722   1.815   4.208
10854SOL     OW33460   6.119   0.142   6.819
10854SOL    HW133461   6.023   0.127   6.843
10854SOL    HW233462   6.174   0.065   6.853
10855SOL     OW33463   2.658   6.031   2.809
10855SOL    HW133464   2.626   6.123   2.785
10855SOL    HW233465   2.643   5.969   2.732
10856SOL     OW33466   6.264   0.248   1.045
10856SOL    HW133467   6.191   0.305   1.008
10856SOL    HW233468   6.330   0.227   0.972
10857SOL     OW33469   6.304   2.948   3.149
10857SOL    HW133470   6.270   3.006   3.075
10857SOL    HW233471   6.322   3.004   3.230
10858SOL     OW33472   1.898   3.183   6.841
10858SOL    HW133473   1.863   3.195   6.934
10858SOL    HW233474   1.957   3.260   6.818
10859SOL     OW33475   1.541   3.522   3.473
10859SOL    HW133476   1.586   3.470   3.545
10859SOL    HW233477   1.587   3.504   3.386
10860SOL     OW33478   6.673   0.901   6.948
10860SOL    HW133479   6.734   0.940   6.880
10860SOL    HW233480   6.686   0.947   0.013
10861SOL     OW33481   3.809   2.557   1.695
10861SOL    HW133482   3.896   2.525   1.657
10861SOL    HW233483   3.765   2.481   1.743
10862SOL     OW33484   2.435   1.759   6.285
10862SOL    HW133485   2.533   1.777   6.289
10862SOL    HW233486   2.391   1.795   6.367
10863SOL     OW33487   2.832   0.493   3.251
10863SOL    HW133488   2.784   0.546   3.321
10863SOL    HW233489   2.793   0.513   3.161
10864SOL     OW33490   2.123   4.649   1.700
10864SOL    HW133491   2.222   4.636   1.698
10864SOL    HW233492   2.078   4.560   1.709
10865SOL     OW33493   5.837   3.167   3.717
10865SOL    HW133494   5.890   3.252   3.712
10865SOL    HW233495   5.844   3.118   3.629
10866SOL     OW33496   5.606   3.053   0.872
10866SOL    HW133497   5.526   3.059   0.812
10866SOL    HW233498   5.576   3.038   0.966
10867SOL     OW33499   2.954   2.800   0.599
10867SOL    HW133500   2.985   2.725   0.658
10867SOL    HW233501   3.032   2.839   0.551
10868SOL     OW33502   1.315   2.074   2.978
10868SOL    HW133503   1.375   2.144   2.939
10868SOL    HW233504   1.226   2.113   2.999
10869NA      NA33505   0.858   1.911   6.392
10870NA      NA33506   4.480   4.583   5.150
10871NA      NA33507   1.719   4.669   2.724
10872NA      NA33508   5.126   4.501   3.781
10873NA      NA33509   4.331   2.409   5.247
10874NA      NA33510   3.042   4.791   1.626
10875NA      NA33511   1.215   4.735   0.073
10876NA      NA33512   3.953   4.419   1.596
10877NA      NA33513   4.492   3.930   0.929
10878NA      NA33514   3.657   1.310   5.673
10879NA      NA33515   4.824   5.756   1.795
10880NA      NA33516   1.595   0.388   5.887
10881NA      NA33517   5.017   4.892   2.023
10882NA      NA33518   3.399   3.405   0.535
   7.02281   7.02281   7.02281
